Generated by trjconv : CNT in water t= 394.00000
33518
    1C        C    1   2.848   2.770   4.748
    1C        C    2   2.898   2.718   4.869
    1C        C    3   2.844   2.774   4.987
    1C        C    4   2.851   2.772   4.262
    1C        C    5   2.902   2.723   4.384
    1C        C    6   2.846   2.770   4.505
    1C        C    7   3.015   2.638   4.628
    1C        C    8   2.904   2.726   4.626
    1C        C    9   3.075   2.598   4.750
    1C        C   10   3.008   2.630   4.870
    1C        C   11   3.184   2.495   4.984
    1C        C   12   3.060   2.560   4.980
    1C        C   13   2.851   2.767   3.772
    1C        C   14   2.902   2.722   3.896
    1C        C   15   2.856   2.776   4.018
    1C        C   16   3.017   2.640   4.143
    1C        C   17   2.905   2.726   4.140
    1C        C   18   3.080   2.606   4.265
    1C        C   19   3.018   2.642   4.386
    1C        C   20   3.208   2.547   4.510
    1C        C   21   3.078   2.601   4.507
    1C        C   22   3.279   2.532   4.632
    1C        C   23   3.208   2.548   4.753
    1C        C   24   3.414   2.485   4.866
    1C        C   25   3.272   2.502   4.871
    1C        C   26   3.492   2.479   4.983
    1C        C   27   2.853   2.771   3.283
    1C        C   28   2.906   2.725   3.406
    1C        C   29   2.853   2.773   3.528
    1C        C   30   3.019   2.639   3.653
    1C        C   31   2.906   2.723   3.649
    1C        C   32   3.077   2.600   3.776
    1C        C   33   3.016   2.639   3.898
    1C        C   34   3.207   2.547   4.023
    1C        C   35   3.077   2.603   4.020
    1C        C   36   3.278   2.526   4.143
    1C        C   37   3.208   2.545   4.265
    1C        C   38   3.416   2.509   4.383
    1C        C   39   3.276   2.530   4.387
    1C        C   40   3.487   2.502   4.504
    1C        C   41   3.417   2.505   4.627
    1C        C   42   3.633   2.485   4.749
    1C        C   43   3.491   2.484   4.746
    1C        C   44   3.710   2.491   4.867
    1C        C   45   3.631   2.487   4.982
    1C        C   46   2.837   2.749   2.795
    1C        C   47   2.893   2.707   2.917
    1C        C   48   2.843   2.757   3.039
    1C        C   49   3.018   2.638   3.163
    1C        C   50   2.903   2.720   3.161
    1C        C   51   3.079   2.602   3.286
    1C        C   52   3.017   2.638   3.408
    1C        C   53   3.207   2.544   3.531
    1C        C   54   3.080   2.605   3.530
    1C        C   55   3.273   2.518   3.653
    1C        C   56   3.207   2.544   3.775
    1C        C   57   3.410   2.503   3.895
    1C        C   58   3.271   2.523   3.899
    1C        C   59   3.484   2.499   4.015
    1C        C   60   3.417   2.503   4.140
    1C        C   61   3.629   2.501   4.261
    1C        C   62   3.488   2.501   4.262
    1C        C   63   3.700   2.510   4.383
    1C        C   64   3.628   2.505   4.504
    1C        C   65   3.836   2.546   4.624
    1C        C   66   3.699   2.510   4.626
    1C        C   67   3.908   2.565   4.744
    1C        C   68   3.847   2.526   4.865
    1C        C   69   4.057   2.586   4.977
    1C        C   70   3.928   2.531   4.978
    1C        C   71   2.824   2.734   2.310
    1C        C   72   2.885   2.693   2.430
    1C        C   73   2.830   2.743   2.550
    1C        C   74   3.007   2.626   2.670
    1C        C   75   2.888   2.702   2.672
    1C        C   76   3.073   2.601   2.793
    1C        C   77   3.015   2.635   2.918
    1C        C   78   3.204   2.540   3.039
    1C        C   79   3.076   2.600   3.040
    1C        C   80   3.271   2.521   3.161
    1C        C   81   3.208   2.544   3.285
    1C        C   82   3.413   2.498   3.405
    1C        C   83   3.274   2.523   3.408
    1C        C   84   3.485   2.492   3.527
    1C        C   85   3.414   2.502   3.649
    1C        C   86   3.622   2.497   3.769
    1C        C   87   3.481   2.495   3.773
    1C        C   88   3.693   2.509   3.891
    1C        C   89   3.625   2.503   4.015
    1C        C   90   3.831   2.554   4.136
    1C        C   91   3.696   2.511   4.137
    1C        C   92   3.898   2.576   4.257
    1C        C   93   3.835   2.551   4.381
    1C        C   94   4.029   2.639   4.501
    1C        C   95   3.903   2.575   4.503
    1C        C   96   4.090   2.680   4.621
    1C        C   97   4.035   2.630   4.741
    1C        C   98   4.194   2.768   4.863
    1C        C   99   4.107   2.654   4.861
    1C        C  100   4.224   2.837   4.981
    1C        C  101   2.822   2.733   2.073
    1C        C  102   2.992   2.594   2.184
    1C        C  103   2.877   2.679   2.190
    1C        C  104   3.062   2.574   2.306
    1C        C  105   3.002   2.614   2.427
    1C        C  106   3.198   2.531   2.551
    1C        C  107   3.068   2.587   2.549
    1C        C  108   3.269   2.518   2.672
    1C        C  109   3.203   2.546   2.794
    1C        C  110   3.409   2.493   2.914
    1C        C  111   3.270   2.519   2.915
    1C        C  112   3.478   2.482   3.037
    1C        C  113   3.410   2.496   3.160
    1C        C  114   3.623   2.498   3.283
    1C        C  115   3.482   2.491   3.282
    1C        C  116   3.696   2.512   3.403
    1C        C  117   3.626   2.498   3.525
    1C        C  118   3.830   2.549   3.648
    1C        C  119   3.693   2.511   3.648
    1C        C  120   3.894   2.575   3.770
    1C        C  121   3.829   2.550   3.893
    1C        C  122   4.024   2.639   4.012
    1C        C  123   3.899   2.574   4.013
    1C        C  124   4.084   2.676   4.135
    1C        C  125   4.025   2.639   4.258
    1C        C  126   4.196   2.769   4.376
    1C        C  127   4.087   2.679   4.379
    1C        C  128   4.254   2.815   4.497
    1C        C  129   4.200   2.769   4.619
    1C        C  130   4.329   2.937   4.740
    1C        C  131   4.246   2.822   4.742
    1C        C  132   4.358   3.006   4.860
    1C        C  133   4.294   2.958   4.975
    1C        C  134   3.171   2.464   2.080
    1C        C  135   3.039   2.508   2.079
    1C        C  136   3.259   2.478   2.188
    1C        C  137   3.194   2.521   2.306
    1C        C  138   3.402   2.483   2.428
    1C        C  139   3.262   2.500   2.428
    1C        C  140   3.476   2.486   2.548
    1C        C  141   3.408   2.493   2.671
    1C        C  142   3.621   2.497   2.794
    1C        C  143   3.480   2.487   2.792
    1C        C  144   3.692   2.500   2.916
    1C        C  145   3.619   2.494   3.037
    1C        C  146   3.827   2.543   3.156
    1C        C  147   3.690   2.507   3.159
    1C        C  148   3.895   2.576   3.275
    1C        C  149   3.831   2.554   3.400
    1C        C  150   4.022   2.633   3.523
    1C        C  151   3.895   2.571   3.524
    1C        C  152   4.082   2.673   3.645
    1C        C  153   4.021   2.637   3.767
    1C        C  154   4.191   2.766   3.889
    1C        C  155   4.080   2.678   3.888
    1C        C  156   4.245   2.815   4.010
    1C        C  157   4.194   2.765   4.132
    1C        C  158   4.334   2.927   4.253
    1C        C  159   4.243   2.819   4.253
    1C        C  160   4.377   2.985   4.375
    1C        C  161   4.334   2.931   4.498
    1C        C  162   4.446   3.114   4.615
    1C        C  163   4.375   2.992   4.619
    1C        C  164   4.470   3.185   4.735
    1C        C  165   4.438   3.122   4.857
    1C        C  166   4.513   3.323   4.976
    1C        C  167   4.479   3.188   4.974
    1C        C  168   3.477   2.439   2.074
    1C        C  169   3.400   2.463   2.188
    1C        C  170   3.617   2.471   2.308
    1C        C  171   3.475   2.468   2.308
    1C        C  172   3.690   2.491   2.427
    1C        C  173   3.618   2.488   2.548
    1C        C  174   3.823   2.542   2.667
    1C        C  175   3.687   2.505   2.670
    1C        C  176   3.890   2.566   2.789
    1C        C  177   3.828   2.540   2.914
    1C        C  178   4.021   2.630   3.032
    1C        C  179   3.895   2.566   3.035
    1C        C  180   4.083   2.669   3.153
    1C        C  181   4.021   2.639   3.276
    1C        C  182   4.193   2.756   3.398
    1C        C  183   4.081   2.670   3.400
    1C        C  184   4.245   2.807   3.519
    1C        C  185   4.194   2.760   3.642
    1C        C  186   4.331   2.920   3.765
    1C        C  187   4.242   2.810   3.765
    1C        C  188   4.372   2.981   3.886
    1C        C  189   4.336   2.923   4.010
    1C        C  190   4.447   3.105   4.128
    1C        C  191   4.378   2.982   4.131
    1C        C  192   4.472   3.173   4.249
    1C        C  193   4.444   3.110   4.373
    1C        C  194   4.511   3.314   4.492
    1C        C  195   4.473   3.178   4.493
    1C        C  196   4.525   3.387   4.612
    1C        C  197   4.512   3.321   4.737
    1C        C  198   4.555   3.536   4.852
    1C        C  199   4.532   3.394   4.857
    1C        C  200   4.582   3.621   4.964
    1C        C  201   3.617   2.424   2.071
    1C        C  202   3.824   2.518   2.186
    1C        C  203   3.691   2.466   2.186
    1C        C  204   3.899   2.541   2.305
    1C        C  205   3.828   2.524   2.426
    1C        C  206   4.020   2.621   2.545
    1C        C  207   3.894   2.556   2.546
    1C        C  208   4.080   2.662   2.666
    1C        C  209   4.015   2.631   2.787
    1C        C  210   4.194   2.746   2.907
    1C        C  211   4.082   2.661   2.908
    1C        C  212   4.248   2.796   3.028
    1C        C  213   4.198   2.752   3.153
    1C        C  214   4.336   2.912   3.275
    1C        C  215   4.244   2.804   3.276
    1C        C  216   4.376   2.972   3.397
    1C        C  217   4.330   2.920   3.520
    1C        C  218   4.439   3.102   3.640
    1C        C  219   4.372   2.977   3.643
    1C        C  220   4.464   3.169   3.761
    1C        C  221   4.440   3.105   3.885
    1C        C  222   4.504   3.308   4.005
    1C        C  223   4.473   3.170   4.005
    1C        C  224   4.516   3.380   4.126
    1C        C  225   4.508   3.310   4.248
    1C        C  226   4.522   3.524   4.370
    1C        C  227   4.518   3.382   4.369
    1C        C  228   4.520   3.599   4.490
    1C        C  229   4.528   3.528   4.612
    1C        C  230   4.498   3.743   4.729
    1C        C  231   4.532   3.605   4.730
    1C        C  232   4.493   3.819   4.848
    1C        C  233   4.545   3.756   4.962
    1C        C  234   4.015   2.615   2.065
    1C        C  235   3.894   2.548   2.068
    1C        C  236   4.085   2.651   2.181
    1C        C  237   4.023   2.610   2.301
    1C        C  238   4.197   2.738   2.420
    1C        C  239   4.080   2.656   2.422
    1C        C  240   4.250   2.786   2.542
    1C        C  241   4.195   2.745   2.665
    1C        C  242   4.336   2.905   2.786
    1C        C  243   4.249   2.794   2.786
    1C        C  244   4.381   2.961   2.908
    1C        C  245   4.342   2.901   3.030
    1C        C  246   4.440   3.092   3.151
    1C        C  247   4.377   2.965   3.151
    1C        C  248   4.457   3.162   3.272
    1C        C  249   4.430   3.102   3.397
    1C        C  250   4.503   3.304   3.517
    1C        C  251   4.465   3.167   3.518
    1C        C  252   4.516   3.374   3.639
    1C        C  253   4.503   3.305   3.762
    1C        C  254   4.522   3.518   3.879
    1C        C  255   4.516   3.377   3.883
    1C        C  256   4.520   3.590   4.000
    1C        C  257   4.516   3.522   4.124
    1C        C  258   4.489   3.731   4.242
    1C        C  259   4.513   3.592   4.246
    1C        C  260   4.473   3.802   4.363
    1C        C  261   4.489   3.736   4.486
    1C        C  262   4.420   3.940   4.605
    1C        C  263   4.468   3.807   4.607
    1C        C  264   4.398   4.012   4.724
    1C        C  265   4.432   3.947   4.844
    1C        C  266   4.324   4.136   4.958
    1C        C  267   4.394   4.015   4.960
    1C        C  268   4.267   2.776   2.064
    1C        C  269   4.199   2.734   2.179
    1C        C  270   4.348   2.890   2.302
    1C        C  271   4.253   2.784   2.300
    1C        C  272   4.388   2.953   2.422
    1C        C  273   4.342   2.894   2.542
    1C        C  274   4.448   3.081   2.661
    1C        C  275   4.375   2.960   2.662
    1C        C  276   4.477   3.147   2.783
    1C        C  277   4.447   3.085   2.906
    1C        C  278   4.507   3.290   3.025
    1C        C  279   4.470   3.154   3.028
    1C        C  280   4.510   3.364   3.146
    1C        C  281   4.497   3.298   3.270
    1C        C  282   4.520   3.509   3.391
    1C        C  283   4.513   3.368   3.392
    1C        C  284   4.516   3.582   3.513
    1C        C  285   4.520   3.515   3.637
    1C        C  286   4.490   3.728   3.756
    1C        C  287   4.516   3.589   3.757
    1C        C  288   4.470   3.796   3.878
    1C        C  289   4.495   3.730   4.000
    1C        C  290   4.429   3.935   4.119
    1C        C  291   4.474   3.801   4.120
    1C        C  292   4.394   4.000   4.240
    1C        C  293   4.422   3.934   4.362
    1C        C  294   4.319   4.125   4.482
    1C        C  295   4.389   4.002   4.482
    1C        C  296   4.282   4.190   4.601
    1C        C  297   4.328   4.136   4.723
    1C        C  298   4.200   4.317   4.840
    1C        C  299   4.285   4.202   4.841
    1C        C  300   4.167   4.404   4.949
    1C        C  301   4.354   2.884   2.063
    1C        C  302   4.468   3.069   2.181
    1C        C  303   4.401   2.942   2.181
    1C        C  304   4.481   3.144   2.301
    1C        C  305   4.454   3.078   2.423
    1C        C  306   4.517   3.285   2.537
    1C        C  307   4.483   3.148   2.542
    1C        C  308   4.522   3.354   2.660
    1C        C  309   4.508   3.285   2.783
    1C        C  310   4.529   3.500   2.900
    1C        C  311   4.522   3.359   2.902
    1C        C  312   4.519   3.571   3.022
    1C        C  313   4.517   3.505   3.147
    1C        C  314   4.484   3.714   3.266
    1C        C  315   4.519   3.577   3.268
    1C        C  316   4.465   3.785   3.387
    1C        C  317   4.487   3.720   3.511
    1C        C  318   4.418   3.924   3.628
    1C        C  319   4.466   3.791   3.632
    1C        C  320   4.388   3.989   3.750
    1C        C  321   4.420   3.928   3.873
    1C        C  322   4.312   4.108   3.991
    1C        C  323   4.395   3.994   3.996
    1C        C  324   4.271   4.168   4.112
    1C        C  325   4.319   4.119   4.236
    1C        C  326   4.182   4.281   4.357
    1C        C  327   4.279   4.178   4.357
    1C        C  328   4.137   4.343   4.476
    1C        C  329   4.188   4.296   4.599
    1C        C  330   4.026   4.442   4.714
    1C        C  331   4.138   4.354   4.717
    1C        C  332   3.974   4.500   4.831
    1C        C  333   4.051   4.483   4.947
    1C        C  334   4.554   3.268   2.063
    1C        C  335   4.531   3.130   2.069
    1C        C  336   4.537   3.352   2.174
    1C        C  337   4.515   3.282   2.295
    1C        C  338   4.526   3.497   2.412
    1C        C  339   4.519   3.356   2.415
    1C        C  340   4.520   3.566   2.535
    1C        C  341   4.525   3.495   2.657
    1C        C  342   4.495   3.708   2.777
    1C        C  343   4.524   3.569   2.778
    1C        C  344   4.473   3.777   2.898
    1C        C  345   4.496   3.711   3.021
    1C        C  346   4.420   3.911   3.141
    1C        C  347   4.473   3.780   3.142
    1C        C  348   4.384   3.980   3.259
    1C        C  349   4.420   3.919   3.382
    1C        C  350   4.311   4.102   3.504
    1C        C  351   4.387   3.982   3.503
    1C        C  352   4.272   4.165   3.624
    1C        C  353   4.318   4.112   3.746
    1C        C  354   4.177   4.272   3.870
    1C        C  355   4.271   4.166   3.868
    1C        C  356   4.122   4.321   3.990
    1C        C  357   4.173   4.269   4.112
    1C        C  358   4.014   4.408   4.231
    1C        C  359   4.125   4.321   4.234
    1C        C  360   3.957   4.455   4.352
    1C        C  361   4.024   4.428   4.473
    1C        C  362   3.830   4.524   4.592
    1C        C  363   3.960   4.468   4.592
    1C        C  364   3.764   4.549   4.714
    1C        C  365   3.839   4.541   4.834
    1C        C  366   3.628   4.596   4.951
    1C        C  367   3.766   4.576   4.948
    1C        C  368   4.502   3.562   2.053
    1C        C  369   4.531   3.493   2.172
    1C        C  370   4.504   3.708   2.288
    1C        C  371   4.528   3.569   2.291
    1C        C  372   4.484   3.775   2.411
    1C        C  373   4.499   3.706   2.533
    1C        C  374   4.422   3.905   2.653
    1C        C  375   4.479   3.775   2.654
    1C        C  376   4.390   3.971   2.773
    1C        C  377   4.420   3.908   2.896
    1C        C  378   4.316   4.093   3.011
    1C        C  379   4.391   3.973   3.018
    1C        C  380   4.271   4.153   3.131
    1C        C  381   4.308   4.098   3.255
    1C        C  382   4.178   4.261   3.378
    1C        C  383   4.272   4.155   3.379
    1C        C  384   4.127   4.316   3.498
    1C        C  385   4.176   4.268   3.622
    1C        C  386   4.009   4.395   3.743
    1C        C  387   4.125   4.315   3.746
    1C        C  388   3.949   4.437   3.864
    1C        C  389   4.010   4.408   3.988
    1C        C  390   3.822   4.503   4.108
    1C        C  391   3.952   4.447   4.110
    1C        C  392   3.754   4.523   4.231
    1C        C  393   3.828   4.512   4.350
    1C        C  394   3.619   4.555   4.475
    1C        C  395   3.759   4.537   4.471
    1C        C  396   3.547   4.563   4.597
    1C        C  397   3.623   4.565   4.715
    1C        C  398   3.411   4.557   4.840
    1C        C  399   3.551   4.578   4.836
    1C        C  400   3.343   4.522   4.958
    1C        C  401   4.501   3.701   2.050
    1C        C  402   4.453   3.914   2.167
    1C        C  403   4.492   3.778   2.166
    1C        C  404   4.412   3.975   2.288
    1C        C  405   4.433   3.907   2.409
    1C        C  406   4.327   4.093   2.526
    1C        C  407   4.398   3.971   2.530
    1C        C  408   4.280   4.154   2.645
    1C        C  409   4.317   4.091   2.766
    1C        C  410   4.179   4.253   2.890
    1C        C  411   4.274   4.149   2.888
    1C        C  412   4.127   4.304   3.011
    1C        C  413   4.175   4.258   3.135
    1C        C  414   4.006   4.387   3.255
    1C        C  415   4.123   4.308   3.257
    1C        C  416   3.945   4.423   3.377
    1C        C  417   4.009   4.393   3.499
    1C        C  418   3.818   4.487   3.621
    1C        C  419   3.947   4.429   3.621
    1C        C  420   3.753   4.513   3.743
    1C        C  421   3.822   4.497   3.866
    1C        C  422   3.613   4.540   3.986
    1C        C  423   3.753   4.521   3.987
    1C        C  424   3.542   4.546   4.109
    1C        C  425   3.613   4.539   4.231
    1C        C  426   3.406   4.551   4.357
    1C        C  427   3.547   4.557   4.354
    1C        C  428   3.334   4.549   4.478
    1C        C  429   3.406   4.557   4.600
    1C        C  430   3.195   4.523   4.724
    1C        C  431   3.335   4.551   4.722
    1C        C  432   3.125   4.495   4.845
    1C        C  433   3.206   4.497   4.959
    1C        C  434   4.387   4.122   2.055
    1C        C  435   4.447   3.996   2.054
    1C        C  436   4.306   4.165   2.165
    1C        C  437   4.331   4.092   2.285
    1C        C  438   4.183   4.249   2.404
    1C        C  439   4.283   4.149   2.404
    1C        C  440   4.130   4.300   2.524
    1C        C  441   4.182   4.255   2.647
    1C        C  442   4.004   4.375   2.767
    1C        C  443   4.123   4.298   2.768
    1C        C  444   3.947   4.416   2.890
    1C        C  445   4.011   4.384   3.012
    1C        C  446   3.816   4.476   3.130
    1C        C  447   3.946   4.420   3.132
    1C        C  448   3.749   4.497   3.253
    1C        C  449   3.815   4.478   3.377
    1C        C  450   3.611   4.532   3.497
    1C        C  451   3.751   4.509   3.499
    1C        C  452   3.543   4.541   3.620
    1C        C  453   3.614   4.539   3.742
    1C        C  454   3.402   4.544   3.865
    1C        C  455   3.543   4.548   3.864
    1C        C  456   3.333   4.533   3.987
    1C        C  457   3.401   4.541   4.111
    1C        C  458   3.197   4.504   4.236
    1C        C  459   3.336   4.533   4.236
    1C        C  460   3.129   4.487   4.359
    1C        C  461   3.196   4.519   4.479
    1C        C  462   3.002   4.436   4.605
    1C        C  463   3.129   4.499   4.602
    1C        C  464   2.931   4.406   4.723
    1C        C  465   2.991   4.446   4.845
    1C        C  466   2.807   4.340   4.957
    1C        C  467   2.910   4.435   4.963
    1C        C  468   4.127   4.286   2.042
    1C        C  469   4.191   4.250   2.161
    1C        C  470   4.009   4.371   2.279
    1C        C  471   4.128   4.293   2.281
    1C        C  472   3.945   4.405   2.400
    1C        C  473   4.010   4.376   2.522
    1C        C  474   3.817   4.469   2.642
    1C        C  475   3.946   4.411   2.643
    1C        C  476   3.749   4.496   2.763
    1C        C  477   3.818   4.472   2.884
    1C        C  478   3.611   4.521   3.007
    1C        C  479   3.750   4.494   3.006
    1C        C  480   3.540   4.529   3.129
    1C        C  481   3.610   4.520   3.251
    1C        C  482   3.400   4.532   3.375
    1C        C  483   3.542   4.536   3.374
    1C        C  484   3.332   4.527   3.499
    1C        C  485   3.401   4.537   3.621
    1C        C  486   3.193   4.497   3.746
    1C        C  487   3.330   4.533   3.743
    1C        C  488   3.128   4.476   3.870
    1C        C  489   3.195   4.502   3.992
    1C        C  490   3.005   4.414   4.117
    1C        C  491   3.127   4.485   4.115
    1C        C  492   2.946   4.377   4.240
    1C        C  493   3.005   4.420   4.361
    1C        C  494   2.834   4.302   4.486
    1C        C  495   2.942   4.393   4.484
    1C        C  496   2.776   4.256   4.606
    1C        C  497   2.821   4.315   4.726
    1C        C  498   2.669   4.163   4.846
    1C        C  499   2.761   4.270   4.845
    1C        C  500   2.599   4.115   4.958
    1C        C  501   4.010   4.361   2.043
    1C        C  502   3.817   4.465   2.153
    1C        C  503   3.945   4.406   2.159
    1C        C  504   3.749   4.484   2.276
    1C        C  505   3.815   4.459   2.398
    1C        C  506   3.610   4.512   2.518
    1C        C  507   3.748   4.486   2.520
    1C        C  508   3.539   4.517   2.640
    1C        C  509   3.609   4.518   2.762
    1C        C  510   3.399   4.532   2.886
    1C        C  511   3.540   4.526   2.885
    1C        C  512   3.327   4.524   3.007
    1C        C  513   3.399   4.531   3.129
    1C        C  514   3.193   4.489   3.255
    1C        C  515   3.331   4.522   3.252
    1C        C  516   3.128   4.466   3.378
    1C        C  517   3.195   4.494   3.499
    1C        C  518   3.002   4.411   3.624
    1C        C  519   3.130   4.473   3.623
    1C        C  520   2.945   4.374   3.747
    1C        C  521   3.003   4.410   3.871
    1C        C  522   2.835   4.286   3.998
    1C        C  523   2.946   4.374   3.995
    1C        C  524   2.785   4.238   4.122
    1C        C  525   2.835   4.290   4.243
    1C        C  526   2.695   4.136   4.365
    1C        C  527   2.780   4.249   4.367
    1C        C  528   2.650   4.080   4.486
    1C        C  529   2.690   4.144   4.606
    1C        C  530   2.583   3.962   4.733
    1C        C  531   2.642   4.091   4.728
    1C        C  532   2.538   3.902   4.854
    1C        C  533   2.522   3.998   4.959
    1C        C  534   3.618   4.561   2.041
    1C        C  535   3.751   4.518   2.041
    1C        C  536   3.538   4.533   2.156
    1C        C  537   3.611   4.519   2.278
    1C        C  538   3.395   4.521   2.399
    1C        C  539   3.536   4.524   2.397
    1C        C  540   3.326   4.517   2.522
    1C        C  541   3.397   4.518   2.644
    1C        C  542   3.190   4.485   2.766
    1C        C  543   3.326   4.523   2.766
    1C        C  544   3.123   4.465   2.889
    1C        C  545   3.190   4.491   3.010
    1C        C  546   2.999   4.405   3.134
    1C        C  547   3.124   4.471   3.134
    1C        C  548   2.942   4.368   3.258
    1C        C  549   3.000   4.405   3.381
    1C        C  550   2.832   4.280   3.507
    1C        C  551   2.939   4.372   3.504
    1C        C  552   2.785   4.230   3.630
    1C        C  553   2.838   4.282   3.750
    1C        C  554   2.703   4.125   3.872
    1C        C  555   2.788   4.238   3.875
    1C        C  556   2.669   4.066   3.996
    1C        C  557   2.698   4.127   4.119
    1C        C  558   2.601   3.943   4.248
    1C        C  559   2.662   4.070   4.244
    1C        C  560   2.567   3.880   4.370
    1C        C  561   2.588   3.953   4.490
    1C        C  562   2.531   3.752   4.615
    1C        C  563   2.567   3.888   4.613
    1C        C  564   2.509   3.682   4.736
    1C        C  565   2.516   3.761   4.854
    1C        C  566   2.522   3.548   4.979
    1C        C  567   2.521   3.687   4.973
    1C        C  568   3.328   4.474   2.041
    1C        C  569   3.398   4.512   2.156
    1C        C  570   3.186   4.478   2.283
    1C        C  571   3.324   4.511   2.278
    1C        C  572   3.117   4.459   2.405
    1C        C  573   3.188   4.487   2.524
    1C        C  574   2.992   4.403   2.648
    1C        C  575   3.119   4.464   2.645
    1C        C  576   2.932   4.367   2.770
    1C        C  577   3.000   4.396   2.890
    1C        C  578   2.828   4.274   3.017
    1C        C  579   2.941   4.359   3.013
    1C        C  580   2.781   4.227   3.141
    1C        C  581   2.834   4.276   3.262
    1C        C  582   2.697   4.117   3.384
    1C        C  583   2.782   4.229   3.385
    1C        C  584   2.662   4.058   3.508
    1C        C  585   2.695   4.121   3.630
    1C        C  586   2.594   3.937   3.754
    1C        C  587   2.658   4.063   3.753
    1C        C  588   2.571   3.876   3.880
    1C        C  589   2.603   3.941   4.001
    1C        C  590   2.536   3.743   4.128
    1C        C  591   2.577   3.878   4.125
    1C        C  592   2.521   3.673   4.249
    1C        C  593   2.534   3.743   4.371
    1C        C  594   2.520   3.535   4.499
    1C        C  595   2.524   3.677   4.496
    1C        C  596   2.519   3.465   4.621
    1C        C  597   2.504   3.539   4.741
    1C        C  598   2.528   3.330   4.861
    1C        C  599   2.509   3.470   4.863
    1C        C  600   2.525   3.248   4.975
    1C        C  601   3.194   4.441   2.040
    1C        C  602   2.985   4.402   2.162
    1C        C  603   3.123   4.441   2.161
    1C        C  604   2.925   4.364   2.285
    1C        C  605   2.989   4.399   2.406
    1C        C  606   2.823   4.267   2.530
    1C        C  607   2.931   4.358   2.528
    1C        C  608   2.773   4.219   2.654
    1C        C  609   2.825   4.274   2.773
    1C        C  610   2.684   4.117   2.897
    1C        C  611   2.774   4.226   2.896
    1C        C  612   2.650   4.058   3.021
    1C        C  613   2.692   4.117   3.143
    1C        C  614   2.597   3.925   3.266
    1C        C  615   2.657   4.053   3.264
    1C        C  616   2.570   3.863   3.389
    1C        C  617   2.603   3.930   3.509
    1C        C  618   2.534   3.733   3.639
    1C        C  619   2.572   3.869   3.632
    1C        C  620   2.522   3.668   3.764
    1C        C  621   2.537   3.739   3.885
    1C        C  622   2.519   3.529   4.010
    1C        C  623   2.523   3.670   4.008
    1C        C  624   2.519   3.460   4.133
    1C        C  625   2.513   3.532   4.254
    1C        C  626   2.546   3.324   4.380
    1C        C  627   2.520   3.463   4.377
    1C        C  628   2.564   3.254   4.501
    1C        C  629   2.544   3.326   4.621
    1C        C  630   2.600   3.122   4.745
    1C        C  631   2.553   3.256   4.743
    1C        C  632   2.620   3.051   4.866
    1C        C  633   2.561   3.113   4.981
    1C        C  634   2.785   4.306   2.055
    1C        C  635   2.892   4.397   2.054
    1C        C  636   2.750   4.233   2.169
    1C        C  637   2.812   4.278   2.288
    1C        C  638   2.683   4.107   2.411
    1C        C  639   2.769   4.220   2.409
    1C        C  640   2.647   4.047   2.533
    1C        C  641   2.684   4.110   2.654
    1C        C  642   2.589   3.922   2.779
    1C        C  643   2.644   4.053   2.778
    1C        C  644   2.565   3.858   2.902
    1C        C  645   2.593   3.929   3.021
    1C        C  646   2.528   3.727   3.151
    1C        C  647   2.569   3.862   3.143
    1C        C  648   2.511   3.656   3.273
    1C        C  649   2.529   3.727   3.393
    1C        C  650   2.517   3.520   3.520
    1C        C  651   2.520   3.662   3.518
    1C        C  652   2.519   3.453   3.644
    1C        C  653   2.517   3.527   3.764
    1C        C  654   2.535   3.318   3.889
    1C        C  655   2.517   3.458   3.887
    1C        C  656   2.556   3.252   4.012
    1C        C  657   2.544   3.321   4.135
    1C        C  658   2.613   3.122   4.260
    1C        C  659   2.561   3.253   4.258
    1C        C  660   2.645   3.057   4.382
    1C        C  661   2.607   3.120   4.503
    1C        C  662   2.715   2.938   4.628
    1C        C  663   2.640   3.058   4.626
    1C        C  664   2.754   2.877   4.749
    1C        C  665   2.703   2.934   4.868
    1C        C  666   2.753   2.879   4.987
    1C        C  667   2.685   4.025   2.055
    1C        C  668   2.688   4.106   2.169
    1C        C  669   2.599   3.911   2.293
    1C        C  670   2.648   4.044   2.289
    1C        C  671   2.568   3.848   2.415
    1C        C  672   2.587   3.919   2.536
    1C        C  673   2.526   3.717   2.662
    1C        C  674   2.564   3.853   2.659
    1C        C  675   2.514   3.651   2.786
    1C        C  676   2.533   3.720   2.908
    1C        C  677   2.508   3.512   3.030
    1C        C  678   2.521   3.653   3.031
    1C        C  679   2.512   3.443   3.153
    1C        C  680   2.503   3.515   3.274
    1C        C  681   2.535   3.309   3.400
    1C        C  682   2.514   3.448   3.398
    1C        C  683   2.553   3.243   3.523
    1C        C  684   2.535   3.312   3.645
    1C        C  685   2.611   3.117   3.771
    1C        C  686   2.558   3.248   3.769
    1C        C  687   2.646   3.056   3.894
    1C        C  688   2.611   3.122   4.014
    1C        C  689   2.717   2.941   4.139
    1C        C  690   2.640   3.059   4.137
    1C        C  691   2.760   2.881   4.260
    1C        C  692   2.716   2.935   4.383
    1C        C  693   2.755   2.878   4.506
    1C        C  694   2.627   3.898   2.055
    1C        C  695   2.526   3.708   2.177
    1C        C  696   2.583   3.837   2.173
    1C        C  697   2.511   3.639   2.299
    1C        C  698   2.527   3.713   2.418
    1C        C  699   2.489   3.506   2.543
    1C        C  700   2.509   3.646   2.541
    1C        C  701   2.494   3.437   2.666
    1C        C  702   2.502   3.510   2.787
    1C        C  703   2.531   3.301   2.910
    1C        C  704   2.504   3.440   2.909
    1C        C  705   2.550   3.234   3.033
    1C        C  706   2.543   3.305   3.155
    1C        C  707   2.606   3.106   3.280
    1C        C  708   2.559   3.239   3.279
    1C        C  709   2.634   3.045   3.404
    1C        C  710   2.608   3.113   3.526
    1C        C  711   2.718   2.934   3.652
    1C        C  712   2.638   3.051   3.649
    1C        C  713   2.765   2.879   3.773
    1C        C  714   2.720   2.935   3.895
    1C        C  715   2.762   2.882   4.019
    1C        C  716   2.447   3.501   2.063
    1C        C  717   2.493   3.634   2.063
    1C        C  718   2.464   3.424   2.183
    1C        C  719   2.488   3.498   2.302
    1C        C  720   2.516   3.291   2.426
    1C        C  721   2.487   3.429   2.425
    1C        C  722   2.537   3.224   2.549
    1C        C  723   2.520   3.298   2.668
    1C        C  724   2.596   3.098   2.791
    1C        C  725   2.541   3.228   2.789
    1C        C  726   2.632   3.039   2.914
    1C        C  727   2.597   3.101   3.036
    1C        C  728   2.711   2.923   3.159
    1C        C  729   2.629   3.038   3.158
    1C        C  730   2.755   2.873   3.283
    1C        C  731   2.707   2.924   3.406
    1C        C  732   2.755   2.875   3.529
    1C        C  733   2.486   3.198   2.075
    1C        C  734   2.493   3.284   2.185
    1C        C  735   2.586   3.088   2.307
    1C        C  736   2.531   3.220   2.306
    1C        C  737   2.616   3.022   2.428
    1C        C  738   2.589   3.092   2.547
    1C        C  739   2.697   2.911   2.670
    1C        C  740   2.622   3.031   2.669
    1C        C  741   2.748   2.859   2.792
    1C        C  742   2.711   2.922   2.913
    1C        C  743   2.753   2.867   3.036
    1C        C  744   2.543   3.071   2.073
    1C        C  745   2.685   2.901   2.185
    1C        C  746   2.609   3.020   2.186
    1C        C  747   2.731   2.842   2.305
    1C        C  748   2.692   2.902   2.427
    1C        C  749   2.740   2.852   2.549
    1C        C  750   2.737   2.843   2.069
    1C        C  751   3.656   2.303   1.995
    1C        O  752   3.631   2.190   2.045
    1C        O  753   3.649   2.315   1.856
    1C        C  754   4.588   3.048   1.959
    1C        O  755   4.535   3.070   1.847
    1C        O  756   4.726   3.037   1.945
    1C        C  757   4.454   4.225   1.972
    1C        O  758   4.574   4.256   1.993
    1C        O  759   4.420   4.243   1.837
    1C        C  760   3.595   4.677   1.951
    1C        O  761   3.566   4.791   1.994
    1C        O  762   3.534   4.656   1.826
    1C        C  763   2.895   4.497   1.944
    1C        O  764   2.925   4.461   1.828
    1C        O  765   2.797   4.596   1.952
    1C        C  766   2.326   3.475   1.982
    1C        O  767   2.331   3.431   1.864
    1C        O  768   2.204   3.530   2.024
    1C        C  769   4.698   3.577   5.044
    1C        O  770   4.705   3.575   5.170
    1C        O  771   4.821   3.633   5.006
    1C        C  772   4.275   4.467   5.028
    1C        O  773   4.296   4.420   5.143
    1C        O  774   4.319   4.597   5.000
    1C        C  775   4.141   2.537   5.088
    1C        O  776   4.228   2.447   5.075
    1C        O  777   4.117   2.570   5.222
    1C        C  778   2.875   4.561   5.033
    1C        O  779   2.823   4.662   4.978
    1C        O  780   2.932   4.589   5.157
    1C        C  781   2.488   3.035   5.084
    1C        O  782   2.364   3.019   5.071
    1C        O  783   2.546   2.997   5.205
    1C        C  784   2.396   4.016   5.035
    1C        O  785   2.308   4.100   5.002
    1C        O  786   2.387   3.957   5.162
    1C        C  787   2.949   2.434   1.988
    1C        O  788   2.981   2.387   1.876
    1C        O  789   2.867   2.335   2.043
    1C        C  790   3.202   2.392   5.089
    1C        O  791   3.231   2.271   5.067
    1C        O  792   3.195   2.431   5.223
    1C        H  793   4.277   3.024   5.057
    1C        H  794   4.164   2.828   5.069
    1C        H  795   4.511   3.129   5.057
    1C        H  796   4.543   3.363   5.071
    1C        H  797   4.544   3.806   5.056
    1C        H  798   4.454   4.005   5.048
    1C        H  799   4.305   4.180   5.054
    1C        H  800   4.010   4.518   5.039
    1C        H  801   3.824   4.624   5.024
    1C        H  802   3.586   4.651   5.033
    1C        H  803   3.396   4.488   5.045
    1C        H  804   3.155   4.523   5.049
    1C        H  805   3.909   2.458   5.054
    1C        H  806   3.676   2.472   5.078
    1C        H  807   2.985   2.521   5.045
    1C        H  808   3.448   2.437   5.071
    1C        H  809   2.852   2.713   5.075
    1C        H  810   2.761   2.946   5.070
    1C        H  811   2.474   3.290   5.060
    1C        H  812   2.496   3.508   5.075
    1C        H  813   2.530   3.743   5.064
    1C        H  814   2.608   4.167   5.051
    1C        H  815   2.767   4.316   5.054
    1C        H  816   2.748   2.900   1.979
    1C        H  817   2.848   2.683   1.982
    1C        H  818   3.192   2.383   2.013
    1C        H  819   3.431   2.477   1.986
    1C        H  820   3.832   2.579   1.987
    1C        H  821   4.078   2.574   1.989
    1C        H  822   4.283   2.706   1.984
    1C        H  823   4.370   2.930   1.967
    1C        H  824   4.620   3.301   1.986
    1C        H  825   4.495   3.509   1.960
    1C        H  826   4.539   3.749   1.962
    1C        H  827   3.790   4.493   1.944
    1C        H  828   3.987   4.411   1.952
    1C        H  829   4.180   4.271   1.950
    1C        H  830   4.523   3.982   1.980
    1C        H  831   2.572   3.871   1.967
    1C        H  832   2.744   4.050   1.969
    1C        H  833   2.734   4.282   1.964
    1C        H  834   3.380   4.450   1.951
    1C        H  835   3.153   4.395   1.952
    1C        H  836   2.583   3.041   1.978
    1C        H  837   2.464   3.237   1.978
    1C        H  838   2.555   3.660   1.980
    2V3OU   H29  839   2.814   3.553   4.689
    2V3OU   C27  840   2.799   3.504   4.788
    2V3OU   H27  841   2.742   3.575   4.853
    2V3OU   H28  842   2.746   3.406   4.773
    2V3OU   O11  843   2.919   3.472   4.860
    2V3OU   C15  844   2.919   3.401   4.978
    2V3OU   C13  845   3.052   3.377   5.018
    2V3OU   C14  846   3.075   3.271   5.106
    2V3OU   C16  847   2.973   3.190   5.152
    2V3OU    H6  848   2.993   3.099   5.211
    2V3OU   C12  849   3.215   3.236   5.140
    2V3OU    O2  850   3.235   3.126   5.196
    2V3OU   C10  851   3.326   3.310   5.078
    2V3OU    C8  852   3.458   3.271   5.096
    2V3OU   O10  853   3.488   3.153   5.156
    2V3OU   H26  854   3.409   3.116   5.200
    2V3OU    C6  855   3.568   3.345   5.042
    2V3OU    C5  856   3.541   3.466   4.979
    2V3OU    C4  857   3.707   3.294   5.053
    2V3OU    H4  858   3.728   3.231   5.145
    2V3OU    H5  859   3.717   3.222   4.966
    2V3OU    C2  860   3.818   3.398   5.039
    2V3OU    O6  861   3.814   3.479   5.157
    2V3OU   H21  862   3.757   3.556   5.142
    2V3OU    C3  863   3.782   3.492   4.924
    2V3OU    H2  864   3.858   3.574   4.922
    2V3OU    H3  865   3.780   3.439   4.825
    2V3OU   C25  866   3.952   3.324   5.033
    2V3OU    O7  867   3.998   3.291   4.924
    2V3OU   C26  868   4.032   3.297   5.160
    2V3OU   H22  869   4.061   3.397   5.201
    2V3OU   H23  870   4.123   3.238   5.133
    2V3OU    O8  871   3.963   3.214   5.250
    2V3OU   H24  872   3.929   3.274   5.318
    2V3OU    C1  873   3.650   3.564   4.946
    2V3OU    H1  874   3.629   3.620   4.850
    2V3OU    O3  875   3.657   3.654   5.058
    2V3OU   C19  876   3.620   3.791   5.039
    2V3OU    H9  877   3.521   3.805   4.987
    2V3OU    O4  878   3.714   3.841   4.947
    2V3OU   C20  879   3.843   3.873   5.000
    2V3OU   H10  880   3.904   3.780   5.023
    2V3OU   C24  881   3.612   3.858   5.176
    2V3OU   H16  882   3.551   3.800   5.249
    2V3OU   H17  883   3.565   3.959   5.157
    2V3OU   C23  884   3.751   3.876   5.236
    2V3OU   H15  885   3.795   3.772   5.256
    2V3OU    N1  886   3.738   3.951   5.359
    2V3OU   H19  887   3.804   3.920   5.428
    2V3OU   H20  888   3.649   3.929   5.400
    2V3OU   C21  889   3.842   3.950   5.133
    2V3OU   H11  890   3.947   3.926   5.169
    2V3OU    O5  891   3.824   4.090   5.145
    2V3OU   H18  892   3.781   4.109   5.230
    2V3OU   C22  893   3.914   3.952   4.892
    2V3OU   H12  894   3.861   4.048   4.870
    2V3OU   H13  895   3.908   3.896   4.796
    2V3OU   H14  896   4.024   3.959   4.911
    2V3OU   C11  897   3.161   3.475   5.002
    2V3OU    O1  898   3.142   3.586   4.949
    2V3OU    C9  899   3.301   3.429   5.004
    2V3OU    C7  900   3.406   3.509   4.961
    2V3OU    O9  901   3.389   3.625   4.888
    2V3OU   H25  902   3.293   3.625   4.879
    2V3OU   C17  903   2.818   3.323   5.038
    2V3OU    H7  904   2.718   3.355   5.067
    2V3OU   C18  905   2.839   3.213   5.120
    2V3OU    H8  906   2.762   3.146   5.161
    3SOL     OW  907   3.230   3.966   5.138
    3SOL    HW1  908   3.186   3.982   5.050
    3SOL    HW2  909   3.233   4.051   5.190
    4SOL     OW  910   6.915   0.440   0.206
    4SOL    HW1  911   6.937   0.423   0.110
    4SOL    HW2  912   6.904   0.353   0.254
    5SOL     OW  913   4.295   0.985   1.506
    5SOL    HW1  914   4.390   0.977   1.478
    5SOL    HW2  915   4.264   0.899   1.545
    6SOL     OW  916   5.824   1.235   3.375
    6SOL    HW1  917   5.736   1.189   3.363
    6SOL    HW2  918   5.869   1.243   3.286
    7SOL     OW  919   0.813   4.622   5.311
    7SOL    HW1  920   0.733   4.612   5.253
    7SOL    HW2  921   0.890   4.573   5.270
    8SOL     OW  922   2.315   2.498   5.599
    8SOL    HW1  923   2.255   2.433   5.646
    8SOL    HW2  924   2.266   2.583   5.582
    9SOL     OW  925   6.426   1.496   6.571
    9SOL    HW1  926   6.510   1.508   6.518
    9SOL    HW2  927   6.356   1.558   6.536
   10SOL     OW  928   4.740   4.730   2.571
   10SOL    HW1  929   4.673   4.680   2.626
   10SOL    HW2  930   4.694   4.771   2.492
   11SOL     OW  931   2.338   1.027   0.150
   11SOL    HW1  932   2.355   1.086   0.071
   11SOL    HW2  933   2.374   0.936   0.132
   12SOL     OW  934   2.641   4.893   3.481
   12SOL    HW1  935   2.677   4.986   3.487
   12SOL    HW2  936   2.582   4.885   3.401
   13SOL     OW  937   4.677   6.129   2.485
   13SOL    HW1  938   4.613   6.078   2.542
   13SOL    HW2  939   4.629   6.170   2.408
   14SOL     OW  940   4.862   4.661   5.251
   14SOL    HW1  941   4.846   4.726   5.325
   14SOL    HW2  942   4.857   4.568   5.286
   15SOL     OW  943   0.692   5.868   5.729
   15SOL    HW1  944   0.675   5.938   5.799
   15SOL    HW2  945   0.638   5.787   5.750
   16SOL     OW  946   6.128   2.651   5.907
   16SOL    HW1  947   6.042   2.696   5.928
   16SOL    HW2  948   6.128   2.559   5.946
   17SOL     OW  949   6.357   0.375   5.944
   17SOL    HW1  950   6.281   0.439   5.946
   17SOL    HW2  951   6.433   0.415   5.893
   18SOL     OW  952   3.274   0.706   4.764
   18SOL    HW1  953   3.372   0.684   4.764
   18SOL    HW2  954   3.223   0.629   4.802
   19SOL     OW  955   0.899   1.622   3.030
   19SOL    HW1  956   0.924   1.689   3.101
   19SOL    HW2  957   0.946   1.644   2.945
   20SOL     OW  958   5.486   2.522   5.619
   20SOL    HW1  959   5.482   2.610   5.572
   20SOL    HW2  960   5.487   2.448   5.551
   21SOL     OW  961   3.733   6.148   3.066
   21SOL    HW1  962   3.752   6.217   3.135
   21SOL    HW2  963   3.634   6.144   3.048
   22SOL     OW  964   2.428   6.654   4.899
   22SOL    HW1  965   2.489   6.727   4.928
   22SOL    HW2  966   2.422   6.652   4.799
   23SOL     OW  967   5.329   4.322   1.900
   23SOL    HW1  968   5.355   4.247   1.961
   23SOL    HW2  969   5.278   4.286   1.822
   24SOL     OW  970   3.909   0.407   1.606
   24SOL    HW1  971   3.812   0.385   1.593
   24SOL    HW2  972   3.918   0.497   1.648
   25SOL     OW  973   2.784   6.834   3.565
   25SOL    HW1  974   2.881   6.856   3.578
   25SOL    HW2  975   2.769   6.808   3.470
   26SOL     OW  976   1.678   1.993   6.712
   26SOL    HW1  977   1.610   1.925   6.683
   26SOL    HW2  978   1.694   1.985   6.810
   27SOL     OW  979   6.278   1.310   2.337
   27SOL    HW1  980   6.306   1.392   2.389
   27SOL    HW2  981   6.300   1.228   2.391
   28SOL     OW  982   2.061   1.059   4.804
   28SOL    HW1  983   2.080   1.140   4.748
   28SOL    HW2  984   2.024   1.089   4.893
   29SOL     OW  985   0.005   1.025   0.230
   29SOL    HW1  986   0.021   1.124   0.228
   29SOL    HW2  987   6.942   1.007   0.271
   30SOL     OW  988   3.932   0.625   4.827
   30SOL    HW1  989   3.994   0.642   4.750
   30SOL    HW2  990   3.863   0.696   4.831
   31SOL     OW  991   0.185   2.939   4.859
   31SOL    HW1  992   0.250   2.912   4.930
   31SOL    HW2  993   0.157   2.859   4.806
   32SOL     OW  994   1.702   0.941   0.990
   32SOL    HW1  995   1.775   1.010   0.989
   32SOL    HW2  996   1.616   0.984   1.015
   33SOL     OW  997   0.521   3.825   6.499
   33SOL    HW1  998   0.539   3.796   6.593
   33SOL    HW2  999   0.527   3.925   6.493
   34SOL     OW 1000   2.064   5.736   5.389
   34SOL    HW1 1001   2.128   5.773   5.322
   34SOL    HW2 1002   2.097   5.648   5.423
   35SOL     OW 1003   3.706   3.242   0.009
   35SOL    HW1 1004   3.657   3.228   6.949
   35SOL    HW2 1005   3.698   3.160   0.066
   36SOL     OW 1006   5.078   0.688   3.852
   36SOL    HW1 1007   5.127   0.737   3.923
   36SOL    HW2 1008   5.009   0.748   3.810
   37SOL     OW 1009   2.009   1.691   3.724
   37SOL    HW1 1010   1.993   1.769   3.785
   37SOL    HW2 1011   2.106   1.685   3.702
   38SOL     OW 1012   1.596   5.469   2.309
   38SOL    HW1 1013   1.546   5.493   2.392
   38SOL    HW2 1014   1.557   5.386   2.269
   39SOL     OW 1015   5.879   4.899   6.522
   39SOL    HW1 1016   5.853   4.804   6.501
   39SOL    HW2 1017   5.818   4.934   6.593
   40SOL     OW 1018   3.286   0.293   6.400
   40SOL    HW1 1019   3.298   0.230   6.324
   40SOL    HW2 1020   3.237   0.374   6.369
   41SOL     OW 1021   5.660   4.123   2.101
   41SOL    HW1 1022   5.567   4.116   2.065
   41SOL    HW2 1023   5.664   4.080   2.191
   42SOL     OW 1024   2.923   5.779   5.155
   42SOL    HW1 1025   2.917   5.704   5.221
   42SOL    HW2 1026   2.968   5.857   5.198
   43SOL     OW 1027   4.715   0.152   5.308
   43SOL    HW1 1028   4.804   0.121   5.274
   43SOL    HW2 1029   4.677   0.083   5.369
   44SOL     OW 1030   5.776   3.328   5.179
   44SOL    HW1 1031   5.801   3.337   5.082
   44SOL    HW2 1032   5.689   3.374   5.195
   45SOL     OW 1033   3.928   5.946   0.567
   45SOL    HW1 1034   3.880   5.987   0.490
   45SOL    HW2 1035   3.863   5.898   0.626
   46SOL     OW 1036   0.325   3.028   4.418
   46SOL    HW1 1037   0.319   3.052   4.321
   46SOL    HW2 1038   0.412   2.983   4.437
   47SOL     OW 1039   5.214   3.508   1.968
   47SOL    HW1 1040   5.207   3.442   1.894
   47SOL    HW2 1041   5.307   3.546   1.970
   48SOL     OW 1042   6.924   3.562   6.906
   48SOL    HW1 1043   6.853   3.522   6.849
   48SOL    HW2 1044   6.896   3.654   6.934
   49SOL     OW 1045   4.915   3.323   0.427
   49SOL    HW1 1046   4.858   3.405   0.430
   49SOL    HW2 1047   4.858   3.241   0.429
   50SOL     OW 1048   6.128   1.933   6.205
   50SOL    HW1 1049   6.105   1.886   6.119
   50SOL    HW2 1050   6.092   2.026   6.202
   51SOL     OW 1051   1.851   4.627   3.256
   51SOL    HW1 1052   1.755   4.613   3.277
   51SOL    HW2 1053   1.861   4.648   3.158
   52SOL     OW 1054   5.505   2.917   1.553
   52SOL    HW1 1055   5.492   2.884   1.459
   52SOL    HW2 1056   5.416   2.931   1.596
   53SOL     OW 1057   4.561   0.278   3.290
   53SOL    HW1 1058   4.522   0.369   3.273
   53SOL    HW2 1059   4.488   0.209   3.286
   54SOL     OW 1060   5.805   5.901   0.281
   54SOL    HW1 1061   5.846   5.834   0.220
   54SOL    HW2 1062   5.877   5.948   0.331
   55SOL     OW 1063   2.200   2.412   6.347
   55SOL    HW1 1064   2.227   2.505   6.321
   55SOL    HW2 1065   2.281   2.353   6.350
   56SOL     OW 1066   1.604   1.950   6.966
   56SOL    HW1 1067   1.654   1.874   7.007
   56SOL    HW2 1068   1.507   1.944   6.991
   57SOL     OW 1069   3.831   0.884   0.028
   57SOL    HW1 1070   3.918   0.891   0.077
   57SOL    HW2 1071   3.761   0.848   0.089
   58SOL     OW 1072   0.756   0.519   6.268
   58SOL    HW1 1073   0.808   0.585   6.322
   58SOL    HW2 1074   0.781   0.426   6.296
   59SOL     OW 1075   6.548   3.589   6.480
   59SOL    HW1 1076   6.632   3.553   6.440
   59SOL    HW2 1077   6.509   3.658   6.419
   60SOL     OW 1078   5.538   0.694   3.053
   60SOL    HW1 1079   5.610   0.654   3.109
   60SOL    HW2 1080   5.553   0.792   3.043
   61SOL     OW 1081   0.539   1.375   4.599
   61SOL    HW1 1082   0.504   1.309   4.665
   61SOL    HW2 1083   0.471   1.389   4.526
   62SOL     OW 1084   0.450   1.462   2.294
   62SOL    HW1 1085   0.374   1.496   2.350
   62SOL    HW2 1086   0.421   1.381   2.243
   63SOL     OW 1087   3.855   6.211   4.509
   63SOL    HW1 1088   3.943   6.225   4.465
   63SOL    HW2 1089   3.850   6.117   4.544
   64SOL     OW 1090   1.721   4.040   6.724
   64SOL    HW1 1091   1.675   4.035   6.636
   64SOL    HW2 1092   1.662   4.003   6.795
   65SOL     OW 1093   0.626   0.512   5.324
   65SOL    HW1 1094   0.641   0.465   5.412
   65SOL    HW2 1095   0.655   0.452   5.250
   66SOL     OW 1096   3.617   6.868   1.834
   66SOL    HW1 1097   3.577   6.783   1.870
   66SOL    HW2 1098   3.670   6.913   1.905
   67SOL     OW 1099   0.472   2.186   0.785
   67SOL    HW1 1100   0.414   2.196   0.704
   67SOL    HW2 1101   0.419   2.209   0.867
   68SOL     OW 1102   0.008   2.486   5.653
   68SOL    HW1 1103   6.967   2.547   5.695
   68SOL    HW2 1104   0.095   2.535   5.642
   69SOL     OW 1105   1.371   5.576   5.860
   69SOL    HW1 1106   1.348   5.626   5.944
   69SOL    HW2 1107   1.287   5.544   5.817
   70SOL     OW 1108   5.491   3.384   4.532
   70SOL    HW1 1109   5.501   3.320   4.608
   70SOL    HW2 1110   5.540   3.349   4.452
   71SOL     OW 1111   4.538   1.964   4.454
   71SOL    HW1 1112   4.484   1.938   4.534
   71SOL    HW2 1113   4.487   2.031   4.400
   72SOL     OW 1114   6.794   0.343   3.926
   72SOL    HW1 1115   6.864   0.283   3.888
   72SOL    HW2 1116   6.830   0.388   4.008
   73SOL     OW 1117   2.558   0.506   0.807
   73SOL    HW1 1118   2.612   0.528   0.726
   73SOL    HW2 1119   2.584   0.415   0.841
   74SOL     OW 1120   2.276   1.452   6.342
   74SOL    HW1 1121   2.368   1.473   6.375
   74SOL    HW2 1122   2.279   1.372   6.282
   75SOL     OW 1123   4.440   1.399   1.046
   75SOL    HW1 1124   4.421   1.497   1.041
   75SOL    HW2 1125   4.418   1.366   1.138
   76SOL     OW 1126   3.070   4.409   5.319
   76SOL    HW1 1127   3.060   4.462   5.404
   76SOL    HW2 1128   3.056   4.468   5.240
   77SOL     OW 1129   1.909   5.305   4.547
   77SOL    HW1 1130   1.888   5.226   4.490
   77SOL    HW2 1131   1.965   5.369   4.495
   78SOL     OW 1132   4.367   1.598   1.260
   78SOL    HW1 1133   4.302   1.672   1.248
   78SOL    HW2 1134   4.318   1.514   1.283
   79SOL     OW 1135   2.097   4.813   1.620
   79SOL    HW1 1136   2.044   4.731   1.597
   79SOL    HW2 1137   2.193   4.789   1.630
   80SOL     OW 1138   4.921   2.339   4.774
   80SOL    HW1 1139   4.937   2.414   4.711
   80SOL    HW2 1140   4.965   2.358   4.862
   81SOL     OW 1141   2.483   6.186   1.062
   81SOL    HW1 1142   2.454   6.103   1.014
   81SOL    HW2 1143   2.444   6.186   1.154
   82SOL     OW 1144   1.071   5.874   1.685
   82SOL    HW1 1145   1.006   5.852   1.757
   82SOL    HW2 1146   1.024   5.916   1.608
   83SOL     OW 1147   5.849   1.997   5.771
   83SOL    HW1 1148   5.937   1.976   5.730
   83SOL    HW2 1149   5.835   1.941   5.853
   84SOL     OW 1150   6.432   3.094   3.699
   84SOL    HW1 1151   6.452   3.191   3.711
   84SOL    HW2 1152   6.394   3.078   3.608
   85SOL     OW 1153   1.576   0.128   4.169
   85SOL    HW1 1154   1.636   0.054   4.199
   85SOL    HW2 1155   1.517   0.095   4.096
   86SOL     OW 1156   5.654   1.647   6.117
   86SOL    HW1 1157   5.664   1.548   6.103
   86SOL    HW2 1158   5.705   1.673   6.199
   87SOL     OW 1159   4.271   4.621   6.598
   87SOL    HW1 1160   4.184   4.637   6.645
   87SOL    HW2 1161   4.347   4.629   6.662
   88SOL     OW 1162   2.876   2.968   5.964
   88SOL    HW1 1163   2.975   2.954   5.970
   88SOL    HW2 1164   2.831   2.879   5.966
   89SOL     OW 1165   3.230   2.984   2.762
   89SOL    HW1 1166   3.293   3.019   2.693
   89SOL    HW2 1167   3.136   2.996   2.730
   90SOL     OW 1168   5.005   3.474   2.898
   90SOL    HW1 1169   4.993   3.571   2.919
   90SOL    HW2 1170   4.979   3.456   2.804
   91SOL     OW 1171   5.777   5.446   5.802
   91SOL    HW1 1172   5.728   5.362   5.824
   91SOL    HW2 1173   5.859   5.425   5.749
   92SOL     OW 1174   5.171   4.539   0.129
   92SOL    HW1 1175   5.264   4.504   0.144
   92SOL    HW2 1176   5.126   4.552   0.217
   93SOL     OW 1177   2.878   2.918   1.152
   93SOL    HW1 1178   2.877   2.998   1.211
   93SOL    HW2 1179   2.971   2.880   1.149
   94SOL     OW 1180   3.033   0.322   5.846
   94SOL    HW1 1181   3.088   0.393   5.801
   94SOL    HW2 1182   3.012   0.351   5.939
   95SOL     OW 1183   0.068   0.794   4.253
   95SOL    HW1 1184   7.009   0.752   4.286
   95SOL    HW2 1185   0.142   0.777   4.318
   96SOL     OW 1186   5.059   4.911   6.524
   96SOL    HW1 1187   5.151   4.899   6.562
   96SOL    HW2 1188   4.999   4.950   6.595
   97SOL     OW 1189   2.131   5.110   5.464
   97SOL    HW1 1190   2.102   5.020   5.433
   97SOL    HW2 1191   2.224   5.106   5.499
   98SOL     OW 1192   1.125   2.646   2.290
   98SOL    HW1 1193   1.108   2.738   2.326
   98SOL    HW2 1194   1.094   2.578   2.358
   99SOL     OW 1195   3.764   3.009   3.761
   99SOL    HW1 1196   3.745   3.026   3.664
   99SOL    HW2 1197   3.679   2.990   3.809
  100SOL     OW 1198   0.048   6.764   4.033
  100SOL    HW1 1199   0.098   6.678   4.025
  100SOL    HW2 1200   6.978   6.749   4.009
  101SOL     OW 1201   0.873   4.324   2.740
  101SOL    HW1 1202   0.920   4.238   2.760
  101SOL    HW2 1203   0.880   4.344   2.643
  102SOL     OW 1204   2.762   6.396   1.650
  102SOL    HW1 1205   2.849   6.400   1.600
  102SOL    HW2 1206   2.694   6.348   1.595
  103SOL     OW 1207   2.041   1.460   2.288
  103SOL    HW1 1208   2.013   1.533   2.350
  103SOL    HW2 1209   2.127   1.485   2.243
  104SOL     OW 1210   1.561   4.220   1.773
  104SOL    HW1 1211   1.551   4.227   1.872
  104SOL    HW2 1212   1.502   4.288   1.729
  105SOL     OW 1213   5.401   1.820   6.852
  105SOL    HW1 1214   5.479   1.833   6.792
  105SOL    HW2 1215   5.353   1.736   6.826
  106SOL     OW 1216   5.410   5.151   1.876
  106SOL    HW1 1217   5.362   5.063   1.875
  106SOL    HW2 1218   5.492   5.144   1.933
  107SOL     OW 1219   6.474   1.661   0.283
  107SOL    HW1 1220   6.493   1.575   0.236
  107SOL    HW2 1221   6.382   1.692   0.260
  108SOL     OW 1222   1.897   0.698   4.924
  108SOL    HW1 1223   1.874   0.680   5.020
  108SOL    HW2 1224   1.961   0.628   4.891
  109SOL     OW 1225   3.460   1.054   3.522
  109SOL    HW1 1226   3.500   1.098   3.603
  109SOL    HW2 1227   3.418   1.124   3.464
  110SOL     OW 1228   2.839   4.532   5.880
  110SOL    HW1 1229   2.779   4.516   5.959
  110SOL    HW2 1230   2.832   4.455   5.817
  111SOL     OW 1231   5.703   1.685   2.462
  111SOL    HW1 1232   5.621   1.709   2.513
  111SOL    HW2 1233   5.717   1.750   2.388
  112SOL     OW 1234   4.244   0.136   6.879
  112SOL    HW1 1235   4.253   0.196   6.800
  112SOL    HW2 1236   4.153   0.096   6.880
  113SOL     OW 1237   6.339   5.808   2.573
  113SOL    HW1 1238   6.438   5.803   2.588
  113SOL    HW2 1239   6.309   5.902   2.587
  114SOL     OW 1240   1.148   4.098   4.168
  114SOL    HW1 1241   1.062   4.142   4.196
  114SOL    HW2 1242   1.225   4.150   4.206
  115SOL     OW 1243   6.019   0.785   3.364
  115SOL    HW1 1244   5.961   0.848   3.313
  115SOL    HW2 1245   6.043   0.826   3.452
  116SOL     OW 1246   1.003   5.822   0.807
  116SOL    HW1 1247   1.047   5.865   0.886
  116SOL    HW2 1248   1.048   5.852   0.723
  117SOL     OW 1249   2.681   1.843   0.073
  117SOL    HW1 1250   2.673   1.746   0.097
  117SOL    HW2 1251   2.769   1.858   0.028
  118SOL     OW 1252   0.961   1.568   3.422
  118SOL    HW1 1253   0.987   1.610   3.335
  118SOL    HW2 1254   1.042   1.557   3.479
  119SOL     OW 1255   0.209   6.961   6.512
  119SOL    HW1 1256   0.271   6.943   6.588
  119SOL    HW2 1257   0.143   0.005   6.539
  120SOL     OW 1258   4.688   1.016   5.159
  120SOL    HW1 1259   4.716   0.926   5.127
  120SOL    HW2 1260   4.588   1.021   5.163
  121SOL     OW 1261   1.026   3.478   6.519
  121SOL    HW1 1262   0.933   3.494   6.550
  121SOL    HW2 1263   1.091   3.496   6.593
  122SOL     OW 1264   1.254   4.325   6.773
  122SOL    HW1 1265   1.273   4.228   6.758
  122SOL    HW2 1266   1.241   4.370   6.685
  123SOL     OW 1267   1.256   1.141   1.484
  123SOL    HW1 1268   1.261   1.175   1.391
  123SOL    HW2 1269   1.222   1.047   1.484
  124SOL     OW 1270   3.102   1.967   1.104
  124SOL    HW1 1271   3.002   1.978   1.104
  124SOL    HW2 1272   3.128   1.908   1.180
  125SOL     OW 1273   3.447   2.761   6.517
  125SOL    HW1 1274   3.352   2.781   6.495
  125SOL    HW2 1275   3.467   2.794   6.609
  126SOL     OW 1276   4.000   3.136   3.837
  126SOL    HW1 1277   4.088   3.089   3.824
  126SOL    HW2 1278   3.925   3.073   3.816
  127SOL     OW 1279   0.330   6.177   6.128
  127SOL    HW1 1280   0.397   6.188   6.054
  127SOL    HW2 1281   0.327   6.082   6.157
  128SOL     OW 1282   4.586   3.757   1.456
  128SOL    HW1 1283   4.562   3.854   1.443
  128SOL    HW2 1284   4.538   3.722   1.536
  129SOL     OW 1285   2.103   6.206   1.010
  129SOL    HW1 1286   2.127   6.163   0.923
  129SOL    HW2 1287   2.053   6.291   0.992
  130SOL     OW 1288   5.426   2.156   4.579
  130SOL    HW1 1289   5.334   2.190   4.598
  130SOL    HW2 1290   5.439   2.146   4.481
  131SOL     OW 1291   0.522   2.321   3.846
  131SOL    HW1 1292   0.468   2.245   3.810
  131SOL    HW2 1293   0.496   2.339   3.941
  132SOL     OW 1294   3.576   4.212   1.863
  132SOL    HW1 1295   3.510   4.263   1.918
  132SOL    HW2 1296   3.527   4.151   1.800
  133SOL     OW 1297   5.375   6.467   4.667
  133SOL    HW1 1298   5.332   6.377   4.655
  133SOL    HW2 1299   5.311   6.528   4.713
  134SOL     OW 1300   5.995   1.340   2.182
  134SOL    HW1 1301   6.077   1.347   2.238
  134SOL    HW2 1302   6.019   1.354   2.086
  135SOL     OW 1303   4.889   3.583   4.126
  135SOL    HW1 1304   4.819   3.579   4.197
  135SOL    HW2 1305   4.898   3.677   4.093
  136SOL     OW 1306   2.586   6.926   4.422
  136SOL    HW1 1307   2.557   6.906   4.515
  136SOL    HW2 1308   2.686   6.916   4.415
  137SOL     OW 1309   3.274   2.157   4.836
  137SOL    HW1 1310   3.274   2.216   4.916
  137SOL    HW2 1311   3.198   2.182   4.776
  138SOL     OW 1312   0.753   5.448   4.916
  138SOL    HW1 1313   0.737   5.362   4.963
  138SOL    HW2 1314   0.763   5.431   4.817
  139SOL     OW 1315   2.070   6.110   6.268
  139SOL    HW1 1316   2.043   6.160   6.351
  139SOL    HW2 1317   2.052   6.168   6.188
  140SOL     OW 1318   2.382   1.007   3.101
  140SOL    HW1 1319   2.459   1.024   3.162
  140SOL    HW2 1320   2.397   1.053   3.014
  141SOL     OW 1321   6.750   4.283   0.604
  141SOL    HW1 1322   6.657   4.246   0.602
  141SOL    HW2 1323   6.798   4.256   0.521
  142SOL     OW 1324   1.095   4.249   1.638
  142SOL    HW1 1325   1.052   4.161   1.619
  142SOL    HW2 1326   1.026   4.321   1.634
  143SOL     OW 1327   5.532   6.983   1.815
  143SOL    HW1 1328   5.588   7.009   1.736
  143SOL    HW2 1329   5.586   6.926   1.877
  144SOL     OW 1330   2.908   4.822   3.466
  144SOL    HW1 1331   2.812   4.848   3.465
  144SOL    HW2 1332   2.919   4.737   3.518
  145SOL     OW 1333   6.897   4.700   2.432
  145SOL    HW1 1334   6.916   4.770   2.501
  145SOL    HW2 1335   6.813   4.723   2.384
  146SOL     OW 1336   6.092   1.847   5.735
  146SOL    HW1 1337   6.102   1.827   5.833
  146SOL    HW2 1338   6.045   1.771   5.690
  147SOL     OW 1339   4.997   1.678   5.410
  147SOL    HW1 1340   4.933   1.652   5.338
  147SOL    HW2 1341   5.089   1.649   5.385
  148SOL     OW 1342   1.722   4.582   1.211
  148SOL    HW1 1343   1.649   4.559   1.146
  148SOL    HW2 1344   1.729   4.510   1.280
  149SOL     OW 1345   2.517   2.279   5.410
  149SOL    HW1 1346   2.439   2.331   5.447
  149SOL    HW2 1347   2.589   2.342   5.383
  150SOL     OW 1348   4.577   1.197   5.511
  150SOL    HW1 1349   4.483   1.207   5.479
  150SOL    HW2 1350   4.639   1.204   5.434
  151SOL     OW 1351   4.332   2.014   1.123
  151SOL    HW1 1352   4.245   1.999   1.076
  151SOL    HW2 1353   4.403   2.038   1.056
  152SOL     OW 1354   1.095   1.256   0.037
  152SOL    HW1 1355   1.146   1.207   6.992
  152SOL    HW2 1356   1.149   1.257   0.122
  153SOL     OW 1357   2.691   1.399   3.807
  153SOL    HW1 1358   2.637   1.367   3.886
  153SOL    HW2 1359   2.671   1.495   3.790
  154SOL     OW 1360   6.319   1.868   1.347
  154SOL    HW1 1361   6.247   1.812   1.306
  154SOL    HW2 1362   6.304   1.874   1.446
  155SOL     OW 1363   0.411   0.087   1.960
  155SOL    HW1 1364   0.487   0.134   2.005
  155SOL    HW2 1365   0.368   0.148   1.894
  156SOL     OW 1366   4.480   0.959   0.296
  156SOL    HW1 1367   4.537   1.039   0.315
  156SOL    HW2 1368   4.436   0.969   0.207
  157SOL     OW 1369   4.954   4.034   0.590
  157SOL    HW1 1370   5.043   4.017   0.546
  157SOL    HW2 1371   4.969   4.056   0.686
  158SOL     OW 1372   0.955   2.934   2.639
  158SOL    HW1 1373   0.998   2.888   2.718
  158SOL    HW2 1374   0.945   3.032   2.659
  159SOL     OW 1375   5.155   5.662   0.400
  159SOL    HW1 1376   5.176   5.608   0.318
  159SOL    HW2 1377   5.188   5.614   0.481
  160SOL     OW 1378   6.019   0.261   0.635
  160SOL    HW1 1379   5.996   0.279   0.731
  160SOL    HW2 1380   6.084   0.331   0.604
  161SOL     OW 1381   0.788   0.196   0.409
  161SOL    HW1 1382   0.805   0.290   0.439
  161SOL    HW2 1383   0.849   0.173   0.333
  162SOL     OW 1384   2.535   6.327   6.863
  162SOL    HW1 1385   2.582   6.393   6.805
  162SOL    HW2 1386   2.510   6.370   6.949
  163SOL     OW 1387   6.509   3.996   3.634
  163SOL    HW1 1388   6.479   3.928   3.568
  163SOL    HW2 1389   6.528   3.952   3.722
  164SOL     OW 1390   1.631   1.778   2.769
  164SOL    HW1 1391   1.635   1.872   2.802
  164SOL    HW2 1392   1.572   1.724   2.829
  165SOL     OW 1393   0.779   5.415   2.326
  165SOL    HW1 1394   0.856   5.352   2.332
  165SOL    HW2 1395   0.801   5.488   2.262
  166SOL     OW 1396   6.199   3.893   2.179
  166SOL    HW1 1397   6.261   3.952   2.230
  166SOL    HW2 1398   6.174   3.936   2.093
  167SOL     OW 1399   5.264   1.632   0.596
  167SOL    HW1 1400   5.275   1.545   0.645
  167SOL    HW2 1401   5.219   1.614   0.509
  168SOL     OW 1402   4.864   3.757   2.259
  168SOL    HW1 1403   4.798   3.683   2.247
  168SOL    HW2 1404   4.926   3.759   2.181
  169SOL     OW 1405   6.135   2.603   1.155
  169SOL    HW1 1406   6.065   2.539   1.121
  169SOL    HW2 1407   6.211   2.606   1.090
  170SOL     OW 1408   1.199   5.153   2.743
  170SOL    HW1 1409   1.236   5.182   2.831
  170SOL    HW2 1410   1.216   5.055   2.731
  171SOL     OW 1411   2.679   3.533   0.873
  171SOL    HW1 1412   2.583   3.545   0.847
  171SOL    HW2 1413   2.721   3.462   0.817
  172SOL     OW 1414   5.925   1.894   1.898
  172SOL    HW1 1415   5.922   1.925   1.803
  172SOL    HW2 1416   6.017   1.910   1.936
  173SOL     OW 1417   6.572   1.675   5.251
  173SOL    HW1 1418   6.580   1.764   5.205
  173SOL    HW2 1419   6.642   1.668   5.321
  174SOL     OW 1420   5.736   5.822   5.153
  174SOL    HW1 1421   5.800   5.777   5.091
  174SOL    HW2 1422   5.783   5.845   5.239
  175SOL     OW 1423   1.528   0.726   0.624
  175SOL    HW1 1424   1.493   0.778   0.545
  175SOL    HW2 1425   1.461   0.656   0.650
  176SOL     OW 1426   5.159   4.715   2.456
  176SOL    HW1 1427   5.140   4.651   2.531
  176SOL    HW2 1428   5.076   4.727   2.401
  177SOL     OW 1429   5.857   1.949   4.263
  177SOL    HW1 1430   5.837   2.042   4.233
  177SOL    HW2 1431   5.772   1.900   4.279
  178SOL     OW 1432   2.421   6.402   5.071
  178SOL    HW1 1433   2.408   6.446   4.982
  178SOL    HW2 1434   2.384   6.461   5.143
  179SOL     OW 1435   4.239   5.181   0.438
  179SOL    HW1 1436   4.225   5.149   0.345
  179SOL    HW2 1437   4.268   5.277   0.437
  180SOL     OW 1438   3.950   0.495   1.114
  180SOL    HW1 1439   3.901   0.577   1.085
  180SOL    HW2 1440   4.038   0.489   1.065
  181SOL     OW 1441   3.420   2.364   5.338
  181SOL    HW1 1442   3.474   2.446   5.357
  181SOL    HW2 1443   3.346   2.388   5.275
  182SOL     OW 1444   5.439   2.606   0.258
  182SOL    HW1 1445   5.443   2.700   0.223
  182SOL    HW2 1446   5.395   2.606   0.348
  183SOL     OW 1447   3.582   1.550   4.506
  183SOL    HW1 1448   3.625   1.499   4.432
  183SOL    HW2 1449   3.592   1.648   4.489
  184SOL     OW 1450   0.086   6.433   3.161
  184SOL    HW1 1451   0.098   6.370   3.238
  184SOL    HW2 1452   0.016   6.397   3.099
  185SOL     OW 1453   0.585   1.898   3.951
  185SOL    HW1 1454   0.618   1.831   4.017
  185SOL    HW2 1455   0.486   1.891   3.943
  186SOL     OW 1456   5.152   5.112   4.369
  186SOL    HW1 1457   5.146   5.195   4.313
  186SOL    HW2 1458   5.167   5.137   4.464
  187SOL     OW 1459   3.928   5.642   2.608
  187SOL    HW1 1460   3.951   5.707   2.680
  187SOL    HW2 1461   3.873   5.686   2.538
  188SOL     OW 1462   2.206   2.364   2.804
  188SOL    HW1 1463   2.204   2.410   2.715
  188SOL    HW2 1464   2.278   2.295   2.804
  189SOL     OW 1465   6.553   5.218   6.513
  189SOL    HW1 1466   6.624   5.235   6.581
  189SOL    HW2 1467   6.513   5.305   6.484
  190SOL     OW 1468   6.238   5.789   0.700
  190SOL    HW1 1469   6.301   5.749   0.633
  190SOL    HW2 1470   6.144   5.764   0.677
  191SOL     OW 1471   6.412   0.841   6.263
  191SOL    HW1 1472   6.400   0.784   6.344
  191SOL    HW2 1473   6.377   0.793   6.183
  192SOL     OW 1474   0.139   5.115   1.296
  192SOL    HW1 1475   0.095   5.199   1.265
  192SOL    HW2 1476   0.072   5.058   1.344
  193SOL     OW 1477   3.296   5.023   6.546
  193SOL    HW1 1478   3.270   4.940   6.498
  193SOL    HW2 1479   3.354   4.999   6.625
  194SOL     OW 1480   3.874   6.427   1.845
  194SOL    HW1 1481   3.887   6.351   1.781
  194SOL    HW2 1482   3.885   6.514   1.796
  195SOL     OW 1483   3.106   0.947   1.750
  195SOL    HW1 1484   3.131   0.935   1.653
  195SOL    HW2 1485   3.146   1.032   1.783
  196SOL     OW 1486   2.392   1.166   6.266
  196SOL    HW1 1487   2.378   1.151   6.364
  196SOL    HW2 1488   2.310   1.137   6.216
  197SOL     OW 1489   2.417   5.720   7.019
  197SOL    HW1 1490   2.496   5.680   6.972
  197SOL    HW2 1491   2.341   5.728   6.955
  198SOL     OW 1492   4.166   5.937   0.467
  198SOL    HW1 1493   4.173   5.859   0.405
  198SOL    HW2 1494   4.082   5.930   0.520
  199SOL     OW 1495   5.328   0.195   2.528
  199SOL    HW1 1496   5.288   0.141   2.454
  199SOL    HW2 1497   5.302   0.155   2.616
  200SOL     OW 1498   1.007   4.023   2.318
  200SOL    HW1 1499   0.962   4.088   2.258
  200SOL    HW2 1500   1.106   4.036   2.314
  201SOL     OW 1501   2.819   0.952   6.857
  201SOL    HW1 1502   2.790   1.046   6.871
  201SOL    HW2 1503   2.891   0.929   6.923
  202SOL     OW 1504   4.703   0.146   3.908
  202SOL    HW1 1505   4.618   0.106   3.943
  202SOL    HW2 1506   4.731   0.221   3.967
  203SOL     OW 1507   5.174   3.307   6.263
  203SOL    HW1 1508   5.084   3.337   6.295
  203SOL    HW2 1509   5.235   3.386   6.257
  204SOL     OW 1510   1.862   0.144   0.436
  204SOL    HW1 1511   1.894   0.061   0.482
  204SOL    HW2 1512   1.906   0.224   0.477
  205SOL     OW 1513   6.333   1.647   0.928
  205SOL    HW1 1514   6.271   1.722   0.906
  205SOL    HW2 1515   6.332   1.632   1.027
  206SOL     OW 1516   0.656   4.473   1.073
  206SOL    HW1 1517   0.682   4.564   1.042
  206SOL    HW2 1518   0.659   4.409   0.995
  207SOL     OW 1519   4.518   0.490   5.901
  207SOL    HW1 1520   4.600   0.472   5.954
  207SOL    HW2 1521   4.488   0.585   5.917
  208SOL     OW 1522   5.126   5.052   5.667
  208SOL    HW1 1523   5.207   5.049   5.608
  208SOL    HW2 1524   5.153   5.028   5.761
  209SOL     OW 1525   0.255   6.410   5.861
  209SOL    HW1 1526   0.157   6.396   5.850
  209SOL    HW2 1527   0.302   6.322   5.859
  210SOL     OW 1528   3.889   2.116   2.267
  210SOL    HW1 1529   3.808   2.169   2.290
  210SOL    HW2 1530   3.912   2.130   2.171
  211SOL     OW 1531   0.680   1.104   1.427
  211SOL    HW1 1532   0.737   1.137   1.502
  211SOL    HW2 1533   0.643   1.014   1.450
  212SOL     OW 1534   0.802   4.514   3.322
  212SOL    HW1 1535   0.840   4.576   3.391
  212SOL    HW2 1536   0.748   4.566   3.256
  213SOL     OW 1537   4.927   1.188   0.399
  213SOL    HW1 1538   4.828   1.179   0.409
  213SOL    HW2 1539   4.965   1.101   0.369
  214SOL     OW 1540   0.781   6.359   3.402
  214SOL    HW1 1541   0.694   6.400   3.431
  214SOL    HW2 1542   0.829   6.423   3.342
  215SOL     OW 1543   3.789   3.454   1.636
  215SOL    HW1 1544   3.729   3.470   1.557
  215SOL    HW2 1545   3.823   3.360   1.633
  216SOL     OW 1546   1.209   0.240   4.873
  216SOL    HW1 1547   1.265   0.189   4.939
  216SOL    HW2 1548   1.232   0.211   4.780
  217SOL     OW 1549   1.778   2.805   4.080
  217SOL    HW1 1550   1.863   2.798   4.133
  217SOL    HW2 1551   1.757   2.901   4.064
  218SOL     OW 1552   1.299   2.705   4.455
  218SOL    HW1 1553   1.281   2.657   4.541
  218SOL    HW2 1554   1.352   2.646   4.394
  219SOL     OW 1555   3.717   4.105   0.629
  219SOL    HW1 1556   3.718   4.007   0.607
  219SOL    HW2 1557   3.672   4.119   0.717
  220SOL     OW 1558   3.021   5.651   6.723
  220SOL    HW1 1559   3.120   5.655   6.742
  220SOL    HW2 1560   2.971   5.678   6.806
  221SOL     OW 1561   5.303   3.174   3.954
  221SOL    HW1 1562   5.280   3.210   3.863
  221SOL    HW2 1563   5.397   3.199   3.977
  222SOL     OW 1564   1.556   5.537   5.090
  222SOL    HW1 1565   1.513   5.556   5.178
  222SOL    HW2 1566   1.633   5.474   5.103
  223SOL     OW 1567   6.799   3.469   2.143
  223SOL    HW1 1568   6.799   3.567   2.162
  223SOL    HW2 1569   6.791   3.454   2.044
  224SOL     OW 1570   2.661   2.371   2.186
  224SOL    HW1 1571   2.748   2.365   2.137
  224SOL    HW2 1572   2.593   2.416   2.128
  225SOL     OW 1573   5.461   0.715   0.146
  225SOL    HW1 1574   5.558   0.735   0.130
  225SOL    HW2 1575   5.453   0.630   0.197
  226SOL     OW 1576   1.137   6.649   0.817
  226SOL    HW1 1577   1.172   6.593   0.741
  226SOL    HW2 1578   1.051   6.610   0.849
  227SOL     OW 1579   1.821   3.878   3.294
  227SOL    HW1 1580   1.888   3.948   3.319
  227SOL    HW2 1581   1.813   3.812   3.369
  228SOL     OW 1582   3.754   6.866   4.266
  228SOL    HW1 1583   3.812   6.941   4.295
  228SOL    HW2 1584   3.698   6.835   4.343
  229SOL     OW 1585   6.190   5.667   1.560
  229SOL    HW1 1586   6.167   5.605   1.485
  229SOL    HW2 1587   6.179   5.762   1.529
  230SOL     OW 1588   2.182   4.052   4.761
  230SOL    HW1 1589   2.169   3.954   4.750
  230SOL    HW2 1590   2.228   4.070   4.848
  231SOL     OW 1591   6.930   2.646   6.348
  231SOL    HW1 1592   6.900   2.624   6.441
  231SOL    HW2 1593   6.859   2.622   6.283
  232SOL     OW 1594   1.675   3.703   6.442
  232SOL    HW1 1595   1.610   3.628   6.435
  232SOL    HW2 1596   1.724   3.713   6.355
  233SOL     OW 1597   2.387   1.067   5.733
  233SOL    HW1 1598   2.365   0.970   5.742
  233SOL    HW2 1599   2.302   1.121   5.735
  234SOL     OW 1600   2.889   5.094   6.994
  234SOL    HW1 1601   2.973   5.041   7.006
  234SOL    HW2 1602   2.873   5.150   0.049
  235SOL     OW 1603   3.395   2.965   4.136
  235SOL    HW1 1604   3.443   3.010   4.211
  235SOL    HW2 1605   3.298   2.958   4.159
  236SOL     OW 1606   6.522   2.710   5.828
  236SOL    HW1 1607   6.468   2.645   5.775
  236SOL    HW2 1608   6.543   2.789   5.771
  237SOL     OW 1609   6.775   6.616   1.681
  237SOL    HW1 1610   6.821   6.533   1.648
  237SOL    HW2 1611   6.838   6.693   1.675
  238SOL     OW 1612   5.800   3.406   2.078
  238SOL    HW1 1613   5.702   3.426   2.080
  238SOL    HW2 1614   5.830   3.376   2.169
  239SOL     OW 1615   6.906   5.950   6.771
  239SOL    HW1 1616   6.844   5.890   6.720
  239SOL    HW2 1617   6.999   5.912   6.768
  240SOL     OW 1618   0.794   3.822   6.501
  240SOL    HW1 1619   0.791   3.751   6.571
  240SOL    HW2 1620   0.828   3.783   6.415
  241SOL     OW 1621   0.210   1.258   3.754
  241SOL    HW1 1622   0.283   1.326   3.747
  241SOL    HW2 1623   0.181   1.231   3.662
  242SOL     OW 1624   1.523   3.808   4.832
  242SOL    HW1 1625   1.535   3.709   4.825
  242SOL    HW2 1626   1.577   3.853   4.761
  243SOL     OW 1627   5.342   0.241   6.094
  243SOL    HW1 1628   5.271   0.182   6.133
  243SOL    HW2 1629   5.431   0.212   6.130
  244SOL     OW 1630   5.118   2.049   5.243
  244SOL    HW1 1631   5.124   2.127   5.180
  244SOL    HW2 1632   5.172   1.973   5.207
  245SOL     OW 1633   6.226   2.457   4.941
  245SOL    HW1 1634   6.216   2.456   5.040
  245SOL    HW2 1635   6.160   2.394   4.900
  246SOL     OW 1636   4.892   3.703   3.397
  246SOL    HW1 1637   4.922   3.639   3.327
  246SOL    HW2 1638   4.842   3.654   3.468
  247SOL     OW 1639   2.305   1.129   3.686
  247SOL    HW1 1640   2.366   1.074   3.744
  247SOL    HW2 1641   2.214   1.130   3.727
  248SOL     OW 1642   4.660   1.807   4.260
  248SOL    HW1 1643   4.747   1.829   4.214
  248SOL    HW2 1644   4.647   1.869   4.338
  249SOL     OW 1645   3.154   6.513   4.585
  249SOL    HW1 1646   3.079   6.448   4.569
  249SOL    HW2 1647   3.167   6.569   4.503
  250SOL     OW 1648   5.178   2.757   5.186
  250SOL    HW1 1649   5.084   2.750   5.151
  250SOL    HW2 1650   5.182   2.828   5.256
  251SOL     OW 1651   4.780   2.907   6.523
  251SOL    HW1 1652   4.688   2.867   6.524
  251SOL    HW2 1653   4.815   2.912   6.616
  252SOL     OW 1654   6.312   1.167   5.997
  252SOL    HW1 1655   6.342   1.262   6.007
  252SOL    HW2 1656   6.215   1.165   5.975
  253SOL     OW 1657   2.383   3.067   0.691
  253SOL    HW1 1658   2.340   3.053   0.602
  253SOL    HW2 1659   2.338   3.143   0.738
  254SOL     OW 1660   6.469   3.530   4.584
  254SOL    HW1 1661   6.499   3.450   4.533
  254SOL    HW2 1662   6.369   3.536   4.582
  255SOL     OW 1663   2.963   2.234   3.361
  255SOL    HW1 1664   3.056   2.229   3.326
  255SOL    HW2 1665   2.964   2.234   3.461
  256SOL     OW 1666   6.274   5.214   6.848
  256SOL    HW1 1667   6.306   5.148   6.780
  256SOL    HW2 1668   6.324   5.300   6.836
  257SOL     OW 1669   2.904   5.674   5.793
  257SOL    HW1 1670   2.982   5.651   5.852
  257SOL    HW2 1671   2.935   5.683   5.699
  258SOL     OW 1672   4.988   4.334   4.100
  258SOL    HW1 1673   4.961   4.430   4.102
  258SOL    HW2 1674   4.913   4.279   4.064
  259SOL     OW 1675   1.343   3.111   2.608
  259SOL    HW1 1676   1.420   3.175   2.601
  259SOL    HW2 1677   1.261   3.154   2.570
  260SOL     OW 1678   5.370   0.262   6.700
  260SOL    HW1 1679   5.301   0.227   6.636
  260SOL    HW2 1680   5.422   0.334   6.656
  261SOL     OW 1681   0.742   4.189   2.056
  261SOL    HW1 1682   0.750   4.145   1.967
  261SOL    HW2 1683   0.686   4.271   2.048
  262SOL     OW 1684   1.073   2.910   2.395
  262SOL    HW1 1685   1.130   2.991   2.386
  262SOL    HW2 1686   1.061   2.889   2.492
  263SOL     OW 1687   0.705   2.549   4.666
  263SOL    HW1 1688   0.739   2.528   4.575
  263SOL    HW2 1689   0.749   2.631   4.701
  264SOL     OW 1690   1.128   3.988   5.896
  264SOL    HW1 1691   1.028   3.988   5.905
  264SOL    HW2 1692   1.156   4.054   5.827
  265SOL     OW 1693   5.234   4.603   3.987
  265SOL    HW1 1694   5.260   4.618   4.083
  265SOL    HW2 1695   5.316   4.585   3.933
  266SOL     OW 1696   4.077   1.603   0.740
  266SOL    HW1 1697   4.011   1.533   0.712
  266SOL    HW2 1698   4.075   1.679   0.675
  267SOL     OW 1699   2.108   2.335   5.748
  267SOL    HW1 1700   2.033   2.395   5.719
  267SOL    HW2 1701   2.071   2.247   5.776
  268SOL     OW 1702   4.532   4.497   4.600
  268SOL    HW1 1703   4.525   4.404   4.563
  268SOL    HW2 1704   4.450   4.548   4.575
  269SOL     OW 1705   1.504   1.838   6.484
  269SOL    HW1 1706   1.592   1.835   6.436
  269SOL    HW2 1707   1.431   1.809   6.422
  270SOL     OW 1708   5.368   0.687   2.655
  270SOL    HW1 1709   5.432   0.706   2.581
  270SOL    HW2 1710   5.316   0.604   2.634
  271SOL     OW 1711   1.693   0.455   0.456
  271SOL    HW1 1712   1.689   0.398   0.538
  271SOL    HW2 1713   1.625   0.424   0.390
  272SOL     OW 1714   3.949   5.408   3.441
  272SOL    HW1 1715   3.946   5.427   3.343
  272SOL    HW2 1716   3.866   5.359   3.468
  273SOL     OW 1717   2.004   5.938   4.725
  273SOL    HW1 1718   1.970   6.030   4.746
  273SOL    HW2 1719   1.930   5.872   4.737
  274SOL     OW 1720   6.089   2.552   2.711
  274SOL    HW1 1721   6.122   2.497   2.634
  274SOL    HW2 1722   6.025   2.498   2.766
  275SOL     OW 1723   6.985   6.497   5.777
  275SOL    HW1 1724   0.006   6.566   5.831
  275SOL    HW2 1725   6.911   6.457   5.830
  276SOL     OW 1726   6.484   6.034   3.740
  276SOL    HW1 1727   6.579   6.042   3.708
  276SOL    HW2 1728   6.484   5.989   3.830
  277SOL     OW 1729   3.332   1.804   5.224
  277SOL    HW1 1730   3.360   1.898   5.207
  277SOL    HW2 1731   3.236   1.792   5.198
  278SOL     OW 1732   5.205   3.912   2.435
  278SOL    HW1 1733   5.232   4.007   2.453
  278SOL    HW2 1734   5.270   3.871   2.371
  279SOL     OW 1735   0.224   2.833   2.940
  279SOL    HW1 1736   0.198   2.752   2.888
  279SOL    HW2 1737   0.262   2.804   3.029
  280SOL     OW 1738   5.323   0.053   3.702
  280SOL    HW1 1739   5.407   7.026   3.700
  280SOL    HW2 1740   5.245   7.018   3.716
  281SOL     OW 1741   4.636   5.900   3.957
  281SOL    HW1 1742   4.624   5.802   3.936
  281SOL    HW2 1743   4.712   5.936   3.904
  282SOL     OW 1744   4.466   2.277   6.577
  282SOL    HW1 1745   4.483   2.183   6.548
  282SOL    HW2 1746   4.535   2.337   6.537
  283SOL     OW 1747   6.283   1.053   4.950
  283SOL    HW1 1748   6.329   0.982   5.002
  283SOL    HW2 1749   6.338   1.137   4.952
  284SOL     OW 1750   6.881   5.128   5.239
  284SOL    HW1 1751   6.787   5.161   5.247
  284SOL    HW2 1752   6.940   5.181   5.300
  285SOL     OW 1753   4.708   0.405   6.862
  285SOL    HW1 1754   4.725   0.340   6.788
  285SOL    HW2 1755   4.795   0.429   6.905
  286SOL     OW 1756   3.492   4.936   4.551
  286SOL    HW1 1757   3.561   4.904   4.485
  286SOL    HW2 1758   3.409   4.961   4.502
  287SOL     OW 1759   2.856   6.579   5.717
  287SOL    HW1 1760   2.918   6.578   5.795
  287SOL    HW2 1761   2.776   6.635   5.739
  288SOL     OW 1762   3.732   0.982   0.622
  288SOL    HW1 1763   3.665   0.956   0.691
  288SOL    HW2 1764   3.693   1.052   0.562
  289SOL     OW 1765   0.442   6.553   4.526
  289SOL    HW1 1766   0.470   6.622   4.460
  289SOL    HW2 1767   0.418   6.597   4.613
  290SOL     OW 1768   4.148   1.007   3.860
  290SOL    HW1 1769   4.095   1.074   3.807
  290SOL    HW2 1770   4.176   1.049   3.947
  291SOL     OW 1771   4.986   0.607   4.100
  291SOL    HW1 1772   5.017   0.626   4.007
  291SOL    HW2 1773   5.066   0.594   4.159
  292SOL     OW 1774   3.633   0.056   3.736
  292SOL    HW1 1775   3.715   0.057   3.794
  292SOL    HW2 1776   3.657   0.088   3.645
  293SOL     OW 1777   5.915   6.306   2.632
  293SOL    HW1 1778   5.900   6.262   2.544
  293SOL    HW2 1779   6.012   6.300   2.656
  294SOL     OW 1780   5.754   0.562   5.176
  294SOL    HW1 1781   5.830   0.626   5.190
  294SOL    HW2 1782   5.758   0.526   5.083
  295SOL     OW 1783   1.686   2.121   4.997
  295SOL    HW1 1784   1.785   2.128   5.009
  295SOL    HW2 1785   1.644   2.090   5.083
  296SOL     OW 1786   6.750   0.926   1.635
  296SOL    HW1 1787   6.739   0.921   1.535
  296SOL    HW2 1788   6.737   0.835   1.674
  297SOL     OW 1789   5.378   4.312   3.390
  297SOL    HW1 1790   5.393   4.402   3.430
  297SOL    HW2 1791   5.333   4.253   3.457
  298SOL     OW 1792   4.106   0.870   0.107
  298SOL    HW1 1793   4.100   0.796   0.174
  298SOL    HW2 1794   4.156   0.838   0.026
  299SOL     OW 1795   3.265   1.615   6.871
  299SOL    HW1 1796   3.345   1.672   6.892
  299SOL    HW2 1797   3.282   1.563   6.787
  300SOL     OW 1798   3.810   1.216   2.519
  300SOL    HW1 1799   3.822   1.314   2.500
  300SOL    HW2 1800   3.746   1.177   2.453
  301SOL     OW 1801   5.596   5.804   2.156
  301SOL    HW1 1802   5.639   5.751   2.229
  301SOL    HW2 1803   5.528   5.748   2.109
  302SOL     OW 1804   6.917   6.103   1.560
  302SOL    HW1 1805   6.871   6.032   1.614
  302SOL    HW2 1806   6.905   6.191   1.605
  303SOL     OW 1807   6.479   5.634   2.364
  303SOL    HW1 1808   6.475   5.568   2.289
  303SOL    HW2 1809   6.544   5.602   2.433
  304SOL     OW 1810   1.341   0.090   5.109
  304SOL    HW1 1811   1.404   0.037   5.052
  304SOL    HW2 1812   1.308   0.033   5.185
  305SOL     OW 1813   1.528   2.820   1.657
  305SOL    HW1 1814   1.561   2.856   1.569
  305SOL    HW2 1815   1.563   2.727   1.670
  306SOL     OW 1816   6.792   0.809   3.156
  306SOL    HW1 1817   6.871   0.848   3.202
  306SOL    HW2 1818   6.797   0.709   3.160
  307SOL     OW 1819   3.230   3.419   1.598
  307SOL    HW1 1820   3.226   3.402   1.697
  307SOL    HW2 1821   3.293   3.354   1.555
  308SOL     OW 1822   5.428   0.640   4.135
  308SOL    HW1 1823   5.492   0.577   4.178
  308SOL    HW2 1824   5.334   0.618   4.163
  309SOL     OW 1825   0.707   0.077   7.022
  309SOL    HW1 1826   0.635   0.066   6.953
  309SOL    HW2 1827   0.770   0.149   6.993
  310SOL     OW 1828   5.059   6.108   5.115
  310SOL    HW1 1829   5.065   6.204   5.087
  310SOL    HW2 1830   5.141   6.082   5.165
  311SOL     OW 1831   2.152   5.354   3.232
  311SOL    HW1 1832   2.187   5.301   3.155
  311SOL    HW2 1833   2.053   5.343   3.238
  312SOL     OW 1834   4.724   2.371   3.499
  312SOL    HW1 1835   4.772   2.416   3.575
  312SOL    HW2 1836   4.761   2.279   3.487
  313SOL     OW 1837   3.590   3.599   2.956
  313SOL    HW1 1838   3.614   3.645   3.041
  313SOL    HW2 1839   3.670   3.553   2.919
  314SOL     OW 1840   2.000   6.652   5.234
  314SOL    HW1 1841   2.078   6.594   5.260
  314SOL    HW2 1842   2.033   6.743   5.208
  315SOL     OW 1843   6.314   1.038   3.346
  315SOL    HW1 1844   6.311   1.136   3.369
  315SOL    HW2 1845   6.283   0.985   3.425
  316SOL     OW 1846   4.489   1.582   5.529
  316SOL    HW1 1847   4.503   1.677   5.555
  316SOL    HW2 1848   4.527   1.522   5.599
  317SOL     OW 1849   1.255   1.728   1.369
  317SOL    HW1 1850   1.317   1.700   1.296
  317SOL    HW2 1851   1.304   1.728   1.457
  318SOL     OW 1852   6.906   1.012   5.744
  318SOL    HW1 1853   6.968   0.949   5.791
  318SOL    HW2 1854   6.937   1.026   5.650
  319SOL     OW 1855   0.728   2.011   2.881
  319SOL    HW1 1856   0.768   1.953   2.811
  319SOL    HW2 1857   0.665   2.076   2.838
  320SOL     OW 1858   5.749   1.969   6.898
  320SOL    HW1 1859   5.680   1.952   6.969
  320SOL    HW2 1860   5.712   2.035   6.832
  321SOL     OW 1861   3.800   3.011   0.619
  321SOL    HW1 1862   3.798   3.070   0.539
  321SOL    HW2 1863   3.835   3.061   0.698
  322SOL     OW 1864   4.350   3.683   6.569
  322SOL    HW1 1865   4.310   3.769   6.601
  322SOL    HW2 1866   4.446   3.678   6.597
  323SOL     OW 1867   0.670   2.379   3.035
  323SOL    HW1 1868   0.682   2.419   3.126
  323SOL    HW2 1869   0.652   2.451   2.969
  324SOL     OW 1870   1.878   0.354   3.254
  324SOL    HW1 1871   1.902   0.365   3.351
  324SOL    HW2 1872   1.938   0.412   3.198
  325SOL     OW 1873   1.344   3.533   2.580
  325SOL    HW1 1874   1.265   3.592   2.569
  325SOL    HW2 1875   1.349   3.469   2.503
  326SOL     OW 1876   1.849   5.551   6.180
  326SOL    HW1 1877   1.894   5.616   6.119
  326SOL    HW2 1878   1.862   5.581   6.275
  327SOL     OW 1879   3.838   5.693   3.061
  327SOL    HW1 1880   3.875   5.651   2.978
  327SOL    HW2 1881   3.912   5.708   3.127
  328SOL     OW 1882   1.452   3.981   1.702
  328SOL    HW1 1883   1.420   4.005   1.611
  328SOL    HW2 1884   1.477   4.064   1.752
  329SOL     OW 1885   3.058   3.854   1.619
  329SOL    HW1 1886   3.089   3.867   1.713
  329SOL    HW2 1887   2.967   3.894   1.608
  330SOL     OW 1888   3.938   5.318   0.409
  330SOL    HW1 1889   3.981   5.249   0.350
  330SOL    HW2 1890   3.865   5.365   0.359
  331SOL     OW 1891   4.825   5.182   0.875
  331SOL    HW1 1892   4.726   5.186   0.884
  331SOL    HW2 1893   4.864   5.271   0.897
  332SOL     OW 1894   5.625   1.916   3.800
  332SOL    HW1 1895   5.552   1.849   3.815
  332SOL    HW2 1896   5.707   1.869   3.766
  333SOL     OW 1897   4.132   0.830   5.016
  333SOL    HW1 1898   4.192   0.904   5.047
  333SOL    HW2 1899   4.066   0.865   4.951
  334SOL     OW 1900   4.142   3.382   2.817
  334SOL    HW1 1901   4.164   3.441   2.740
  334SOL    HW2 1902   4.180   3.420   2.901
  335SOL     OW 1903   3.833   6.749   7.018
  335SOL    HW1 1904   3.871   6.657   7.008
  335SOL    HW2 1905   3.786   6.757   0.079
  336SOL     OW 1906   2.844   1.187   3.773
  336SOL    HW1 1907   2.782   1.265   3.784
  336SOL    HW2 1908   2.938   1.220   3.764
  337SOL     OW 1909   1.613   1.554   5.608
  337SOL    HW1 1910   1.579   1.547   5.514
  337SOL    HW2 1911   1.709   1.527   5.611
  338SOL     OW 1912   4.268   3.278   1.406
  338SOL    HW1 1913   4.179   3.320   1.386
  338SOL    HW2 1914   4.259   3.178   1.403
  339SOL     OW 1915   3.892   4.893   4.600
  339SOL    HW1 1916   3.868   4.864   4.692
  339SOL    HW2 1917   3.969   4.956   4.604
  340SOL     OW 1918   4.986   2.839   4.778
  340SOL    HW1 1919   4.940   2.867   4.694
  340SOL    HW2 1920   5.034   2.918   4.818
  341SOL     OW 1921   5.677   5.725   4.485
  341SOL    HW1 1922   5.635   5.757   4.570
  341SOL    HW2 1923   5.664   5.793   4.413
  342SOL     OW 1924   4.712   3.832   0.659
  342SOL    HW1 1925   4.691   3.742   0.698
  342SOL    HW2 1926   4.676   3.836   0.566
  343SOL     OW 1927   0.742   5.995   2.574
  343SOL    HW1 1928   0.771   5.947   2.492
  343SOL    HW2 1929   0.645   6.020   2.566
  344SOL     OW 1930   0.881   1.472   1.430
  344SOL    HW1 1931   0.946   1.431   1.494
  344SOL    HW2 1932   0.932   1.518   1.357
  345SOL     OW 1933   0.017   2.313   4.184
  345SOL    HW1 1934   0.024   2.391   4.246
  345SOL    HW2 1935   6.989   2.240   4.228
  346SOL     OW 1936   1.932   0.218   2.790
  346SOL    HW1 1937   2.006   0.272   2.751
  346SOL    HW2 1938   1.908   0.254   2.880
  347SOL     OW 1939   2.193   5.872   0.085
  347SOL    HW1 1940   2.210   5.970   0.078
  347SOL    HW2 1941   2.281   5.823   0.090
  348SOL     OW 1942   4.869   4.991   2.538
  348SOL    HW1 1943   4.823   4.909   2.573
  348SOL    HW2 1944   4.885   4.980   2.440
  349SOL     OW 1945   6.681   4.106   1.333
  349SOL    HW1 1946   6.701   4.008   1.335
  349SOL    HW2 1947   6.757   4.154   1.290
  350SOL     OW 1948   3.288   3.032   0.055
  350SOL    HW1 1949   3.278   3.028   6.981
  350SOL    HW2 1950   3.366   2.976   0.083
  351SOL     OW 1951   3.223   3.716   0.510
  351SOL    HW1 1952   3.177   3.778   0.447
  351SOL    HW2 1953   3.293   3.766   0.561
  352SOL     OW 1954   4.221   6.110   3.760
  352SOL    HW1 1955   4.242   6.016   3.733
  352SOL    HW2 1956   4.153   6.110   3.833
  353SOL     OW 1957   3.262   0.085   6.204
  353SOL    HW1 1958   3.248   0.167   6.149
  353SOL    HW2 1959   3.178   0.031   6.205
  354SOL     OW 1960   5.915   2.793   1.237
  354SOL    HW1 1961   5.997   2.749   1.201
  354SOL    HW2 1962   5.924   2.805   1.336
  355SOL     OW 1963   2.247   2.999   2.682
  355SOL    HW1 1964   2.285   2.973   2.771
  355SOL    HW2 1965   2.200   3.087   2.691
  356SOL     OW 1966   1.798   0.981   4.940
  356SOL    HW1 1967   1.700   0.968   4.949
  356SOL    HW2 1968   1.843   0.892   4.933
  357SOL     OW 1969   6.796   6.149   4.102
  357SOL    HW1 1970   6.717   6.167   4.160
  357SOL    HW2 1971   6.833   6.235   4.066
  358SOL     OW 1972   4.933   5.796   1.211
  358SOL    HW1 1973   4.842   5.802   1.169
  358SOL    HW2 1974   4.994   5.863   1.169
  359SOL     OW 1975   3.446   0.812   2.135
  359SOL    HW1 1976   3.491   0.734   2.179
  359SOL    HW2 1977   3.455   0.893   2.193
  360SOL     OW 1978   1.289   4.640   4.840
  360SOL    HW1 1979   1.273   4.570   4.770
  360SOL    HW2 1980   1.315   4.726   4.795
  361SOL     OW 1981   6.189   6.380   2.571
  361SOL    HW1 1982   6.108   6.439   2.564
  361SOL    HW2 1983   6.213   6.368   2.667
  362SOL     OW 1984   3.938   4.224   0.699
  362SOL    HW1 1985   3.857   4.186   0.653
  362SOL    HW2 1986   3.944   4.189   0.792
  363SOL     OW 1987   6.196   5.079   2.590
  363SOL    HW1 1988   6.237   5.169   2.573
  363SOL    HW2 1989   6.259   5.023   2.644
  364SOL     OW 1990   0.483   4.951   6.820
  364SOL    HW1 1991   0.423   5.026   6.795
  364SOL    HW2 1992   0.490   4.887   6.743
  365SOL     OW 1993   3.617   0.363   1.601
  365SOL    HW1 1994   3.619   0.330   1.507
  365SOL    HW2 1995   3.527   0.402   1.621
  366SOL     OW 1996   6.101   3.458   6.632
  366SOL    HW1 1997   6.126   3.554   6.616
  366SOL    HW2 1998   6.090   3.442   6.730
  367SOL     OW 1999   5.601   2.320   6.097
  367SOL    HW1 2000   5.520   2.345   6.149
  367SOL    HW2 2001   5.574   2.288   6.007
  368SOL     OW 2002   6.813   2.061   5.906
  368SOL    HW1 2003   6.788   2.120   5.984
  368SOL    HW2 2004   6.901   2.090   5.870
  369SOL     OW 2005   5.688   4.070   3.242
  369SOL    HW1 2006   5.623   4.143   3.224
  369SOL    HW2 2007   5.763   4.075   3.176
  370SOL     OW 2008   1.645   2.092   4.106
  370SOL    HW1 2009   1.607   2.122   4.194
  370SOL    HW2 2010   1.736   2.053   4.121
  371SOL     OW 2011   2.107   4.322   7.011
  371SOL    HW1 2012   2.043   4.391   0.019
  371SOL    HW2 2013   2.169   4.295   0.059
  372SOL     OW 2014   1.808   0.127   4.985
  372SOL    HW1 2015   1.776   0.211   4.940
  372SOL    HW2 2016   1.776   0.126   5.080
  373SOL     OW 2017   6.007   6.614   5.543
  373SOL    HW1 2018   6.096   6.648   5.575
  373SOL    HW2 2019   5.964   6.682   5.485
  374SOL     OW 2020   2.338   1.722   2.641
  374SOL    HW1 2021   2.293   1.737   2.553
  374SOL    HW2 2022   2.269   1.727   2.714
  375SOL     OW 2023   0.647   5.207   5.318
  375SOL    HW1 2024   0.568   5.146   5.321
  375SOL    HW2 2025   0.627   5.289   5.372
  376SOL     OW 2026   2.317   0.871   4.981
  376SOL    HW1 2027   2.230   0.911   4.955
  376SOL    HW2 2028   2.318   0.774   4.956
  377SOL     OW 2029   1.893   2.297   0.199
  377SOL    HW1 2030   1.962   2.245   0.149
  377SOL    HW2 2031   1.850   2.237   0.267
  378SOL     OW 2032   3.631   1.163   6.789
  378SOL    HW1 2033   3.696   1.231   6.754
  378SOL    HW2 2034   3.559   1.148   6.721
  379SOL     OW 2035   5.696   2.368   6.834
  379SOL    HW1 2036   5.665   2.462   6.823
  379SOL    HW2 2037   5.724   2.353   6.929
  380SOL     OW 2038   3.217   1.348   1.384
  380SOL    HW1 2039   3.161   1.293   1.323
  380SOL    HW2 2040   3.252   1.428   1.335
  381SOL     OW 2041   2.159   3.780   4.813
  381SOL    HW1 2042   2.135   3.723   4.891
  381SOL    HW2 2043   2.134   3.733   4.728
  382SOL     OW 2044   6.324   0.277   0.073
  382SOL    HW1 2045   6.245   0.276   0.134
  382SOL    HW2 2046   6.405   0.244   0.123
  383SOL     OW 2047   4.498   3.329   0.420
  383SOL    HW1 2048   4.508   3.421   0.382
  383SOL    HW2 2049   4.405   3.298   0.406
  384SOL     OW 2050   0.173   3.843   3.944
  384SOL    HW1 2051   0.132   3.760   3.982
  384SOL    HW2 2052   0.259   3.819   3.897
  385SOL     OW 2053   3.540   5.819   5.888
  385SOL    HW1 2054   3.573   5.753   5.820
  385SOL    HW2 2055   3.441   5.824   5.884
  386SOL     OW 2056   4.260   0.347   3.933
  386SOL    HW1 2057   4.265   0.336   4.032
  386SOL    HW2 2058   4.175   0.396   3.910
  387SOL     OW 2059   1.309   5.578   2.462
  387SOL    HW1 2060   1.306   5.568   2.362
  387SOL    HW2 2061   1.254   5.506   2.505
  388SOL     OW 2062   2.071   2.209   6.776
  388SOL    HW1 2063   2.095   2.306   6.766
  388SOL    HW2 2064   2.068   2.166   6.686
  389SOL     OW 2065   4.137   3.499   2.576
  389SOL    HW1 2066   4.133   3.597   2.557
  389SOL    HW2 2067   4.045   3.461   2.570
  390SOL     OW 2068   2.778   0.735   3.801
  390SOL    HW1 2069   2.758   0.697   3.892
  390SOL    HW2 2070   2.877   0.737   3.786
  391SOL     OW 2071   2.394   2.812   6.172
  391SOL    HW1 2072   2.425   2.870   6.248
  391SOL    HW2 2073   2.440   2.723   6.178
  392SOL     OW 2074   1.884   5.499   1.274
  392SOL    HW1 2075   1.922   5.481   1.184
  392SOL    HW2 2076   1.918   5.587   1.308
  393SOL     OW 2077   6.734   4.276   5.911
  393SOL    HW1 2078   6.786   4.190   5.907
  393SOL    HW2 2079   6.781   4.340   5.972
  394SOL     OW 2080   0.049   6.959   0.206
  394SOL    HW1 2081   0.032   6.922   0.297
  394SOL    HW2 2082   0.135   7.009   0.205
  395SOL     OW 2083   4.768   3.983   2.630
  395SOL    HW1 2084   4.838   3.914   2.612
  395SOL    HW2 2085   4.698   3.978   2.559
  396SOL     OW 2086   3.884   3.984   2.338
  396SOL    HW1 2087   3.874   3.893   2.298
  396SOL    HW2 2088   3.915   4.048   2.267
  397SOL     OW 2089   4.298   2.994   5.860
  397SOL    HW1 2090   4.319   3.081   5.816
  397SOL    HW2 2091   4.246   3.009   5.944
  398SOL     OW 2092   0.750   6.141   1.626
  398SOL    HW1 2093   0.821   6.105   1.566
  398SOL    HW2 2094   0.724   6.233   1.595
  399SOL     OW 2095   5.360   5.990   2.764
  399SOL    HW1 2096   5.289   6.039   2.712
  399SOL    HW2 2097   5.386   6.045   2.844
  400SOL     OW 2098   0.084   0.866   6.127
  400SOL    HW1 2099   0.154   0.892   6.193
  400SOL    HW2 2100   0.027   0.945   6.105
  401SOL     OW 2101   4.828   0.851   6.252
  401SOL    HW1 2102   4.818   0.938   6.300
  401SOL    HW2 2103   4.798   0.862   6.157
  402SOL     OW 2104   6.016   6.644   2.658
  402SOL    HW1 2105   5.992   6.707   2.731
  402SOL    HW2 2106   5.933   6.609   2.615
  403SOL     OW 2107   4.170   2.238   6.414
  403SOL    HW1 2108   4.113   2.200   6.487
  403SOL    HW2 2109   4.254   2.276   6.453
  404SOL     OW 2110   1.232   6.736   3.654
  404SOL    HW1 2111   1.203   6.755   3.748
  404SOL    HW2 2112   1.162   6.682   3.608
  405SOL     OW 2113   2.083   3.054   1.352
  405SOL    HW1 2114   2.026   2.974   1.336
  405SOL    HW2 2115   2.156   3.031   1.416
  406SOL     OW 2116   1.271   2.881   3.798
  406SOL    HW1 2117   1.363   2.877   3.761
  406SOL    HW2 2118   1.237   2.788   3.814
  407SOL     OW 2119   2.195   0.603   3.948
  407SOL    HW1 2120   2.148   0.541   4.011
  407SOL    HW2 2121   2.164   0.696   3.964
  408SOL     OW 2122   1.138   0.941   3.450
  408SOL    HW1 2123   1.162   0.948   3.353
  408SOL    HW2 2124   1.196   1.003   3.502
  409SOL     OW 2125   6.033   3.071   1.983
  409SOL    HW1 2126   5.945   3.070   2.031
  409SOL    HW2 2127   6.062   2.977   1.966
  410SOL     OW 2128   2.082   0.517   6.619
  410SOL    HW1 2129   2.113   0.513   6.524
  410SOL    HW2 2130   2.008   0.452   6.633
  411SOL     OW 2131   6.143   6.627   6.562
  411SOL    HW1 2132   6.047   6.602   6.560
  411SOL    HW2 2133   6.151   6.724   6.588
  412SOL     OW 2134   4.836   0.319   3.274
  412SOL    HW1 2135   4.880   0.232   3.254
  412SOL    HW2 2136   4.737   0.306   3.284
  413SOL     OW 2137   4.865   4.480   1.380
  413SOL    HW1 2138   4.848   4.424   1.298
  413SOL    HW2 2139   4.798   4.554   1.384
  414SOL     OW 2140   3.799   5.450   3.215
  414SOL    HW1 2141   3.733   5.388   3.257
  414SOL    HW2 2142   3.751   5.527   3.174
  415SOL     OW 2143   1.201   6.104   0.379
  415SOL    HW1 2144   1.299   6.121   0.392
  415SOL    HW2 2145   1.178   6.114   0.282
  416SOL     OW 2146   4.663   5.474   5.070
  416SOL    HW1 2147   4.588   5.428   5.022
  416SOL    HW2 2148   4.749   5.428   5.049
  417SOL     OW 2149   2.520   6.496   0.648
  417SOL    HW1 2150   2.489   6.452   0.732
  417SOL    HW2 2151   2.618   6.516   0.654
  418SOL     OW 2152   4.638   6.192   1.075
  418SOL    HW1 2153   4.543   6.215   1.096
  418SOL    HW2 2154   4.640   6.108   1.021
  419SOL     OW 2155   1.240   0.562   1.749
  419SOL    HW1 2156   1.190   0.509   1.681
  419SOL    HW2 2157   1.339   0.548   1.736
  420SOL     OW 2158   6.355   3.204   1.282
  420SOL    HW1 2159   6.301   3.120   1.279
  420SOL    HW2 2160   6.326   3.261   1.359
  421SOL     OW 2161   0.520   5.236   6.509
  421SOL    HW1 2162   0.585   5.160   6.514
  421SOL    HW2 2163   0.561   5.311   6.456
  422SOL     OW 2164   6.119   5.274   0.697
  422SOL    HW1 2165   6.207   5.272   0.744
  422SOL    HW2 2166   6.045   5.277   0.764
  423SOL     OW 2167   0.030   2.718   6.978
  423SOL    HW1 2168   6.987   2.656   7.014
  423SOL    HW2 2169   7.012   2.783   6.916
  424SOL     OW 2170   2.702   3.874   0.848
  424SOL    HW1 2171   2.747   3.959   0.875
  424SOL    HW2 2172   2.768   3.800   0.848
  425SOL     OW 2173   5.329   1.497   2.207
  425SOL    HW1 2174   5.381   1.487   2.291
  425SOL    HW2 2175   5.332   1.411   2.156
  426SOL     OW 2176   5.168   2.289   4.582
  426SOL    HW1 2177   5.189   2.316   4.676
  426SOL    HW2 2178   5.077   2.323   4.557
  427SOL     OW 2179   5.719   4.883   2.454
  427SOL    HW1 2180   5.657   4.899   2.530
  427SOL    HW2 2181   5.813   4.906   2.482
  428SOL     OW 2182   4.569   6.846   4.873
  428SOL    HW1 2183   4.667   6.867   4.877
  428SOL    HW2 2184   4.534   6.872   4.783
  429SOL     OW 2185   2.263   4.677   1.915
  429SOL    HW1 2186   2.258   4.776   1.919
  429SOL    HW2 2187   2.355   4.647   1.940
  430SOL     OW 2188   0.996   0.196   4.470
  430SOL    HW1 2189   1.074   0.143   4.502
  430SOL    HW2 2190   0.963   0.157   4.384
  431SOL     OW 2191   3.748   0.348   0.491
  431SOL    HW1 2192   3.806   0.268   0.505
  431SOL    HW2 2193   3.803   0.424   0.458
  432SOL     OW 2194   6.601   2.610   1.922
  432SOL    HW1 2195   6.530   2.541   1.904
  432SOL    HW2 2196   6.690   2.571   1.900
  433SOL     OW 2197   3.002   6.052   3.883
  433SOL    HW1 2198   2.996   6.149   3.860
  433SOL    HW2 2199   2.953   6.035   3.969
  434SOL     OW 2200   4.823   5.395   1.743
  434SOL    HW1 2201   4.801   5.467   1.810
  434SOL    HW2 2202   4.740   5.371   1.692
  435SOL     OW 2203   3.806   2.091   5.311
  435SOL    HW1 2204   3.874   2.163   5.300
  435SOL    HW2 2205   3.820   2.044   5.398
  436SOL     OW 2206   2.975   6.293   1.258
  436SOL    HW1 2207   2.972   6.349   1.340
  436SOL    HW2 2208   3.039   6.333   1.193
  437SOL     OW 2209   0.906   6.956   6.808
  437SOL    HW1 2210   0.887   0.024   6.780
  437SOL    HW2 2211   0.935   6.903   6.727
  438SOL     OW 2212   1.830   3.163   2.181
  438SOL    HW1 2213   1.845   3.261   2.170
  438SOL    HW2 2214   1.911   3.122   2.224
  439SOL     OW 2215   6.254   4.192   3.588
  439SOL    HW1 2216   6.162   4.223   3.613
  439SOL    HW2 2217   6.286   4.124   3.654
  440SOL     OW 2218   1.274   2.104   4.749
  440SOL    HW1 2219   1.312   2.135   4.836
  440SOL    HW2 2220   1.291   2.172   4.678
  441SOL     OW 2221   0.461   1.711   3.232
  441SOL    HW1 2222   0.515   1.667   3.160
  441SOL    HW2 2223   0.376   1.747   3.193
  442SOL     OW 2224   1.865   4.950   0.119
  442SOL    HW1 2225   1.808   4.987   0.045
  442SOL    HW2 2226   1.954   4.923   0.083
  443SOL     OW 2227   0.885   4.251   5.030
  443SOL    HW1 2228   0.851   4.283   4.942
  443SOL    HW2 2229   0.908   4.153   5.024
  444SOL     OW 2230   5.245   2.257   5.827
  444SOL    HW1 2231   5.292   2.182   5.873
  444SOL    HW2 2232   5.150   2.231   5.808
  445SOL     OW 2233   1.430   5.542   3.567
  445SOL    HW1 2234   1.463   5.462   3.618
  445SOL    HW2 2235   1.341   5.570   3.603
  446SOL     OW 2236   3.930   5.170   3.599
  446SOL    HW1 2237   3.906   5.189   3.695
  446SOL    HW2 2238   3.995   5.239   3.567
  447SOL     OW 2239   0.532   2.991   0.186
  447SOL    HW1 2240   0.595   2.929   0.140
  447SOL    HW2 2241   0.450   3.004   0.131
  448SOL     OW 2242   2.921   0.535   4.600
  448SOL    HW1 2243   2.899   0.494   4.689
  448SOL    HW2 2244   2.927   0.635   4.610
  449SOL     OW 2245   4.008   0.881   5.312
  449SOL    HW1 2246   3.909   0.871   5.321
  449SOL    HW2 2247   4.051   0.790   5.313
  450SOL     OW 2248   1.190   5.779   3.894
  450SOL    HW1 2249   1.123   5.809   3.962
  450SOL    HW2 2250   1.270   5.741   3.941
  451SOL     OW 2251   2.115   2.083   3.204
  451SOL    HW1 2252   2.062   2.113   3.284
  451SOL    HW2 2253   2.084   1.992   3.177
  452SOL     OW 2254   6.598   5.803   1.269
  452SOL    HW1 2255   6.678   5.807   1.328
  452SOL    HW2 2256   6.545   5.721   1.291
  453SOL     OW 2257   3.124   0.347   4.645
  453SOL    HW1 2258   3.199   0.334   4.580
  453SOL    HW2 2259   3.055   0.407   4.605
  454SOL     OW 2260   0.372   5.577   6.127
  454SOL    HW1 2261   0.331   5.660   6.088
  454SOL    HW2 2262   0.306   5.535   6.190
  455SOL     OW 2263   0.172   1.672   3.711
  455SOL    HW1 2264   0.090   1.630   3.749
  455SOL    HW2 2265   0.246   1.604   3.708
  456SOL     OW 2266   5.223   4.909   4.189
  456SOL    HW1 2267   5.286   4.914   4.111
  456SOL    HW2 2268   5.260   4.962   4.265
  457SOL     OW 2269   1.784   3.441   3.182
  457SOL    HW1 2270   1.808   3.411   3.090
  457SOL    HW2 2271   1.866   3.442   3.239
  458SOL     OW 2272   4.977   6.091   4.180
  458SOL    HW1 2273   5.034   6.169   4.154
  458SOL    HW2 2274   4.992   6.069   4.277
  459SOL     OW 2275   1.754   6.907   4.271
  459SOL    HW1 2276   1.760   6.922   4.369
  459SOL    HW2 2277   1.820   6.837   4.243
  460SOL     OW 2278   1.246   0.466   2.851
  460SOL    HW1 2279   1.239   0.389   2.786
  460SOL    HW2 2280   1.155   0.500   2.873
  461SOL     OW 2281   5.853   6.916   5.034
  461SOL    HW1 2282   5.908   6.842   5.072
  461SOL    HW2 2283   5.775   6.878   4.984
  462SOL     OW 2284   3.957   2.722   6.237
  462SOL    HW1 2285   3.918   2.635   6.208
  462SOL    HW2 2286   3.884   2.788   6.253
  463SOL     OW 2287   6.503   5.749   3.538
  463SOL    HW1 2288   6.544   5.829   3.583
  463SOL    HW2 2289   6.537   5.743   3.444
  464SOL     OW 2290   2.604   2.024   6.681
  464SOL    HW1 2291   2.660   1.991   6.605
  464SOL    HW2 2292   2.523   1.966   6.691
  465SOL     OW 2293   1.118   2.758   4.058
  465SOL    HW1 2294   1.209   2.797   4.071
  465SOL    HW2 2295   1.122   2.659   4.068
  466SOL     OW 2296   1.094   4.685   3.004
  466SOL    HW1 2297   1.051   4.602   2.967
  466SOL    HW2 2298   1.069   4.763   2.947
  467SOL     OW 2299   1.234   0.604   6.256
  467SOL    HW1 2300   1.185   0.682   6.216
  467SOL    HW2 2301   1.332   0.623   6.257
  468SOL     OW 2302   3.383   6.351   6.658
  468SOL    HW1 2303   3.436   6.425   6.617
  468SOL    HW2 2304   3.442   6.271   6.670
  469SOL     OW 2305   2.741   4.964   0.509
  469SOL    HW1 2306   2.688   5.007   0.435
  469SOL    HW2 2307   2.827   5.014   0.521
  470SOL     OW 2308   3.838   0.594   2.692
  470SOL    HW1 2309   3.772   0.578   2.765
  470SOL    HW2 2310   3.821   0.683   2.651
  471SOL     OW 2311   1.734   2.423   4.134
  471SOL    HW1 2312   1.673   2.345   4.147
  471SOL    HW2 2313   1.705   2.474   4.052
  472SOL     OW 2314   4.972   4.381   6.694
  472SOL    HW1 2315   4.990   4.426   6.782
  472SOL    HW2 2316   5.029   4.424   6.624
  473SOL     OW 2317   0.644   3.389   2.124
  473SOL    HW1 2318   0.687   3.342   2.202
  473SOL    HW2 2319   0.555   3.347   2.105
  474SOL     OW 2320   5.024   4.673   3.836
  474SOL    HW1 2321   5.111   4.659   3.882
  474SOL    HW2 2322   5.028   4.756   3.781
  475SOL     OW 2323   5.305   1.069   6.021
  475SOL    HW1 2324   5.276   0.987   5.972
  475SOL    HW2 2325   5.226   1.126   6.040
  476SOL     OW 2326   0.098   4.074   2.303
  476SOL    HW1 2327   0.146   4.123   2.230
  476SOL    HW2 2328   0.159   4.005   2.342
  477SOL     OW 2329   1.657   4.655   5.265
  477SOL    HW1 2330   1.614   4.655   5.175
  477SOL    HW2 2331   1.589   4.631   5.334
  478SOL     OW 2332   3.239   0.218   2.646
  478SOL    HW1 2333   3.255   0.121   2.626
  478SOL    HW2 2334   3.144   0.240   2.625
  479SOL     OW 2335   4.545   1.987   6.931
  479SOL    HW1 2336   4.488   1.907   6.909
  479SOL    HW2 2337   4.497   2.044   6.997
  480SOL     OW 2338   2.241   1.266   6.879
  480SOL    HW1 2339   2.188   1.194   6.835
  480SOL    HW2 2340   2.182   1.344   6.898
  481SOL     OW 2341   1.692   0.685   7.019
  481SOL    HW1 2342   1.701   0.616   6.947
  481SOL    HW2 2343   1.727   0.773   6.986
  482SOL     OW 2344   4.551   4.437   3.056
  482SOL    HW1 2345   4.479   4.503   3.081
  482SOL    HW2 2346   4.546   4.418   2.958
  483SOL     OW 2347   6.669   1.613   2.329
  483SOL    HW1 2348   6.582   1.635   2.375
  483SOL    HW2 2349   6.666   1.518   2.297
  484SOL     OW 2350   1.251   2.903   5.206
  484SOL    HW1 2351   1.153   2.923   5.201
  484SOL    HW2 2352   1.302   2.989   5.205
  485SOL     OW 2353   4.178   5.406   2.569
  485SOL    HW1 2354   4.216   5.408   2.662
  485SOL    HW2 2355   4.213   5.326   2.520
  486SOL     OW 2356   7.015   1.560   1.270
  486SOL    HW1 2357   0.079   1.604   1.279
  486SOL    HW2 2358   6.964   1.604   1.197
  487SOL     OW 2359   0.988   1.875   0.643
  487SOL    HW1 2360   1.078   1.905   0.612
  487SOL    HW2 2361   0.920   1.944   0.621
  488SOL     OW 2362   0.727   1.490   1.034
  488SOL    HW1 2363   0.758   1.457   1.123
  488SOL    HW2 2364   0.805   1.499   0.972
  489SOL     OW 2365   3.551   6.475   6.279
  489SOL    HW1 2366   3.604   6.390   6.272
  489SOL    HW2 2367   3.614   6.553   6.278
  490SOL     OW 2368   6.936   5.583   3.163
  490SOL    HW1 2369   6.947   5.486   3.144
  490SOL    HW2 2370   6.913   5.596   3.259
  491SOL     OW 2371   6.774   3.032   2.336
  491SOL    HW1 2372   6.741   2.976   2.260
  491SOL    HW2 2373   6.794   2.973   2.414
  492SOL     OW 2374   2.445   6.736   4.636
  492SOL    HW1 2375   2.449   6.833   4.664
  492SOL    HW2 2376   2.538   6.702   4.623
  493SOL     OW 2377   5.631   6.435   5.934
  493SOL    HW1 2378   5.638   6.505   5.863
  493SOL    HW2 2379   5.700   6.451   6.005
  494SOL     OW 2380   6.968   0.651   6.259
  494SOL    HW1 2381   6.924   0.606   6.181
  494SOL    HW2 2382   7.016   0.733   6.227
  495SOL     OW 2383   4.658   5.756   3.005
  495SOL    HW1 2384   4.712   5.796   3.080
  495SOL    HW2 2385   4.573   5.719   3.042
  496SOL     OW 2386   5.331   3.519   2.590
  496SOL    HW1 2387   5.302   3.519   2.494
  496SOL    HW2 2388   5.394   3.443   2.605
  497SOL     OW 2389   3.559   0.820   5.184
  497SOL    HW1 2390   3.550   0.757   5.106
  497SOL    HW2 2391   3.559   0.914   5.151
  498SOL     OW 2392   1.722   4.382   1.393
  498SOL    HW1 2393   1.625   4.375   1.418
  498SOL    HW2 2394   1.766   4.293   1.402
  499SOL     OW 2395   2.791   0.360   4.197
  499SOL    HW1 2396   2.823   0.273   4.160
  499SOL    HW2 2397   2.856   0.432   4.173
  500SOL     OW 2398   0.978   3.194   2.748
  500SOL    HW1 2399   1.032   3.229   2.825
  500SOL    HW2 2400   0.885   3.230   2.754
  501SOL     OW 2401   2.875   6.531   7.008
  501SOL    HW1 2402   2.909   6.612   0.030
  501SOL    HW2 2403   2.940   6.456   7.020
  502SOL     OW 2404   6.817   4.447   6.639
  502SOL    HW1 2405   6.762   4.364   6.647
  502SOL    HW2 2406   6.781   4.517   6.701
  503SOL     OW 2407   5.567   6.175   6.277
  503SOL    HW1 2408   5.584   6.100   6.213
  503SOL    HW2 2409   5.480   6.160   6.323
  504SOL     OW 2410   1.881   5.292   3.260
  504SOL    HW1 2411   1.918   5.257   3.346
  504SOL    HW2 2412   1.784   5.313   3.271
  505SOL     OW 2413   3.556   6.046   4.700
  505SOL    HW1 2414   3.637   6.105   4.706
  505SOL    HW2 2415   3.477   6.102   4.676
  506SOL     OW 2416   1.918   5.551   4.897
  506SOL    HW1 2417   1.914   5.464   4.849
  506SOL    HW2 2418   1.957   5.537   4.988
  507SOL     OW 2419   3.199   0.835   3.382
  507SOL    HW1 2420   3.202   0.864   3.286
  507SOL    HW2 2421   3.287   0.795   3.408
  508SOL     OW 2422   6.481   3.520   2.628
  508SOL    HW1 2423   6.496   3.421   2.618
  508SOL    HW2 2424   6.495   3.565   2.540
  509SOL     OW 2425   3.511   1.222   1.447
  509SOL    HW1 2426   3.430   1.275   1.425
  509SOL    HW2 2427   3.590   1.283   1.457
  510SOL     OW 2428   6.765   4.911   6.034
  510SOL    HW1 2429   6.778   5.005   6.003
  510SOL    HW2 2430   6.837   4.887   6.100
  511SOL     OW 2431   7.019   0.732   6.535
  511SOL    HW1 2432   6.996   0.829   6.527
  511SOL    HW2 2433   7.009   0.688   6.446
  512SOL     OW 2434   0.119   3.062   0.304
  512SOL    HW1 2435   0.193   3.012   0.350
  512SOL    HW2 2436   0.035   3.009   0.309
  513SOL     OW 2437   5.538   5.962   3.291
  513SOL    HW1 2438   5.537   6.014   3.377
  513SOL    HW2 2439   5.445   5.931   3.271
  514SOL     OW 2440   6.994   2.821   3.874
  514SOL    HW1 2441   6.922   2.818   3.805
  514SOL    HW2 2442   6.954   2.839   3.964
  515SOL     OW 2443   1.970   0.776   6.370
  515SOL    HW1 2444   1.976   0.748   6.465
  515SOL    HW2 2445   1.953   0.874   6.365
  516SOL     OW 2446   2.649   4.451   1.757
  516SOL    HW1 2447   2.722   4.493   1.811
  516SOL    HW2 2448   2.596   4.389   1.814
  517SOL     OW 2449   4.869   5.505   2.145
  517SOL    HW1 2450   4.862   5.564   2.226
  517SOL    HW2 2451   4.848   5.411   2.170
  518SOL     OW 2452   2.247   2.511   2.561
  518SOL    HW1 2453   2.283   2.425   2.525
  518SOL    HW2 2454   2.318   2.581   2.559
  519SOL     OW 2455   0.900   0.859   4.577
  519SOL    HW1 2456   0.902   0.800   4.497
  519SOL    HW2 2457   0.993   0.878   4.608
  520SOL     OW 2458   6.280   4.574   0.137
  520SOL    HW1 2459   6.380   4.570   0.144
  520SOL    HW2 2460   6.240   4.585   0.228
  521SOL     OW 2461   6.954   3.330   6.507
  521SOL    HW1 2462   0.023   3.328   6.476
  521SOL    HW2 2463   6.935   3.248   6.561
  522SOL     OW 2464   3.407   4.026   5.468
  522SOL    HW1 2465   3.383   3.984   5.380
  522SOL    HW2 2466   3.334   4.009   5.534
  523SOL     OW 2467   0.849   4.672   1.691
  523SOL    HW1 2468   0.805   4.628   1.613
  523SOL    HW2 2469   0.803   4.759   1.710
  524SOL     OW 2470   1.548   1.019   6.806
  524SOL    HW1 2471   1.466   1.076   6.818
  524SOL    HW2 2472   1.523   0.923   6.814
  525SOL     OW 2473   2.750   3.732   6.665
  525SOL    HW1 2474   2.674   3.767   6.719
  525SOL    HW2 2475   2.732   3.637   6.639
  526SOL     OW 2476   3.900   0.122   3.909
  526SOL    HW1 2477   3.940   0.134   4.000
  526SOL    HW2 2478   3.949   0.180   3.844
  527SOL     OW 2479   6.562   3.246   6.222
  527SOL    HW1 2480   6.498   3.220   6.294
  527SOL    HW2 2481   6.560   3.177   6.149
  528SOL     OW 2482   0.859   1.231   3.682
  528SOL    HW1 2483   0.956   1.244   3.704
  528SOL    HW2 2484   0.844   1.251   3.585
  529SOL     OW 2485   0.618   6.388   4.803
  529SOL    HW1 2486   0.529   6.360   4.841
  529SOL    HW2 2487   0.635   6.337   4.719
  530SOL     OW 2488   2.745   2.961   5.366
  530SOL    HW1 2489   2.677   2.978   5.294
  530SOL    HW2 2490   2.792   3.047   5.388
  531SOL     OW 2491   0.300   0.307   1.811
  531SOL    HW1 2492   0.350   0.369   1.750
  531SOL    HW2 2493   0.277   0.355   1.895
  532SOL     OW 2494   1.368   2.201   7.008
  532SOL    HW1 2495   1.323   2.187   0.071
  532SOL    HW2 2496   1.410   2.291   7.006
  533SOL     OW 2497   3.831   6.203   3.919
  533SOL    HW1 2498   3.771   6.142   3.971
  533SOL    HW2 2499   3.808   6.198   3.822
  534SOL     OW 2500   5.427   5.241   3.645
  534SOL    HW1 2501   5.381   5.319   3.602
  534SOL    HW2 2502   5.368   5.204   3.717
  535SOL     OW 2503   0.398   3.743   4.778
  535SOL    HW1 2504   0.450   3.666   4.740
  535SOL    HW2 2505   0.385   3.813   4.708
  536SOL     OW 2506   0.294   4.881   1.930
  536SOL    HW1 2507   0.299   4.853   2.026
  536SOL    HW2 2508   0.198   4.888   1.903
  537SOL     OW 2509   1.840   6.430   3.751
  537SOL    HW1 2510   1.865   6.481   3.833
  537SOL    HW2 2511   1.746   6.397   3.760
  538SOL     OW 2512   1.844   3.995   3.727
  538SOL    HW1 2513   1.927   3.991   3.672
  538SOL    HW2 2514   1.843   4.079   3.781
  539SOL     OW 2515   0.818   6.122   0.112
  539SOL    HW1 2516   0.780   6.168   0.032
  539SOL    HW2 2517   0.746   6.108   0.180
  540SOL     OW 2518   6.954   1.108   1.589
  540SOL    HW1 2519   6.881   1.047   1.618
  540SOL    HW2 2520   6.990   1.078   1.500
  541SOL     OW 2521   3.118   6.306   3.544
  541SOL    HW1 2522   3.067   6.391   3.531
  541SOL    HW2 2523   3.098   6.269   3.634
  542SOL     OW 2524   6.389   0.481   6.881
  542SOL    HW1 2525   6.444   0.564   6.870
  542SOL    HW2 2526   6.378   0.461   6.978
  543SOL     OW 2527   1.632   5.218   5.523
  543SOL    HW1 2528   1.688   5.229   5.442
  543SOL    HW2 2529   1.648   5.294   5.586
  544SOL     OW 2530   2.139   4.502   1.265
  544SOL    HW1 2531   2.150   4.470   1.171
  544SOL    HW2 2532   2.212   4.567   1.288
  545SOL     OW 2533   3.407   0.648   3.504
  545SOL    HW1 2534   3.429   0.550   3.504
  545SOL    HW2 2535   3.369   0.673   3.593
  546SOL     OW 2536   1.812   3.194   0.134
  546SOL    HW1 2537   1.735   3.251   0.162
  546SOL    HW2 2538   1.778   3.117   0.079
  547SOL     OW 2539   2.983   1.207   6.480
  547SOL    HW1 2540   2.983   1.110   6.456
  547SOL    HW2 2541   2.977   1.262   6.397
  548SOL     OW 2542   3.939   3.203   2.836
  548SOL    HW1 2543   3.893   3.225   2.922
  548SOL    HW2 2544   4.029   3.249   2.834
  549SOL     OW 2545   4.637   3.076   1.125
  549SOL    HW1 2546   4.568   3.007   1.105
  549SOL    HW2 2547   4.621   3.114   1.217
  550SOL     OW 2548   6.400   4.355   3.429
  550SOL    HW1 2549   6.447   4.437   3.463
  550SOL    HW2 2550   6.350   4.312   3.504
  551SOL     OW 2551   0.439   0.847   1.165
  551SOL    HW1 2552   0.451   0.946   1.167
  551SOL    HW2 2553   0.431   0.812   1.258
  552SOL     OW 2554   4.493   5.429   0.589
  552SOL    HW1 2555   4.591   5.448   0.581
  552SOL    HW2 2556   4.447   5.460   0.505
  553SOL     OW 2557   2.129   6.997   1.801
  553SOL    HW1 2558   2.045   6.944   1.791
  553SOL    HW2 2559   2.208   6.937   1.786
  554SOL     OW 2560   5.186   6.278   6.128
  554SOL    HW1 2561   5.210   6.326   6.213
  554SOL    HW2 2562   5.257   6.210   6.108
  555SOL     OW 2563   2.017   5.083   4.233
  555SOL    HW1 2564   2.072   5.007   4.269
  555SOL    HW2 2565   2.074   5.164   4.226
  556SOL     OW 2566   5.885   2.273   3.808
  556SOL    HW1 2567   5.810   2.211   3.782
  556SOL    HW2 2568   5.871   2.362   3.765
  557SOL     OW 2569   0.706   5.470   6.831
  557SOL    HW1 2570   0.781   5.518   6.878
  557SOL    HW2 2571   0.744   5.399   6.772
  558SOL     OW 2572   3.415   3.949   4.543
  558SOL    HW1 2573   3.419   3.889   4.624
  558SOL    HW2 2574   3.468   4.032   4.561
  559SOL     OW 2575   6.325   6.523   6.727
  559SOL    HW1 2576   6.303   6.576   6.809
  559SOL    HW2 2577   6.246   6.521   6.666
  560SOL     OW 2578   3.791   6.024   0.332
  560SOL    HW1 2579   3.775   5.925   0.331
  560SOL    HW2 2580   3.728   6.067   0.397
  561SOL     OW 2581   6.556   0.716   6.870
  561SOL    HW1 2582   6.538   0.749   6.778
  561SOL    HW2 2583   6.655   0.710   6.885
  562SOL     OW 2584   4.600   0.285   6.258
  562SOL    HW1 2585   4.664   0.354   6.292
  562SOL    HW2 2586   4.506   0.318   6.272
  563SOL     OW 2587   2.588   0.470   3.376
  563SOL    HW1 2588   2.636   0.403   3.320
  563SOL    HW2 2589   2.627   0.471   3.468
  564SOL     OW 2590   2.688   1.968   6.143
  564SOL    HW1 2591   2.658   1.923   6.059
  564SOL    HW2 2592   2.680   2.068   6.132
  565SOL     OW 2593   4.271   3.345   5.541
  565SOL    HW1 2594   4.217   3.393   5.610
  565SOL    HW2 2595   4.219   3.266   5.508
  566SOL     OW 2596   5.861   3.822   3.661
  566SOL    HW1 2597   5.893   3.906   3.704
  566SOL    HW2 2598   5.793   3.844   3.591
  567SOL     OW 2599   2.943   3.478   2.911
  567SOL    HW1 2600   2.900   3.492   3.000
  567SOL    HW2 2601   3.027   3.425   2.923
  568SOL     OW 2602   3.292   2.534   1.112
  568SOL    HW1 2603   3.390   2.516   1.103
  568SOL    HW2 2604   3.252   2.469   1.176
  569SOL     OW 2605   1.897   3.238   0.559
  569SOL    HW1 2606   1.889   3.337   0.554
  569SOL    HW2 2607   1.809   3.198   0.583
  570SOL     OW 2608   2.450   6.492   5.519
  570SOL    HW1 2609   2.542   6.493   5.479
  570SOL    HW2 2610   2.450   6.436   5.602
  571SOL     OW 2611   3.747   6.940   2.870
  571SOL    HW1 2612   3.672   6.994   2.832
  571SOL    HW2 2613   3.743   6.847   2.834
  572SOL     OW 2614   2.767   4.747   5.765
  572SOL    HW1 2615   2.675   4.761   5.729
  572SOL    HW2 2616   2.769   4.665   5.822
  573SOL     OW 2617   4.234   1.798   5.402
  573SOL    HW1 2618   4.259   1.703   5.381
  573SOL    HW2 2619   4.306   1.838   5.459
  574SOL     OW 2620   2.142   2.410   3.478
  574SOL    HW1 2621   2.161   2.312   3.487
  574SOL    HW2 2622   2.143   2.435   3.381
  575SOL     OW 2623   6.364   4.133   5.895
  575SOL    HW1 2624   6.270   4.100   5.892
  575SOL    HW2 2625   6.392   4.161   5.802
  576SOL     OW 2626   1.787   1.901   2.243
  576SOL    HW1 2627   1.725   1.977   2.223
  576SOL    HW2 2628   1.872   1.913   2.192
  577SOL     OW 2629   2.451   0.672   3.250
  577SOL    HW1 2630   2.472   0.579   3.279
  577SOL    HW2 2631   2.510   0.697   3.173
  578SOL     OW 2632   6.624   3.510   3.428
  578SOL    HW1 2633   6.591   3.423   3.390
  578SOL    HW2 2634   6.673   3.561   3.358
  579SOL     OW 2635   3.255   2.057   1.340
  579SOL    HW1 2636   3.292   2.147   1.367
  579SOL    HW2 2637   3.205   2.066   1.254
  580SOL     OW 2638   0.783   4.719   6.817
  580SOL    HW1 2639   0.840   4.642   6.847
  580SOL    HW2 2640   0.740   4.762   6.896
  581SOL     OW 2641   3.239   3.515   2.719
  581SOL    HW1 2642   3.229   3.608   2.754
  581SOL    HW2 2643   3.258   3.453   2.795
  582SOL     OW 2644   5.534   4.784   2.874
  582SOL    HW1 2645   5.633   4.797   2.874
  582SOL    HW2 2646   5.509   4.722   2.949
  583SOL     OW 2647   2.752   5.056   6.780
  583SOL    HW1 2648   2.718   5.123   6.714
  583SOL    HW2 2649   2.781   5.102   6.863
  584SOL     OW 2650   1.396   5.602   5.293
  584SOL    HW1 2651   1.328   5.570   5.358
  584SOL    HW2 2652   1.370   5.693   5.259
  585SOL     OW 2653   6.502   3.015   6.061
  585SOL    HW1 2654   6.492   3.054   5.970
  585SOL    HW2 2655   6.432   2.945   6.075
  586SOL     OW 2656   3.072   0.178   0.219
  586SOL    HW1 2657   3.158   0.130   0.205
  586SOL    HW2 2658   3.088   0.277   0.215
  587SOL     OW 2659   2.070   2.146   5.443
  587SOL    HW1 2660   2.064   2.203   5.525
  587SOL    HW2 2661   2.008   2.181   5.373
  588SOL     OW 2662   3.403   5.717   0.880
  588SOL    HW1 2663   3.313   5.687   0.913
  588SOL    HW2 2664   3.472   5.650   0.907
  589SOL     OW 2665   3.712   5.399   1.973
  589SOL    HW1 2666   3.662   5.399   1.886
  589SOL    HW2 2667   3.717   5.305   2.009
  590SOL     OW 2668   6.279   2.796   1.711
  590SOL    HW1 2669   6.231   2.800   1.799
  590SOL    HW2 2670   6.279   2.887   1.669
  591SOL     OW 2671   3.788   6.443   4.005
  591SOL    HW1 2672   3.864   6.454   4.069
  591SOL    HW2 2673   3.798   6.357   3.956
  592SOL     OW 2674   4.207   0.166   0.819
  592SOL    HW1 2675   4.257   0.086   0.786
  592SOL    HW2 2676   4.248   0.199   0.904
  593SOL     OW 2677   4.395   1.914   3.766
  593SOL    HW1 2678   4.356   1.832   3.725
  593SOL    HW2 2679   4.464   1.953   3.704
  594SOL     OW 2680   4.253   2.839   6.686
  594SOL    HW1 2681   4.222   2.820   6.778
  594SOL    HW2 2682   4.213   2.773   6.622
  595SOL     OW 2683   4.709   6.556   3.688
  595SOL    HW1 2684   4.660   6.638   3.718
  595SOL    HW2 2685   4.648   6.477   3.692
  596SOL     OW 2686   1.073   3.723   1.448
  596SOL    HW1 2687   1.083   3.634   1.403
  596SOL    HW2 2688   0.978   3.752   1.445
  597SOL     OW 2689   4.607   0.189   6.007
  597SOL    HW1 2690   4.672   0.218   5.937
  597SOL    HW2 2691   4.624   0.241   6.091
  598SOL     OW 2692   3.390   4.071   0.244
  598SOL    HW1 2693   3.359   3.978   0.227
  598SOL    HW2 2694   3.329   4.116   0.309
  599SOL     OW 2695   0.644   0.228   3.098
  599SOL    HW1 2696   0.592   0.259   3.018
  599SOL    HW2 2697   0.718   0.293   3.117
  600SOL     OW 2698   0.869   0.110   1.081
  600SOL    HW1 2699   0.785   0.063   1.107
  600SOL    HW2 2700   0.924   0.050   1.023
  601SOL     OW 2701   3.085   5.769   3.882
  601SOL    HW1 2702   3.084   5.869   3.872
  601SOL    HW2 2703   2.990   5.736   3.888
  602SOL     OW 2704   0.868   1.851   0.241
  602SOL    HW1 2705   0.946   1.913   0.230
  602SOL    HW2 2706   0.901   1.762   0.273
  603SOL     OW 2707   4.187   1.841   4.008
  603SOL    HW1 2708   4.266   1.807   4.058
  603SOL    HW2 2709   4.213   1.861   3.914
  604SOL     OW 2710   0.311   3.234   1.320
  604SOL    HW1 2711   0.410   3.240   1.308
  604SOL    HW2 2712   0.276   3.323   1.349
  605SOL     OW 2713   6.558   5.513   2.948
  605SOL    HW1 2714   6.513   5.489   3.034
  605SOL    HW2 2715   6.525   5.603   2.918
  606SOL     OW 2716   5.054   1.068   5.604
  606SOL    HW1 2717   5.039   1.062   5.505
  606SOL    HW2 2718   5.123   1.001   5.631
  607SOL     OW 2719   5.563   0.698   4.953
  607SOL    HW1 2720   5.519   0.714   4.864
  607SOL    HW2 2721   5.620   0.616   4.947
  608SOL     OW 2722   3.525   0.012   0.392
  608SOL    HW1 2723   3.581   0.089   0.362
  608SOL    HW2 2724   3.514   0.015   0.491
  609SOL     OW 2725   3.523   3.207   4.307
  609SOL    HW1 2726   3.439   3.188   4.256
  609SOL    HW2 2727   3.541   3.131   4.370
  610SOL     OW 2728   5.633   2.090   3.356
  610SOL    HW1 2729   5.566   2.035   3.307
  610SOL    HW2 2730   5.652   2.173   3.304
  611SOL     OW 2731   0.798   0.581   6.855
  611SOL    HW1 2732   0.791   0.605   6.758
  611SOL    HW2 2733   0.723   0.521   6.880
  612SOL     OW 2734   3.276   5.916   5.928
  612SOL    HW1 2735   3.271   5.945   6.023
  612SOL    HW2 2736   3.237   5.987   5.869
  613SOL     OW 2737   4.791   0.734   5.623
  613SOL    HW1 2738   4.881   0.740   5.666
  613SOL    HW2 2739   4.762   0.638   5.620
  614SOL     OW 2740   5.759   4.432   1.230
  614SOL    HW1 2741   5.826   4.448   1.303
  614SOL    HW2 2742   5.763   4.507   1.164
  615SOL     OW 2743   1.136   0.742   0.139
  615SOL    HW1 2744   1.047   0.724   0.180
  615SOL    HW2 2745   1.209   0.724   0.205
  616SOL     OW 2746   6.129   1.801   3.856
  616SOL    HW1 2747   6.172   1.869   3.915
  616SOL    HW2 2748   6.200   1.746   3.812
  617SOL     OW 2749   0.656   4.031   6.791
  617SOL    HW1 2750   0.559   4.042   6.812
  617SOL    HW2 2751   0.673   4.051   6.694
  618SOL     OW 2752   5.714   3.683   0.770
  618SOL    HW1 2753   5.753   3.597   0.800
  618SOL    HW2 2754   5.763   3.759   0.813
  619SOL     OW 2755   4.023   0.048   6.611
  619SOL    HW1 2756   3.959   0.119   6.583
  619SOL    HW2 2757   4.020   0.038   6.710
  620SOL     OW 2758   5.497   2.892   1.249
  620SOL    HW1 2759   5.576   2.948   1.221
  620SOL    HW2 2760   5.489   2.814   1.187
  621SOL     OW 2761   2.301   0.227   5.042
  621SOL    HW1 2762   2.378   0.280   5.006
  621SOL    HW2 2763   2.333   0.135   5.066
  622SOL     OW 2764   0.761   2.204   5.308
  622SOL    HW1 2765   0.711   2.214   5.394
  622SOL    HW2 2766   0.857   2.230   5.322
  623SOL     OW 2767   6.473   0.036   5.137
  623SOL    HW1 2768   6.530   0.106   5.181
  623SOL    HW2 2769   6.514   0.011   5.049
  624SOL     OW 2770   6.773   1.189   0.127
  624SOL    HW1 2771   6.747   1.104   0.173
  624SOL    HW2 2772   6.696   1.253   0.130
  625SOL     OW 2773   1.498   1.046   0.250
  625SOL    HW1 2774   1.453   1.007   0.330
  625SOL    HW2 2775   1.541   1.133   0.274
  626SOL     OW 2776   0.704   5.515   2.593
  626SOL    HW1 2777   0.727   5.545   2.500
  626SOL    HW2 2778   0.604   5.517   2.604
  627SOL     OW 2779   6.553   6.347   0.428
  627SOL    HW1 2780   6.536   6.270   0.366
  627SOL    HW2 2781   6.508   6.429   0.392
  628SOL     OW 2782   5.667   3.850   4.788
  628SOL    HW1 2783   5.633   3.757   4.775
  628SOL    HW2 2784   5.725   3.875   4.710
  629SOL     OW 2785   0.289   1.240   0.375
  629SOL    HW1 2786   0.204   1.253   0.324
  629SOL    HW2 2787   0.344   1.169   0.331
  630SOL     OW 2788   6.741   1.483   0.738
  630SOL    HW1 2789   6.654   1.532   0.740
  630SOL    HW2 2790   6.805   1.531   0.678
  631SOL     OW 2791   3.284   1.783   4.278
  631SOL    HW1 2792   3.370   1.737   4.256
  631SOL    HW2 2793   3.252   1.754   4.368
  632SOL     OW 2794   4.246   3.161   0.647
  632SOL    HW1 2795   4.210   3.187   0.736
  632SOL    HW2 2796   4.346   3.162   0.650
  633SOL     OW 2797   2.522   4.601   0.780
  633SOL    HW1 2798   2.443   4.648   0.819
  633SOL    HW2 2799   2.548   4.646   0.695
  634SOL     OW 2800   3.793   3.768   3.981
  634SOL    HW1 2801   3.870   3.707   3.961
  634SOL    HW2 2802   3.750   3.795   3.895
  635SOL     OW 2803   4.768   0.060   6.825
  635SOL    HW1 2804   4.816   0.000   6.890
  635SOL    HW2 2805   4.835   0.119   6.779
  636SOL     OW 2806   3.381   0.395   5.146
  636SOL    HW1 2807   3.464   0.398   5.202
  636SOL    HW2 2808   3.304   0.430   5.199
  637SOL     OW 2809   5.979   1.784   2.608
  637SOL    HW1 2810   5.961   1.806   2.704
  637SOL    HW2 2811   5.903   1.732   2.570
  638SOL     OW 2812   5.880   3.479   3.892
  638SOL    HW1 2813   5.901   3.566   3.937
  638SOL    HW2 2814   5.781   3.465   3.892
  639SOL     OW 2815   5.281   4.566   3.522
  639SOL    HW1 2816   5.226   4.538   3.443
  639SOL    HW2 2817   5.235   4.538   3.606
  640SOL     OW 2818   0.320   4.076   3.552
  640SOL    HW1 2819   0.418   4.077   3.536
  640SOL    HW2 2820   0.277   4.007   3.494
  641SOL     OW 2821   1.622   4.861   5.682
  641SOL    HW1 2822   1.552   4.887   5.615
  641SOL    HW2 2823   1.703   4.920   5.670
  642SOL     OW 2824   1.578   3.219   4.586
  642SOL    HW1 2825   1.659   3.166   4.609
  642SOL    HW2 2826   1.586   3.252   4.491
  643SOL     OW 2827   6.377   0.158   6.604
  643SOL    HW1 2828   6.365   0.192   6.511
  643SOL    HW2 2829   6.416   0.066   6.600
  644SOL     OW 2830   1.282   0.878   4.516
  644SOL    HW1 2831   1.238   0.950   4.570
  644SOL    HW2 2832   1.381   0.880   4.532
  645SOL     OW 2833   3.589   5.008   3.319
  645SOL    HW1 2834   3.560   4.968   3.406
  645SOL    HW2 2835   3.555   4.952   3.244
  646SOL     OW 2836   3.545   0.825   4.614
  646SOL    HW1 2837   3.519   0.883   4.691
  646SOL    HW2 2838   3.481   0.839   4.538
  647SOL     OW 2839   5.048   1.626   4.637
  647SOL    HW1 2840   5.060   1.725   4.624
  647SOL    HW2 2841   5.137   1.581   4.631
  648SOL     OW 2842   6.547   3.252   3.332
  648SOL    HW1 2843   6.475   3.201   3.379
  648SOL    HW2 2844   6.550   3.223   3.236
  649SOL     OW 2845   1.982   4.574   0.371
  649SOL    HW1 2846   2.048   4.568   0.446
  649SOL    HW2 2847   1.947   4.667   0.365
  650SOL     OW 2848   0.091   5.471   0.805
  650SOL    HW1 2849   0.076   5.550   0.745
  650SOL    HW2 2850   0.184   5.474   0.842
  651SOL     OW 2851   1.937   0.409   5.545
  651SOL    HW1 2852   1.880   0.331   5.569
  651SOL    HW2 2853   1.945   0.415   5.445
  652SOL     OW 2854   4.266   6.644   1.838
  652SOL    HW1 2855   4.226   6.669   1.926
  652SOL    HW2 2856   4.255   6.719   1.773
  653SOL     OW 2857   0.555   6.418   0.512
  653SOL    HW1 2858   0.497   6.380   0.441
  653SOL    HW2 2859   0.561   6.354   0.589
  654SOL     OW 2860   6.746   6.640   6.233
  654SOL    HW1 2861   6.801   6.610   6.311
  654SOL    HW2 2862   6.774   6.732   6.206
  655SOL     OW 2863   0.112   5.408   1.758
  655SOL    HW1 2864   0.107   5.308   1.763
  655SOL    HW2 2865   0.119   5.445   1.850
  656SOL     OW 2866   2.183   6.460   0.719
  656SOL    HW1 2867   2.256   6.477   0.785
  656SOL    HW2 2868   2.201   6.374   0.672
  657SOL     OW 2869   3.216   3.639   0.877
  657SOL    HW1 2870   3.302   3.629   0.826
  657SOL    HW2 2871   3.176   3.549   0.891
  658SOL     OW 2872   1.859   4.205   5.788
  658SOL    HW1 2873   1.869   4.161   5.698
  658SOL    HW2 2874   1.945   4.251   5.812
  659SOL     OW 2875   2.996   5.506   4.750
  659SOL    HW1 2876   2.945   5.422   4.731
  659SOL    HW2 2877   3.062   5.488   4.823
  660SOL     OW 2878   4.637   4.856   2.341
  660SOL    HW1 2879   4.669   4.935   2.288
  660SOL    HW2 2880   4.608   4.783   2.279
  661SOL     OW 2881   4.769   4.019   4.505
  661SOL    HW1 2882   4.760   4.094   4.439
  661SOL    HW2 2883   4.791   3.934   4.456
  662SOL     OW 2884   4.444   1.954   6.517
  662SOL    HW1 2885   4.486   1.883   6.573
  662SOL    HW2 2886   4.344   1.949   6.525
  663SOL     OW 2887   0.777   4.474   0.022
  663SOL    HW1 2888   0.845   4.412   7.007
  663SOL    HW2 2889   0.824   4.549   0.068
  664SOL     OW 2890   1.793   5.376   6.927
  664SOL    HW1 2891   1.836   5.450   6.978
  664SOL    HW2 2892   1.844   5.360   6.842
  665SOL     OW 2893   4.059   5.366   1.214
  665SOL    HW1 2894   4.048   5.465   1.225
  665SOL    HW2 2895   4.026   5.338   1.124
  666SOL     OW 2896   3.647   2.058   1.123
  666SOL    HW1 2897   3.641   2.157   1.114
  666SOL    HW2 2898   3.710   2.022   1.053
  667SOL     OW 2899   0.487   2.792   4.186
  667SOL    HW1 2900   0.459   2.736   4.108
  667SOL    HW2 2901   0.527   2.734   4.257
  668SOL     OW 2902   4.542   5.774   6.728
  668SOL    HW1 2903   4.465   5.799   6.670
  668SOL    HW2 2904   4.593   5.699   6.686
  669SOL     OW 2905   1.647   6.698   2.901
  669SOL    HW1 2906   1.658   6.638   2.821
  669SOL    HW2 2907   1.628   6.643   2.982
  670SOL     OW 2908   2.924   3.520   2.258
  670SOL    HW1 2909   2.876   3.450   2.206
  670SOL    HW2 2910   2.971   3.478   2.335
  671SOL     OW 2911   2.409   6.043   5.980
  671SOL    HW1 2912   2.408   6.067   6.077
  671SOL    HW2 2913   2.499   6.064   5.941
  672SOL     OW 2914   1.380   3.531   3.421
  672SOL    HW1 2915   1.286   3.534   3.388
  672SOL    HW2 2916   1.440   3.496   3.350
  673SOL     OW 2917   4.537   6.691   0.342
  673SOL    HW1 2918   4.492   6.760   0.285
  673SOL    HW2 2919   4.581   6.736   0.420
  674SOL     OW 2920   0.367   3.278   4.148
  674SOL    HW1 2921   0.307   3.316   4.219
  674SOL    HW2 2922   0.394   3.350   4.085
  675SOL     OW 2923   0.684   1.714   5.230
  675SOL    HW1 2924   0.649   1.776   5.300
  675SOL    HW2 2925   0.752   1.762   5.174
  676SOL     OW 2926   2.793   4.948   4.237
  676SOL    HW1 2927   2.807   4.934   4.335
  676SOL    HW2 2928   2.715   4.892   4.207
  677SOL     OW 2929   5.911   1.269   0.018
  677SOL    HW1 2930   5.975   1.344   0.032
  677SOL    HW2 2931   5.914   1.241   6.947
  678SOL     OW 2932   2.600   1.391   5.322
  678SOL    HW1 2933   2.512   1.347   5.343
  678SOL    HW2 2934   2.669   1.320   5.306
  679SOL     OW 2935   4.198   1.055   4.801
  679SOL    HW1 2936   4.287   1.093   4.827
  679SOL    HW2 2937   4.195   1.042   4.701
  680SOL     OW 2938   5.823   4.621   5.738
  680SOL    HW1 2939   5.904   4.651   5.688
  680SOL    HW2 2940   5.825   4.521   5.749
  681SOL     OW 2941   6.601   0.319   1.077
  681SOL    HW1 2942   6.680   0.361   1.122
  681SOL    HW2 2943   6.633   0.250   1.013
  682SOL     OW 2944   2.698   6.580   6.206
  682SOL    HW1 2945   2.736   6.511   6.268
  682SOL    HW2 2946   2.601   6.594   6.227
  683SOL     OW 2947   3.255   0.350   6.062
  683SOL    HW1 2948   3.283   0.309   5.975
  683SOL    HW2 2949   3.208   0.437   6.044
  684SOL     OW 2950   6.039   1.519   6.169
  684SOL    HW1 2951   6.111   1.476   6.225
  684SOL    HW2 2952   5.974   1.566   6.228
  685SOL     OW 2953   4.940   0.667   5.896
  685SOL    HW1 2954   4.983   0.577   5.896
  685SOL    HW2 2955   4.847   0.660   5.932
  686SOL     OW 2956   5.991   2.889   3.282
  686SOL    HW1 2957   5.949   2.806   3.319
  686SOL    HW2 2958   6.087   2.871   3.259
  687SOL     OW 2959   6.890   3.032   5.740
  687SOL    HW1 2960   6.808   2.979   5.718
  687SOL    HW2 2961   6.886   3.062   5.835
  688SOL     OW 2962   2.053   3.731   7.005
  688SOL    HW1 2963   2.055   3.636   0.010
  688SOL    HW2 2964   2.141   3.754   6.964
  689SOL     OW 2965   0.782   4.467   5.830
  689SOL    HW1 2966   0.825   4.458   5.740
  689SOL    HW2 2967   0.826   4.403   5.893
  690SOL     OW 2968   0.707   3.140   3.342
  690SOL    HW1 2969   0.729   3.172   3.249
  690SOL    HW2 2970   0.787   3.152   3.400
  691SOL     OW 2971   2.466   1.458   6.548
  691SOL    HW1 2972   2.490   1.387   6.613
  691SOL    HW2 2973   2.389   1.511   6.583
  692SOL     OW 2974   3.073   6.872   3.994
  692SOL    HW1 2975   3.164   6.912   4.004
  692SOL    HW2 2976   3.081   6.782   3.950
  693SOL     OW 2977   6.501   1.639   3.565
  693SOL    HW1 2978   6.562   1.581   3.511
  693SOL    HW2 2979   6.551   1.721   3.595
  694SOL     OW 2980   3.298   5.529   2.513
  694SOL    HW1 2981   3.304   5.617   2.561
  694SOL    HW2 2982   3.240   5.466   2.565
  695SOL     OW 2983   5.138   4.959   5.186
  695SOL    HW1 2984   5.054   4.985   5.233
  695SOL    HW2 2985   5.163   4.865   5.212
  696SOL     OW 2986   3.342   5.178   2.519
  696SOL    HW1 2987   3.278   5.252   2.538
  696SOL    HW2 2988   3.297   5.090   2.535
  697SOL     OW 2989   1.103   3.497   6.253
  697SOL    HW1 2990   1.078   3.474   6.347
  697SOL    HW2 2991   1.099   3.415   6.196
  698SOL     OW 2992   5.840   0.155   5.018
  698SOL    HW1 2993   5.830   0.059   5.047
  698SOL    HW2 2994   5.775   0.175   4.945
  699SOL     OW 2995   1.415   4.302   0.212
  699SOL    HW1 2996   1.376   4.343   0.129
  699SOL    HW2 2997   1.401   4.364   0.289
  700SOL     OW 2998   2.983   2.246   3.654
  700SOL    HW1 2999   2.931   2.285   3.729
  700SOL    HW2 3000   3.081   2.256   3.672
  701SOL     OW 3001   1.186   4.821   6.895
  701SOL    HW1 3002   1.119   4.886   6.860
  701SOL    HW2 3003   1.139   4.743   6.937
  702SOL     OW 3004   5.847   6.271   6.541
  702SOL    HW1 3005   5.875   6.269   6.445
  702SOL    HW2 3006   5.752   6.241   6.549
  703SOL     OW 3007   4.231   3.453   6.797
  703SOL    HW1 3008   4.252   3.509   6.717
  703SOL    HW2 3009   4.314   3.408   6.829
  704SOL     OW 3010   1.930   1.074   6.081
  704SOL    HW1 3011   1.917   1.166   6.043
  704SOL    HW2 3012   1.887   1.070   6.172
  705SOL     OW 3013   5.130   6.894   3.763
  705SOL    HW1 3014   5.148   6.795   3.761
  705SOL    HW2 3015   5.037   6.912   3.733
  706SOL     OW 3016   4.141   1.474   3.502
  706SOL    HW1 3017   4.240   1.468   3.490
  706SOL    HW2 3018   4.095   1.457   3.415
  707SOL     OW 3019   4.319   6.812   2.123
  707SOL    HW1 3020   4.331   6.861   2.209
  707SOL    HW2 3021   4.322   6.876   2.047
  708SOL     OW 3022   4.347   0.294   1.038
  708SOL    HW1 3023   4.445   0.274   1.036
  708SOL    HW2 3024   4.321   0.325   1.129
  709SOL     OW 3025   1.408   5.426   0.934
  709SOL    HW1 3026   1.420   5.525   0.939
  709SOL    HW2 3027   1.497   5.381   0.933
  710SOL     OW 3028   3.568   4.133   2.858
  710SOL    HW1 3029   3.565   4.084   2.771
  710SOL    HW2 3030   3.525   4.223   2.847
  711SOL     OW 3031   0.634   2.004   5.720
  711SOL    HW1 3032   0.626   1.966   5.628
  711SOL    HW2 3033   0.543   2.030   5.753
  712SOL     OW 3034   2.100   4.531   0.757
  712SOL    HW1 3035   2.009   4.573   0.760
  712SOL    HW2 3036   2.094   4.442   0.712
  713SOL     OW 3037   3.376   4.226   0.465
  713SOL    HW1 3038   3.296   4.249   0.409
  713SOL    HW2 3039   3.396   4.301   0.528
  714SOL     OW 3040   6.000   4.564   5.229
  714SOL    HW1 3041   5.931   4.609   5.286
  714SOL    HW2 3042   6.090   4.599   5.254
  715SOL     OW 3043   4.960   6.001   0.196
  715SOL    HW1 3044   4.981   5.912   0.155
  715SOL    HW2 3045   5.028   6.021   0.267
  716SOL     OW 3046   0.966   5.563   1.124
  716SOL    HW1 3047   0.992   5.471   1.095
  716SOL    HW2 3048   0.987   5.628   1.051
  717SOL     OW 3049   6.480   4.848   6.334
  717SOL    HW1 3050   6.469   4.758   6.292
  717SOL    HW2 3051   6.390   4.886   6.356
  718SOL     OW 3052   3.497   1.775   6.168
  718SOL    HW1 3053   3.456   1.685   6.183
  718SOL    HW2 3054   3.597   1.767   6.171
  719SOL     OW 3055   6.050   2.284   1.849
  719SOL    HW1 3056   6.035   2.226   1.768
  719SOL    HW2 3057   6.122   2.350   1.829
  720SOL     OW 3058   2.799   1.603   6.069
  720SOL    HW1 3059   2.853   1.657   6.133
  720SOL    HW2 3060   2.782   1.512   6.108
  721SOL     OW 3061   1.258   0.507   4.728
  721SOL    HW1 3062   1.333   0.502   4.795
  721SOL    HW2 3063   1.218   0.416   4.717
  722SOL     OW 3064   4.161   6.644   5.195
  722SOL    HW1 3065   4.154   6.626   5.293
  722SOL    HW2 3066   4.247   6.692   5.176
  723SOL     OW 3067   2.415   2.826   1.841
  723SOL    HW1 3068   2.503   2.819   1.794
  723SOL    HW2 3069   2.424   2.796   1.935
  724SOL     OW 3070   1.295   1.302   4.680
  724SOL    HW1 3071   1.241   1.265   4.604
  724SOL    HW2 3072   1.238   1.366   4.732
  725SOL     OW 3073   2.999   5.053   1.840
  725SOL    HW1 3074   3.030   5.147   1.857
  725SOL    HW2 3075   3.061   5.008   1.776
  726SOL     OW 3076   3.950   4.562   0.277
  726SOL    HW1 3077   3.954   4.536   0.374
  726SOL    HW2 3078   3.890   4.641   0.266
  727SOL     OW 3079   4.451   5.927   4.184
  727SOL    HW1 3080   4.506   5.905   4.104
  727SOL    HW2 3081   4.435   5.845   4.238
  728SOL     OW 3082   0.345   4.624   4.939
  728SOL    HW1 3083   0.410   4.556   4.905
  728SOL    HW2 3084   0.309   4.593   5.027
  729SOL     OW 3085   2.285   0.722   0.666
  729SOL    HW1 3086   2.313   0.818   0.670
  729SOL    HW2 3087   2.269   0.696   0.571
  730SOL     OW 3088   5.609   6.899   3.274
  730SOL    HW1 3089   5.562   6.945   3.199
  730SOL    HW2 3090   5.706   6.889   3.252
  731SOL     OW 3091   5.619   3.209   6.396
  731SOL    HW1 3092   5.702   3.254   6.364
  731SOL    HW2 3093   5.552   3.205   6.322
  732SOL     OW 3094   0.420   3.544   0.868
  732SOL    HW1 3095   0.442   3.464   0.924
  732SOL    HW2 3096   0.353   3.519   0.799
  733SOL     OW 3097   5.373   4.132   4.672
  733SOL    HW1 3098   5.407   4.225   4.683
  733SOL    HW2 3099   5.420   4.088   4.596
  734SOL     OW 3100   6.576   4.491   2.653
  734SOL    HW1 3101   6.517   4.410   2.651
  734SOL    HW2 3102   6.666   4.467   2.617
  735SOL     OW 3103   3.225   2.235   1.046
  735SOL    HW1 3104   3.244   2.281   1.133
  735SOL    HW2 3105   3.144   2.177   1.055
  736SOL     OW 3106   0.084   6.724   2.337
  736SOL    HW1 3107   0.006   6.752   2.393
  736SOL    HW2 3108   0.122   6.639   2.374
  737SOL     OW 3109   4.877   3.260   0.793
  737SOL    HW1 3110   4.854   3.245   0.889
  737SOL    HW2 3111   4.919   3.178   0.755
  738SOL     OW 3112   1.694   5.254   3.879
  738SOL    HW1 3113   1.617   5.192   3.893
  738SOL    HW2 3114   1.776   5.215   3.921
  739SOL     OW 3115   4.781   6.059   5.606
  739SOL    HW1 3116   4.687   6.088   5.627
  739SOL    HW2 3117   4.779   5.989   5.534
  740SOL     OW 3118   5.620   0.538   0.750
  740SOL    HW1 3119   5.576   0.610   0.696
  740SOL    HW2 3120   5.625   0.566   0.846
  741SOL     OW 3121   2.017   6.431   3.550
  741SOL    HW1 3122   1.936   6.456   3.604
  741SOL    HW2 3123   2.037   6.334   3.564
  742SOL     OW 3124   2.140   6.917   2.306
  742SOL    HW1 3125   2.202   6.887   2.234
  742SOL    HW2 3126   2.193   6.950   2.384
  743SOL     OW 3127   1.460   4.314   4.646
  743SOL    HW1 3128   1.549   4.291   4.608
  743SOL    HW2 3129   1.441   4.411   4.631
  744SOL     OW 3130   6.700   0.152   6.454
  744SOL    HW1 3131   6.635   0.082   6.422
  744SOL    HW2 3132   6.675   0.240   6.415
  745SOL     OW 3133   0.989   6.189   4.420
  745SOL    HW1 3134   1.047   6.116   4.457
  745SOL    HW2 3135   0.975   6.174   4.322
  746SOL     OW 3136   0.414   6.600   5.085
  746SOL    HW1 3137   0.465   6.663   5.026
  746SOL    HW2 3138   0.326   6.579   5.041
  747SOL     OW 3139   4.508   4.913   4.400
  747SOL    HW1 3140   4.431   4.856   4.428
  747SOL    HW2 3141   4.475   4.993   4.352
  748SOL     OW 3142   4.097   5.334   2.842
  748SOL    HW1 3143   4.143   5.251   2.812
  748SOL    HW2 3144   4.081   5.330   2.940
  749SOL     OW 3145   6.678   3.663   5.037
  749SOL    HW1 3146   6.661   3.588   4.973
  749SOL    HW2 3147   6.635   3.642   5.125
  750SOL     OW 3148   1.723   3.031   0.716
  750SOL    HW1 3149   1.670   3.116   0.714
  750SOL    HW2 3150   1.663   2.953   0.700
  751SOL     OW 3151   3.810   1.986   5.883
  751SOL    HW1 3152   3.852   1.903   5.848
  751SOL    HW2 3153   3.711   1.973   5.890
  752SOL     OW 3154   4.140   1.912   2.036
  752SOL    HW1 3155   4.071   1.850   2.073
  752SOL    HW2 3156   4.203   1.939   2.109
  753SOL     OW 3157   2.122   3.104   4.082
  753SOL    HW1 3158   2.116   3.019   4.029
  753SOL    HW2 3159   2.073   3.176   4.034
  754SOL     OW 3160   6.220   3.708   6.264
  754SOL    HW1 3161   6.310   3.749   6.279
  754SOL    HW2 3162   6.151   3.762   6.313
  755SOL     OW 3163   1.067   6.191   0.141
  755SOL    HW1 3164   1.061   6.289   0.122
  755SOL    HW2 3165   0.975   6.154   0.155
  756SOL     OW 3166   4.791   6.718   1.017
  756SOL    HW1 3167   4.737   6.635   1.028
  756SOL    HW2 3168   4.831   6.720   0.925
  757SOL     OW 3169   0.647   5.958   3.116
  757SOL    HW1 3170   0.622   6.037   3.171
  757SOL    HW2 3171   0.566   5.921   3.070
  758SOL     OW 3172   4.016   0.947   1.147
  758SOL    HW1 3173   3.944   1.016   1.136
  758SOL    HW2 3174   4.007   0.905   1.238
  759SOL     OW 3175   6.897   0.943   0.685
  759SOL    HW1 3176   6.968   0.891   0.637
  759SOL    HW2 3177   6.938   1.020   0.733
  760SOL     OW 3178   4.130   1.351   6.564
  760SOL    HW1 3179   4.163   1.332   6.471
  760SOL    HW2 3180   4.171   1.287   6.628
  761SOL     OW 3181   5.261   3.879   6.505
  761SOL    HW1 3182   5.212   3.800   6.541
  761SOL    HW2 3183   5.280   3.865   6.408
  762SOL     OW 3184   2.370   6.323   3.725
  762SOL    HW1 3185   2.316   6.240   3.735
  762SOL    HW2 3186   2.335   6.377   3.648
  763SOL     OW 3187   4.167   5.524   6.295
  763SOL    HW1 3188   4.142   5.567   6.208
  763SOL    HW2 3189   4.153   5.590   6.369
  764SOL     OW 3190   4.659   0.157   4.331
  764SOL    HW1 3191   4.584   0.205   4.285
  764SOL    HW2 3192   4.703   0.095   4.266
  765SOL     OW 3193   1.297   6.424   1.357
  765SOL    HW1 3194   1.376   6.462   1.404
  765SOL    HW2 3195   1.305   6.441   1.259
  766SOL     OW 3196   0.494   1.978   0.451
  766SOL    HW1 3197   0.451   1.944   0.535
  766SOL    HW2 3198   0.423   2.001   0.384
  767SOL     OW 3199   0.469   6.056   2.530
  767SOL    HW1 3200   0.460   6.143   2.481
  767SOL    HW2 3201   0.402   5.991   2.495
  768SOL     OW 3202   2.185   0.370   2.342
  768SOL    HW1 3203   2.209   0.464   2.368
  768SOL    HW2 3204   2.089   0.368   2.312
  769SOL     OW 3205   2.613   6.616   3.902
  769SOL    HW1 3206   2.587   6.614   3.806
  769SOL    HW2 3207   2.576   6.698   3.945
  770SOL     OW 3208   2.029   4.553   2.922
  770SOL    HW1 3209   2.115   4.603   2.934
  770SOL    HW2 3210   2.022   4.523   2.827
  771SOL     OW 3211   1.876   5.376   2.721
  771SOL    HW1 3212   1.961   5.429   2.721
  771SOL    HW2 3213   1.873   5.319   2.803
  772SOL     OW 3214   6.825   5.064   0.775
  772SOL    HW1 3215   6.806   5.027   0.866
  772SOL    HW2 3216   6.923   5.081   0.766
  773SOL     OW 3217   0.733   3.727   3.642
  773SOL    HW1 3218   0.643   3.753   3.607
  773SOL    HW2 3219   0.751   3.631   3.621
  774SOL     OW 3220   1.006   1.579   2.346
  774SOL    HW1 3221   0.999   1.600   2.248
  774SOL    HW2 3222   0.933   1.627   2.395
  775SOL     OW 3223   0.777   1.950   3.339
  775SOL    HW1 3224   0.794   2.029   3.398
  775SOL    HW2 3225   0.721   1.979   3.261
  776SOL     OW 3226   6.911   1.505   5.919
  776SOL    HW1 3227   6.897   1.458   6.006
  776SOL    HW2 3228   6.924   1.603   5.936
  777SOL     OW 3229   3.135   6.431   1.088
  777SOL    HW1 3230   3.154   6.498   1.159
  777SOL    HW2 3231   3.093   6.477   1.009
  778SOL     OW 3232   3.453   1.454   4.058
  778SOL    HW1 3233   3.537   1.410   4.026
  778SOL    HW2 3234   3.467   1.553   4.065
  779SOL     OW 3235   0.815   1.799   2.686
  779SOL    HW1 3236   0.798   1.793   2.588
  779SOL    HW2 3237   0.861   1.716   2.718
  780SOL     OW 3238   5.996   3.501   4.923
  780SOL    HW1 3239   6.074   3.538   4.975
  780SOL    HW2 3240   6.010   3.519   4.826
  781SOL     OW 3241   5.721   1.360   6.130
  781SOL    HW1 3242   5.775   1.362   6.046
  781SOL    HW2 3243   5.781   1.343   6.208
  782SOL     OW 3244   1.384   4.040   0.346
  782SOL    HW1 3245   1.400   4.130   0.307
  782SOL    HW2 3246   1.289   4.034   0.379
  783SOL     OW 3247   3.726   4.542   0.841
  783SOL    HW1 3248   3.699   4.623   0.789
  783SOL    HW2 3249   3.722   4.461   0.781
  784SOL     OW 3250   5.319   6.663   5.718
  784SOL    HW1 3251   5.241   6.722   5.698
  784SOL    HW2 3252   5.294   6.598   5.790
  785SOL     OW 3253   0.146   2.156   3.284
  785SOL    HW1 3254   0.230   2.201   3.255
  785SOL    HW2 3255   0.158   2.121   3.377
  786SOL     OW 3256   1.461   0.715   0.903
  786SOL    HW1 3257   1.488   0.801   0.860
  786SOL    HW2 3258   1.433   0.650   0.832
  787SOL     OW 3259   3.184   1.657   6.524
  787SOL    HW1 3260   3.238   1.731   6.484
  787SOL    HW2 3261   3.131   1.612   6.452
  788SOL     OW 3262   2.202   2.797   5.067
  788SOL    HW1 3263   2.263   2.875   5.083
  788SOL    HW2 3264   2.234   2.718   5.119
  789SOL     OW 3265   5.878   4.164   1.463
  789SOL    HW1 3266   5.966   4.188   1.422
  789SOL    HW2 3267   5.860   4.067   1.450
  790SOL     OW 3268   2.490   1.680   4.184
  790SOL    HW1 3269   2.473   1.591   4.226
  790SOL    HW2 3270   2.412   1.741   4.201
  791SOL     OW 3271   3.820   0.164   3.568
  791SOL    HW1 3272   3.814   0.264   3.569
  791SOL    HW2 3273   3.910   0.136   3.600
  792SOL     OW 3274   0.266   0.411   1.485
  792SOL    HW1 3275   0.359   0.379   1.503
  792SOL    HW2 3276   0.262   0.452   1.394
  793SOL     OW 3277   4.222   6.233   2.245
  793SOL    HW1 3278   4.181   6.285   2.170
  793SOL    HW2 3279   4.171   6.250   2.330
  794SOL     OW 3280   2.571   3.305   5.397
  794SOL    HW1 3281   2.563   3.405   5.398
  794SOL    HW2 3282   2.661   3.279   5.433
  795SOL     OW 3283   2.888   5.514   5.280
  795SOL    HW1 3284   2.819   5.496   5.209
  795SOL    HW2 3285   2.842   5.545   5.363
  796SOL     OW 3286   0.798   2.371   6.405
  796SOL    HW1 3287   0.740   2.319   6.467
  796SOL    HW2 3288   0.894   2.352   6.424
  797SOL     OW 3289   5.514   2.484   2.507
  797SOL    HW1 3290   5.424   2.441   2.515
  797SOL    HW2 3291   5.509   2.560   2.443
  798SOL     OW 3292   4.923   0.113   1.327
  798SOL    HW1 3293   4.849   0.084   1.267
  798SOL    HW2 3294   4.993   0.042   1.330
  799SOL     OW 3295   6.732   1.163   3.860
  799SOL    HW1 3296   6.752   1.257   3.831
  799SOL    HW2 3297   6.781   1.099   3.802
  800SOL     OW 3298   5.943   1.265   2.765
  800SOL    HW1 3299   5.894   1.300   2.685
  800SOL    HW2 3300   6.025   1.216   2.735
  801SOL     OW 3301   1.341   3.785   2.830
  801SOL    HW1 3302   1.357   3.765   2.927
  801SOL    HW2 3303   1.413   3.846   2.797
  802SOL     OW 3304   4.390   0.513   0.345
  802SOL    HW1 3305   4.364   0.454   0.267
  802SOL    HW2 3306   4.332   0.491   0.424
  803SOL     OW 3307   0.007   6.032   5.085
  803SOL    HW1 3308   6.934   6.022   5.081
  803SOL    HW2 3309   0.044   5.972   5.157
  804SOL     OW 3310   6.241   6.286   6.938
  804SOL    HW1 3311   6.146   6.296   6.906
  804SOL    HW2 3312   6.299   6.351   6.891
  805SOL     OW 3313   4.029   2.358   5.826
  805SOL    HW1 3314   4.038   2.330   5.922
  805SOL    HW2 3315   3.934   2.347   5.797
  806SOL     OW 3316   4.424   1.249   4.855
  806SOL    HW1 3317   4.500   1.250   4.790
  806SOL    HW2 3318   4.428   1.331   4.912
  807SOL     OW 3319   0.649   1.588   3.395
  807SOL    HW1 3320   0.747   1.600   3.413
  807SOL    HW2 3321   0.623   1.645   3.317
  808SOL     OW 3322   4.999   3.481   6.371
  808SOL    HW1 3323   5.037   3.559   6.322
  808SOL    HW2 3324   4.900   3.491   6.379
  809SOL     OW 3325   0.801   4.592   1.439
  809SOL    HW1 3326   0.819   4.509   1.385
  809SOL    HW2 3327   0.883   4.649   1.441
  810SOL     OW 3328   4.254   2.551   1.381
  810SOL    HW1 3329   4.287   2.644   1.364
  810SOL    HW2 3330   4.182   2.552   1.449
  811SOL     OW 3331   4.661   5.120   3.567
  811SOL    HW1 3332   4.688   5.118   3.471
  811SOL    HW2 3333   4.638   5.214   3.593
  812SOL     OW 3334   0.163   1.313   1.909
  812SOL    HW1 3335   0.165   1.218   1.941
  812SOL    HW2 3336   0.075   1.331   1.865
  813SOL     OW 3337   3.842   4.881   4.127
  813SOL    HW1 3338   3.819   4.806   4.066
  813SOL    HW2 3339   3.830   4.968   4.078
  814SOL     OW 3340   5.164   6.436   3.538
  814SOL    HW1 3341   5.202   6.411   3.449
  814SOL    HW2 3342   5.135   6.532   3.536
  815SOL     OW 3343   6.680   2.854   2.589
  815SOL    HW1 3344   6.619   2.893   2.520
  815SOL    HW2 3345   6.698   2.922   2.660
  816SOL     OW 3346   6.907   0.031   0.011
  816SOL    HW1 3347   6.812   0.031   0.043
  816SOL    HW2 3348   6.968   0.006   0.086
  817SOL     OW 3349   1.934   3.442   2.190
  817SOL    HW1 3350   1.965   3.537   2.181
  817SOL    HW2 3351   1.960   3.391   2.107
  818SOL     OW 3352   6.536   3.301   0.883
  818SOL    HW1 3353   6.631   3.331   0.883
  818SOL    HW2 3354   6.494   3.320   0.971
  819SOL     OW 3355   6.062   3.038   4.026
  819SOL    HW1 3356   6.083   2.944   4.001
  819SOL    HW2 3357   6.124   3.100   3.977
  820SOL     OW 3358   1.332   2.622   6.257
  820SOL    HW1 3359   1.281   2.548   6.214
  820SOL    HW2 3360   1.429   2.596   6.264
  821SOL     OW 3361   2.547   5.030   0.294
  821SOL    HW1 3362   2.590   4.986   0.215
  821SOL    HW2 3363   2.460   4.986   0.313
  822SOL     OW 3364   1.073   5.100   4.803
  822SOL    HW1 3365   1.085   5.007   4.838
  822SOL    HW2 3366   1.155   5.154   4.823
  823SOL     OW 3367   4.615   4.618   6.724
  823SOL    HW1 3368   4.638   4.528   6.762
  823SOL    HW2 3369   4.549   4.664   6.784
  824SOL     OW 3370   5.708   1.105   5.601
  824SOL    HW1 3371   5.749   1.192   5.572
  824SOL    HW2 3372   5.620   1.093   5.554
  825SOL     OW 3373   1.740   3.866   1.458
  825SOL    HW1 3374   1.658   3.896   1.411
  825SOL    HW2 3375   1.811   3.845   1.390
  826SOL     OW 3376   5.388   4.005   0.310
  826SOL    HW1 3377   5.431   3.969   0.227
  826SOL    HW2 3378   5.449   4.073   0.352
  827SOL     OW 3379   2.975   5.270   5.369
  827SOL    HW1 3380   2.913   5.263   5.447
  827SOL    HW2 3381   2.960   5.358   5.323
  828SOL     OW 3382   6.330   0.680   5.475
  828SOL    HW1 3383   6.315   0.777   5.451
  828SOL    HW2 3384   6.296   0.622   5.401
  829SOL     OW 3385   2.946   3.611   4.402
  829SOL    HW1 3386   3.030   3.666   4.406
  829SOL    HW2 3387   2.867   3.669   4.424
  830SOL     OW 3388   5.293   4.659   5.861
  830SOL    HW1 3389   5.229   4.670   5.785
  830SOL    HW2 3390   5.354   4.583   5.843
  831SOL     OW 3391   6.938   0.461   4.864
  831SOL    HW1 3392   6.909   0.458   4.768
  831SOL    HW2 3393   7.010   0.529   4.875
  832SOL     OW 3394   1.782   0.915   6.941
  832SOL    HW1 3395   1.702   0.943   6.887
  832SOL    HW2 3396   1.819   0.994   6.989
  833SOL     OW 3397   0.647   5.805   6.123
  833SOL    HW1 3398   0.631   5.716   6.080
  833SOL    HW2 3399   0.707   5.793   6.202
  834SOL     OW 3400   3.811   4.255   1.741
  834SOL    HW1 3401   3.804   4.290   1.647
  834SOL    HW2 3402   3.720   4.252   1.782
  835SOL     OW 3403   3.536   0.073   4.224
  835SOL    HW1 3404   3.495   0.081   4.315
  835SOL    HW2 3405   3.609   0.141   4.214
  836SOL     OW 3406   2.950   6.511   6.736
  836SOL    HW1 3407   3.019   6.442   6.714
  836SOL    HW2 3408   2.943   6.521   6.835
  837SOL     OW 3409   4.955   6.600   6.670
  837SOL    HW1 3410   4.988   6.507   6.657
  837SOL    HW2 3411   5.022   6.652   6.724
  838SOL     OW 3412   0.533   0.558   4.635
  838SOL    HW1 3413   0.600   0.489   4.610
  838SOL    HW2 3414   0.533   0.631   4.567
  839SOL     OW 3415   2.566   1.618   2.066
  839SOL    HW1 3416   2.532   1.547   2.004
  839SOL    HW2 3417   2.640   1.581   2.122
  840SOL     OW 3418   5.987   0.593   5.586
  840SOL    HW1 3419   5.910   0.531   5.594
  840SOL    HW2 3420   6.049   0.561   5.514
  841SOL     OW 3421   5.981   4.417   0.570
  841SOL    HW1 3422   5.962   4.460   0.659
  841SOL    HW2 3423   6.076   4.387   0.567
  842SOL     OW 3424   4.282   5.108   4.156
  842SOL    HW1 3425   4.189   5.094   4.192
  842SOL    HW2 3426   4.343   5.132   4.231
  843SOL     OW 3427   4.952   2.096   0.147
  843SOL    HW1 3428   4.905   2.016   0.110
  843SOL    HW2 3429   4.889   2.174   0.148
  844SOL     OW 3430   4.689   6.464   1.099
  844SOL    HW1 3431   4.640   6.474   1.185
  844SOL    HW2 3432   4.685   6.369   1.068
  845SOL     OW 3433   6.441   3.379   3.994
  845SOL    HW1 3434   6.530   3.377   4.042
  845SOL    HW2 3435   6.455   3.356   3.898
  846SOL     OW 3436   5.044   1.531   6.640
  846SOL    HW1 3437   4.978   1.486   6.699
  846SOL    HW2 3438   5.052   1.480   6.554
  847SOL     OW 3439   6.363   3.488   0.736
  847SOL    HW1 3440   6.389   3.580   0.765
  847SOL    HW2 3441   6.421   3.420   0.782
  848SOL     OW 3442   6.240   1.260   6.452
  848SOL    HW1 3443   6.296   1.212   6.385
  848SOL    HW2 3444   6.299   1.308   6.517
  849SOL     OW 3445   0.776   5.699   5.388
  849SOL    HW1 3446   0.773   5.629   5.459
  849SOL    HW2 3447   0.694   5.755   5.392
  850SOL     OW 3448   5.087   0.735   3.149
  850SOL    HW1 3449   4.991   0.737   3.122
  850SOL    HW2 3450   5.111   0.822   3.194
  851SOL     OW 3451   6.948   1.463   0.946
  851SOL    HW1 3452   6.866   1.461   0.889
  851SOL    HW2 3453   6.961   1.373   0.988
  852SOL     OW 3454   2.464   2.622   7.014
  852SOL    HW1 3455   2.441   2.525   7.000
  852SOL    HW2 3456   2.387   2.669   0.030
  853SOL     OW 3457   1.289   3.846   3.542
  853SOL    HW1 3458   1.330   3.895   3.619
  853SOL    HW2 3459   1.228   3.775   3.577
  854SOL     OW 3460   5.011   6.094   2.387
  854SOL    HW1 3461   4.978   6.005   2.420
  854SOL    HW2 3462   5.076   6.132   2.453
  855SOL     OW 3463   5.938   6.717   1.223
  855SOL    HW1 3464   6.014   6.720   1.288
  855SOL    HW2 3465   5.950   6.788   1.154
  856SOL     OW 3466   2.270   1.348   5.023
  856SOL    HW1 3467   2.333   1.400   4.965
  856SOL    HW2 3468   2.191   1.406   5.046
  857SOL     OW 3469   5.802   5.171   1.242
  857SOL    HW1 3470   5.751   5.176   1.156
  857SOL    HW2 3471   5.739   5.161   1.319
  858SOL     OW 3472   2.553   4.652   2.020
  858SOL    HW1 3473   2.530   4.747   1.999
  858SOL    HW2 3474   2.644   4.631   1.982
  859SOL     OW 3475   5.838   5.253   6.612
  859SOL    HW1 3476   5.896   5.290   6.539
  859SOL    HW2 3477   5.795   5.169   6.581
  860SOL     OW 3478   4.723   4.343   0.710
  860SOL    HW1 3479   4.661   4.362   0.786
  860SOL    HW2 3480   4.817   4.336   0.744
  861SOL     OW 3481   2.183   0.044   4.660
  861SOL    HW1 3482   2.136   0.104   4.595
  861SOL    HW2 3483   2.148   0.061   4.752
  862SOL     OW 3484   6.275   3.898   5.126
  862SOL    HW1 3485   6.237   3.970   5.067
  862SOL    HW2 3486   6.255   3.919   5.221
  863SOL     OW 3487   1.402   0.395   0.389
  863SOL    HW1 3488   1.436   0.308   0.353
  863SOL    HW2 3489   1.429   0.404   0.485
  864SOL     OW 3490   5.474   4.559   3.868
  864SOL    HW1 3491   5.533   4.627   3.911
  864SOL    HW2 3492   5.509   4.537   3.777
  865SOL     OW 3493   0.787   6.560   4.979
  865SOL    HW1 3494   0.880   6.537   4.953
  865SOL    HW2 3495   0.723   6.522   4.912
  866SOL     OW 3496   2.039   1.635   1.409
  866SOL    HW1 3497   2.099   1.632   1.329
  866SOL    HW2 3498   2.084   1.590   1.486
  867SOL     OW 3499   3.226   2.363   1.322
  867SOL    HW1 3500   3.141   2.338   1.366
  867SOL    HW2 3501   3.274   2.432   1.377
  868SOL     OW 3502   5.986   6.210   1.146
  868SOL    HW1 3503   5.991   6.256   1.234
  868SOL    HW2 3504   6.075   6.167   1.126
  869SOL     OW 3505   6.160   5.621   3.056
  869SOL    HW1 3506   6.222   5.544   3.071
  869SOL    HW2 3507   6.069   5.586   3.032
  870SOL     OW 3508   5.946   3.990   1.106
  870SOL    HW1 3509   5.856   3.996   1.149
  870SOL    HW2 3510   5.984   4.082   1.097
  871SOL     OW 3511   0.043   3.102   1.866
  871SOL    HW1 3512   0.027   3.018   1.919
  871SOL    HW2 3513   6.993   3.117   1.803
  872SOL     OW 3514   6.613   3.747   4.179
  872SOL    HW1 3515   6.617   3.838   4.137
  872SOL    HW2 3516   6.681   3.688   4.135
  873SOL     OW 3517   4.057   0.651   2.851
  873SOL    HW1 3518   4.044   0.711   2.930
  873SOL    HW2 3519   3.978   0.657   2.790
  874SOL     OW 3520   1.423   3.944   5.456
  874SOL    HW1 3521   1.502   4.001   5.435
  874SOL    HW2 3522   1.349   3.964   5.391
  875SOL     OW 3523   4.981   4.123   0.850
  875SOL    HW1 3524   4.941   4.089   0.935
  875SOL    HW2 3525   5.020   4.214   0.866
  876SOL     OW 3526   6.768   4.568   3.455
  876SOL    HW1 3527   6.677   4.595   3.486
  876SOL    HW2 3528   6.837   4.606   3.516
  877SOL     OW 3529   4.860   4.725   6.782
  877SOL    HW1 3530   4.925   4.682   6.845
  877SOL    HW2 3531   4.768   4.690   6.800
  878SOL     OW 3532   4.030   5.497   6.903
  878SOL    HW1 3533   4.112   5.554   6.911
  878SOL    HW2 3534   3.997   5.501   6.808
  879SOL     OW 3535   4.296   1.971   2.683
  879SOL    HW1 3536   4.275   2.061   2.723
  879SOL    HW2 3537   4.266   1.899   2.745
  880SOL     OW 3538   3.340   4.572   7.025
  880SOL    HW1 3539   3.258   4.542   0.047
  880SOL    HW2 3540   3.402   4.617   0.064
  881SOL     OW 3541   4.271   4.836   5.060
  881SOL    HW1 3542   4.275   4.740   5.032
  881SOL    HW2 3543   4.179   4.872   5.043
  882SOL     OW 3544   2.008   1.409   3.746
  882SOL    HW1 3545   2.032   1.506   3.747
  882SOL    HW2 3546   1.982   1.380   3.838
  883SOL     OW 3547   4.573   5.062   5.477
  883SOL    HW1 3548   4.514   5.107   5.411
  883SOL    HW2 3549   4.633   5.130   5.520
  884SOL     OW 3550   6.856   3.606   2.534
  884SOL    HW1 3551   6.811   3.695   2.543
  884SOL    HW2 3552   6.798   3.545   2.480
  885SOL     OW 3553   5.825   6.731   0.150
  885SOL    HW1 3554   5.769   6.771   0.222
  885SOL    HW2 3555   5.772   6.665   0.098
  886SOL     OW 3556   4.185   0.994   0.497
  886SOL    HW1 3557   4.226   0.909   0.464
  886SOL    HW2 3558   4.160   1.052   0.419
  887SOL     OW 3559   4.191   6.407   5.664
  887SOL    HW1 3560   4.218   6.495   5.701
  887SOL    HW2 3561   4.246   6.335   5.706
  888SOL     OW 3562   6.981   6.279   3.426
  888SOL    HW1 3563   6.930   6.345   3.482
  888SOL    HW2 3564   0.010   6.220   3.486
  889SOL     OW 3565   0.139   0.088   5.760
  889SOL    HW1 3566   0.047   0.127   5.753
  889SOL    HW2 3567   0.191   0.137   5.831
  890SOL     OW 3568   2.840   4.805   2.166
  890SOL    HW1 3569   2.857   4.890   2.116
  890SOL    HW2 3570   2.847   4.728   2.102
  891SOL     OW 3571   5.777   3.504   1.354
  891SOL    HW1 3572   5.707   3.549   1.409
  891SOL    HW2 3573   5.773   3.539   1.260
  892SOL     OW 3574   4.028   3.854   0.471
  892SOL    HW1 3575   4.076   3.767   0.461
  892SOL    HW2 3576   3.952   3.858   0.405
  893SOL     OW 3577   1.777   0.765   0.786
  893SOL    HW1 3578   1.752   0.838   0.849
  893SOL    HW2 3579   1.700   0.746   0.725
  894SOL     OW 3580   1.909   4.194   4.264
  894SOL    HW1 3581   1.965   4.126   4.216
  894SOL    HW2 3582   1.948   4.285   4.250
  895SOL     OW 3583   1.494   6.857   4.544
  895SOL    HW1 3584   1.518   6.763   4.569
  895SOL    HW2 3585   1.400   6.875   4.573
  896SOL     OW 3586   5.876   5.857   4.209
  896SOL    HW1 3587   5.916   5.912   4.282
  896SOL    HW2 3588   5.932   5.864   4.127
  897SOL     OW 3589   4.599   1.092   0.795
  897SOL    HW1 3590   4.578   1.047   0.708
  897SOL    HW2 3591   4.567   1.036   0.871
  898SOL     OW 3592   4.981   5.923   3.969
  898SOL    HW1 3593   4.977   5.976   4.054
  898SOL    HW2 3594   4.920   5.963   3.901
  899SOL     OW 3595   0.441   4.721   0.130
  899SOL    HW1 3596   0.536   4.749   0.123
  899SOL    HW2 3597   0.423   4.685   0.222
  900SOL     OW 3598   6.181   5.852   2.071
  900SOL    HW1 3599   6.176   5.944   2.108
  900SOL    HW2 3600   6.209   5.789   2.144
  901SOL     OW 3601   0.288   1.820   4.586
  901SOL    HW1 3602   0.357   1.875   4.539
  901SOL    HW2 3603   0.292   1.838   4.685
  902SOL     OW 3604   0.227   0.999   6.333
  902SOL    HW1 3605   0.259   1.034   6.421
  902SOL    HW2 3606   0.253   1.063   6.260
  903SOL     OW 3607   6.538   4.545   0.166
  903SOL    HW1 3608   6.586   4.609   0.106
  903SOL    HW2 3609   6.604   4.497   0.224
  904SOL     OW 3610   1.528   1.927   3.920
  904SOL    HW1 3611   1.569   1.983   3.992
  904SOL    HW2 3612   1.429   1.944   3.917
  905SOL     OW 3613   5.123   2.571   0.071
  905SOL    HW1 3614   5.183   2.584   7.019
  905SOL    HW2 3615   5.126   2.475   0.099
  906SOL     OW 3616   0.311   4.333   0.035
  906SOL    HW1 3617   0.411   4.333   0.035
  906SOL    HW2 3618   0.278   4.426   0.027
  907SOL     OW 3619   6.176   2.148   3.037
  907SOL    HW1 3620   6.145   2.073   3.095
  907SOL    HW2 3621   6.249   2.198   3.082
  908SOL     OW 3622   1.051   6.811   4.205
  908SOL    HW1 3623   1.064   6.872   4.127
  908SOL    HW2 3624   1.116   6.834   4.277
  909SOL     OW 3625   2.893   1.078   0.546
  909SOL    HW1 3626   2.946   1.071   0.461
  909SOL    HW2 3627   2.891   0.989   0.591
  910SOL     OW 3628   2.005   0.376   0.969
  910SOL    HW1 3629   2.049   0.431   0.899
  910SOL    HW2 3630   1.938   0.431   1.018
  911SOL     OW 3631   0.440   4.805   1.387
  911SOL    HW1 3632   0.400   4.742   1.321
  911SOL    HW2 3633   0.400   4.790   1.477
  912SOL     OW 3634   0.760   1.315   5.539
  912SOL    HW1 3635   0.808   1.324   5.626
  912SOL    HW2 3636   0.784   1.392   5.479
  913SOL     OW 3637   1.959   0.436   3.491
  913SOL    HW1 3638   1.943   0.530   3.523
  913SOL    HW2 3639   2.054   0.411   3.507
  914SOL     OW 3640   2.500   5.606   4.942
  914SOL    HW1 3641   2.407   5.628   4.972
  914SOL    HW2 3642   2.525   5.666   4.867
  915SOL     OW 3643   0.589   3.245   0.550
  915SOL    HW1 3644   0.648   3.306   0.497
  915SOL    HW2 3645   0.604   3.151   0.520
  916SOL     OW 3646   2.186   2.134   1.728
  916SOL    HW1 3647   2.220   2.042   1.707
  916SOL    HW2 3648   2.096   2.146   1.686
  917SOL     OW 3649   3.930   0.918   1.433
  917SOL    HW1 3650   3.973   0.829   1.416
  917SOL    HW2 3651   3.855   0.906   1.498
  918SOL     OW 3652   3.112   6.300   6.697
  918SOL    HW1 3653   3.091   6.208   6.662
  918SOL    HW2 3654   3.210   6.315   6.693
  919SOL     OW 3655   1.629   6.509   1.961
  919SOL    HW1 3656   1.584   6.598   1.955
  919SOL    HW2 3657   1.605   6.454   1.882
  920SOL     OW 3658   2.546   0.629   2.945
  920SOL    HW1 3659   2.583   0.563   2.881
  920SOL    HW2 3660   2.448   0.642   2.928
  921SOL     OW 3661   6.199   4.473   3.917
  921SOL    HW1 3662   6.192   4.508   4.010
  921SOL    HW2 3663   6.254   4.389   3.916
  922SOL     OW 3664   3.402   3.657   6.584
  922SOL    HW1 3665   3.465   3.650   6.507
  922SOL    HW2 3666   3.435   3.726   6.648
  923SOL     OW 3667   2.583   6.006   0.067
  923SOL    HW1 3668   2.531   5.993   7.008
  923SOL    HW2 3669   2.607   5.917   0.106
  924SOL     OW 3670   5.343   3.069   2.192
  924SOL    HW1 3671   5.328   3.073   2.093
  924SOL    HW2 3672   5.440   3.049   2.209
  925SOL     OW 3673   6.691   1.929   5.702
  925SOL    HW1 3674   6.738   1.944   5.615
  925SOL    HW2 3675   6.758   1.934   5.777
  926SOL     OW 3676   5.926   0.145   0.422
  926SOL    HW1 3677   5.955   0.194   0.505
  926SOL    HW2 3678   5.827   0.158   0.410
  927SOL     OW 3679   4.825   3.914   3.574
  927SOL    HW1 3680   4.783   3.974   3.506
  927SOL    HW2 3681   4.904   3.867   3.534
  928SOL     OW 3682   1.526   0.285   0.624
  928SOL    HW1 3683   1.453   0.218   0.608
  928SOL    HW2 3684   1.609   0.237   0.652
  929SOL     OW 3685   0.004   2.877   2.011
  929SOL    HW1 3686   6.936   2.851   2.034
  929SOL    HW2 3687   0.063   2.797   2.018
  930SOL     OW 3688   6.334   5.091   4.178
  930SOL    HW1 3689   6.314   5.178   4.133
  930SOL    HW2 3690   6.308   5.015   4.118
  931SOL     OW 3691   0.126   3.389   3.316
  931SOL    HW1 3692   0.028   3.408   3.303
  931SOL    HW2 3693   0.155   3.317   3.253
  932SOL     OW 3694   3.524   6.245   2.113
  932SOL    HW1 3695   3.510   6.257   2.211
  932SOL    HW2 3696   3.622   6.240   2.093
  933SOL     OW 3697   1.149   4.381   3.394
  933SOL    HW1 3698   1.081   4.331   3.341
  933SOL    HW2 3699   1.112   4.400   3.485
  934SOL     OW 3700   2.678   1.273   4.565
  934SOL    HW1 3701   2.639   1.182   4.552
  934SOL    HW2 3702   2.695   1.315   4.476
  935SOL     OW 3703   4.873   3.889   6.127
  935SOL    HW1 3704   4.811   3.902   6.049
  935SOL    HW2 3705   4.828   3.921   6.211
  936SOL     OW 3706   0.184   6.719   0.779
  936SOL    HW1 3707   0.108   6.772   0.743
  936SOL    HW2 3708   0.233   6.674   0.704
  937SOL     OW 3709   5.172   1.749   4.265
  937SOL    HW1 3710   5.204   1.718   4.176
  937SOL    HW2 3711   5.109   1.825   4.253
  938SOL     OW 3712   0.344   4.165   6.578
  938SOL    HW1 3713   0.325   4.174   6.676
  938SOL    HW2 3714   0.443   4.176   6.563
  939SOL     OW 3715   5.111   1.219   6.093
  939SOL    HW1 3716   5.120   1.306   6.141
  939SOL    HW2 3717   5.034   1.225   6.028
  940SOL     OW 3718   0.021   1.601   2.882
  940SOL    HW1 3719   0.097   1.634   2.938
  940SOL    HW2 3720   0.009   1.503   2.897
  941SOL     OW 3721   5.760   1.063   3.862
  941SOL    HW1 3722   5.793   0.989   3.804
  941SOL    HW2 3723   5.833   1.131   3.874
  942SOL     OW 3724   5.112   6.997   4.920
  942SOL    HW1 3725   5.114   7.005   4.820
  942SOL    HW2 3726   5.196   0.009   4.959
  943SOL     OW 3727   0.246   3.382   2.199
  943SOL    HW1 3728   0.158   3.334   2.194
  943SOL    HW2 3729   0.243   3.464   2.143
  944SOL     OW 3730   6.237   3.602   5.025
  944SOL    HW1 3731   6.310   3.588   4.958
  944SOL    HW2 3732   6.242   3.695   5.060
  945SOL     OW 3733   5.121   4.626   4.380
  945SOL    HW1 3734   5.100   4.724   4.386
  945SOL    HW2 3735   5.047   4.579   4.331
  946SOL     OW 3736   6.417   2.785   6.370
  946SOL    HW1 3737   6.437   2.736   6.285
  946SOL    HW2 3738   6.498   2.783   6.429
  947SOL     OW 3739   3.250   3.780   6.212
  947SOL    HW1 3740   3.209   3.751   6.298
  947SOL    HW2 3741   3.334   3.728   6.197
  948SOL     OW 3742   4.132   1.117   0.248
  948SOL    HW1 3743   4.110   1.039   0.190
  948SOL    HW2 3744   4.049   1.167   0.271
  949SOL     OW 3745   6.842   6.094   5.783
  949SOL    HW1 3746   6.825   6.168   5.849
  949SOL    HW2 3747   6.759   6.077   5.730
  950SOL     OW 3748   3.956   5.167   2.647
  950SOL    HW1 3749   4.006   5.168   2.560
  950SOL    HW2 3750   3.972   5.080   2.694
  951SOL     OW 3751   0.632   0.486   1.827
  951SOL    HW1 3752   0.641   0.563   1.890
  951SOL    HW2 3753   0.686   0.409   1.860
  952SOL     OW 3754   5.453   2.053   2.494
  952SOL    HW1 3755   5.436   2.149   2.469
  952SOL    HW2 3756   5.469   2.000   2.410
  953SOL     OW 3757   4.517   6.096   5.658
  953SOL    HW1 3758   4.440   6.095   5.594
  953SOL    HW2 3759   4.507   6.020   5.723
  954SOL     OW 3760   6.025   0.135   1.227
  954SOL    HW1 3761   6.038   0.229   1.258
  954SOL    HW2 3762   5.928   0.117   1.215
  955SOL     OW 3763   0.787   4.899   3.828
  955SOL    HW1 3764   0.688   4.896   3.812
  955SOL    HW2 3765   0.808   4.852   3.913
  956SOL     OW 3766   1.040   1.600   1.258
  956SOL    HW1 3767   1.116   1.621   1.320
  956SOL    HW2 3768   1.038   1.668   1.185
  957SOL     OW 3769   1.475   4.988   5.510
  957SOL    HW1 3770   1.385   4.989   5.467
  957SOL    HW2 3771   1.533   5.056   5.466
  958SOL     OW 3772   5.305   1.876   0.436
  958SOL    HW1 3773   5.309   1.792   0.489
  958SOL    HW2 3774   5.394   1.893   0.394
  959SOL     OW 3775   2.941   4.781   3.094
  959SOL    HW1 3776   2.889   4.769   3.009
  959SOL    HW2 3777   2.879   4.773   3.172
  960SOL     OW 3778   1.202   6.029   4.247
  960SOL    HW1 3779   1.277   6.044   4.311
  960SOL    HW2 3780   1.177   6.115   4.204
  961SOL     OW 3781   3.952   6.717   2.221
  961SOL    HW1 3782   4.000   6.666   2.292
  961SOL    HW2 3783   3.948   6.814   2.245
  962SOL     OW 3784   1.332   1.407   3.649
  962SOL    HW1 3785   1.387   1.457   3.582
  962SOL    HW2 3786   1.388   1.389   3.730
  963SOL     OW 3787   6.172   0.471   0.538
  963SOL    HW1 3788   6.168   0.496   0.441
  963SOL    HW2 3789   6.172   0.554   0.594
  964SOL     OW 3790   5.392   3.106   1.027
  964SOL    HW1 3791   5.461   3.153   1.081
  964SOL    HW2 3792   5.309   3.162   1.024
  965SOL     OW 3793   6.195   2.020   0.557
  965SOL    HW1 3794   6.167   1.932   0.594
  965SOL    HW2 3795   6.128   2.090   0.584
  966SOL     OW 3796   5.916   1.256   3.117
  966SOL    HW1 3797   5.909   1.159   3.137
  966SOL    HW2 3798   5.986   1.271   3.048
  967SOL     OW 3799   1.436   5.680   0.971
  967SOL    HW1 3800   1.500   5.725   1.034
  967SOL    HW2 3801   1.411   5.744   0.898
  968SOL     OW 3802   4.882   2.444   2.257
  968SOL    HW1 3803   4.954   2.471   2.194
  968SOL    HW2 3804   4.794   2.447   2.210
  969SOL     OW 3805   3.511   5.829   5.193
  969SOL    HW1 3806   3.445   5.755   5.183
  969SOL    HW2 3807   3.467   5.916   5.171
  970SOL     OW 3808   4.538   1.657   5.235
  970SOL    HW1 3809   4.597   1.732   5.266
  970SOL    HW2 3810   4.549   1.579   5.296
  971SOL     OW 3811   0.045   1.009   2.486
  971SOL    HW1 3812   0.009   1.092   2.528
  971SOL    HW2 3813   0.078   0.947   2.558
  972SOL     OW 3814   5.958   4.466   0.856
  972SOL    HW1 3815   5.871   4.425   0.829
  972SOL    HW2 3816   5.943   4.561   0.882
  973SOL     OW 3817   0.257   5.089   6.600
  973SOL    HW1 3818   0.196   5.021   6.640
  973SOL    HW2 3819   0.281   5.157   6.670
  974SOL     OW 3820   3.750   0.739   2.333
  974SOL    HW1 3821   3.732   0.791   2.416
  974SOL    HW2 3822   3.727   0.643   2.347
  975SOL     OW 3823   2.884   6.312   6.271
  975SOL    HW1 3824   2.921   6.403   6.252
  975SOL    HW2 3825   2.950   6.260   6.326
  976SOL     OW 3826   6.715   2.846   2.130
  976SOL    HW1 3827   6.770   2.787   2.189
  976SOL    HW2 3828   6.640   2.793   2.090
  977SOL     OW 3829   2.084   1.609   4.072
  977SOL    HW1 3830   1.994   1.653   4.076
  977SOL    HW2 3831   2.073   1.511   4.057
  978SOL     OW 3832   5.177   3.937   4.696
  978SOL    HW1 3833   5.271   3.970   4.709
  978SOL    HW2 3834   5.113   4.011   4.715
  979SOL     OW 3835   6.411   1.417   3.125
  979SOL    HW1 3836   6.484   1.486   3.119
  979SOL    HW2 3837   6.388   1.402   3.221
  980SOL     OW 3838   5.104   2.176   3.633
  980SOL    HW1 3839   5.154   2.090   3.640
  980SOL    HW2 3840   5.160   2.244   3.585
  981SOL     OW 3841   1.726   1.769   4.869
  981SOL    HW1 3842   1.780   1.694   4.832
  981SOL    HW2 3843   1.788   1.844   4.894
  982SOL     OW 3844   1.796   2.476   2.695
  982SOL    HW1 3845   1.779   2.548   2.762
  982SOL    HW2 3846   1.768   2.509   2.604
  983SOL     OW 3847   5.790   2.727   3.574
  983SOL    HW1 3848   5.828   2.818   3.559
  983SOL    HW2 3849   5.694   2.725   3.544
  984SOL     OW 3850   3.959   0.339   4.765
  984SOL    HW1 3851   3.934   0.431   4.793
  984SOL    HW2 3852   3.878   0.281   4.764
  985SOL     OW 3853   4.431   4.737   6.883
  985SOL    HW1 3854   4.406   4.720   6.978
  985SOL    HW2 3855   4.370   4.807   6.845
  986SOL     OW 3856   5.536   5.626   0.020
  986SOL    HW1 3857   5.602   5.586   0.084
  986SOL    HW2 3858   5.536   5.574   6.961
  987SOL     OW 3859   3.685   6.763   1.042
  987SOL    HW1 3860   3.751   6.692   1.019
  987SOL    HW2 3861   3.703   6.798   1.134
  988SOL     OW 3862   4.365   2.349   1.101
  988SOL    HW1 3863   4.380   2.304   1.189
  988SOL    HW2 3864   4.448   2.344   1.046
  989SOL     OW 3865   0.366   0.770   5.870
  989SOL    HW1 3866   0.367   0.671   5.859
  989SOL    HW2 3867   0.404   0.813   5.787
  990SOL     OW 3868   5.201   6.635   3.818
  990SOL    HW1 3869   5.129   6.567   3.824
  990SOL    HW2 3870   5.254   6.635   3.902
  991SOL     OW 3871   1.798   1.507   4.755
  991SOL    HW1 3872   1.777   1.410   4.755
  991SOL    HW2 3873   1.827   1.535   4.663
  992SOL     OW 3874   0.759   3.103   0.281
  992SOL    HW1 3875   0.672   3.084   0.236
  992SOL    HW2 3876   0.795   3.018   0.320
  993SOL     OW 3877   2.451   5.443   2.617
  993SOL    HW1 3878   2.425   5.534   2.649
  993SOL    HW2 3879   2.370   5.394   2.587
  994SOL     OW 3880   3.407   3.801   2.863
  994SOL    HW1 3881   3.378   3.861   2.937
  994SOL    HW2 3882   3.448   3.718   2.902
  995SOL     OW 3883   2.359   2.167   6.364
  995SOL    HW1 3884   2.323   2.179   6.456
  995SOL    HW2 3885   2.458   2.184   6.365
  996SOL     OW 3886   1.909   3.967   4.056
  996SOL    HW1 3887   1.851   3.957   4.137
  996SOL    HW2 3888   1.881   3.900   3.987
  997SOL     OW 3889   6.863   0.071   1.637
  997SOL    HW1 3890   6.949   0.109   1.670
  997SOL    HW2 3891   6.786   0.125   1.671
  998SOL     OW 3892   4.820   6.950   3.527
  998SOL    HW1 3893   4.726   6.928   3.500
  998SOL    HW2 3894   4.876   6.964   3.445
  999SOL     OW 3895   5.264   5.517   1.581
  999SOL    HW1 3896   5.280   5.596   1.641
  999SOL    HW2 3897   5.167   5.495   1.581
 1000SOL     OW 3898   0.528   1.201   2.468
 1000SOL    HW1 3899   0.509   1.297   2.449
 1000SOL    HW2 3900   0.551   1.154   2.383
 1001SOL     OW 3901   4.459   6.475   6.645
 1001SOL    HW1 3902   4.360   6.458   6.647
 1001SOL    HW2 3903   4.478   6.566   6.682
 1002SOL     OW 3904   5.309   1.589   6.714
 1002SOL    HW1 3905   5.334   1.656   6.645
 1002SOL    HW2 3906   5.217   1.554   6.696
 1003SOL     OW 3907   2.751   6.924   1.775
 1003SOL    HW1 3908   2.718   6.831   1.762
 1003SOL    HW2 3909   2.725   6.980   1.696
 1004SOL     OW 3910   6.905   0.733   0.313
 1004SOL    HW1 3911   6.839   0.674   0.361
 1004SOL    HW2 3912   6.956   0.677   0.247
 1005SOL     OW 3913   6.769   1.046   2.991
 1005SOL    HW1 3914   6.766   1.018   2.895
 1005SOL    HW2 3915   6.760   0.966   3.049
 1006SOL     OW 3916   2.198   5.860   1.179
 1006SOL    HW1 3917   2.126   5.920   1.143
 1006SOL    HW2 3918   2.214   5.882   1.275
 1007SOL     OW 3919   5.932   6.885   3.486
 1007SOL    HW1 3920   5.943   6.846   3.395
 1007SOL    HW2 3921   5.937   6.985   3.479
 1008SOL     OW 3922   1.348   3.116   4.275
 1008SOL    HW1 3923   1.402   3.095   4.193
 1008SOL    HW2 3924   1.252   3.125   4.251
 1009SOL     OW 3925   6.854   5.336   3.941
 1009SOL    HW1 3926   6.781   5.365   4.002
 1009SOL    HW2 3927   6.818   5.271   3.875
 1010SOL     OW 3928   4.237   2.670   0.242
 1010SOL    HW1 3929   4.233   2.764   0.277
 1010SOL    HW2 3930   4.325   2.629   0.266
 1011SOL     OW 3931   2.920   5.246   3.114
 1011SOL    HW1 3932   2.899   5.332   3.161
 1011SOL    HW2 3933   2.925   5.172   3.182
 1012SOL     OW 3934   6.473   5.221   0.513
 1012SOL    HW1 3935   6.411   5.155   0.556
 1012SOL    HW2 3936   6.443   5.314   0.536
 1013SOL     OW 3937   0.405   1.570   6.448
 1013SOL    HW1 3938   0.500   1.544   6.467
 1013SOL    HW2 3939   0.402   1.668   6.428
 1014SOL     OW 3940   5.521   5.448   6.821
 1014SOL    HW1 3941   5.456   5.395   6.876
 1014SOL    HW2 3942   5.474   5.484   6.740
 1015SOL     OW 3943   3.444   6.773   4.886
 1015SOL    HW1 3944   3.441   6.740   4.792
 1015SOL    HW2 3945   3.462   6.697   4.948
 1016SOL     OW 3946   2.163   2.904   0.941
 1016SOL    HW1 3947   2.066   2.898   0.961
 1016SOL    HW2 3948   2.178   2.967   0.865
 1017SOL     OW 3949   4.461   2.808   0.456
 1017SOL    HW1 3950   4.406   2.890   0.439
 1017SOL    HW2 3951   4.424   2.759   0.535
 1018SOL     OW 3952   1.857   3.589   4.098
 1018SOL    HW1 3953   1.772   3.539   4.110
 1018SOL    HW2 3954   1.850   3.650   4.019
 1019SOL     OW 3955   0.488   0.999   0.123
 1019SOL    HW1 3956   0.473   0.952   0.036
 1019SOL    HW2 3957   0.416   0.972   0.187
 1020SOL     OW 3958   1.264   6.773   1.170
 1020SOL    HW1 3959   1.185   6.711   1.174
 1020SOL    HW2 3960   1.339   6.727   1.122
 1021SOL     OW 3961   5.983   1.057   0.980
 1021SOL    HW1 3962   5.904   1.047   1.041
 1021SOL    HW2 3963   6.050   1.117   1.022
 1022SOL     OW 3964   4.350   5.056   6.238
 1022SOL    HW1 3965   4.358   4.964   6.201
 1022SOL    HW2 3966   4.417   5.116   6.193
 1023SOL     OW 3967   6.898   6.931   2.658
 1023SOL    HW1 3968   6.878   0.003   2.654
 1023SOL    HW2 3969   6.993   6.917   2.686
 1024SOL     OW 3970   6.470   2.700   4.451
 1024SOL    HW1 3971   6.372   2.721   4.451
 1024SOL    HW2 3972   6.507   2.714   4.359
 1025SOL     OW 3973   3.581   4.271   0.119
 1025SOL    HW1 3974   3.502   4.219   0.152
 1025SOL    HW2 3975   3.655   4.207   0.098
 1026SOL     OW 3976   1.419   1.312   0.665
 1026SOL    HW1 3977   1.327   1.345   0.687
 1026SOL    HW2 3978   1.416   1.213   0.651
 1027SOL     OW 3979   3.109   5.845   1.787
 1027SOL    HW1 3980   3.102   5.940   1.817
 1027SOL    HW2 3981   3.205   5.816   1.790
 1028SOL     OW 3982   3.170   6.173   0.088
 1028SOL    HW1 3983   3.120   6.229   0.155
 1028SOL    HW2 3984   3.143   6.200   7.022
 1029SOL     OW 3985   2.049   0.986   0.052
 1029SOL    HW1 3986   2.144   1.002   0.077
 1029SOL    HW2 3987   1.995   1.068   0.072
 1030SOL     OW 3988   3.794   2.913   3.232
 1030SOL    HW1 3989   3.848   2.828   3.231
 1030SOL    HW2 3990   3.855   2.991   3.216
 1031SOL     OW 3991   4.322   5.351   1.244
 1031SOL    HW1 3992   4.372   5.283   1.189
 1031SOL    HW2 3993   4.224   5.345   1.223
 1032SOL     OW 3994   1.561   1.784   5.087
 1032SOL    HW1 3995   1.554   1.869   5.140
 1032SOL    HW2 3996   1.622   1.799   5.009
 1033SOL     OW 3997   1.698   6.876   1.590
 1033SOL    HW1 3998   1.633   6.826   1.533
 1033SOL    HW2 3999   1.719   6.963   1.547
 1034SOL     OW 4000   1.904   6.500   4.772
 1034SOL    HW1 4001   1.981   6.564   4.768
 1034SOL    HW2 4002   1.847   6.511   4.690
 1035SOL     OW 4003   2.670   1.941   3.528
 1035SOL    HW1 4004   2.633   1.961   3.437
 1035SOL    HW2 4005   2.755   1.889   3.519
 1036SOL     OW 4006   3.420   0.045   1.089
 1036SOL    HW1 4007   3.440   7.018   1.172
 1036SOL    HW2 4008   3.340   0.006   1.043
 1037SOL     OW 4009   1.244   1.233   1.218
 1037SOL    HW1 4010   1.144   1.232   1.217
 1037SOL    HW2 4011   1.277   1.315   1.171
 1038SOL     OW 4012   0.742   1.151   5.281
 1038SOL    HW1 4013   0.693   1.211   5.343
 1038SOL    HW2 4014   0.839   1.173   5.282
 1039SOL     OW 4015   4.463   1.850   5.560
 1039SOL    HW1 4016   4.537   1.889   5.505
 1039SOL    HW2 4017   4.479   1.871   5.657
 1040SOL     OW 4018   5.496   2.724   3.364
 1040SOL    HW1 4019   5.575   2.773   3.329
 1040SOL    HW2 4020   5.455   2.775   3.440
 1041SOL     OW 4021   6.550   0.033   4.476
 1041SOL    HW1 4022   6.539   0.086   4.392
 1041SOL    HW2 4023   6.500   0.078   4.550
 1042SOL     OW 4024   3.618   5.202   2.945
 1042SOL    HW1 4025   3.546   5.265   2.915
 1042SOL    HW2 4026   3.618   5.122   2.885
 1043SOL     OW 4027   4.075   1.004   6.315
 1043SOL    HW1 4028   4.071   0.925   6.254
 1043SOL    HW2 4029   4.039   0.979   6.405
 1044SOL     OW 4030   4.241   2.585   1.723
 1044SOL    HW1 4031   4.329   2.544   1.746
 1044SOL    HW2 4032   4.236   2.678   1.759
 1045SOL     OW 4033   2.926   0.178   1.666
 1045SOL    HW1 4034   2.857   0.195   1.596
 1045SOL    HW2 4035   2.892   0.209   1.755
 1046SOL     OW 4036   2.617   6.878   6.238
 1046SOL    HW1 4037   2.712   6.866   6.268
 1046SOL    HW2 4038   2.593   6.805   6.174
 1047SOL     OW 4039   1.586   5.437   3.011
 1047SOL    HW1 4040   1.564   5.471   2.919
 1047SOL    HW2 4041   1.643   5.356   3.004
 1048SOL     OW 4042   5.002   5.653   5.272
 1048SOL    HW1 4043   5.094   5.651   5.309
 1048SOL    HW2 4044   4.986   5.741   5.226
 1049SOL     OW 4045   0.440   4.143   4.970
 1049SOL    HW1 4046   0.504   4.194   5.028
 1049SOL    HW2 4047   0.379   4.207   4.924
 1050SOL     OW 4048   2.610   5.585   0.793
 1050SOL    HW1 4049   2.621   5.601   0.891
 1050SOL    HW2 4050   2.632   5.490   0.772
 1051SOL     OW 4051   4.002   4.461   0.549
 1051SOL    HW1 4052   3.999   4.366   0.582
 1051SOL    HW2 4053   4.019   4.522   0.626
 1052SOL     OW 4054   4.602   0.560   4.118
 1052SOL    HW1 4055   4.692   0.553   4.161
 1052SOL    HW2 4056   4.612   0.557   4.019
 1053SOL     OW 4057   5.859   5.723   3.582
 1053SOL    HW1 4058   5.764   5.694   3.594
 1053SOL    HW2 4059   5.863   5.823   3.587
 1054SOL     OW 4060   2.514   4.788   5.653
 1054SOL    HW1 4061   2.444   4.859   5.643
 1054SOL    HW2 4062   2.470   4.698   5.651
 1055SOL     OW 4063   5.380   6.202   4.820
 1055SOL    HW1 4064   5.426   6.220   4.907
 1055SOL    HW2 4065   5.315   6.127   4.832
 1056SOL     OW 4066   1.765   6.203   5.482
 1056SOL    HW1 4067   1.775   6.153   5.396
 1056SOL    HW2 4068   1.833   6.277   5.486
 1057SOL     OW 4069   2.966   3.800   3.015
 1057SOL    HW1 4070   2.998   3.888   2.978
 1057SOL    HW2 4071   2.934   3.742   2.940
 1058SOL     OW 4072   4.698   1.130   2.315
 1058SOL    HW1 4073   4.631   1.057   2.330
 1058SOL    HW2 4074   4.695   1.158   2.219
 1059SOL     OW 4075   3.239   0.700   1.750
 1059SOL    HW1 4076   3.269   0.685   1.656
 1059SOL    HW2 4077   3.190   0.787   1.757
 1060SOL     OW 4078   0.196   3.642   5.746
 1060SOL    HW1 4079   0.204   3.740   5.730
 1060SOL    HW2 4080   0.145   3.600   5.671
 1061SOL     OW 4081   4.114   4.589   0.859
 1061SOL    HW1 4082   4.111   4.671   0.802
 1061SOL    HW2 4083   4.054   4.601   0.938
 1062SOL     OW 4084   0.013   6.034   5.579
 1062SOL    HW1 4085   6.964   6.036   5.644
 1062SOL    HW2 4086   0.041   6.127   5.556
 1063SOL     OW 4087   1.386   4.152   0.973
 1063SOL    HW1 4088   1.361   4.183   0.881
 1063SOL    HW2 4089   1.303   4.136   1.026
 1064SOL     OW 4090   1.125   3.700   2.499
 1064SOL    HW1 4091   1.108   3.742   2.589
 1064SOL    HW2 4092   1.172   3.765   2.440
 1065SOL     OW 4093   4.424   0.881   5.188
 1065SOL    HW1 4094   4.403   0.973   5.156
 1065SOL    HW2 4095   4.458   0.826   5.113
 1066SOL     OW 4096   5.219   0.531   4.290
 1066SOL    HW1 4097   5.157   0.467   4.335
 1066SOL    HW2 4098   5.199   0.624   4.320
 1067SOL     OW 4099   1.109   2.982   0.909
 1067SOL    HW1 4100   1.091   3.012   1.002
 1067SOL    HW2 4101   1.048   3.030   0.846
 1068SOL     OW 4102   5.997   3.309   1.247
 1068SOL    HW1 4103   5.935   3.379   1.280
 1068SOL    HW2 4104   6.014   3.243   1.320
 1069SOL     OW 4105   4.585   4.712   1.191
 1069SOL    HW1 4106   4.536   4.767   1.124
 1069SOL    HW2 4107   4.524   4.644   1.230
 1070SOL     OW 4108   1.252   0.891   6.433
 1070SOL    HW1 4109   1.270   0.842   6.348
 1070SOL    HW2 4110   1.271   0.988   6.419
 1071SOL     OW 4111   3.785   0.420   3.516
 1071SOL    HW1 4112   3.852   0.494   3.529
 1071SOL    HW2 4113   3.695   0.460   3.502
 1072SOL     OW 4114   2.204   6.173   2.321
 1072SOL    HW1 4115   2.197   6.171   2.421
 1072SOL    HW2 4116   2.126   6.125   2.281
 1073SOL     OW 4117   3.281   6.009   2.325
 1073SOL    HW1 4118   3.220   6.079   2.364
 1073SOL    HW2 4119   3.238   5.968   2.245
 1074SOL     OW 4120   2.376   5.875   1.664
 1074SOL    HW1 4121   2.427   5.800   1.621
 1074SOL    HW2 4122   2.292   5.839   1.705
 1075SOL     OW 4123   4.750   5.212   3.313
 1075SOL    HW1 4124   4.826   5.267   3.348
 1075SOL    HW2 4125   4.674   5.272   3.288
 1076SOL     OW 4126   0.578   4.652   5.155
 1076SOL    HW1 4127   0.611   4.661   5.061
 1076SOL    HW2 4128   0.553   4.741   5.191
 1077SOL     OW 4129   6.186   6.917   0.088
 1077SOL    HW1 4130   6.131   6.928   0.170
 1077SOL    HW2 4131   6.207   6.820   0.074
 1078SOL     OW 4132   1.570   1.268   2.260
 1078SOL    HW1 4133   1.571   1.354   2.209
 1078SOL    HW2 4134   1.664   1.242   2.283
 1079SOL     OW 4135   2.184   4.961   3.481
 1079SOL    HW1 4136   2.104   5.017   3.461
 1079SOL    HW2 4137   2.161   4.864   3.466
 1080SOL     OW 4138   2.063   4.693   3.461
 1080SOL    HW1 4139   2.018   4.664   3.377
 1080SOL    HW2 4140   2.162   4.678   3.454
 1081SOL     OW 4141   0.105   1.586   5.387
 1081SOL    HW1 4142   0.192   1.554   5.349
 1081SOL    HW2 4143   0.056   1.639   5.317
 1082SOL     OW 4144   1.578   0.208   5.635
 1082SOL    HW1 4145   1.595   0.294   5.587
 1082SOL    HW2 4146   1.594   0.221   5.733
 1083SOL     OW 4147   3.992   3.729   2.221
 1083SOL    HW1 4148   4.042   3.766   2.142
 1083SOL    HW2 4149   4.037   3.645   2.252
 1084SOL     OW 4150   6.778   5.404   0.707
 1084SOL    HW1 4151   6.777   5.499   0.677
 1084SOL    HW2 4152   6.839   5.351   0.649
 1085SOL     OW 4153   1.948   4.185   3.914
 1085SOL    HW1 4154   1.917   4.107   3.969
 1085SOL    HW2 4155   1.879   4.257   3.918
 1086SOL     OW 4156   5.995   5.702   3.353
 1086SOL    HW1 4157   5.949   5.692   3.441
 1086SOL    HW2 4158   5.953   5.641   3.286
 1087SOL     OW 4159   5.144   2.991   5.739
 1087SOL    HW1 4160   5.047   2.991   5.766
 1087SOL    HW2 4161   5.165   3.076   5.691
 1088SOL     OW 4162   5.972   4.405   3.215
 1088SOL    HW1 4163   6.006   4.361   3.298
 1088SOL    HW2 4164   5.914   4.342   3.164
 1089SOL     OW 4165   0.579   0.911   4.241
 1089SOL    HW1 4166   0.518   0.965   4.299
 1089SOL    HW2 4167   0.605   0.827   4.290
 1090SOL     OW 4168   2.960   1.378   4.583
 1090SOL    HW1 4169   3.007   1.427   4.509
 1090SOL    HW2 4170   2.865   1.408   4.588
 1091SOL     OW 4171   1.799   2.018   3.672
 1091SOL    HW1 4172   1.857   1.991   3.749
 1091SOL    HW2 4173   1.729   2.082   3.704
 1092SOL     OW 4174   2.315   4.051   1.672
 1092SOL    HW1 4175   2.405   4.088   1.653
 1092SOL    HW2 4176   2.257   4.059   1.590
 1093SOL     OW 4177   1.883   1.722   2.730
 1093SOL    HW1 4178   1.790   1.749   2.754
 1093SOL    HW2 4179   1.945   1.799   2.746
 1094SOL     OW 4180   0.196   6.277   2.622
 1094SOL    HW1 4181   0.104   6.307   2.646
 1094SOL    HW2 4182   0.229   6.213   2.691
 1095SOL     OW 4183   6.022   2.180   6.197
 1095SOL    HW1 4184   5.925   2.201   6.215
 1095SOL    HW2 4185   6.039   2.185   6.098
 1096SOL     OW 4186   3.549   5.011   1.586
 1096SOL    HW1 4187   3.641   5.032   1.553
 1096SOL    HW2 4188   3.482   5.062   1.532
 1097SOL     OW 4189   1.113   4.850   4.893
 1097SOL    HW1 4190   1.138   4.753   4.894
 1097SOL    HW2 4191   1.168   4.899   4.961
 1098SOL     OW 4192   5.246   2.200   0.743
 1098SOL    HW1 4193   5.196   2.136   0.685
 1098SOL    HW2 4194   5.211   2.293   0.729
 1099SOL     OW 4195   4.166   1.669   4.741
 1099SOL    HW1 4196   4.104   1.740   4.774
 1099SOL    HW2 4197   4.118   1.613   4.673
 1100SOL     OW 4198   1.032   1.755   6.278
 1100SOL    HW1 4199   1.004   1.797   6.364
 1100SOL    HW2 4200   1.031   1.824   6.205
 1101SOL     OW 4201   5.398   3.171   1.376
 1101SOL    HW1 4202   5.498   3.164   1.383
 1101SOL    HW2 4203   5.358   3.080   1.364
 1102SOL     OW 4204   1.131   4.812   4.064
 1102SOL    HW1 4205   1.159   4.882   4.130
 1102SOL    HW2 4206   1.032   4.814   4.052
 1103SOL     OW 4207   2.275   1.025   1.934
 1103SOL    HW1 4208   2.243   1.042   1.841
 1103SOL    HW2 4209   2.290   1.112   1.980
 1104SOL     OW 4210   1.965   4.432   6.265
 1104SOL    HW1 4211   2.014   4.345   6.267
 1104SOL    HW2 4212   1.892   4.428   6.196
 1105SOL     OW 4213   4.689   4.168   6.516
 1105SOL    HW1 4214   4.701   4.263   6.486
 1105SOL    HW2 4215   4.739   4.154   6.602
 1106SOL     OW 4216   1.084   2.140   6.530
 1106SOL    HW1 4217   1.170   2.091   6.546
 1106SOL    HW2 4218   1.103   2.229   6.489
 1107SOL     OW 4219   0.587   0.255   6.587
 1107SOL    HW1 4220   0.676   0.232   6.548
 1107SOL    HW2 4221   0.527   0.293   6.517
 1108SOL     OW 4222   2.689   0.712   5.442
 1108SOL    HW1 4223   2.694   0.805   5.407
 1108SOL    HW2 4224   2.615   0.663   5.396
 1109SOL     OW 4225   4.185   5.458   4.458
 1109SOL    HW1 4226   4.107   5.499   4.505
 1109SOL    HW2 4227   4.195   5.498   4.367
 1110SOL     OW 4228   3.057   1.902   1.735
 1110SOL    HW1 4229   3.078   2.000   1.735
 1110SOL    HW2 4230   2.960   1.889   1.714
 1111SOL     OW 4231   5.353   6.261   6.957
 1111SOL    HW1 4232   5.390   6.269   0.024
 1111SOL    HW2 4233   5.317   6.350   6.928
 1112SOL     OW 4234   5.869   0.969   3.235
 1112SOL    HW1 4235   5.829   1.005   3.319
 1112SOL    HW2 4236   5.799   0.925   3.180
 1113SOL     OW 4237   6.135   3.138   2.271
 1113SOL    HW1 4238   6.100   3.178   2.186
 1113SOL    HW2 4239   6.090   3.051   2.289
 1114SOL     OW 4240   4.595   1.238   6.686
 1114SOL    HW1 4241   4.604   1.323   6.738
 1114SOL    HW2 4242   4.499   1.225   6.660
 1115SOL     OW 4243   4.237   2.990   0.371
 1115SOL    HW1 4244   4.183   3.009   0.453
 1115SOL    HW2 4245   4.281   3.074   0.340
 1116SOL     OW 4246   5.465   5.146   4.130
 1116SOL    HW1 4247   5.497   5.106   4.216
 1116SOL    HW2 4248   5.544   5.174   4.076
 1117SOL     OW 4249   2.786   2.994   1.452
 1117SOL    HW1 4250   2.710   2.999   1.388
 1117SOL    HW2 4251   2.751   2.997   1.546
 1118SOL     OW 4252   1.128   4.672   2.716
 1118SOL    HW1 4253   1.167   4.591   2.758
 1118SOL    HW2 4254   1.196   4.745   2.714
 1119SOL     OW 4255   3.720   4.110   1.346
 1119SOL    HW1 4256   3.717   4.187   1.409
 1119SOL    HW2 4257   3.649   4.121   1.276
 1120SOL     OW 4258   5.234   6.956   6.067
 1120SOL    HW1 4259   5.323   6.916   6.087
 1120SOL    HW2 4260   5.162   6.893   6.097
 1121SOL     OW 4261   5.166   2.836   2.185
 1121SOL    HW1 4262   5.122   2.808   2.271
 1121SOL    HW2 4263   5.232   2.909   2.204
 1122SOL     OW 4264   5.239   2.837   6.511
 1122SOL    HW1 4265   5.159   2.852   6.453
 1122SOL    HW2 4266   5.285   2.924   6.527
 1123SOL     OW 4267   4.392   1.436   2.130
 1123SOL    HW1 4268   4.379   1.343   2.096
 1123SOL    HW2 4269   4.372   1.501   2.057
 1124SOL     OW 4270   6.884   4.030   4.802
 1124SOL    HW1 4271   6.943   4.032   4.882
 1124SOL    HW2 4272   6.797   3.986   4.825
 1125SOL     OW 4273   2.695   2.195   5.007
 1125SOL    HW1 4274   2.791   2.209   4.984
 1125SOL    HW2 4275   2.681   2.099   5.033
 1126SOL     OW 4276   4.694   6.686   6.631
 1126SOL    HW1 4277   4.789   6.707   6.609
 1126SOL    HW2 4278   4.648   6.770   6.661
 1127SOL     OW 4279   3.156   4.476   5.673
 1127SOL    HW1 4280   3.081   4.537   5.653
 1127SOL    HW2 4281   3.237   4.529   5.697
 1128SOL     OW 4282   4.408   2.079   4.127
 1128SOL    HW1 4283   4.486   2.085   4.065
 1128SOL    HW2 4284   4.380   1.983   4.135
 1129SOL     OW 4285   3.685   0.081   0.045
 1129SOL    HW1 4286   3.631   0.100   6.989
 1129SOL    HW2 4287   3.666   7.013   0.076
 1130SOL     OW 4288   1.864   4.636   0.893
 1130SOL    HW1 4289   1.831   4.542   0.901
 1130SOL    HW2 4290   1.912   4.662   0.977
 1131SOL     OW 4291   0.585   6.557   5.841
 1131SOL    HW1 4292   0.530   6.558   5.757
 1131SOL    HW2 4293   0.526   6.568   5.920
 1132SOL     OW 4294   4.988   0.459   6.948
 1132SOL    HW1 4295   5.034   0.460   0.011
 1132SOL    HW2 4296   5.009   0.544   6.899
 1133SOL     OW 4297   0.171   1.909   1.713
 1133SOL    HW1 4298   0.150   2.003   1.684
 1133SOL    HW2 4299   0.087   1.854   1.709
 1134SOL     OW 4300   5.750   2.146   6.674
 1134SOL    HW1 4301   5.788   2.195   6.596
 1134SOL    HW2 4302   5.727   2.211   6.746
 1135SOL     OW 4303   3.188   2.165   2.902
 1135SOL    HW1 4304   3.243   2.118   2.971
 1135SOL    HW2 4305   3.104   2.199   2.944
 1136SOL     OW 4306   2.926   4.754   4.074
 1136SOL    HW1 4307   3.016   4.765   4.034
 1136SOL    HW2 4308   2.910   4.826   4.141
 1137SOL     OW 4309   0.913   2.513   6.889
 1137SOL    HW1 4310   0.992   2.513   6.951
 1137SOL    HW2 4311   0.929   2.450   6.813
 1138SOL     OW 4312   2.147   2.770   5.902
 1138SOL    HW1 4313   2.124   2.739   5.809
 1138SOL    HW2 4314   2.165   2.691   5.960
 1139SOL     OW 4315   2.009   6.224   2.758
 1139SOL    HW1 4316   2.046   6.185   2.843
 1139SOL    HW2 4317   1.911   6.207   2.755
 1140SOL     OW 4318   4.062   2.164   3.003
 1140SOL    HW1 4319   4.158   2.192   2.995
 1140SOL    HW2 4320   4.054   2.096   3.076
 1141SOL     OW 4321   5.689   5.505   6.048
 1141SOL    HW1 4322   5.745   5.514   5.966
 1141SOL    HW2 4323   5.602   5.553   6.034
 1142SOL     OW 4324   5.428   0.435   4.532
 1142SOL    HW1 4325   5.411   0.358   4.594
 1142SOL    HW2 4326   5.382   0.420   4.445
 1143SOL     OW 4327   3.707   2.058   2.535
 1143SOL    HW1 4328   3.682   2.041   2.440
 1143SOL    HW2 4329   3.632   2.106   2.581
 1144SOL     OW 4330   0.242   4.318   4.761
 1144SOL    HW1 4331   0.303   4.330   4.683
 1144SOL    HW2 4332   0.218   4.221   4.770
 1145SOL     OW 4333   0.124   5.213   3.431
 1145SOL    HW1 4334   0.215   5.178   3.452
 1145SOL    HW2 4335   0.056   5.168   3.489
 1146SOL     OW 4336   5.178   1.387   1.113
 1146SOL    HW1 4337   5.146   1.348   1.026
 1146SOL    HW2 4338   5.123   1.467   1.136
 1147SOL     OW 4339   1.788   3.748   1.056
 1147SOL    HW1 4340   1.696   3.780   1.035
 1147SOL    HW2 4341   1.802   3.657   1.017
 1148SOL     OW 4342   3.144   6.214   6.329
 1148SOL    HW1 4343   3.215   6.176   6.389
 1148SOL    HW2 4344   3.180   6.220   6.235
 1149SOL     OW 4345   5.619   3.306   3.076
 1149SOL    HW1 4346   5.710   3.306   3.035
 1149SOL    HW2 4347   5.573   3.392   3.052
 1150SOL     OW 4348   2.278   4.163   1.116
 1150SOL    HW1 4349   2.255   4.232   1.185
 1150SOL    HW2 4350   2.199   4.149   1.056
 1151SOL     OW 4351   5.610   5.854   6.528
 1151SOL    HW1 4352   5.624   5.761   6.563
 1151SOL    HW2 4353   5.617   5.919   6.603
 1152SOL     OW 4354   1.209   6.587   4.965
 1152SOL    HW1 4355   1.122   6.545   4.939
 1152SOL    HW2 4356   1.194   6.648   5.043
 1153SOL     OW 4357   2.105   6.536   2.667
 1153SOL    HW1 4358   2.105   6.437   2.684
 1153SOL    HW2 4359   2.087   6.584   2.752
 1154SOL     OW 4360   0.120   3.431   1.416
 1154SOL    HW1 4361   0.052   3.391   1.477
 1154SOL    HW2 4362   0.073   3.482   1.343
 1155SOL     OW 4363   3.553   5.912   0.096
 1155SOL    HW1 4364   3.573   5.847   0.022
 1155SOL    HW2 4365   3.610   5.993   0.084
 1156SOL     OW 4366   2.318   0.429   3.560
 1156SOL    HW1 4367   2.271   0.484   3.492
 1156SOL    HW2 4368   2.362   0.489   3.627
 1157SOL     OW 4369   6.978   2.562   4.560
 1157SOL    HW1 4370   0.032   2.521   4.516
 1157SOL    HW2 4371   6.896   2.512   4.531
 1158SOL     OW 4372   5.862   5.344   5.326
 1158SOL    HW1 4373   5.875   5.375   5.232
 1158SOL    HW2 4374   5.782   5.389   5.366
 1159SOL     OW 4375   4.238   0.416   2.687
 1159SOL    HW1 4376   4.219   0.371   2.774
 1159SOL    HW2 4377   4.276   0.507   2.703
 1160SOL     OW 4378   3.924   3.711   1.619
 1160SOL    HW1 4379   3.899   3.615   1.601
 1160SOL    HW2 4380   3.843   3.768   1.609
 1161SOL     OW 4381   5.059   0.057   5.344
 1161SOL    HW1 4382   5.144   0.086   5.300
 1161SOL    HW2 4383   5.072   6.991   5.382
 1162SOL     OW 4384   3.763   2.599   1.035
 1162SOL    HW1 4385   3.827   2.650   1.092
 1162SOL    HW2 4386   3.814   2.542   0.970
 1163SOL     OW 4387   5.400   2.245   2.261
 1163SOL    HW1 4388   5.426   2.224   2.167
 1163SOL    HW2 4389   5.317   2.195   2.285
 1164SOL     OW 4390   5.098   2.896   3.599
 1164SOL    HW1 4391   5.045   2.865   3.677
 1164SOL    HW2 4392   5.122   2.817   3.542
 1165SOL     OW 4393   1.420   3.551   3.711
 1165SOL    HW1 4394   1.417   3.557   3.611
 1165SOL    HW2 4395   1.450   3.460   3.738
 1166SOL     OW 4396   3.894   1.556   6.513
 1166SOL    HW1 4397   3.957   1.497   6.564
 1166SOL    HW2 4398   3.935   1.580   6.426
 1167SOL     OW 4399   3.574   0.200   5.479
 1167SOL    HW1 4400   3.602   0.285   5.435
 1167SOL    HW2 4401   3.521   0.145   5.413
 1168SOL     OW 4402   5.912   6.845   2.382
 1168SOL    HW1 4403   5.951   6.768   2.331
 1168SOL    HW2 4404   5.815   6.854   2.359
 1169SOL     OW 4405   0.054   2.988   0.605
 1169SOL    HW1 4406   0.025   2.933   0.684
 1169SOL    HW2 4407   0.149   3.018   0.618
 1170SOL     OW 4408   3.982   0.408   1.997
 1170SOL    HW1 4409   3.961   0.368   2.086
 1170SOL    HW2 4410   3.898   0.443   1.955
 1171SOL     OW 4411   2.767   6.018   0.681
 1171SOL    HW1 4412   2.749   6.058   0.770
 1171SOL    HW2 4413   2.857   6.047   0.649
 1172SOL     OW 4414   3.060   3.852   3.664
 1172SOL    HW1 4415   3.024   3.850   3.571
 1172SOL    HW2 4416   3.110   3.938   3.678
 1173SOL     OW 4417   3.728   0.404   5.719
 1173SOL    HW1 4418   3.718   0.490   5.669
 1173SOL    HW2 4419   3.648   0.346   5.703
 1174SOL     OW 4420   2.130   5.809   0.823
 1174SOL    HW1 4421   2.104   5.713   0.815
 1174SOL    HW2 4422   2.229   5.816   0.831
 1175SOL     OW 4423   5.623   4.669   6.887
 1175SOL    HW1 4424   5.654   4.574   6.893
 1175SOL    HW2 4425   5.686   4.721   6.830
 1176SOL     OW 4426   6.019   5.053   1.082
 1176SOL    HW1 4427   6.066   5.141   1.077
 1176SOL    HW2 4428   5.929   5.066   1.124
 1177SOL     OW 4429   0.150   2.156   5.407
 1177SOL    HW1 4430   0.098   2.152   5.492
 1177SOL    HW2 4431   0.168   2.251   5.383
 1178SOL     OW 4432   4.768   4.094   1.932
 1178SOL    HW1 4433   4.695   4.162   1.942
 1178SOL    HW2 4434   4.750   4.037   1.852
 1179SOL     OW 4435   2.388   4.310   0.545
 1179SOL    HW1 4436   2.368   4.318   0.643
 1179SOL    HW2 4437   2.342   4.384   0.496
 1180SOL     OW 4438   2.327   0.860   3.446
 1180SOL    HW1 4439   2.305   0.952   3.417
 1180SOL    HW2 4440   2.366   0.809   3.369
 1181SOL     OW 4441   1.185   4.075   4.955
 1181SOL    HW1 4442   1.111   4.082   4.888
 1181SOL    HW2 4443   1.266   4.123   4.921
 1182SOL     OW 4444   1.968   4.382   3.162
 1182SOL    HW1 4445   1.995   4.413   3.071
 1182SOL    HW2 4446   1.918   4.455   3.209
 1183SOL     OW 4447   4.527   5.487   2.184
 1183SOL    HW1 4448   4.563   5.580   2.172
 1183SOL    HW2 4449   4.431   5.492   2.209
 1184SOL     OW 4450   3.519   3.108   5.731
 1184SOL    HW1 4451   3.422   3.122   5.712
 1184SOL    HW2 4452   3.572   3.127   5.648
 1185SOL     OW 4453   2.134   0.082   0.062
 1185SOL    HW1 4454   2.042   0.077   0.101
 1185SOL    HW2 4455   2.129   0.120   6.996
 1186SOL     OW 4456   5.773   0.412   5.663
 1186SOL    HW1 4457   5.678   0.404   5.633
 1186SOL    HW2 4458   5.822   0.328   5.639
 1187SOL     OW 4459   5.716   6.183   5.831
 1187SOL    HW1 4460   5.650   6.111   5.854
 1187SOL    HW2 4461   5.700   6.262   5.889
 1188SOL     OW 4462   3.222   6.481   6.422
 1188SOL    HW1 4463   3.265   6.417   6.485
 1188SOL    HW2 4464   3.216   6.440   6.331
 1189SOL     OW 4465   4.879   1.612   2.378
 1189SOL    HW1 4466   4.803   1.574   2.327
 1189SOL    HW2 4467   4.846   1.656   2.461
 1190SOL     OW 4468   4.265   4.621   4.125
 1190SOL    HW1 4469   4.276   4.669   4.038
 1190SOL    HW2 4470   4.168   4.606   4.142
 1191SOL     OW 4471   3.728   5.168   6.000
 1191SOL    HW1 4472   3.712   5.220   6.084
 1191SOL    HW2 4473   3.760   5.076   6.023
 1192SOL     OW 4474   5.709   4.635   3.066
 1192SOL    HW1 4475   5.781   4.628   3.136
 1192SOL    HW2 4476   5.619   4.628   3.110
 1193SOL     OW 4477   5.805   0.020   4.545
 1193SOL    HW1 4478   5.857   6.989   4.609
 1193SOL    HW2 4479   5.787   0.109   4.586
 1194SOL     OW 4480   0.299   0.939   0.299
 1194SOL    HW1 4481   0.200   0.948   0.314
 1194SOL    HW2 4482   0.338   0.880   0.370
 1195SOL     OW 4483   6.216   1.776   0.246
 1195SOL    HW1 4484   6.246   1.753   0.154
 1195SOL    HW2 4485   6.122   1.808   0.244
 1196SOL     OW 4486   0.041   4.856   1.789
 1196SOL    HW1 4487   6.971   4.887   1.784
 1196SOL    HW2 4488   0.053   4.776   1.731
 1197SOL     OW 4489   4.215   5.662   5.660
 1197SOL    HW1 4490   4.138   5.605   5.632
 1197SOL    HW2 4491   4.280   5.671   5.585
 1198SOL     OW 4492   2.223   2.843   2.138
 1198SOL    HW1 4493   2.194   2.758   2.093
 1198SOL    HW2 4494   2.291   2.821   2.208
 1199SOL     OW 4495   3.976   3.876   3.245
 1199SOL    HW1 4496   3.964   3.968   3.207
 1199SOL    HW2 4497   3.886   3.837   3.266
 1200SOL     OW 4498   4.220   3.903   5.529
 1200SOL    HW1 4499   4.147   3.972   5.525
 1200SOL    HW2 4500   4.295   3.931   5.468
 1201SOL     OW 4501   1.139   1.456   4.858
 1201SOL    HW1 4502   1.166   1.552   4.866
 1201SOL    HW2 4503   1.102   1.425   4.946
 1202SOL     OW 4504   5.691   0.564   6.125
 1202SOL    HW1 4505   5.738   0.524   6.047
 1202SOL    HW2 4506   5.602   0.520   6.137
 1203SOL     OW 4507   5.736   0.129   0.946
 1203SOL    HW1 4508   5.732   0.129   1.046
 1203SOL    HW2 4509   5.780   0.046   0.914
 1204SOL     OW 4510   4.067   1.410   0.472
 1204SOL    HW1 4511   4.023   1.360   0.398
 1204SOL    HW2 4512   4.129   1.349   0.521
 1205SOL     OW 4513   5.577   3.429   7.005
 1205SOL    HW1 4514   5.661   3.411   6.955
 1205SOL    HW2 4515   5.500   3.386   6.957
 1206SOL     OW 4516   1.962   1.388   4.963
 1206SOL    HW1 4517   1.873   1.416   4.928
 1206SOL    HW2 4518   2.016   1.349   4.888
 1207SOL     OW 4519   6.615   6.530   0.760
 1207SOL    HW1 4520   6.529   6.561   0.800
 1207SOL    HW2 4521   6.666   6.609   0.726
 1208SOL     OW 4522   3.748   3.901   2.548
 1208SOL    HW1 4523   3.818   3.930   2.482
 1208SOL    HW2 4524   3.757   3.803   2.564
 1209SOL     OW 4525   6.095   5.879   5.613
 1209SOL    HW1 4526   6.152   5.957   5.587
 1209SOL    HW2 4527   6.013   5.912   5.660
 1210SOL     OW 4528   4.046   0.335   2.874
 1210SOL    HW1 4529   4.047   0.426   2.832
 1210SOL    HW2 4530   3.951   0.306   2.888
 1211SOL     OW 4531   1.708   3.536   3.830
 1211SOL    HW1 4532   1.747   3.517   3.740
 1211SOL    HW2 4533   1.608   3.538   3.823
 1212SOL     OW 4534   0.723   2.778   5.465
 1212SOL    HW1 4535   0.663   2.718   5.413
 1212SOL    HW2 4536   0.738   2.740   5.556
 1213SOL     OW 4537   6.092   2.752   5.234
 1213SOL    HW1 4538   6.086   2.802   5.148
 1213SOL    HW2 4539   6.115   2.656   5.216
 1214SOL     OW 4540   1.487   3.440   4.084
 1214SOL    HW1 4541   1.500   3.392   3.998
 1214SOL    HW2 4542   1.396   3.418   4.121
 1215SOL     OW 4543   2.250   4.165   2.201
 1215SOL    HW1 4544   2.333   4.218   2.216
 1215SOL    HW2 4545   2.244   4.140   2.104
 1216SOL     OW 4546   6.963   6.841   1.741
 1216SOL    HW1 4547   0.018   6.791   1.712
 1216SOL    HW2 4548   6.951   6.922   1.683
 1217SOL     OW 4549   0.795   6.749   0.787
 1217SOL    HW1 4550   0.696   6.760   0.782
 1217SOL    HW2 4551   0.838   6.797   0.710
 1218SOL     OW 4552   1.328   3.073   4.760
 1218SOL    HW1 4553   1.410   3.075   4.703
 1218SOL    HW2 4554   1.352   3.105   4.852
 1219SOL     OW 4555   4.361   5.125   0.659
 1219SOL    HW1 4556   4.313   5.104   0.574
 1219SOL    HW2 4557   4.379   5.223   0.665
 1220SOL     OW 4558   5.398   3.764   2.297
 1220SOL    HW1 4559   5.496   3.782   2.309
 1220SOL    HW2 4560   5.382   3.666   2.289
 1221SOL     OW 4561   6.090   3.777   0.008
 1221SOL    HW1 4562   6.137   3.746   0.091
 1221SOL    HW2 4563   6.134   3.860   7.000
 1222SOL     OW 4564   6.982   6.981   0.722
 1222SOL    HW1 4565   0.051   7.008   0.738
 1222SOL    HW2 4566   6.941   0.015   0.654
 1223SOL     OW 4567   5.906   0.678   0.463
 1223SOL    HW1 4568   5.974   0.705   0.394
 1223SOL    HW2 4569   5.837   0.749   0.471
 1224SOL     OW 4570   4.449   6.205   6.618
 1224SOL    HW1 4571   4.477   6.191   6.523
 1224SOL    HW2 4572   4.451   6.302   6.639
 1225SOL     OW 4573   4.135   1.812   0.941
 1225SOL    HW1 4574   4.133   1.789   1.039
 1225SOL    HW2 4575   4.110   1.732   0.888
 1226SOL     OW 4576   5.854   6.599   0.704
 1226SOL    HW1 4577   5.852   6.499   0.700
 1226SOL    HW2 4578   5.767   6.633   0.738
 1227SOL     OW 4579   5.881   4.991   5.579
 1227SOL    HW1 4580   5.819   5.060   5.541
 1227SOL    HW2 4581   5.842   4.953   5.662
 1228SOL     OW 4582   4.059   3.090   1.790
 1228SOL    HW1 4583   4.062   3.108   1.888
 1228SOL    HW2 4584   4.046   2.992   1.775
 1229SOL     OW 4585   0.874   0.212   2.424
 1229SOL    HW1 4586   0.910   0.305   2.436
 1229SOL    HW2 4587   0.905   0.154   2.498
 1230SOL     OW 4588   5.530   5.507   2.785
 1230SOL    HW1 4589   5.471   5.579   2.749
 1230SOL    HW2 4590   5.535   5.432   2.719
 1231SOL     OW 4591   1.682   2.789   6.135
 1231SOL    HW1 4592   1.718   2.742   6.215
 1231SOL    HW2 4593   1.743   2.863   6.109
 1232SOL     OW 4594   4.294   1.446   5.063
 1232SOL    HW1 4595   4.227   1.499   5.010
 1232SOL    HW2 4596   4.295   1.480   5.157
 1233SOL     OW 4597   0.944   4.839   3.220
 1233SOL    HW1 4598   0.965   4.775   3.146
 1233SOL    HW2 4599   1.022   4.844   3.283
 1234SOL     OW 4600   6.986   3.003   6.912
 1234SOL    HW1 4601   7.018   3.076   6.972
 1234SOL    HW2 4602   6.902   2.965   6.950
 1235SOL     OW 4603   6.365   5.012   6.664
 1235SOL    HW1 4604   6.429   5.057   6.602
 1235SOL    HW2 4605   6.372   4.913   6.654
 1236SOL     OW 4606   3.540   1.737   0.676
 1236SOL    HW1 4607   3.587   1.712   0.591
 1236SOL    HW2 4608   3.526   1.655   0.732
 1237SOL     OW 4609   1.557   0.139   4.774
 1237SOL    HW1 4610   1.488   0.180   4.714
 1237SOL    HW2 4611   1.638   0.198   4.778
 1238SOL     OW 4612   0.506   6.677   3.112
 1238SOL    HW1 4613   0.572   6.716   3.048
 1238SOL    HW2 4614   0.454   6.604   3.066
 1239SOL     OW 4615   6.980   5.084   4.024
 1239SOL    HW1 4616   6.901   5.034   4.060
 1239SOL    HW2 4617   6.950   5.170   3.982
 1240SOL     OW 4618   6.179   5.748   2.352
 1240SOL    HW1 4619   6.265   5.758   2.402
 1240SOL    HW2 4620   6.132   5.666   2.385
 1241SOL     OW 4621   0.140   4.667   4.362
 1241SOL    HW1 4622   0.171   4.573   4.375
 1241SOL    HW2 4623   0.040   4.669   4.356
 1242SOL     OW 4624   2.142   3.819   6.633
 1242SOL    HW1 4625   2.202   3.802   6.711
 1242SOL    HW2 4626   2.064   3.756   6.636
 1243SOL     OW 4627   0.335   2.526   5.208
 1243SOL    HW1 4628   0.344   2.491   5.115
 1243SOL    HW2 4629   0.249   2.493   5.248
 1244SOL     OW 4630   5.782   6.494   5.655
 1244SOL    HW1 4631   5.703   6.550   5.628
 1244SOL    HW2 4632   5.860   6.554   5.673
 1245SOL     OW 4633   5.443   5.597   1.378
 1245SOL    HW1 4634   5.511   5.645   1.433
 1245SOL    HW2 4635   5.375   5.555   1.438
 1246SOL     OW 4636   4.563   0.816   1.413
 1246SOL    HW1 4637   4.609   0.748   1.356
 1246SOL    HW2 4638   4.530   0.891   1.356
 1247SOL     OW 4639   6.356   6.564   4.489
 1247SOL    HW1 4640   6.320   6.632   4.553
 1247SOL    HW2 4641   6.396   6.488   4.541
 1248SOL     OW 4642   0.232   6.394   4.422
 1248SOL    HW1 4643   0.304   6.448   4.465
 1248SOL    HW2 4644   0.266   6.356   4.336
 1249SOL     OW 4645   0.181   4.099   1.339
 1249SOL    HW1 4646   0.232   4.105   1.254
 1249SOL    HW2 4647   0.146   4.006   1.352
 1250SOL     OW 4648   5.983   3.769   5.360
 1250SOL    HW1 4649   6.078   3.740   5.349
 1250SOL    HW2 4650   5.963   3.840   5.292
 1251SOL     OW 4651   2.234   1.701   2.897
 1251SOL    HW1 4652   2.152   1.733   2.945
 1251SOL    HW2 4653   2.315   1.728   2.949
 1252SOL     OW 4654   3.298   5.501   6.778
 1252SOL    HW1 4655   3.233   5.433   6.812
 1252SOL    HW2 4656   3.360   5.459   6.712
 1253SOL     OW 4657   3.021   0.642   1.049
 1253SOL    HW1 4658   3.093   0.574   1.048
 1253SOL    HW2 4659   2.962   0.630   0.968
 1254SOL     OW 4660   5.897   1.495   3.278
 1254SOL    HW1 4661   5.817   1.459   3.326
 1254SOL    HW2 4662   5.905   1.452   3.188
 1255SOL     OW 4663   5.581   2.611   5.137
 1255SOL    HW1 4664   5.657   2.613   5.202
 1255SOL    HW2 4665   5.544   2.703   5.127
 1256SOL     OW 4666   6.613   5.702   3.263
 1256SOL    HW1 4667   6.545   5.632   3.239
 1256SOL    HW2 4668   6.670   5.722   3.183
 1257SOL     OW 4669   0.229   4.406   4.304
 1257SOL    HW1 4670   0.249   4.311   4.330
 1257SOL    HW2 4671   0.312   4.449   4.267
 1258SOL     OW 4672   2.104   6.171   3.602
 1258SOL    HW1 4673   2.138   6.112   3.528
 1258SOL    HW2 4674   2.027   6.126   3.647
 1259SOL     OW 4675   4.512   0.105   4.906
 1259SOL    HW1 4676   4.509   0.162   4.988
 1259SOL    HW2 4677   4.575   0.028   4.921
 1260SOL     OW 4678   2.816   0.519   2.293
 1260SOL    HW1 4679   2.892   0.465   2.328
 1260SOL    HW2 4680   2.843   0.561   2.206
 1261SOL     OW 4681   0.032   3.419   0.086
 1261SOL    HW1 4682   7.020   3.486   0.023
 1261SOL    HW2 4683   0.127   3.400   0.062
 1262SOL     OW 4684   4.193   4.811   1.186
 1262SOL    HW1 4685   4.208   4.906   1.214
 1262SOL    HW2 4686   4.141   4.810   1.101
 1263SOL     OW 4687   6.651   2.051   1.140
 1263SOL    HW1 4688   6.685   2.057   1.047
 1263SOL    HW2 4689   6.556   2.019   1.139
 1264SOL     OW 4690   0.196   4.104   3.230
 1264SOL    HW1 4691   0.212   4.007   3.213
 1264SOL    HW2 4692   0.276   4.157   3.203
 1265SOL     OW 4693   0.181   4.111   3.979
 1265SOL    HW1 4694   0.164   4.013   3.964
 1265SOL    HW2 4695   0.151   4.135   4.072
 1266SOL     OW 4696   2.948   1.632   4.866
 1266SOL    HW1 4697   2.903   1.689   4.935
 1266SOL    HW2 4698   3.027   1.680   4.829
 1267SOL     OW 4699   6.500   5.906   2.292
 1267SOL    HW1 4700   6.507   5.807   2.302
 1267SOL    HW2 4701   6.477   5.929   2.197
 1268SOL     OW 4702   5.758   2.322   0.090
 1268SOL    HW1 4703   5.686   2.274   0.140
 1268SOL    HW2 4704   5.794   2.397   0.146
 1269SOL     OW 4705   6.668   6.861   5.582
 1269SOL    HW1 4706   6.720   6.776   5.594
 1269SOL    HW2 4707   6.680   6.894   5.488
 1270SOL     OW 4708   1.758   3.966   4.701
 1270SOL    HW1 4709   1.833   3.983   4.637
 1270SOL    HW2 4710   1.765   4.029   4.778
 1271SOL     OW 4711   3.642   1.987   3.016
 1271SOL    HW1 4712   3.589   1.937   2.947
 1271SOL    HW2 4713   3.683   2.067   2.974
 1272SOL     OW 4714   0.467   6.105   0.903
 1272SOL    HW1 4715   0.387   6.057   0.939
 1272SOL    HW2 4716   0.532   6.124   0.977
 1273SOL     OW 4717   2.385   3.937   0.236
 1273SOL    HW1 4718   2.362   3.996   0.158
 1273SOL    HW2 4719   2.432   3.855   0.203
 1274SOL     OW 4720   0.417   3.377   1.918
 1274SOL    HW1 4721   0.405   3.287   1.961
 1274SOL    HW2 4722   0.327   3.422   1.909
 1275SOL     OW 4723   4.647   0.468   3.790
 1275SOL    HW1 4724   4.606   0.409   3.720
 1275SOL    HW2 4725   4.608   0.560   3.783
 1276SOL     OW 4726   6.594   0.366   3.608
 1276SOL    HW1 4727   6.520   0.410   3.658
 1276SOL    HW2 4728   6.631   0.430   3.540
 1277SOL     OW 4729   0.495   1.093   4.457
 1277SOL    HW1 4730   0.423   1.124   4.518
 1277SOL    HW2 4731   0.584   1.118   4.495
 1278SOL     OW 4732   1.953   2.157   5.061
 1278SOL    HW1 4733   2.039   2.206   5.049
 1278SOL    HW2 4734   1.901   2.200   5.135
 1279SOL     OW 4735   2.016   0.137   0.666
 1279SOL    HW1 4736   2.033   0.128   0.764
 1279SOL    HW2 4737   2.099   0.168   0.620
 1280SOL     OW 4738   2.819   6.783   3.291
 1280SOL    HW1 4739   2.914   6.769   3.263
 1280SOL    HW2 4740   2.764   6.704   3.265
 1281SOL     OW 4741   0.996   5.369   2.950
 1281SOL    HW1 4742   1.031   5.441   2.890
 1281SOL    HW2 4743   0.939   5.410   3.021
 1282SOL     OW 4744   0.501   0.644   0.788
 1282SOL    HW1 4745   0.590   0.617   0.826
 1282SOL    HW2 4746   0.508   0.735   0.748
 1283SOL     OW 4747   5.301   3.571   5.629
 1283SOL    HW1 4748   5.242   3.563   5.709
 1283SOL    HW2 4749   5.385   3.518   5.645
 1284SOL     OW 4750   3.151   2.776   1.834
 1284SOL    HW1 4751   3.200   2.792   1.920
 1284SOL    HW2 4752   3.174   2.684   1.801
 1285SOL     OW 4753   5.746   3.702   6.269
 1285SOL    HW1 4754   5.683   3.703   6.346
 1285SOL    HW2 4755   5.828   3.754   6.292
 1286SOL     OW 4756   4.402   4.552   2.349
 1286SOL    HW1 4757   4.499   4.558   2.327
 1286SOL    HW2 4758   4.348   4.555   2.264
 1287SOL     OW 4759   5.693   4.382   6.849
 1287SOL    HW1 4760   5.738   4.334   6.924
 1287SOL    HW2 4761   5.759   4.441   6.803
 1288SOL     OW 4762   0.028   2.855   0.863
 1288SOL    HW1 4763   0.060   2.766   0.832
 1288SOL    HW2 4764   6.967   2.845   0.913
 1289SOL     OW 4765   0.182   5.700   1.428
 1289SOL    HW1 4766   0.210   5.623   1.371
 1289SOL    HW2 4767   0.231   5.697   1.515
 1290SOL     OW 4768   0.787   0.974   0.300
 1290SOL    HW1 4769   0.702   1.004   0.257
 1290SOL    HW2 4770   0.846   1.053   0.315
 1291SOL     OW 4771   1.665   4.636   6.206
 1291SOL    HW1 4772   1.710   4.623   6.118
 1291SOL    HW2 4773   1.732   4.631   6.279
 1292SOL     OW 4774   6.874   4.598   2.037
 1292SOL    HW1 4775   6.925   4.544   1.969
 1292SOL    HW2 4776   6.937   4.637   2.103
 1293SOL     OW 4777   3.245   1.210   6.174
 1293SOL    HW1 4778   3.281   1.266   6.099
 1293SOL    HW2 4779   3.246   1.114   6.147
 1294SOL     OW 4780   0.506   2.903   0.865
 1294SOL    HW1 4781   0.430   2.931   0.805
 1294SOL    HW2 4782   0.516   2.804   0.862
 1295SOL     OW 4783   6.044   3.664   2.571
 1295SOL    HW1 4784   5.962   3.678   2.628
 1295SOL    HW2 4785   6.125   3.692   2.622
 1296SOL     OW 4786   3.994   1.673   6.002
 1296SOL    HW1 4787   4.001   1.574   5.989
 1296SOL    HW2 4788   3.983   1.718   5.913
 1297SOL     OW 4789   5.510   0.905   6.190
 1297SOL    HW1 4790   5.539   0.922   6.095
 1297SOL    HW2 4791   5.476   0.990   6.230
 1298SOL     OW 4792   6.085   3.087   3.063
 1298SOL    HW1 4793   6.155   3.149   3.100
 1298SOL    HW2 4794   6.074   3.010   3.126
 1299SOL     OW 4795   1.926   4.115   3.368
 1299SOL    HW1 4796   1.828   4.135   3.364
 1299SOL    HW2 4797   1.971   4.150   3.286
 1300SOL     OW 4798   3.362   3.681   1.693
 1300SOL    HW1 4799   3.358   3.650   1.598
 1300SOL    HW2 4800   3.281   3.651   1.741
 1301SOL     OW 4801   1.192   6.009   2.663
 1301SOL    HW1 4802   1.282   5.991   2.702
 1301SOL    HW2 4803   1.133   5.930   2.674
 1302SOL     OW 4804   2.784   6.932   4.775
 1302SOL    HW1 4805   2.826   6.989   4.705
 1302SOL    HW2 4806   2.758   6.844   4.735
 1303SOL     OW 4807   3.852   1.140   0.798
 1303SOL    HW1 4808   3.812   1.091   0.720
 1303SOL    HW2 4809   3.941   1.100   0.821
 1304SOL     OW 4810   1.996   1.505   6.312
 1304SOL    HW1 4811   2.093   1.481   6.316
 1304SOL    HW2 4812   1.981   1.576   6.244
 1305SOL     OW 4813   6.155   5.852   6.444
 1305SOL    HW1 4814   6.121   5.758   6.448
 1305SOL    HW2 4815   6.077   5.916   6.443
 1306SOL     OW 4816   0.813   4.710   5.563
 1306SOL    HW1 4817   0.818   4.673   5.470
 1306SOL    HW2 4818   0.717   4.722   5.589
 1307SOL     OW 4819   1.779   3.084   4.071
 1307SOL    HW1 4820   1.833   3.152   4.021
 1307SOL    HW2 4821   1.806   3.084   4.167
 1308SOL     OW 4822   4.378   5.985   4.842
 1308SOL    HW1 4823   4.293   5.933   4.854
 1308SOL    HW2 4824   4.409   5.976   4.747
 1309SOL     OW 4825   5.517   3.000   5.397
 1309SOL    HW1 4826   5.466   3.081   5.426
 1309SOL    HW2 4827   5.608   3.027   5.367
 1310SOL     OW 4828   5.656   3.687   5.093
 1310SOL    HW1 4829   5.657   3.597   5.049
 1310SOL    HW2 4830   5.736   3.697   5.151
 1311SOL     OW 4831   6.538   6.484   4.024
 1311SOL    HW1 4832   6.463   6.550   4.024
 1311SOL    HW2 4833   6.501   6.391   4.025
 1312SOL     OW 4834   0.726   0.697   6.613
 1312SOL    HW1 4835   0.627   0.711   6.606
 1312SOL    HW2 4836   0.770   0.784   6.633
 1313SOL     OW 4837   2.502   5.566   5.886
 1313SOL    HW1 4838   2.467   5.648   5.932
 1313SOL    HW2 4839   2.578   5.528   5.939
 1314SOL     OW 4840   2.005   1.436   5.484
 1314SOL    HW1 4841   1.949   1.435   5.402
 1314SOL    HW2 4842   1.961   1.381   5.555
 1315SOL     OW 4843   0.798   1.501   0.358
 1315SOL    HW1 4844   0.740   1.422   0.342
 1315SOL    HW2 4845   0.749   1.568   0.413
 1316SOL     OW 4846   2.082   7.023   3.008
 1316SOL    HW1 4847   1.996   0.050   3.007
 1316SOL    HW2 4848   2.086   6.965   2.927
 1317SOL     OW 4849   0.941   4.622   4.703
 1317SOL    HW1 4850   0.991   4.536   4.716
 1317SOL    HW2 4851   0.993   4.681   4.642
 1318SOL     OW 4852   0.569   0.886   0.634
 1318SOL    HW1 4853   0.583   0.977   0.594
 1318SOL    HW2 4854   0.515   0.830   0.571
 1319SOL     OW 4855   6.606   1.905   0.322
 1319SOL    HW1 4856   6.547   1.824   0.323
 1319SOL    HW2 4857   6.631   1.926   0.227
 1320SOL     OW 4858   6.105   4.728   0.423
 1320SOL    HW1 4859   6.133   4.785   0.346
 1320SOL    HW2 4860   6.085   4.785   0.502
 1321SOL     OW 4861   3.646   2.217   0.201
 1321SOL    HW1 4862   3.742   2.232   0.224
 1321SOL    HW2 4863   3.594   2.204   0.285
 1322SOL     OW 4864   5.328   1.148   3.335
 1322SOL    HW1 4865   5.280   1.066   3.367
 1322SOL    HW2 4866   5.325   1.152   3.235
 1323SOL     OW 4867   5.233   2.239   5.538
 1323SOL    HW1 4868   5.213   2.145   5.565
 1323SOL    HW2 4869   5.202   2.301   5.610
 1324SOL     OW 4870   1.487   2.058   1.769
 1324SOL    HW1 4871   1.539   1.983   1.729
 1324SOL    HW2 4872   1.476   2.042   1.867
 1325SOL     OW 4873   2.688   6.630   2.832
 1325SOL    HW1 4874   2.688   6.663   2.926
 1325SOL    HW2 4875   2.603   6.656   2.787
 1326SOL     OW 4876   4.590   2.707   4.684
 1326SOL    HW1 4877   4.683   2.742   4.690
 1326SOL    HW2 4878   4.564   2.694   4.589
 1327SOL     OW 4879   3.056   5.654   2.895
 1327SOL    HW1 4880   3.073   5.556   2.898
 1327SOL    HW2 4881   2.975   5.674   2.841
 1328SOL     OW 4882   0.919   2.749   0.587
 1328SOL    HW1 4883   0.964   2.691   0.519
 1328SOL    HW2 4884   0.934   2.711   0.678
 1329SOL     OW 4885   6.681   1.753   0.649
 1329SOL    HW1 4886   6.673   1.844   0.608
 1329SOL    HW2 4887   6.685   1.762   0.748
 1330SOL     OW 4888   6.370   0.146   1.041
 1330SOL    HW1 4889   6.467   0.169   1.037
 1330SOL    HW2 4890   6.315   0.225   1.014
 1331SOL     OW 4891   4.798   2.042   3.228
 1331SOL    HW1 4892   4.823   2.117   3.167
 1331SOL    HW2 4893   4.711   2.002   3.199
 1332SOL     OW 4894   3.659   0.371   0.749
 1332SOL    HW1 4895   3.731   0.320   0.796
 1332SOL    HW2 4896   3.667   0.357   0.650
 1333SOL     OW 4897   3.645   4.419   5.577
 1333SOL    HW1 4898   3.588   4.434   5.497
 1333SOL    HW2 4899   3.673   4.323   5.581
 1334SOL     OW 4900   0.577   3.291   4.645
 1334SOL    HW1 4901   0.625   3.217   4.692
 1334SOL    HW2 4902   0.484   3.262   4.622
 1335SOL     OW 4903   2.202   6.139   2.590
 1335SOL    HW1 4904   2.112   6.156   2.632
 1335SOL    HW2 4905   2.273   6.179   2.647
 1336SOL     OW 4906   1.717   0.984   5.936
 1336SOL    HW1 4907   1.800   1.009   5.987
 1336SOL    HW2 4908   1.718   0.886   5.916
 1337SOL     OW 4909   0.893   2.538   4.927
 1337SOL    HW1 4910   0.942   2.625   4.928
 1337SOL    HW2 4911   0.821   2.540   4.857
 1338SOL     OW 4912   4.424   3.938   6.203
 1338SOL    HW1 4913   4.510   3.955   6.154
 1338SOL    HW2 4914   4.367   4.019   6.196
 1339SOL     OW 4915   6.759   5.756   6.925
 1339SOL    HW1 4916   6.780   5.736   6.829
 1339SOL    HW2 4917   6.827   5.713   6.984
 1340SOL     OW 4918   1.065   1.589   1.695
 1340SOL    HW1 4919   1.048   1.593   1.596
 1340SOL    HW2 4920   0.979   1.575   1.743
 1341SOL     OW 4921   4.387   0.746   5.421
 1341SOL    HW1 4922   4.449   0.813   5.462
 1341SOL    HW2 4923   4.365   0.773   5.327
 1342SOL     OW 4924   1.177   6.019   6.239
 1342SOL    HW1 4925   1.158   6.007   6.142
 1342SOL    HW2 4926   1.109   6.079   6.280
 1343SOL     OW 4927   3.626   6.578   2.405
 1343SOL    HW1 4928   3.538   6.584   2.453
 1343SOL    HW2 4929   3.636   6.656   2.343
 1344SOL     OW 4930   6.955   2.913   3.430
 1344SOL    HW1 4931   7.015   2.978   3.477
 1344SOL    HW2 4932   6.883   2.964   3.382
 1345SOL     OW 4933   0.451   1.119   3.454
 1345SOL    HW1 4934   0.449   1.216   3.429
 1345SOL    HW2 4935   0.494   1.110   3.545
 1346SOL     OW 4936   1.386   0.157   2.437
 1346SOL    HW1 4937   1.477   0.179   2.401
 1346SOL    HW2 4938   1.318   0.213   2.389
 1347SOL     OW 4939   6.237   6.468   3.788
 1347SOL    HW1 4940   6.259   6.514   3.874
 1347SOL    HW2 4941   6.138   6.465   3.775
 1348SOL     OW 4942   5.872   5.093   3.268
 1348SOL    HW1 4943   5.947   5.149   3.301
 1348SOL    HW2 4944   5.810   5.149   3.213
 1349SOL     OW 4945   4.933   2.765   6.344
 1349SOL    HW1 4946   4.890   2.814   6.420
 1349SOL    HW2 4947   4.898   2.799   6.257
 1350SOL     OW 4948   4.006   5.090   6.849
 1350SOL    HW1 4949   4.008   5.158   6.776
 1350SOL    HW2 4950   4.090   5.096   6.903
 1351SOL     OW 4951   0.767   0.980   3.090
 1351SOL    HW1 4952   0.680   0.932   3.089
 1351SOL    HW2 4953   0.755   1.071   3.129
 1352SOL     OW 4954   0.418   0.120   3.662
 1352SOL    HW1 4955   0.410   0.186   3.588
 1352SOL    HW2 4956   0.463   0.163   3.741
 1353SOL     OW 4957   6.819   4.412   6.137
 1353SOL    HW1 4958   6.789   4.324   6.174
 1353SOL    HW2 4959   6.911   4.433   6.172
 1354SOL     OW 4960   6.928   1.786   1.050
 1354SOL    HW1 4961   6.976   1.770   0.964
 1354SOL    HW2 4962   6.830   1.769   1.037
 1355SOL     OW 4963   5.184   3.870   6.886
 1355SOL    HW1 4964   5.204   3.925   6.805
 1355SOL    HW2 4965   5.232   3.782   6.879
 1356SOL     OW 4966   3.471   3.785   3.696
 1356SOL    HW1 4967   3.561   3.745   3.710
 1356SOL    HW2 4968   3.412   3.765   3.775
 1357SOL     OW 4969   2.365   3.356   6.057
 1357SOL    HW1 4970   2.387   3.339   6.153
 1357SOL    HW2 4971   2.398   3.447   6.031
 1358SOL     OW 4972   2.660   2.177   5.967
 1358SOL    HW1 4973   2.650   2.252   5.901
 1358SOL    HW2 4974   2.648   2.090   5.920
 1359SOL     OW 4975   6.570   3.775   1.488
 1359SOL    HW1 4976   6.512   3.799   1.410
 1359SOL    HW2 4977   6.664   3.762   1.456
 1360SOL     OW 4978   4.073   3.751   2.496
 1360SOL    HW1 4979   4.002   3.728   2.429
 1360SOL    HW2 4980   4.125   3.830   2.463
 1361SOL     OW 4981   0.404   6.961   6.312
 1361SOL    HW1 4982   0.336   6.958   6.386
 1361SOL    HW2 4983   0.495   6.942   6.350
 1362SOL     OW 4984   2.823   3.220   5.479
 1362SOL    HW1 4985   2.882   3.302   5.479
 1362SOL    HW2 4986   2.848   3.161   5.556
 1363SOL     OW 4987   6.466   5.924   3.996
 1363SOL    HW1 4988   6.565   5.909   4.003
 1363SOL    HW2 4989   6.417   5.844   4.030
 1364SOL     OW 4990   6.917   2.510   0.056
 1364SOL    HW1 4991   6.864   2.453   7.019
 1364SOL    HW2 4992   6.934   2.460   0.141
 1365SOL     OW 4993   0.772   4.026   5.326
 1365SOL    HW1 4994   0.721   3.977   5.397
 1365SOL    HW2 4995   0.869   4.031   5.351
 1366SOL     OW 4996   0.050   3.154   1.131
 1366SOL    HW1 4997   0.131   3.150   1.189
 1366SOL    HW2 4998   0.005   3.065   1.129
 1367SOL     OW 4999   1.302   5.246   3.495
 1367SOL    HW1 5000   1.344   5.157   3.476
 1367SOL    HW2 5001   1.203   5.240   3.478
 1368SOL     OW 5002   6.574   0.416   4.169
 1368SOL    HW1 5003   6.654   0.475   4.170
 1368SOL    HW2 5004   6.553   0.389   4.075
 1369SOL     OW 5005   2.464   6.156   1.652
 1369SOL    HW1 5006   2.471   6.057   1.641
 1369SOL    HW2 5007   2.519   6.201   1.582
 1370SOL     OW 5008   6.977   1.579   4.045
 1370SOL    HW1 5009   6.989   1.515   3.969
 1370SOL    HW2 5010   0.036   1.582   4.100
 1371SOL     OW 5011   4.765   1.373   4.811
 1371SOL    HW1 5012   4.722   1.433   4.878
 1371SOL    HW2 5013   4.800   1.292   4.857
 1372SOL     OW 5014   6.219   2.314   0.868
 1372SOL    HW1 5015   6.194   2.363   0.784
 1372SOL    HW2 5016   6.165   2.230   0.875
 1373SOL     OW 5017   5.594   1.933   0.695
 1373SOL    HW1 5018   5.637   1.847   0.724
 1373SOL    HW2 5019   5.591   1.937   0.595
 1374SOL     OW 5020   5.873   4.644   0.051
 1374SOL    HW1 5021   5.839   4.694   0.132
 1374SOL    HW2 5022   5.858   4.700   6.995
 1375SOL     OW 5023   6.906   6.788   6.586
 1375SOL    HW1 5024   7.002   6.786   6.616
 1375SOL    HW2 5025   6.881   6.698   6.549
 1376SOL     OW 5026   3.417   4.705   6.219
 1376SOL    HW1 5027   3.363   4.625   6.191
 1376SOL    HW2 5028   3.401   4.723   6.316
 1377SOL     OW 5029   1.156   2.481   4.079
 1377SOL    HW1 5030   1.230   2.417   4.062
 1377SOL    HW2 5031   1.076   2.431   4.113
 1378SOL     OW 5032   4.955   2.435   4.514
 1378SOL    HW1 5033   4.859   2.408   4.511
 1378SOL    HW2 5034   4.970   2.516   4.458
 1379SOL     OW 5035   4.767   5.532   2.853
 1379SOL    HW1 5036   4.755   5.617   2.903
 1379SOL    HW2 5037   4.764   5.455   2.917
 1380SOL     OW 5038   6.943   6.312   2.645
 1380SOL    HW1 5039   6.901   6.238   2.593
 1380SOL    HW2 5040   6.882   6.340   2.719
 1381SOL     OW 5041   5.756   1.701   6.796
 1381SOL    HW1 5042   5.789   1.687   6.703
 1381SOL    HW2 5043   5.785   1.791   6.829
 1382SOL     OW 5044   4.935   2.896   0.986
 1382SOL    HW1 5045   4.992   2.930   1.061
 1382SOL    HW2 5046   4.941   2.958   0.908
 1383SOL     OW 5047   0.584   0.056   1.373
 1383SOL    HW1 5048   0.541   0.090   1.457
 1383SOL    HW2 5049   0.616   6.989   1.388
 1384SOL     OW 5050   4.362   6.959   1.249
 1384SOL    HW1 5051   4.448   6.991   1.208
 1384SOL    HW2 5052   4.303   0.011   1.269
 1385SOL     OW 5053   1.923   4.543   3.679
 1385SOL    HW1 5054   1.950   4.585   3.592
 1385SOL    HW2 5055   1.852   4.475   3.664
 1386SOL     OW 5056   3.431   0.086   3.442
 1386SOL    HW1 5057   3.382   0.069   3.356
 1386SOL    HW2 5058   3.514   0.030   3.444
 1387SOL     OW 5059   2.945   5.689   2.144
 1387SOL    HW1 5060   2.979   5.662   2.053
 1387SOL    HW2 5061   2.848   5.668   2.151
 1388SOL     OW 5062   6.462   6.822   1.718
 1388SOL    HW1 5063   6.363   6.824   1.701
 1388SOL    HW2 5064   6.481   6.757   1.792
 1389SOL     OW 5065   6.046   2.100   3.595
 1389SOL    HW1 5066   5.980   2.074   3.525
 1389SOL    HW2 5067   6.004   2.165   3.658
 1390SOL     OW 5068   0.143   3.960   6.868
 1390SOL    HW1 5069   0.102   3.950   6.777
 1390SOL    HW2 5070   0.072   3.983   6.934
 1391SOL     OW 5071   6.084   6.978   4.448
 1391SOL    HW1 5072   6.081   6.918   4.528
 1391SOL    HW2 5073   6.015   0.025   4.459
 1392SOL     OW 5074   5.361   5.858   6.363
 1392SOL    HW1 5075   5.341   5.955   6.364
 1392SOL    HW2 5076   5.457   5.844   6.386
 1393SOL     OW 5077   6.115   4.920   5.438
 1393SOL    HW1 5078   6.108   4.941   5.340
 1393SOL    HW2 5079   6.026   4.938   5.481
 1394SOL     OW 5080   2.963   6.133   5.065
 1394SOL    HW1 5081   2.994   6.058   5.123
 1394SOL    HW2 5082   2.895   6.098   5.000
 1395SOL     OW 5083   2.530   4.175   5.928
 1395SOL    HW1 5084   2.438   4.150   5.898
 1395SOL    HW2 5085   2.592   4.097   5.914
 1396SOL     OW 5086   1.722   1.227   4.837
 1396SOL    HW1 5087   1.773   1.162   4.894
 1396SOL    HW2 5088   1.636   1.186   4.808
 1397SOL     OW 5089   0.558   0.307   3.861
 1397SOL    HW1 5090   0.622   0.237   3.894
 1397SOL    HW2 5091   0.607   0.371   3.802
 1398SOL     OW 5092   2.911   0.685   6.060
 1398SOL    HW1 5093   2.902   0.744   5.979
 1398SOL    HW2 5094   2.888   0.737   6.142
 1399SOL     OW 5095   3.339   5.991   0.479
 1399SOL    HW1 5096   3.241   5.973   0.483
 1399SOL    HW2 5097   3.367   6.005   0.384
 1400SOL     OW 5098   0.022   1.317   2.848
 1400SOL    HW1 5099   0.036   1.304   2.750
 1400SOL    HW2 5100   0.085   1.257   2.899
 1401SOL     OW 5101   6.864   2.380   4.769
 1401SOL    HW1 5102   6.797   2.377   4.843
 1401SOL    HW2 5103   6.818   2.403   4.683
 1402SOL     OW 5104   0.623   3.840   0.192
 1402SOL    HW1 5105   0.675   3.786   0.258
 1402SOL    HW2 5106   0.534   3.796   0.175
 1403SOL     OW 5107   2.354   2.235   1.528
 1403SOL    HW1 5108   2.309   2.181   1.599
 1403SOL    HW2 5109   2.449   2.203   1.518
 1404SOL     OW 5110   5.609   6.884   0.293
 1404SOL    HW1 5111   5.558   6.853   0.213
 1404SOL    HW2 5112   5.589   6.981   0.309
 1405SOL     OW 5113   2.028   3.730   0.752
 1405SOL    HW1 5114   2.006   3.641   0.793
 1405SOL    HW2 5115   2.111   3.721   0.697
 1406SOL     OW 5116   1.300   5.162   1.167
 1406SOL    HW1 5117   1.330   5.165   1.071
 1406SOL    HW2 5118   1.211   5.118   1.172
 1407SOL     OW 5119   0.353   2.024   2.532
 1407SOL    HW1 5120   0.367   2.052   2.437
 1407SOL    HW2 5121   0.376   1.927   2.541
 1408SOL     OW 5122   5.458   1.421   5.910
 1408SOL    HW1 5123   5.450   1.322   5.894
 1408SOL    HW2 5124   5.553   1.449   5.896
 1409SOL     OW 5125   0.669   1.086   5.002
 1409SOL    HW1 5126   0.703   1.120   5.090
 1409SOL    HW2 5127   0.715   1.133   4.928
 1410SOL     OW 5128   2.022   3.034   6.200
 1410SOL    HW1 5129   2.116   3.038   6.167
 1410SOL    HW2 5130   1.980   3.125   6.193
 1411SOL     OW 5131   2.726   6.625   1.831
 1411SOL    HW1 5132   2.780   6.546   1.804
 1411SOL    HW2 5133   2.729   6.636   1.930
 1412SOL     OW 5134   0.036   2.132   1.108
 1412SOL    HW1 5135   0.095   2.066   1.062
 1412SOL    HW2 5136   7.002   2.084   1.173
 1413SOL     OW 5137   1.660   1.528   5.161
 1413SOL    HW1 5138   1.608   1.498   5.240
 1413SOL    HW2 5139   1.630   1.620   5.134
 1414SOL     OW 5140   2.416   1.355   1.745
 1414SOL    HW1 5141   2.431   1.271   1.693
 1414SOL    HW2 5142   2.499   1.411   1.741
 1415SOL     OW 5143   2.298   0.699   4.493
 1415SOL    HW1 5144   2.251   0.713   4.580
 1415SOL    HW2 5145   2.355   0.617   4.498
 1416SOL     OW 5146   4.627   4.358   4.070
 1416SOL    HW1 5147   4.693   4.384   3.999
 1416SOL    HW2 5148   4.621   4.430   4.138
 1417SOL     OW 5149   3.129   1.804   0.411
 1417SOL    HW1 5150   3.066   1.786   0.487
 1417SOL    HW2 5151   3.218   1.832   0.447
 1418SOL     OW 5152   3.030   3.694   3.884
 1418SOL    HW1 5153   2.992   3.615   3.836
 1418SOL    HW2 5154   3.026   3.775   3.826
 1419SOL     OW 5155   2.489   6.133   5.191
 1419SOL    HW1 5156   2.495   6.077   5.109
 1419SOL    HW2 5157   2.464   6.227   5.166
 1420SOL     OW 5158   2.575   0.063   1.639
 1420SOL    HW1 5159   2.554   0.129   1.710
 1420SOL    HW2 5160   2.490   0.029   1.598
 1421SOL     OW 5161   1.838   3.577   3.586
 1421SOL    HW1 5162   1.916   3.568   3.524
 1421SOL    HW2 5163   1.772   3.641   3.547
 1422SOL     OW 5164   1.366   3.869   1.255
 1422SOL    HW1 5165   1.355   3.822   1.342
 1422SOL    HW2 5166   1.405   3.960   1.271
 1423SOL     OW 5167   5.389   6.293   3.245
 1423SOL    HW1 5168   5.464   6.250   3.296
 1423SOL    HW2 5169   5.408   6.390   3.233
 1424SOL     OW 5170   6.363   4.919   5.527
 1424SOL    HW1 5171   6.388   4.851   5.596
 1424SOL    HW2 5172   6.265   4.912   5.507
 1425SOL     OW 5173   1.026   6.359   5.025
 1425SOL    HW1 5174   1.111   6.310   5.005
 1425SOL    HW2 5175   1.017   6.371   5.124
 1426SOL     OW 5176   2.018   2.230   6.196
 1426SOL    HW1 5177   2.087   2.302   6.189
 1426SOL    HW2 5178   1.927   2.271   6.195
 1427SOL     OW 5179   0.262   6.476   3.465
 1427SOL    HW1 5180   0.220   6.437   3.547
 1427SOL    HW2 5181   0.201   6.545   3.426
 1428SOL     OW 5182   5.816   2.845   0.743
 1428SOL    HW1 5183   5.912   2.852   0.715
 1428SOL    HW2 5184   5.811   2.844   0.843
 1429SOL     OW 5185   5.214   2.396   0.460
 1429SOL    HW1 5186   5.129   2.346   0.441
 1429SOL    HW2 5187   5.290   2.352   0.413
 1430SOL     OW 5188   1.596   4.388   4.164
 1430SOL    HW1 5189   1.537   4.401   4.085
 1430SOL    HW2 5190   1.595   4.471   4.220
 1431SOL     OW 5191   2.311   1.848   0.903
 1431SOL    HW1 5192   2.354   1.933   0.934
 1431SOL    HW2 5193   2.365   1.770   0.932
 1432SOL     OW 5194   3.203   1.435   2.630
 1432SOL    HW1 5195   3.172   1.439   2.725
 1432SOL    HW2 5196   3.285   1.491   2.620
 1433SOL     OW 5197   3.902   1.100   5.455
 1433SOL    HW1 5198   3.955   1.031   5.405
 1433SOL    HW2 5199   3.885   1.178   5.394
 1434SOL     OW 5200   0.019   0.819   5.858
 1434SOL    HW1 5201   0.100   0.849   5.909
 1434SOL    HW2 5202   6.982   0.773   5.921
 1435SOL     OW 5203   6.239   0.031   2.935
 1435SOL    HW1 5204   6.303   0.055   2.862
 1435SOL    HW2 5205   6.236   0.106   3.002
 1436SOL     OW 5206   5.807   4.020   0.121
 1436SOL    HW1 5207   5.829   3.968   0.204
 1436SOL    HW2 5208   5.708   4.035   0.117
 1437SOL     OW 5209   2.667   2.462   3.223
 1437SOL    HW1 5210   2.718   2.524   3.283
 1437SOL    HW2 5211   2.574   2.496   3.213
 1438SOL     OW 5212   3.285   5.745   1.482
 1438SOL    HW1 5213   3.316   5.839   1.474
 1438SOL    HW2 5214   3.293   5.714   1.576
 1439SOL     OW 5215   6.852   5.714   1.431
 1439SOL    HW1 5216   6.927   5.648   1.442
 1439SOL    HW2 5217   6.881   5.785   1.367
 1440SOL     OW 5218   2.980   3.451   0.163
 1440SOL    HW1 5219   3.022   3.369   0.122
 1440SOL    HW2 5220   2.881   3.438   0.169
 1441SOL     OW 5221   5.794   0.869   3.530
 1441SOL    HW1 5222   5.711   0.822   3.502
 1441SOL    HW2 5223   5.819   0.839   3.623
 1442SOL     OW 5224   6.847   6.105   6.980
 1442SOL    HW1 5225   6.824   6.073   0.046
 1442SOL    HW2 5226   6.865   6.027   6.921
 1443SOL     OW 5227   0.422   2.967   2.564
 1443SOL    HW1 5228   0.473   2.916   2.633
 1443SOL    HW2 5229   0.371   3.041   2.609
 1444SOL     OW 5230   5.202   5.977   1.075
 1444SOL    HW1 5231   5.126   6.039   1.093
 1444SOL    HW2 5232   5.244   6.000   0.987
 1445SOL     OW 5233   0.909   2.556   2.881
 1445SOL    HW1 5234   0.852   2.573   2.801
 1445SOL    HW2 5235   0.862   2.493   2.943
 1446SOL     OW 5236   6.077   1.491   7.017
 1446SOL    HW1 5237   6.073   1.583   0.030
 1446SOL    HW2 5238   6.043   1.492   6.923
 1447SOL     OW 5239   6.135   6.009   4.185
 1447SOL    HW1 5240   6.200   5.967   4.249
 1447SOL    HW2 5241   6.154   5.976   4.093
 1448SOL     OW 5242   6.383   3.002   5.527
 1448SOL    HW1 5243   6.414   3.097   5.531
 1448SOL    HW2 5244   6.326   2.982   5.608
 1449SOL     OW 5245   1.079   3.606   5.476
 1449SOL    HW1 5246   1.142   3.615   5.399
 1449SOL    HW2 5247   1.129   3.577   5.557
 1450SOL     OW 5248   0.973   2.330   6.723
 1450SOL    HW1 5249   0.899   2.278   6.682
 1450SOL    HW2 5250   1.058   2.278   6.718
 1451SOL     OW 5251   0.941   6.029   2.294
 1451SOL    HW1 5252   1.018   6.008   2.355
 1451SOL    HW2 5253   0.884   5.947   2.284
 1452SOL     OW 5254   4.170   2.523   5.489
 1452SOL    HW1 5255   4.179   2.526   5.589
 1452SOL    HW2 5256   4.086   2.568   5.462
 1453SOL     OW 5257   0.594   4.314   6.100
 1453SOL    HW1 5258   0.644   4.401   6.108
 1453SOL    HW2 5259   0.613   4.257   6.180
 1454SOL     OW 5260   1.106   2.245   1.730
 1454SOL    HW1 5261   1.132   2.269   1.824
 1454SOL    HW2 5262   1.188   2.224   1.677
 1455SOL     OW 5263   1.684   6.875   2.279
 1455SOL    HW1 5264   1.663   6.869   2.377
 1455SOL    HW2 5265   1.766   6.822   2.260
 1456SOL     OW 5266   6.526   0.310   6.145
 1456SOL    HW1 5267   6.448   0.313   6.082
 1456SOL    HW2 5268   6.603   0.265   6.100
 1457SOL     OW 5269   0.997   5.940   0.475
 1457SOL    HW1 5270   1.086   5.981   0.455
 1457SOL    HW2 5271   0.935   6.009   0.512
 1458SOL     OW 5272   6.074   4.924   5.130
 1458SOL    HW1 5273   6.006   4.851   5.135
 1458SOL    HW2 5274   6.042   5.003   5.183
 1459SOL     OW 5275   3.969   6.895   5.416
 1459SOL    HW1 5276   4.053   6.949   5.409
 1459SOL    HW2 5277   3.992   6.798   5.425
 1460SOL     OW 5278   1.033   0.093   5.346
 1460SOL    HW1 5279   1.001   0.112   5.254
 1460SOL    HW2 5280   0.957   0.058   5.402
 1461SOL     OW 5281   6.816   4.052   2.964
 1461SOL    HW1 5282   6.898   4.102   2.992
 1461SOL    HW2 5283   6.799   4.066   2.867
 1462SOL     OW 5284   1.173   1.237   6.638
 1462SOL    HW1 5285   1.081   1.271   6.619
 1462SOL    HW2 5286   1.221   1.221   6.552
 1463SOL     OW 5287   1.121   5.534   5.751
 1463SOL    HW1 5288   1.048   5.477   5.787
 1463SOL    HW2 5289   1.085   5.624   5.729
 1464SOL     OW 5290   0.032   5.889   2.349
 1464SOL    HW1 5291   0.045   5.802   2.302
 1464SOL    HW2 5292   0.040   5.964   2.282
 1465SOL     OW 5293   1.615   1.033   4.090
 1465SOL    HW1 5294   1.577   1.055   4.000
 1465SOL    HW2 5295   1.540   1.006   4.151
 1466SOL     OW 5296   3.173   1.385   2.126
 1466SOL    HW1 5297   3.175   1.466   2.186
 1466SOL    HW2 5298   3.198   1.412   2.033
 1467SOL     OW 5299   1.656   1.363   3.584
 1467SOL    HW1 5300   1.677   1.268   3.559
 1467SOL    HW2 5301   1.602   1.405   3.512
 1468SOL     OW 5302   2.196   5.570   2.257
 1468SOL    HW1 5303   2.227   5.661   2.228
 1468SOL    HW2 5304   2.110   5.578   2.307
 1469SOL     OW 5305   6.836   0.534   3.244
 1469SOL    HW1 5306   6.810   0.559   3.337
 1469SOL    HW2 5307   6.809   0.439   3.226
 1470SOL     OW 5308   0.810   1.542   1.842
 1470SOL    HW1 5309   0.761   1.463   1.805
 1470SOL    HW2 5310   0.746   1.601   1.892
 1471SOL     OW 5311   0.978   0.438   0.624
 1471SOL    HW1 5312   0.959   0.462   0.529
 1471SOL    HW2 5313   1.065   0.478   0.652
 1472SOL     OW 5314   2.867   5.867   6.617
 1472SOL    HW1 5315   2.912   5.778   6.609
 1472SOL    HW2 5316   2.933   5.936   6.645
 1473SOL     OW 5317   3.570   5.477   5.201
 1473SOL    HW1 5318   3.574   5.569   5.163
 1473SOL    HW2 5319   3.608   5.412   5.136
 1474SOL     OW 5320   4.697   4.702   1.448
 1474SOL    HW1 5321   4.598   4.689   1.439
 1474SOL    HW2 5322   4.730   4.758   1.371
 1475SOL     OW 5323   5.445   0.977   0.818
 1475SOL    HW1 5324   5.389   1.011   0.743
 1475SOL    HW2 5325   5.505   0.904   0.785
 1476SOL     OW 5326   2.580   1.280   1.108
 1476SOL    HW1 5327   2.631   1.195   1.120
 1476SOL    HW2 5328   2.561   1.320   1.198
 1477SOL     OW 5329   3.724   6.285   6.492
 1477SOL    HW1 5330   3.745   6.346   6.568
 1477SOL    HW2 5331   3.753   6.192   6.516
 1478SOL     OW 5332   6.312   5.705   5.315
 1478SOL    HW1 5333   6.214   5.720   5.299
 1478SOL    HW2 5334   6.329   5.608   5.331
 1479SOL     OW 5335   3.044   3.423   0.900
 1479SOL    HW1 5336   2.962   3.387   0.944
 1479SOL    HW2 5337   3.121   3.362   0.917
 1480SOL     OW 5338   2.827   6.897   4.144
 1480SOL    HW1 5339   2.850   6.941   4.231
 1480SOL    HW2 5340   2.907   6.899   4.084
 1481SOL     OW 5341   6.073   3.456   6.246
 1481SOL    HW1 5342   6.079   3.419   6.154
 1481SOL    HW2 5343   6.126   3.540   6.253
 1482SOL     OW 5344   4.410   0.549   1.814
 1482SOL    HW1 5345   4.374   0.467   1.859
 1482SOL    HW2 5346   4.402   0.627   1.874
 1483SOL     OW 5347   5.433   2.339   5.412
 1483SOL    HW1 5348   5.395   2.401   5.344
 1483SOL    HW2 5349   5.361   2.281   5.449
 1484SOL     OW 5350   4.748   4.658   3.623
 1484SOL    HW1 5351   4.708   4.687   3.536
 1484SOL    HW2 5352   4.738   4.732   3.690
 1485SOL     OW 5353   5.041   0.395   4.449
 1485SOL    HW1 5354   5.019   0.457   4.524
 1485SOL    HW2 5355   5.002   0.305   4.468
 1486SOL     OW 5356   5.276   0.569   3.125
 1486SOL    HW1 5357   5.199   0.629   3.145
 1486SOL    HW2 5358   5.355   0.624   3.098
 1487SOL     OW 5359   0.162   2.169   6.852
 1487SOL    HW1 5360   0.097   2.245   6.860
 1487SOL    HW2 5361   0.128   2.091   6.904
 1488SOL     OW 5362   5.061   0.100   3.398
 1488SOL    HW1 5363   5.121   0.156   3.341
 1488SOL    HW2 5364   5.071   0.127   3.493
 1489SOL     OW 5365   3.635   5.049   6.511
 1489SOL    HW1 5366   3.733   5.066   6.508
 1489SOL    HW2 5367   3.596   5.091   6.593
 1490SOL     OW 5368   6.995   3.441   1.171
 1490SOL    HW1 5369   0.006   3.482   1.087
 1490SOL    HW2 5370   7.020   3.344   1.175
 1491SOL     OW 5371   6.391   4.119   2.294
 1491SOL    HW1 5372   6.341   4.169   2.365
 1491SOL    HW2 5373   6.422   4.183   2.223
 1492SOL     OW 5374   6.000   0.524   2.293
 1492SOL    HW1 5375   6.079   0.491   2.344
 1492SOL    HW2 5376   6.016   0.512   2.195
 1493SOL     OW 5377   3.864   0.392   6.030
 1493SOL    HW1 5378   3.863   0.381   5.931
 1493SOL    HW2 5379   3.770   0.388   6.065
 1494SOL     OW 5380   5.587   2.633   6.460
 1494SOL    HW1 5381   5.598   2.703   6.389
 1494SOL    HW2 5382   5.492   2.601   6.460
 1495SOL     OW 5383   0.308   4.299   5.352
 1495SOL    HW1 5384   0.318   4.202   5.330
 1495SOL    HW2 5385   0.399   4.341   5.358
 1496SOL     OW 5386   1.702   1.235   0.355
 1496SOL    HW1 5387   1.694   1.285   0.441
 1496SOL    HW2 5388   1.755   1.152   0.370
 1497SOL     OW 5389   5.391   3.126   1.899
 1497SOL    HW1 5390   5.490   3.134   1.899
 1497SOL    HW2 5391   5.362   3.059   1.831
 1498SOL     OW 5392   2.645   4.705   0.569
 1498SOL    HW1 5393   2.686   4.621   0.532
 1498SOL    HW2 5394   2.690   4.784   0.528
 1499SOL     OW 5395   0.566   2.568   5.961
 1499SOL    HW1 5396   0.506   2.629   6.012
 1499SOL    HW2 5397   0.608   2.617   5.885
 1500SOL     OW 5398   0.241   6.649   0.443
 1500SOL    HW1 5399   0.183   6.730   0.450
 1500SOL    HW2 5400   0.184   6.567   0.442
 1501SOL     OW 5401   5.757   1.975   6.277
 1501SOL    HW1 5402   5.838   1.929   6.316
 1501SOL    HW2 5403   5.764   2.074   6.293
 1502SOL     OW 5404   5.008   0.753   0.096
 1502SOL    HW1 5405   4.966   0.732   0.008
 1502SOL    HW2 5406   5.059   0.673   0.128
 1503SOL     OW 5407   1.427   2.986   2.342
 1503SOL    HW1 5408   1.454   2.892   2.323
 1503SOL    HW2 5409   1.396   2.993   2.437
 1504SOL     OW 5410   0.297   0.085   4.108
 1504SOL    HW1 5411   0.236   0.092   4.187
 1504SOL    HW2 5412   0.325   7.016   4.095
 1505SOL     OW 5413   4.765   0.282   5.795
 1505SOL    HW1 5414   4.860   0.259   5.774
 1505SOL    HW2 5415   4.735   0.358   5.737
 1506SOL     OW 5416   0.679   6.762   0.224
 1506SOL    HW1 5417   0.758   6.738   0.280
 1506SOL    HW2 5418   0.601   6.781   0.283
 1507SOL     OW 5419   0.197   1.980   5.784
 1507SOL    HW1 5420   0.243   1.957   5.869
 1507SOL    HW2 5421   0.177   1.897   5.732
 1508SOL     OW 5422   6.053   1.419   1.215
 1508SOL    HW1 5423   6.069   1.331   1.259
 1508SOL    HW2 5424   5.962   1.418   1.173
 1509SOL     OW 5425   4.676   2.195   4.796
 1509SOL    HW1 5426   4.591   2.235   4.763
 1509SOL    HW2 5427   4.753   2.240   4.752
 1510SOL     OW 5428   5.331   6.745   5.045
 1510SOL    HW1 5429   5.314   6.774   4.950
 1510SOL    HW2 5430   5.272   6.667   5.066
 1511SOL     OW 5431   4.101   3.675   4.253
 1511SOL    HW1 5432   4.109   3.671   4.154
 1511SOL    HW2 5433   4.038   3.603   4.284
 1512SOL     OW 5434   6.642   5.539   1.389
 1512SOL    HW1 5435   6.600   5.494   1.468
 1512SOL    HW2 5436   6.719   5.595   1.419
 1513SOL     OW 5437   3.834   0.546   4.443
 1513SOL    HW1 5438   3.748   0.505   4.474
 1513SOL    HW2 5439   3.835   0.643   4.470
 1514SOL     OW 5440   3.923   2.932   5.664
 1514SOL    HW1 5441   3.984   2.952   5.588
 1514SOL    HW2 5442   3.971   2.878   5.733
 1515SOL     OW 5443   5.438   1.631   2.581
 1515SOL    HW1 5444   5.415   1.556   2.519
 1515SOL    HW2 5445   5.372   1.705   2.570
 1516SOL     OW 5446   6.160   5.453   6.007
 1516SOL    HW1 5447   6.114   5.370   5.977
 1516SOL    HW2 5448   6.170   5.452   6.107
 1517SOL     OW 5449   4.391   6.245   2.695
 1517SOL    HW1 5450   4.313   6.221   2.637
 1517SOL    HW2 5451   4.429   6.162   2.735
 1518SOL     OW 5452   0.011   2.086   0.437
 1518SOL    HW1 5453   6.955   2.131   0.401
 1518SOL    HW2 5454   0.050   2.140   0.511
 1519SOL     OW 5455   6.413   4.460   1.456
 1519SOL    HW1 5456   6.352   4.456   1.535
 1519SOL    HW2 5457   6.414   4.553   1.419
 1520SOL     OW 5458   0.205   4.363   1.738
 1520SOL    HW1 5459   0.290   4.314   1.760
 1520SOL    HW2 5460   0.145   4.304   1.685
 1521SOL     OW 5461   2.407   4.810   6.433
 1521SOL    HW1 5462   2.326   4.751   6.440
 1521SOL    HW2 5463   2.430   4.845   6.524
 1522SOL     OW 5464   6.190   5.703   4.902
 1522SOL    HW1 5465   6.265   5.659   4.952
 1522SOL    HW2 5466   6.199   5.802   4.910
 1523SOL     OW 5467   3.888   6.498   6.981
 1523SOL    HW1 5468   3.929   6.408   6.994
 1523SOL    HW2 5469   3.825   6.494   6.903
 1524SOL     OW 5470   2.522   1.689   1.737
 1524SOL    HW1 5471   2.567   1.627   1.801
 1524SOL    HW2 5472   2.558   1.782   1.748
 1525SOL     OW 5473   6.195   3.171   0.570
 1525SOL    HW1 5474   6.117   3.111   0.553
 1525SOL    HW2 5475   6.231   3.154   0.662
 1526SOL     OW 5476   6.951   1.164   6.970
 1526SOL    HW1 5477   6.936   1.143   6.873
 1526SOL    HW2 5478   6.864   1.161   7.019
 1527SOL     OW 5479   3.330   1.090   3.820
 1527SOL    HW1 5480   3.430   1.091   3.811
 1527SOL    HW2 5481   3.305   1.119   3.912
 1528SOL     OW 5482   4.221   4.737   2.851
 1528SOL    HW1 5483   4.311   4.719   2.890
 1528SOL    HW2 5484   4.216   4.696   2.759
 1529SOL     OW 5485   4.453   0.563   0.013
 1529SOL    HW1 5486   4.406   0.490   0.063
 1529SOL    HW2 5487   4.525   0.602   0.070
 1530SOL     OW 5488   3.681   1.753   2.266
 1530SOL    HW1 5489   3.678   1.734   2.168
 1530SOL    HW2 5490   3.598   1.801   2.293
 1531SOL     OW 5491   4.816   0.753   5.077
 1531SOL    HW1 5492   4.842   0.740   5.172
 1531SOL    HW2 5493   4.897   0.748   5.019
 1532SOL     OW 5494   3.730   4.214   6.141
 1532SOL    HW1 5495   3.681   4.262   6.069
 1532SOL    HW2 5496   3.665   4.183   6.211
 1533SOL     OW 5497   6.384   4.870   0.403
 1533SOL    HW1 5498   6.374   4.890   0.501
 1533SOL    HW2 5499   6.299   4.894   0.355
 1534SOL     OW 5500   2.978   6.170   6.050
 1534SOL    HW1 5501   2.952   6.078   6.019
 1534SOL    HW2 5502   2.930   6.191   6.135
 1535SOL     OW 5503   5.441   5.807   4.294
 1535SOL    HW1 5504   5.501   5.882   4.325
 1535SOL    HW2 5505   5.346   5.831   4.313
 1536SOL     OW 5506   4.085   5.145   6.179
 1536SOL    HW1 5507   4.076   5.184   6.088
 1536SOL    HW2 5508   4.173   5.097   6.186
 1537SOL     OW 5509   4.434   5.519   4.170
 1537SOL    HW1 5510   4.425   5.561   4.260
 1537SOL    HW2 5511   4.526   5.538   4.134
 1538SOL     OW 5512   3.098   6.963   6.893
 1538SOL    HW1 5513   3.010   6.968   6.941
 1538SOL    HW2 5514   3.083   6.926   6.802
 1539SOL     OW 5515   4.630   3.437   1.640
 1539SOL    HW1 5516   4.567   3.514   1.640
 1539SOL    HW2 5517   4.674   3.431   1.730
 1540SOL     OW 5518   0.342   6.672   5.333
 1540SOL    HW1 5519   0.276   6.602   5.361
 1540SOL    HW2 5520   0.377   6.650   5.242
 1541SOL     OW 5521   3.003   3.164   4.547
 1541SOL    HW1 5522   2.922   3.118   4.584
 1541SOL    HW2 5523   3.038   3.112   4.470
 1542SOL     OW 5524   6.121   0.801   2.687
 1542SOL    HW1 5525   6.038   0.767   2.642
 1542SOL    HW2 5526   6.181   0.724   2.708
 1543SOL     OW 5527   3.652   5.028   4.830
 1543SOL    HW1 5528   3.648   5.033   4.730
 1543SOL    HW2 5529   3.593   4.954   4.863
 1544SOL     OW 5530   3.084   3.572   3.428
 1544SOL    HW1 5531   3.167   3.559   3.482
 1544SOL    HW2 5532   3.012   3.512   3.462
 1545SOL     OW 5533   4.717   0.240   3.017
 1545SOL    HW1 5534   4.671   0.249   3.105
 1545SOL    HW2 5535   4.655   0.198   2.951
 1546SOL     OW 5536   4.682   6.984   5.479
 1546SOL    HW1 5537   4.641   0.009   5.554
 1546SOL    HW2 5538   4.755   6.925   5.515
 1547SOL     OW 5539   1.965   4.019   0.990
 1547SOL    HW1 5540   2.006   3.947   1.046
 1547SOL    HW2 5541   2.035   4.084   0.963
 1548SOL     OW 5542   5.529   4.014   6.796
 1548SOL    HW1 5543   5.509   4.008   6.698
 1548SOL    HW2 5544   5.624   4.045   6.809
 1549SOL     OW 5545   3.956   1.511   1.779
 1549SOL    HW1 5546   3.993   1.540   1.868
 1549SOL    HW2 5547   3.919   1.591   1.731
 1550SOL     OW 5548   2.717   3.411   0.542
 1550SOL    HW1 5549   2.790   3.458   0.591
 1550SOL    HW2 5550   2.628   3.436   0.581
 1551SOL     OW 5551   1.855   4.071   6.353
 1551SOL    HW1 5552   1.764   4.045   6.387
 1551SOL    HW2 5553   1.911   4.104   6.429
 1552SOL     OW 5554   2.379   5.761   0.783
 1552SOL    HW1 5555   2.442   5.701   0.832
 1552SOL    HW2 5556   2.382   5.738   0.685
 1553SOL     OW 5557   6.056   1.466   6.700
 1553SOL    HW1 5558   5.966   1.478   6.658
 1553SOL    HW2 5559   6.068   1.370   6.726
 1554SOL     OW 5560   3.470   1.726   3.616
 1554SOL    HW1 5561   3.540   1.775   3.566
 1554SOL    HW2 5562   3.495   1.723   3.713
 1555SOL     OW 5563   5.656   3.173   0.299
 1555SOL    HW1 5564   5.595   3.120   0.359
 1555SOL    HW2 5565   5.668   3.265   0.337
 1556SOL     OW 5566   2.793   2.191   0.166
 1556SOL    HW1 5567   2.793   2.236   0.077
 1556SOL    HW2 5568   2.886   2.163   0.189
 1557SOL     OW 5569   1.885   2.367   4.766
 1557SOL    HW1 5570   1.968   2.421   4.778
 1557SOL    HW2 5571   1.841   2.355   4.855
 1558SOL     OW 5572   5.955   0.463   4.702
 1558SOL    HW1 5573   5.913   0.405   4.632
 1558SOL    HW2 5574   6.024   0.521   4.660
 1559SOL     OW 5575   2.101   2.763   6.654
 1559SOL    HW1 5576   2.176   2.828   6.663
 1559SOL    HW2 5577   2.040   2.793   6.581
 1560SOL     OW 5578   6.957   1.093   6.002
 1560SOL    HW1 5579   6.921   1.062   5.914
 1560SOL    HW2 5580   0.002   1.162   5.986
 1561SOL     OW 5581   5.673   6.646   3.815
 1561SOL    HW1 5582   5.625   6.671   3.899
 1561SOL    HW2 5583   5.612   6.660   3.737
 1562SOL     OW 5584   5.056   5.933   2.686
 1562SOL    HW1 5585   5.033   5.836   2.690
 1562SOL    HW2 5586   5.105   5.959   2.770
 1563SOL     OW 5587   2.186   0.334   4.788
 1563SOL    HW1 5588   2.152   0.251   4.833
 1563SOL    HW2 5589   2.285   0.328   4.778
 1564SOL     OW 5590   1.528   2.189   3.327
 1564SOL    HW1 5591   1.612   2.174   3.275
 1564SOL    HW2 5592   1.474   2.261   3.284
 1565SOL     OW 5593   4.595   4.321   3.437
 1565SOL    HW1 5594   4.566   4.367   3.520
 1565SOL    HW2 5595   4.520   4.320   3.371
 1566SOL     OW 5596   5.909   4.266   2.787
 1566SOL    HW1 5597   5.991   4.218   2.819
 1566SOL    HW2 5598   5.834   4.249   2.850
 1567SOL     OW 5599   6.456   6.218   0.916
 1567SOL    HW1 5600   6.519   6.163   0.862
 1567SOL    HW2 5601   6.443   6.175   1.006
 1568SOL     OW 5602   1.610   6.829   6.791
 1568SOL    HW1 5603   1.702   6.865   6.802
 1568SOL    HW2 5604   1.547   6.881   6.850
 1569SOL     OW 5605   4.627   6.089   3.555
 1569SOL    HW1 5606   4.691   6.163   3.536
 1569SOL    HW2 5607   4.555   6.121   3.616
 1570SOL     OW 5608   1.693   0.497   0.906
 1570SOL    HW1 5609   1.726   0.476   0.815
 1570SOL    HW2 5610   1.646   0.586   0.906
 1571SOL     OW 5611   5.735   2.546   0.833
 1571SOL    HW1 5612   5.762   2.637   0.866
 1571SOL    HW2 5613   5.785   2.476   0.885
 1572SOL     OW 5614   0.152   6.680   1.653
 1572SOL    HW1 5615   0.182   6.601   1.600
 1572SOL    HW2 5616   0.182   6.670   1.748
 1573SOL     OW 5617   5.257   2.374   2.569
 1573SOL    HW1 5618   5.224   2.294   2.518
 1573SOL    HW2 5619   5.192   2.449   2.558
 1574SOL     OW 5620   6.185   0.824   1.902
 1574SOL    HW1 5621   6.165   0.757   1.830
 1574SOL    HW2 5622   6.121   0.901   1.894
 1575SOL     OW 5623   3.152   0.929   0.515
 1575SOL    HW1 5624   3.111   0.871   0.444
 1575SOL    HW2 5625   3.210   0.998   0.472
 1576SOL     OW 5626   0.100   6.088   3.937
 1576SOL    HW1 5627   0.085   6.156   4.009
 1576SOL    HW2 5628   0.156   6.013   3.972
 1577SOL     OW 5629   3.667   1.816   4.473
 1577SOL    HW1 5630   3.622   1.829   4.561
 1577SOL    HW2 5631   3.630   1.882   4.407
 1578SOL     OW 5632   6.161   3.848   5.588
 1578SOL    HW1 5633   6.210   3.920   5.538
 1578SOL    HW2 5634   6.221   3.810   5.658
 1579SOL     OW 5635   7.021   1.903   3.067
 1579SOL    HW1 5636   7.013   2.001   3.089
 1579SOL    HW2 5637   6.936   1.871   3.025
 1580SOL     OW 5638   2.626   3.575   5.347
 1580SOL    HW1 5639   2.588   3.625   5.425
 1580SOL    HW2 5640   2.595   3.618   5.262
 1581SOL     OW 5641   0.168   4.795   4.838
 1581SOL    HW1 5642   0.127   4.840   4.917
 1581SOL    HW2 5643   0.233   4.725   4.869
 1582SOL     OW 5644   1.402   6.647   4.315
 1582SOL    HW1 5645   1.495   6.610   4.312
 1582SOL    HW2 5646   1.347   6.596   4.381
 1583SOL     OW 5647   0.928   3.333   3.742
 1583SOL    HW1 5648   0.968   3.385   3.817
 1583SOL    HW2 5649   0.828   3.330   3.752
 1584SOL     OW 5650   1.377   6.806   4.874
 1584SOL    HW1 5651   1.334   6.737   4.931
 1584SOL    HW2 5652   1.438   6.863   4.931
 1585SOL     OW 5653   5.539   1.491   3.098
 1585SOL    HW1 5654   5.463   1.451   3.048
 1585SOL    HW2 5655   5.534   1.590   3.094
 1586SOL     OW 5656   3.058   4.105   0.874
 1586SOL    HW1 5657   3.099   4.143   0.957
 1586SOL    HW2 5658   3.056   4.005   0.881
 1587SOL     OW 5659   2.864   5.261   0.182
 1587SOL    HW1 5660   2.901   5.352   0.161
 1587SOL    HW2 5661   2.914   5.223   0.259
 1588SOL     OW 5662   5.047   1.009   3.171
 1588SOL    HW1 5663   5.123   1.057   3.129
 1588SOL    HW2 5664   4.964   1.022   3.116
 1589SOL     OW 5665   6.287   4.067   3.102
 1589SOL    HW1 5666   6.281   4.069   3.202
 1589SOL    HW2 5667   6.327   3.980   3.073
 1590SOL     OW 5668   2.649   6.747   5.789
 1590SOL    HW1 5669   2.578   6.774   5.853
 1590SOL    HW2 5670   2.642   6.802   5.706
 1591SOL     OW 5671   0.951   4.843   2.835
 1591SOL    HW1 5672   0.990   4.769   2.779
 1591SOL    HW2 5673   0.887   4.896   2.779
 1592SOL     OW 5674   2.711   4.539   1.505
 1592SOL    HW1 5675   2.657   4.469   1.458
 1592SOL    HW2 5676   2.685   4.543   1.601
 1593SOL     OW 5677   1.056   6.359   4.118
 1593SOL    HW1 5678   1.033   6.450   4.085
 1593SOL    HW2 5679   0.973   6.312   4.149
 1594SOL     OW 5680   0.149   5.283   2.751
 1594SOL    HW1 5681   0.078   5.218   2.780
 1594SOL    HW2 5682   0.227   5.233   2.714
 1595SOL     OW 5683   1.189   5.164   6.583
 1595SOL    HW1 5684   1.279   5.206   6.574
 1595SOL    HW2 5685   1.130   5.195   6.508
 1596SOL     OW 5686   0.973   2.503   5.484
 1596SOL    HW1 5687   0.884   2.514   5.529
 1596SOL    HW2 5688   0.963   2.445   5.404
 1597SOL     OW 5689   2.728   5.742   0.089
 1597SOL    HW1 5690   2.700   5.653   0.125
 1597SOL    HW2 5691   2.712   5.745   7.017
 1598SOL     OW 5692   1.025   3.800   6.883
 1598SOL    HW1 5693   0.927   3.783   6.874
 1598SOL    HW2 5694   1.077   3.719   6.855
 1599SOL     OW 5695   5.097   4.109   5.813
 1599SOL    HW1 5696   5.094   4.116   5.912
 1599SOL    HW2 5697   5.057   4.191   5.772
 1600SOL     OW 5698   5.297   2.049   4.824
 1600SOL    HW1 5699   5.314   2.020   4.730
 1600SOL    HW2 5700   5.325   1.977   4.887
 1601SOL     OW 5701   0.575   5.202   4.664
 1601SOL    HW1 5702   0.654   5.140   4.665
 1601SOL    HW2 5703   0.607   5.297   4.671
 1602SOL     OW 5704   2.185   5.296   4.247
 1602SOL    HW1 5705   2.254   5.346   4.195
 1602SOL    HW2 5706   2.179   5.333   4.340
 1603SOL     OW 5707   0.505   5.877   2.239
 1603SOL    HW1 5708   0.476   5.804   2.300
 1603SOL    HW2 5709   0.430   5.942   2.227
 1604SOL     OW 5710   6.315   4.730   6.930
 1604SOL    HW1 5711   6.297   4.708   7.026
 1604SOL    HW2 5712   6.396   4.680   6.899
 1605SOL     OW 5713   6.230   6.992   2.079
 1605SOL    HW1 5714   6.280   7.013   1.996
 1605SOL    HW2 5715   6.148   6.939   2.057
 1606SOL     OW 5716   3.695   0.228   4.784
 1606SOL    HW1 5717   3.731   0.199   4.873
 1606SOL    HW2 5718   3.687   0.328   4.783
 1607SOL     OW 5719   4.475   2.577   0.322
 1607SOL    HW1 5720   4.571   2.566   0.296
 1607SOL    HW2 5721   4.465   2.660   0.376
 1608SOL     OW 5722   1.498   0.598   5.832
 1608SOL    HW1 5723   1.593   0.629   5.841
 1608SOL    HW2 5724   1.493   0.499   5.842
 1609SOL     OW 5725   4.292   0.769   6.957
 1609SOL    HW1 5726   4.255   0.752   6.866
 1609SOL    HW2 5727   4.356   0.696   6.981
 1610SOL     OW 5728   6.286   4.095   5.495
 1610SOL    HW1 5729   6.210   4.093   5.430
 1610SOL    HW2 5730   6.372   4.107   5.445
 1611SOL     OW 5731   3.446   3.712   1.363
 1611SOL    HW1 5732   3.539   3.704   1.325
 1611SOL    HW2 5733   3.382   3.662   1.304
 1612SOL     OW 5734   2.961   1.226   5.404
 1612SOL    HW1 5735   2.893   1.252   5.473
 1612SOL    HW2 5736   3.026   1.301   5.391
 1613SOL     OW 5737   2.020   6.100   1.737
 1613SOL    HW1 5738   2.025   6.151   1.651
 1613SOL    HW2 5739   2.018   6.165   1.813
 1614SOL     OW 5740   6.475   3.856   0.455
 1614SOL    HW1 5741   6.379   3.849   0.485
 1614SOL    HW2 5742   6.512   3.944   0.483
 1615SOL     OW 5743   6.272   4.680   1.232
 1615SOL    HW1 5744   6.181   4.703   1.198
 1615SOL    HW2 5745   6.311   4.606   1.178
 1616SOL     OW 5746   4.198   2.554   5.760
 1616SOL    HW1 5747   4.274   2.575   5.822
 1616SOL    HW2 5748   4.150   2.472   5.791
 1617SOL     OW 5749   5.743   6.899   1.360
 1617SOL    HW1 5750   5.658   6.848   1.364
 1617SOL    HW2 5751   5.818   6.838   1.335
 1618SOL     OW 5752   0.562   3.769   0.782
 1618SOL    HW1 5753   0.598   3.769   0.689
 1618SOL    HW2 5754   0.535   3.676   0.807
 1619SOL     OW 5755   1.223   1.985   3.918
 1619SOL    HW1 5756   1.253   1.943   3.832
 1619SOL    HW2 5757   1.123   1.982   3.923
 1620SOL     OW 5758   1.871   6.124   0.656
 1620SOL    HW1 5759   1.955   6.080   0.688
 1620SOL    HW2 5760   1.813   6.146   0.735
 1621SOL     OW 5761   0.621   1.157   0.567
 1621SOL    HW1 5762   0.602   1.226   0.637
 1621SOL    HW2 5763   0.603   1.195   0.476
 1622SOL     OW 5764   1.278   2.320   4.544
 1622SOL    HW1 5765   1.367   2.283   4.518
 1622SOL    HW2 5766   1.291   2.400   4.603
 1623SOL     OW 5767   2.671   2.787   5.940
 1623SOL    HW1 5768   2.643   2.697   5.907
 1623SOL    HW2 5769   2.594   2.851   5.934
 1624SOL     OW 5770   3.120   0.867   5.878
 1624SOL    HW1 5771   3.173   0.798   5.829
 1624SOL    HW2 5772   3.035   0.887   5.829
 1625SOL     OW 5773   1.371   6.029   2.043
 1625SOL    HW1 5774   1.342   6.041   1.948
 1625SOL    HW2 5775   1.306   5.968   2.089
 1626SOL     OW 5776   2.958   1.938   6.636
 1626SOL    HW1 5777   2.869   1.974   6.609
 1626SOL    HW2 5778   2.951   1.840   6.652
 1627SOL     OW 5779   6.374   2.701   4.146
 1627SOL    HW1 5780   6.464   2.683   4.186
 1627SOL    HW2 5781   6.317   2.619   4.154
 1628SOL     OW 5782   4.891   4.998   6.771
 1628SOL    HW1 5783   4.896   5.042   6.861
 1628SOL    HW2 5784   4.869   4.901   6.783
 1629SOL     OW 5785   3.494   2.122   4.676
 1629SOL    HW1 5786   3.427   2.166   4.736
 1629SOL    HW2 5787   3.582   2.115   4.723
 1630SOL     OW 5788   1.201   6.059   5.559
 1630SOL    HW1 5789   1.200   5.962   5.583
 1630SOL    HW2 5790   1.208   6.068   5.460
 1631SOL     OW 5791   0.121   1.269   5.952
 1631SOL    HW1 5792   0.119   1.253   5.853
 1631SOL    HW2 5793   0.111   1.367   5.970
 1632SOL     OW 5794   0.278   1.555   6.775
 1632SOL    HW1 5795   0.340   1.606   6.834
 1632SOL    HW2 5796   0.291   1.584   6.680
 1633SOL     OW 5797   5.052   2.387   3.838
 1633SOL    HW1 5798   5.050   2.295   3.799
 1633SOL    HW2 5799   5.079   2.381   3.934
 1634SOL     OW 5800   4.286   5.300   5.636
 1634SOL    HW1 5801   4.293   5.289   5.735
 1634SOL    HW2 5802   4.240   5.386   5.615
 1635SOL     OW 5803   6.256   5.162   5.237
 1635SOL    HW1 5804   6.311   5.112   5.169
 1635SOL    HW2 5805   6.295   5.147   5.328
 1636SOL     OW 5806   2.058   4.392   1.506
 1636SOL    HW1 5807   2.081   4.433   1.417
 1636SOL    HW2 5808   2.057   4.293   1.498
 1637SOL     OW 5809   6.344   0.636   2.913
 1637SOL    HW1 5810   6.247   0.658   2.917
 1637SOL    HW2 5811   6.394   0.690   2.980
 1638SOL     OW 5812   0.725   3.990   4.064
 1638SOL    HW1 5813   0.642   3.960   4.017
 1638SOL    HW2 5814   0.755   4.078   4.027
 1639SOL     OW 5815   4.664   6.944   2.783
 1639SOL    HW1 5816   4.680   6.908   2.691
 1639SOL    HW2 5817   4.604   7.024   2.778
 1640SOL     OW 5818   5.667   1.681   0.835
 1640SOL    HW1 5819   5.751   1.633   0.812
 1640SOL    HW2 5820   5.654   1.678   0.935
 1641SOL     OW 5821   5.400   2.888   3.888
 1641SOL    HW1 5822   5.390   2.984   3.916
 1641SOL    HW2 5823   5.488   2.854   3.921
 1642SOL     OW 5824   6.561   3.395   0.162
 1642SOL    HW1 5825   6.578   3.406   0.260
 1642SOL    HW2 5826   6.469   3.426   0.141
 1643SOL     OW 5827   2.928   5.848   4.258
 1643SOL    HW1 5828   2.891   5.763   4.221
 1643SOL    HW2 5829   2.899   5.925   4.200
 1644SOL     OW 5830   1.716   2.448   1.236
 1644SOL    HW1 5831   1.778   2.377   1.268
 1644SOL    HW2 5832   1.731   2.464   1.138
 1645SOL     OW 5833   3.463   6.573   5.078
 1645SOL    HW1 5834   3.492   6.481   5.050
 1645SOL    HW2 5835   3.364   6.573   5.094
 1646SOL     OW 5836   2.632   5.653   1.042
 1646SOL    HW1 5837   2.715   5.710   1.037
 1646SOL    HW2 5838   2.632   5.603   1.129
 1647SOL     OW 5839   5.570   2.574   4.231
 1647SOL    HW1 5840   5.644   2.526   4.184
 1647SOL    HW2 5841   5.492   2.583   4.170
 1648SOL     OW 5842   5.914   6.204   1.543
 1648SOL    HW1 5843   5.968   6.271   1.493
 1648SOL    HW2 5844   5.891   6.240   1.634
 1649SOL     OW 5845   3.475   0.378   3.486
 1649SOL    HW1 5846   3.484   0.288   3.443
 1649SOL    HW2 5847   3.517   0.377   3.576
 1650SOL     OW 5848   2.527   6.875   4.007
 1650SOL    HW1 5849   2.602   6.920   4.056
 1650SOL    HW2 5850   2.455   6.850   4.072
 1651SOL     OW 5851   0.730   0.705   1.118
 1651SOL    HW1 5852   0.713   0.802   1.135
 1651SOL    HW2 5853   0.777   0.694   1.030
 1652SOL     OW 5854   1.206   2.669   1.841
 1652SOL    HW1 5855   1.142   2.655   1.765
 1652SOL    HW2 5856   1.213   2.585   1.895
 1653SOL     OW 5857   0.397   6.225   1.982
 1653SOL    HW1 5858   0.342   6.232   1.900
 1653SOL    HW2 5859   0.488   6.264   1.965
 1654SOL     OW 5860   0.168   2.650   1.941
 1654SOL    HW1 5861   0.116   2.568   1.966
 1654SOL    HW2 5862   0.166   2.662   1.842
 1655SOL     OW 5863   5.358   3.847   6.239
 1655SOL    HW1 5864   5.370   3.945   6.227
 1655SOL    HW2 5865   5.436   3.799   6.197
 1656SOL     OW 5866   1.571   4.664   3.278
 1656SOL    HW1 5867   1.576   4.574   3.234
 1656SOL    HW2 5868   1.529   4.654   3.368
 1657SOL     OW 5869   0.035   1.459   4.568
 1657SOL    HW1 5870   6.989   1.430   4.504
 1657SOL    HW2 5871   0.005   1.540   4.618
 1658SOL     OW 5872   0.564   6.799   3.505
 1658SOL    HW1 5873   0.555   6.870   3.435
 1658SOL    HW2 5874   0.477   6.751   3.514
 1659SOL     OW 5875   3.934   2.159   6.051
 1659SOL    HW1 5876   4.021   2.118   6.077
 1659SOL    HW2 5877   3.888   2.101   5.985
 1660SOL     OW 5878   1.742   4.829   3.983
 1660SOL    HW1 5879   1.789   4.775   4.053
 1660SOL    HW2 5880   1.806   4.894   3.943
 1661SOL     OW 5881   3.095   1.502   1.681
 1661SOL    HW1 5882   3.156   1.523   1.757
 1661SOL    HW2 5883   3.149   1.465   1.605
 1662SOL     OW 5884   6.193   1.217   3.753
 1662SOL    HW1 5885   6.150   1.271   3.681
 1662SOL    HW2 5886   6.127   1.198   3.825
 1663SOL     OW 5887   2.250   1.418   2.737
 1663SOL    HW1 5888   2.271   1.452   2.646
 1663SOL    HW2 5889   2.234   1.495   2.799
 1664SOL     OW 5890   1.200   0.162   3.860
 1664SOL    HW1 5891   1.273   0.228   3.847
 1664SOL    HW2 5892   1.111   0.208   3.852
 1665SOL     OW 5893   6.838   1.685   2.724
 1665SOL    HW1 5894   6.920   1.674   2.780
 1665SOL    HW2 5895   6.813   1.597   2.684
 1666SOL     OW 5896   5.976   3.715   0.573
 1666SOL    HW1 5897   5.910   3.681   0.505
 1666SOL    HW2 5898   5.943   3.694   0.665
 1667SOL     OW 5899   5.649   6.701   0.834
 1667SOL    HW1 5900   5.680   6.671   0.924
 1667SOL    HW2 5901   5.555   6.735   0.840
 1668SOL     OW 5902   4.975   6.328   5.968
 1668SOL    HW1 5903   4.930   6.414   5.991
 1668SOL    HW2 5904   5.044   6.307   6.037
 1669SOL     OW 5905   6.428   0.056   0.708
 1669SOL    HW1 5906   6.403   7.001   0.655
 1669SOL    HW2 5907   6.384   0.052   0.798
 1670SOL     OW 5908   6.890   5.850   5.909
 1670SOL    HW1 5909   6.866   5.939   5.872
 1670SOL    HW2 5910   6.827   5.781   5.873
 1671SOL     OW 5911   4.274   2.408   0.724
 1671SOL    HW1 5912   4.300   2.361   0.808
 1671SOL    HW2 5913   4.180   2.442   0.733
 1672SOL     OW 5914   2.086   4.180   2.533
 1672SOL    HW1 5915   2.172   4.231   2.540
 1672SOL    HW2 5916   2.009   4.242   2.547
 1673SOL     OW 5917   0.782   2.378   4.420
 1673SOL    HW1 5918   0.771   2.400   4.323
 1673SOL    HW2 5919   0.876   2.395   4.448
 1674SOL     OW 5920   1.002   4.101   1.335
 1674SOL    HW1 5921   0.936   4.070   1.267
 1674SOL    HW2 5922   0.963   4.092   1.426
 1675SOL     OW 5923   3.966   0.146   6.118
 1675SOL    HW1 5924   3.976   0.241   6.089
 1675SOL    HW2 5925   4.051   0.097   6.101
 1676SOL     OW 5926   3.663   1.123   2.328
 1676SOL    HW1 5927   3.577   1.086   2.293
 1676SOL    HW2 5928   3.697   1.192   2.265
 1677SOL     OW 5929   4.484   2.633   5.603
 1677SOL    HW1 5930   4.493   2.537   5.631
 1677SOL    HW2 5931   4.453   2.637   5.508
 1678SOL     OW 5932   5.259   4.557   4.583
 1678SOL    HW1 5933   5.201   4.587   4.508
 1678SOL    HW2 5934   5.282   4.634   4.641
 1679SOL     OW 5935   2.299   3.582   5.442
 1679SOL    HW1 5936   2.210   3.598   5.483
 1679SOL    HW2 5937   2.316   3.650   5.370
 1680SOL     OW 5938   1.133   1.717   4.184
 1680SOL    HW1 5939   1.229   1.692   4.174
 1680SOL    HW2 5940   1.088   1.714   4.095
 1681SOL     OW 5941   6.533   5.793   0.984
 1681SOL    HW1 5942   6.448   5.838   1.010
 1681SOL    HW2 5943   6.578   5.756   1.066
 1682SOL     OW 5944   0.282   3.137   4.676
 1682SOL    HW1 5945   0.263   3.059   4.735
 1682SOL    HW2 5946   0.276   3.109   4.580
 1683SOL     OW 5947   3.763   5.600   1.215
 1683SOL    HW1 5948   3.775   5.534   1.289
 1683SOL    HW2 5949   3.849   5.610   1.165
 1684SOL     OW 5950   1.032   6.243   2.764
 1684SOL    HW1 5951   0.972   6.221   2.841
 1684SOL    HW2 5952   1.072   6.159   2.727
 1685SOL     OW 5953   2.939   1.483   6.534
 1685SOL    HW1 5954   2.964   1.548   6.606
 1685SOL    HW2 5955   2.972   1.391   6.560
 1686SOL     OW 5956   2.397   5.058   5.537
 1686SOL    HW1 5957   2.425   5.139   5.484
 1686SOL    HW2 5958   2.432   5.066   5.630
 1687SOL     OW 5959   1.916   3.637   1.394
 1687SOL    HW1 5960   2.001   3.591   1.369
 1687SOL    HW2 5961   1.838   3.583   1.364
 1688SOL     OW 5962   1.469   2.591   3.424
 1688SOL    HW1 5963   1.463   2.689   3.444
 1688SOL    HW2 5964   1.559   2.556   3.452
 1689SOL     OW 5965   3.490   0.745   1.855
 1689SOL    HW1 5966   3.401   0.725   1.814
 1689SOL    HW2 5967   3.477   0.772   1.951
 1690SOL     OW 5968   1.086   2.982   3.297
 1690SOL    HW1 5969   0.997   2.966   3.339
 1690SOL    HW2 5970   1.114   2.902   3.245
 1691SOL     OW 5971   4.961   3.732   3.012
 1691SOL    HW1 5972   4.992   3.827   3.009
 1691SOL    HW2 5973   4.862   3.728   2.999
 1692SOL     OW 5974   6.606   6.688   1.481
 1692SOL    HW1 5975   6.549   6.755   1.529
 1692SOL    HW2 5976   6.662   6.639   1.548
 1693SOL     OW 5977   1.207   2.343   1.973
 1693SOL    HW1 5978   1.132   2.400   2.007
 1693SOL    HW2 5979   1.245   2.289   2.048
 1694SOL     OW 5980   4.468   6.687   4.154
 1694SOL    HW1 5981   4.480   6.775   4.108
 1694SOL    HW2 5982   4.424   6.623   4.091
 1695SOL     OW 5983   2.464   1.137   5.049
 1695SOL    HW1 5984   2.433   1.042   5.055
 1695SOL    HW2 5985   2.390   1.197   5.080
 1696SOL     OW 5986   5.433   5.263   0.914
 1696SOL    HW1 5987   5.337   5.241   0.928
 1696SOL    HW2 5988   5.440   5.352   0.869
 1697SOL     OW 5989   6.635   6.458   1.856
 1697SOL    HW1 5990   6.686   6.514   1.791
 1697SOL    HW2 5991   6.545   6.497   1.872
 1698SOL     OW 5992   4.353   1.541   0.761
 1698SOL    HW1 5993   4.342   1.446   0.730
 1698SOL    HW2 5994   4.262   1.582   0.775
 1699SOL     OW 5995   3.287   1.219   2.462
 1699SOL    HW1 5996   3.223   1.234   2.387
 1699SOL    HW2 5997   3.262   1.277   2.539
 1700SOL     OW 5998   6.383   2.160   3.959
 1700SOL    HW1 5999   6.388   2.255   3.928
 1700SOL    HW2 6000   6.315   2.152   4.032
 1701SOL     OW 6001   4.846   3.145   5.076
 1701SOL    HW1 6002   4.807   3.098   4.997
 1701SOL    HW2 6003   4.795   3.120   5.158
 1702SOL     OW 6004   6.850   3.634   0.467
 1702SOL    HW1 6005   6.938   3.625   0.420
 1702SOL    HW2 6006   6.850   3.716   0.523
 1703SOL     OW 6007   3.696   3.947   3.276
 1703SOL    HW1 6008   3.702   3.961   3.177
 1703SOL    HW2 6009   3.606   3.975   3.308
 1704SOL     OW 6010   0.705   1.175   1.014
 1704SOL    HW1 6011   0.633   1.212   0.955
 1704SOL    HW2 6012   0.724   1.240   1.088
 1705SOL     OW 6013   3.480   2.026   1.932
 1705SOL    HW1 6014   3.410   2.021   2.004
 1705SOL    HW2 6015   3.546   2.097   1.955
 1706SOL     OW 6016   4.036   6.474   1.226
 1706SOL    HW1 6017   4.130   6.464   1.257
 1706SOL    HW2 6018   3.974   6.436   1.295
 1707SOL     OW 6019   4.445   1.313   2.622
 1707SOL    HW1 6020   4.415   1.357   2.537
 1707SOL    HW2 6021   4.396   1.226   2.633
 1708SOL     OW 6022   5.386   5.522   2.371
 1708SOL    HW1 6023   5.329   5.599   2.399
 1708SOL    HW2 6024   5.480   5.554   2.354
 1709SOL     OW 6025   2.864   5.940   1.982
 1709SOL    HW1 6026   2.821   5.902   1.899
 1709SOL    HW2 6027   2.904   5.866   2.035
 1710SOL     OW 6028   5.945   4.594   3.853
 1710SOL    HW1 6029   6.033   4.549   3.864
 1710SOL    HW2 6030   5.943   4.643   3.766
 1711SOL     OW 6031   1.126   4.719   5.352
 1711SOL    HW1 6032   1.119   4.707   5.451
 1711SOL    HW2 6033   1.064   4.655   5.306
 1712SOL     OW 6034   0.442   3.123   6.293
 1712SOL    HW1 6035   0.368   3.098   6.231
 1712SOL    HW2 6036   0.452   3.052   6.363
 1713SOL     OW 6037   3.292   1.536   1.202
 1713SOL    HW1 6038   3.310   1.453   1.150
 1713SOL    HW2 6039   3.359   1.606   1.178
 1714SOL     OW 6040   4.317   1.837   6.219
 1714SOL    HW1 6041   4.414   1.848   6.201
 1714SOL    HW2 6042   4.304   1.785   6.304
 1715SOL     OW 6043   6.707   3.825   2.551
 1715SOL    HW1 6044   6.728   3.922   2.563
 1715SOL    HW2 6045   6.644   3.814   2.474
 1716SOL     OW 6046   5.471   6.530   1.516
 1716SOL    HW1 6047   5.441   6.470   1.442
 1716SOL    HW2 6048   5.392   6.561   1.569
 1717SOL     OW 6049   1.952   6.151   6.533
 1717SOL    HW1 6050   1.881   6.222   6.538
 1717SOL    HW2 6051   1.915   6.065   6.568
 1718SOL     OW 6052   1.747   1.743   0.923
 1718SOL    HW1 6053   1.689   1.732   1.005
 1718SOL    HW2 6054   1.777   1.838   0.916
 1719SOL     OW 6055   2.547   4.351   1.285
 1719SOL    HW1 6056   2.506   4.413   1.218
 1719SOL    HW2 6057   2.637   4.322   1.251
 1720SOL     OW 6058   6.722   1.300   1.418
 1720SOL    HW1 6059   6.770   1.271   1.500
 1720SOL    HW2 6060   6.666   1.381   1.438
 1721SOL     OW 6061   1.370   6.646   2.558
 1721SOL    HW1 6062   1.296   6.652   2.491
 1721SOL    HW2 6063   1.417   6.559   2.549
 1722SOL     OW 6064   5.207   1.319   3.868
 1722SOL    HW1 6065   5.199   1.259   3.789
 1722SOL    HW2 6066   5.295   1.368   3.864
 1723SOL     OW 6067   6.833   2.653   3.420
 1723SOL    HW1 6068   6.869   2.746   3.417
 1723SOL    HW2 6069   6.864   2.602   3.339
 1724SOL     OW 6070   5.787   1.947   0.378
 1724SOL    HW1 6071   5.692   1.926   0.358
 1724SOL    HW2 6072   5.840   1.862   0.380
 1725SOL     OW 6073   3.119   4.788   0.236
 1725SOL    HW1 6074   3.135   4.875   0.189
 1725SOL    HW2 6075   3.020   4.775   0.250
 1726SOL     OW 6076   0.277   4.526   5.700
 1726SOL    HW1 6077   0.245   4.556   5.790
 1726SOL    HW2 6078   0.329   4.441   5.710
 1727SOL     OW 6079   3.550   2.972   4.448
 1727SOL    HW1 6080   3.455   2.944   4.465
 1727SOL    HW2 6081   3.608   2.891   4.445
 1728SOL     OW 6082   5.555   5.460   4.654
 1728SOL    HW1 6083   5.538   5.361   4.653
 1728SOL    HW2 6084   5.654   5.477   4.655
 1729SOL     OW 6085   2.133   3.522   4.060
 1729SOL    HW1 6086   2.049   3.568   4.088
 1729SOL    HW2 6087   2.181   3.578   3.992
 1730SOL     OW 6088   6.424   0.659   4.743
 1730SOL    HW1 6089   6.430   0.686   4.647
 1730SOL    HW2 6090   6.451   0.736   4.801
 1731SOL     OW 6091   1.216   5.227   1.967
 1731SOL    HW1 6092   1.149   5.187   1.905
 1731SOL    HW2 6093   1.299   5.172   1.967
 1732SOL     OW 6094   2.463   4.645   5.989
 1732SOL    HW1 6095   2.543   4.633   6.048
 1732SOL    HW2 6096   2.383   4.606   6.034
 1733SOL     OW 6097   1.071   3.844   2.751
 1733SOL    HW1 6098   0.997   3.808   2.808
 1733SOL    HW2 6099   1.159   3.811   2.787
 1734SOL     OW 6100   4.765   2.943   1.685
 1734SOL    HW1 6101   4.728   3.029   1.653
 1734SOL    HW2 6102   4.762   2.940   1.785
 1735SOL     OW 6103   5.603   5.148   1.417
 1735SOL    HW1 6104   5.534   5.084   1.451
 1735SOL    HW2 6105   5.614   5.222   1.484
 1736SOL     OW 6106   4.950   1.437   0.495
 1736SOL    HW1 6107   4.966   1.344   0.462
 1736SOL    HW2 6108   4.855   1.462   0.479
 1737SOL     OW 6109   2.976   0.533   4.066
 1737SOL    HW1 6110   2.915   0.611   4.075
 1737SOL    HW2 6111   2.985   0.509   3.969
 1738SOL     OW 6112   2.009   2.452   3.782
 1738SOL    HW1 6113   1.969   2.362   3.798
 1738SOL    HW2 6114   2.109   2.443   3.778
 1739SOL     OW 6115   4.836   2.784   5.321
 1739SOL    HW1 6116   4.737   2.792   5.335
 1739SOL    HW2 6117   4.853   2.751   5.228
 1740SOL     OW 6118   6.844   1.705   6.783
 1740SOL    HW1 6119   6.898   1.624   6.761
 1740SOL    HW2 6120   6.894   1.787   6.756
 1741SOL     OW 6121   2.509   0.930   2.676
 1741SOL    HW1 6122   2.498   0.954   2.580
 1741SOL    HW2 6123   2.420   0.933   2.722
 1742SOL     OW 6124   4.332   6.216   5.803
 1742SOL    HW1 6125   4.293   6.198   5.894
 1742SOL    HW2 6126   4.399   6.145   5.781
 1743SOL     OW 6127   1.996   1.532   1.808
 1743SOL    HW1 6128   1.979   1.454   1.868
 1743SOL    HW2 6129   2.051   1.503   1.730
 1744SOL     OW 6130   0.555   6.846   1.961
 1744SOL    HW1 6131   0.578   6.815   1.869
 1744SOL    HW2 6132   0.506   6.933   1.956
 1745SOL     OW 6133   6.929   1.125   4.207
 1745SOL    HW1 6134   7.004   1.127   4.141
 1745SOL    HW2 6135   6.956   1.069   4.286
 1746SOL     OW 6136   2.097   5.471   5.498
 1746SOL    HW1 6137   2.017   5.469   5.558
 1746SOL    HW2 6138   2.160   5.398   5.524
 1747SOL     OW 6139   4.767   6.692   2.348
 1747SOL    HW1 6140   4.699   6.630   2.387
 1747SOL    HW2 6141   4.805   6.652   2.264
 1748SOL     OW 6142   0.207   0.508   3.594
 1748SOL    HW1 6143   0.161   0.517   3.506
 1748SOL    HW2 6144   0.273   0.582   3.605
 1749SOL     OW 6145   3.125   6.687   5.206
 1749SOL    HW1 6146   3.080   6.676   5.117
 1749SOL    HW2 6147   3.091   6.770   5.250
 1750SOL     OW 6148   5.473   1.094   3.726
 1750SOL    HW1 6149   5.392   1.110   3.782
 1750SOL    HW2 6150   5.555   1.103   3.783
 1751SOL     OW 6151   3.416   5.281   4.605
 1751SOL    HW1 6152   3.353   5.204   4.619
 1751SOL    HW2 6153   3.383   5.338   4.530
 1752SOL     OW 6154   6.742   2.301   2.342
 1752SOL    HW1 6155   6.789   2.228   2.391
 1752SOL    HW2 6156   6.741   2.384   2.399
 1753SOL     OW 6157   0.337   1.823   0.618
 1753SOL    HW1 6158   0.248   1.779   0.630
 1753SOL    HW2 6159   0.377   1.843   0.707
 1754SOL     OW 6160   3.395   3.238   1.493
 1754SOL    HW1 6161   3.463   3.177   1.532
 1754SOL    HW2 6162   3.362   3.201   1.406
 1755SOL     OW 6163   5.814   5.128   2.092
 1755SOL    HW1 6164   5.782   5.096   2.003
 1755SOL    HW2 6165   5.744   5.187   2.133
 1756SOL     OW 6166   4.197   4.449   6.381
 1756SOL    HW1 6167   4.105   4.440   6.343
 1756SOL    HW2 6168   4.204   4.534   6.433
 1757SOL     OW 6169   2.557   6.068   4.721
 1757SOL    HW1 6170   2.588   6.163   4.719
 1757SOL    HW2 6171   2.564   6.029   4.629
 1758SOL     OW 6172   2.494   0.263   3.143
 1758SOL    HW1 6173   2.542   0.346   3.170
 1758SOL    HW2 6174   2.551   0.183   3.161
 1759SOL     OW 6175   1.072   5.261   6.328
 1759SOL    HW1 6176   0.996   5.238   6.267
 1759SOL    HW2 6177   1.157   5.266   6.274
 1760SOL     OW 6178   6.606   1.210   1.691
 1760SOL    HW1 6179   6.588   1.306   1.711
 1760SOL    HW2 6180   6.663   1.171   1.763
 1761SOL     OW 6181   6.896   0.177   0.289
 1761SOL    HW1 6182   6.819   0.114   0.285
 1761SOL    HW2 6183   6.981   0.127   0.274
 1762SOL     OW 6184   6.114   1.359   4.880
 1762SOL    HW1 6185   6.073   1.309   4.956
 1762SOL    HW2 6186   6.193   1.410   4.914
 1763SOL     OW 6187   1.818   3.737   4.866
 1763SOL    HW1 6188   1.803   3.655   4.810
 1763SOL    HW2 6189   1.795   3.818   4.813
 1764SOL     OW 6190   1.827   4.015   2.975
 1764SOL    HW1 6191   1.927   4.013   2.986
 1764SOL    HW2 6192   1.791   3.922   2.983
 1765SOL     OW 6193   3.288   2.465   7.002
 1765SOL    HW1 6194   3.270   2.388   0.038
 1765SOL    HW2 6195   3.374   2.449   6.952
 1766SOL     OW 6196   4.866   3.004   4.274
 1766SOL    HW1 6197   4.860   3.065   4.353
 1766SOL    HW2 6198   4.957   3.012   4.233
 1767SOL     OW 6199   5.827   3.699   2.718
 1767SOL    HW1 6200   5.745   3.656   2.756
 1767SOL    HW2 6201   5.876   3.747   2.790
 1768SOL     OW 6202   3.702   1.329   4.638
 1768SOL    HW1 6203   3.797   1.345   4.665
 1768SOL    HW2 6204   3.662   1.415   4.604
 1769SOL     OW 6205   4.541   2.400   4.701
 1769SOL    HW1 6206   4.573   2.488   4.737
 1769SOL    HW2 6207   4.455   2.375   4.747
 1770SOL     OW 6208   1.066   5.767   4.564
 1770SOL    HW1 6209   1.017   5.737   4.645
 1770SOL    HW2 6210   1.082   5.866   4.569
 1771SOL     OW 6211   2.709   4.908   0.104
 1771SOL    HW1 6212   2.744   4.828   0.152
 1771SOL    HW2 6213   2.785   4.957   0.061
 1772SOL     OW 6214   3.408   6.496   3.675
 1772SOL    HW1 6215   3.310   6.483   3.687
 1772SOL    HW2 6216   3.425   6.584   3.630
 1773SOL     OW 6217   2.622   5.202   5.753
 1773SOL    HW1 6218   2.645   5.162   5.842
 1773SOL    HW2 6219   2.542   5.261   5.762
 1774SOL     OW 6220   4.142   6.336   1.566
 1774SOL    HW1 6221   4.230   6.291   1.556
 1774SOL    HW2 6222   4.079   6.277   1.617
 1775SOL     OW 6223   1.390   4.626   4.069
 1775SOL    HW1 6224   1.315   4.653   4.009
 1775SOL    HW2 6225   1.469   4.598   4.014
 1776SOL     OW 6226   2.962   0.179   4.060
 1776SOL    HW1 6227   3.031   0.236   4.016
 1776SOL    HW2 6228   2.921   0.117   3.993
 1777SOL     OW 6229   3.176   4.997   6.051
 1777SOL    HW1 6230   3.110   4.959   5.987
 1777SOL    HW2 6231   3.268   4.989   6.013
 1778SOL     OW 6232   4.334   3.508   5.335
 1778SOL    HW1 6233   4.252   3.558   5.308
 1778SOL    HW2 6234   4.317   3.458   5.420
 1779SOL     OW 6235   4.104   0.858   4.487
 1779SOL    HW1 6236   4.159   0.940   4.501
 1779SOL    HW2 6237   4.118   0.795   4.563
 1780SOL     OW 6238   3.535   3.161   6.474
 1780SOL    HW1 6239   3.607   3.173   6.542
 1780SOL    HW2 6240   3.456   3.217   6.499
 1781SOL     OW 6241   4.641   5.655   3.798
 1781SOL    HW1 6242   4.720   5.610   3.839
 1781SOL    HW2 6243   4.670   5.713   3.722
 1782SOL     OW 6244   3.704   1.744   2.712
 1782SOL    HW1 6245   3.764   1.824   2.706
 1782SOL    HW2 6246   3.749   1.666   2.668
 1783SOL     OW 6247   1.385   4.946   6.327
 1783SOL    HW1 6248   1.424   4.959   6.418
 1783SOL    HW2 6249   1.447   4.984   6.258
 1784SOL     OW 6250   3.275   1.094   5.497
 1784SOL    HW1 6251   3.227   1.089   5.585
 1784SOL    HW2 6252   3.350   1.028   5.496
 1785SOL     OW 6253   6.505   4.611   3.494
 1785SOL    HW1 6254   6.460   4.677   3.434
 1785SOL    HW2 6255   6.476   4.625   3.589
 1786SOL     OW 6256   1.692   2.207   0.904
 1786SOL    HW1 6257   1.636   2.290   0.907
 1786SOL    HW2 6258   1.783   2.228   0.868
 1787SOL     OW 6259   2.628   0.824   4.961
 1787SOL    HW1 6260   2.691   0.787   4.893
 1787SOL    HW2 6261   2.546   0.857   4.916
 1788SOL     OW 6262   3.385   3.279   0.618
 1788SOL    HW1 6263   3.382   3.288   0.717
 1788SOL    HW2 6264   3.374   3.182   0.594
 1789SOL     OW 6265   6.405   2.292   3.280
 1789SOL    HW1 6266   6.314   2.298   3.323
 1789SOL    HW2 6267   6.462   2.230   3.334
 1790SOL     OW 6268   4.186   6.199   4.209
 1790SOL    HW1 6269   4.284   6.203   4.228
 1790SOL    HW2 6270   4.135   6.239   4.286
 1791SOL     OW 6271   6.535   1.033   3.578
 1791SOL    HW1 6272   6.472   1.017   3.653
 1791SOL    HW2 6273   6.578   0.946   3.551
 1792SOL     OW 6274   0.059   2.913   4.527
 1792SOL    HW1 6275   0.011   3.000   4.537
 1792SOL    HW2 6276   0.149   2.929   4.488
 1793SOL     OW 6277   6.850   6.833   3.737
 1793SOL    HW1 6278   6.828   6.825   3.835
 1793SOL    HW2 6279   6.883   6.745   3.703
 1794SOL     OW 6280   5.575   6.244   6.540
 1794SOL    HW1 6281   5.530   6.334   6.537
 1794SOL    HW2 6282   5.579   6.206   6.448
 1795SOL     OW 6283   1.254   2.633   1.244
 1795SOL    HW1 6284   1.191   2.658   1.317
 1795SOL    HW2 6285   1.344   2.613   1.283
 1796SOL     OW 6286   2.458   0.373   4.203
 1796SOL    HW1 6287   2.397   0.351   4.278
 1796SOL    HW2 6288   2.550   0.339   4.224
 1797SOL     OW 6289   1.394   0.146   6.844
 1797SOL    HW1 6290   1.379   0.148   6.745
 1797SOL    HW2 6291   1.370   0.235   6.883
 1798SOL     OW 6292   5.452   2.042   4.077
 1798SOL    HW1 6293   5.466   2.116   4.011
 1798SOL    HW2 6294   5.389   1.974   4.038
 1799SOL     OW 6295   6.420   1.408   5.987
 1799SOL    HW1 6296   6.512   1.424   5.951
 1799SOL    HW2 6297   6.408   1.461   6.072
 1800SOL     OW 6298   3.771   4.856   2.430
 1800SOL    HW1 6299   3.716   4.869   2.347
 1800SOL    HW2 6300   3.845   4.791   2.411
 1801SOL     OW 6301   0.155   0.246   2.281
 1801SOL    HW1 6302   0.112   0.323   2.327
 1801SOL    HW2 6303   0.137   0.162   2.332
 1802SOL     OW 6304   5.711   5.277   3.155
 1802SOL    HW1 6305   5.629   5.307   3.106
 1802SOL    HW2 6306   5.726   5.337   3.233
 1803SOL     OW 6307   0.695   6.274   6.944
 1803SOL    HW1 6308   0.772   6.308   6.890
 1803SOL    HW2 6309   0.618   6.254   6.884
 1804SOL     OW 6310   2.549   3.796   5.461
 1804SOL    HW1 6311   2.568   3.877   5.517
 1804SOL    HW2 6312   2.451   3.789   5.446
 1805SOL     OW 6313   6.584   4.235   5.692
 1805SOL    HW1 6314   6.626   4.233   5.783
 1805SOL    HW2 6315   6.587   4.143   5.652
 1806SOL     OW 6316   0.596   0.591   0.338
 1806SOL    HW1 6317   0.585   0.510   0.281
 1806SOL    HW2 6318   0.692   0.599   0.367
 1807SOL     OW 6319   4.926   2.556   5.444
 1807SOL    HW1 6320   4.996   2.513   5.387
 1807SOL    HW2 6321   4.907   2.648   5.411
 1808SOL     OW 6322   0.691   4.093   6.247
 1808SOL    HW1 6323   0.674   4.013   6.189
 1808SOL    HW2 6324   0.781   4.086   6.289
 1809SOL     OW 6325   2.154   2.489   4.538
 1809SOL    HW1 6326   2.112   2.503   4.449
 1809SOL    HW2 6327   2.219   2.412   4.533
 1810SOL     OW 6328   3.047   6.891   3.598
 1810SOL    HW1 6329   3.051   6.979   3.645
 1810SOL    HW2 6330   3.119   6.885   3.530
 1811SOL     OW 6331   5.463   4.802   3.650
 1811SOL    HW1 6332   5.400   4.810   3.728
 1811SOL    HW2 6333   5.553   4.835   3.677
 1812SOL     OW 6334   4.122   6.202   5.310
 1812SOL    HW1 6335   4.152   6.297   5.323
 1812SOL    HW2 6336   4.022   6.198   5.314
 1813SOL     OW 6337   6.620   5.323   0.913
 1813SOL    HW1 6338   6.685   5.305   0.987
 1813SOL    HW2 6339   6.670   5.344   0.829
 1814SOL     OW 6340   5.901   1.541   0.761
 1814SOL    HW1 6341   5.900   1.492   0.673
 1814SOL    HW2 6342   5.979   1.511   0.815
 1815SOL     OW 6343   6.484   2.288   1.902
 1815SOL    HW1 6344   6.439   2.237   1.829
 1815SOL    HW2 6345   6.415   2.331   1.960
 1816SOL     OW 6346   2.697   3.586   1.132
 1816SOL    HW1 6347   2.710   3.573   1.033
 1816SOL    HW2 6348   2.651   3.673   1.149
 1817SOL     OW 6349   3.895   0.072   2.627
 1817SOL    HW1 6350   3.807   0.036   2.594
 1817SOL    HW2 6351   3.882   0.112   2.718
 1818SOL     OW 6352   1.737   6.194   2.735
 1818SOL    HW1 6353   1.682   6.123   2.691
 1818SOL    HW2 6354   1.677   6.256   2.785
 1819SOL     OW 6355   0.826   5.240   1.789
 1819SOL    HW1 6356   0.894   5.177   1.750
 1819SOL    HW2 6357   0.765   5.271   1.716
 1820SOL     OW 6358   4.481   0.664   2.510
 1820SOL    HW1 6359   4.383   0.661   2.492
 1820SOL    HW2 6360   4.525   0.582   2.472
 1821SOL     OW 6361   0.814   0.762   2.001
 1821SOL    HW1 6362   0.829   0.851   2.046
 1821SOL    HW2 6363   0.881   0.749   1.929
 1822SOL     OW 6364   2.553   3.048   1.321
 1822SOL    HW1 6365   2.488   3.007   1.258
 1822SOL    HW2 6366   2.505   3.082   1.402
 1823SOL     OW 6367   3.017   5.841   3.078
 1823SOL    HW1 6368   3.042   5.778   3.005
 1823SOL    HW2 6369   2.930   5.814   3.118
 1824SOL     OW 6370   3.293   2.532   1.757
 1824SOL    HW1 6371   3.249   2.460   1.809
 1824SOL    HW2 6372   3.386   2.504   1.732
 1825SOL     OW 6373   1.461   1.621   2.936
 1825SOL    HW1 6374   1.465   1.537   2.882
 1825SOL    HW2 6375   1.483   1.601   3.031
 1826SOL     OW 6376   3.074   6.985   1.288
 1826SOL    HW1 6377   3.005   6.917   1.264
 1826SOL    HW2 6378   3.097   6.975   1.385
 1827SOL     OW 6379   0.004   5.548   2.550
 1827SOL    HW1 6380   0.027   5.463   2.596
 1827SOL    HW2 6381   7.018   5.621   2.618
 1828SOL     OW 6382   1.103   2.307   0.704
 1828SOL    HW1 6383   1.035   2.284   0.774
 1828SOL    HW2 6384   1.068   2.282   0.614
 1829SOL     OW 6385   4.054   0.206   3.719
 1829SOL    HW1 6386   4.086   0.295   3.752
 1829SOL    HW2 6387   4.130   0.157   3.677
 1830SOL     OW 6388   6.008   5.808   3.981
 1830SOL    HW1 6389   6.027   5.732   3.920
 1830SOL    HW2 6390   6.043   5.893   3.942
 1831SOL     OW 6391   5.877   0.148   2.102
 1831SOL    HW1 6392   5.974   0.128   2.115
 1831SOL    HW2 6393   5.835   0.171   2.190
 1832SOL     OW 6394   5.204   1.155   0.895
 1832SOL    HW1 6395   5.274   1.104   0.945
 1832SOL    HW2 6396   5.117   1.106   0.900
 1833SOL     OW 6397   5.521   0.393   5.526
 1833SOL    HW1 6398   5.472   0.480   5.525
 1833SOL    HW2 6399   5.473   0.327   5.469
 1834SOL     OW 6400   2.596   3.786   0.531
 1834SOL    HW1 6401   2.545   3.869   0.509
 1834SOL    HW2 6402   2.584   3.765   0.628
 1835SOL     OW 6403   1.360   4.399   1.161
 1835SOL    HW1 6404   1.395   4.306   1.148
 1835SOL    HW2 6405   1.261   4.400   1.149
 1836SOL     OW 6406   5.232   1.399   1.410
 1836SOL    HW1 6407   5.257   1.360   1.322
 1836SOL    HW2 6408   5.229   1.499   1.403
 1837SOL     OW 6409   1.010   2.508   4.507
 1837SOL    HW1 6410   0.992   2.598   4.469
 1837SOL    HW2 6411   1.105   2.503   4.537
 1838SOL     OW 6412   0.134   1.961   4.071
 1838SOL    HW1 6413   0.102   2.055   4.083
 1838SOL    HW2 6414   0.062   1.897   4.098
 1839SOL     OW 6415   4.735   2.981   4.885
 1839SOL    HW1 6416   4.679   2.905   4.918
 1839SOL    HW2 6417   4.749   2.972   4.787
 1840SOL     OW 6418   3.582   5.796   1.295
 1840SOL    HW1 6419   3.486   5.790   1.271
 1840SOL    HW2 6420   3.633   5.726   1.246
 1841SOL     OW 6421   2.446   2.297   4.225
 1841SOL    HW1 6422   2.350   2.271   4.225
 1841SOL    HW2 6423   2.503   2.217   4.205
 1842SOL     OW 6424   0.701   5.313   0.702
 1842SOL    HW1 6425   0.776   5.265   0.747
 1842SOL    HW2 6426   0.695   5.407   0.737
 1843SOL     OW 6427   0.318   1.951   4.275
 1843SOL    HW1 6428   0.284   2.016   4.343
 1843SOL    HW2 6429   0.252   1.946   4.199
 1844SOL     OW 6430   3.550   0.739   5.799
 1844SOL    HW1 6431   3.569   0.832   5.769
 1844SOL    HW2 6432   3.588   0.725   5.890
 1845SOL     OW 6433   2.084   6.700   4.788
 1845SOL    HW1 6434   2.031   6.784   4.797
 1845SOL    HW2 6435   2.153   6.697   4.861
 1846SOL     OW 6436   4.324   2.385   0.455
 1846SOL    HW1 6437   4.391   2.452   0.422
 1846SOL    HW2 6438   4.302   2.404   0.551
 1847SOL     OW 6439   0.920   0.407   6.038
 1847SOL    HW1 6440   0.854   0.469   6.080
 1847SOL    HW2 6441   0.997   0.393   6.099
 1848SOL     OW 6442   0.663   6.856   2.510
 1848SOL    HW1 6443   0.679   6.940   2.561
 1848SOL    HW2 6444   0.594   6.801   2.557
 1849SOL     OW 6445   3.606   1.874   0.895
 1849SOL    HW1 6446   3.696   1.836   0.919
 1849SOL    HW2 6447   3.588   1.858   0.798
 1850SOL     OW 6448   0.042   3.068   2.446
 1850SOL    HW1 6449   6.996   3.098   2.383
 1850SOL    HW2 6450   0.120   3.035   2.394
 1851SOL     OW 6451   0.764   1.998   1.509
 1851SOL    HW1 6452   0.809   2.015   1.422
 1851SOL    HW2 6453   0.767   1.900   1.530
 1852SOL     OW 6454   5.834   3.404   1.779
 1852SOL    HW1 6455   5.819   3.414   1.877
 1852SOL    HW2 6456   5.749   3.381   1.734
 1853SOL     OW 6457   0.230   3.186   3.083
 1853SOL    HW1 6458   0.277   3.122   3.144
 1853SOL    HW2 6459   0.145   3.144   3.051
 1854SOL     OW 6460   2.406   6.236   3.156
 1854SOL    HW1 6461   2.323   6.190   3.185
 1854SOL    HW2 6462   2.475   6.231   3.228
 1855SOL     OW 6463   4.841   4.119   6.721
 1855SOL    HW1 6464   4.907   4.192   6.736
 1855SOL    HW2 6465   4.803   4.089   6.809
 1856SOL     OW 6466   6.499   3.836   5.350
 1856SOL    HW1 6467   6.512   3.906   5.279
 1856SOL    HW2 6468   6.425   3.775   5.324
 1857SOL     OW 6469   3.515   0.990   6.170
 1857SOL    HW1 6470   3.420   0.961   6.166
 1857SOL    HW2 6471   3.539   1.014   6.264
 1858SOL     OW 6472   5.922   2.978   3.558
 1858SOL    HW1 6473   6.008   3.019   3.588
 1858SOL    HW2 6474   5.923   2.968   3.459
 1859SOL     OW 6475   4.401   1.456   3.387
 1859SOL    HW1 6476   4.461   1.377   3.399
 1859SOL    HW2 6477   4.368   1.459   3.293
 1860SOL     OW 6478   6.453   0.524   3.806
 1860SOL    HW1 6479   6.504   0.592   3.859
 1860SOL    HW2 6480   6.483   0.432   3.832
 1861SOL     OW 6481   5.221   6.796   2.569
 1861SOL    HW1 6482   5.150   6.821   2.504
 1861SOL    HW2 6483   5.268   6.878   2.601
 1862SOL     OW 6484   2.383   0.488   6.289
 1862SOL    HW1 6485   2.369   0.550   6.211
 1862SOL    HW2 6486   2.455   0.422   6.266
 1863SOL     OW 6487   1.969   1.539   0.407
 1863SOL    HW1 6488   2.060   1.543   0.449
 1863SOL    HW2 6489   1.960   1.455   0.354
 1864SOL     OW 6490   0.771   6.753   5.778
 1864SOL    HW1 6491   0.725   6.677   5.824
 1864SOL    HW2 6492   0.866   6.758   5.809
 1865SOL     OW 6493   3.594   0.372   6.117
 1865SOL    HW1 6494   3.542   0.332   6.041
 1865SOL    HW2 6495   3.550   0.457   6.147
 1866SOL     OW 6496   4.319   5.127   3.202
 1866SOL    HW1 6497   4.342   5.030   3.214
 1866SOL    HW2 6498   4.333   5.176   3.288
 1867SOL     OW 6499   0.710   4.066   0.028
 1867SOL    HW1 6500   0.719   4.056   6.954
 1867SOL    HW2 6501   0.676   3.980   0.067
 1868SOL     OW 6502   5.073   3.900   0.284
 1868SOL    HW1 6503   5.152   3.845   0.257
 1868SOL    HW2 6504   5.031   3.860   0.366
 1869SOL     OW 6505   5.995   2.688   5.653
 1869SOL    HW1 6506   5.922   2.620   5.657
 1869SOL    HW2 6507   6.039   2.696   5.742
 1870SOL     OW 6508   1.938   3.050   5.445
 1870SOL    HW1 6509   1.939   2.992   5.364
 1870SOL    HW2 6510   1.873   3.125   5.431
 1871SOL     OW 6511   0.340   1.092   6.560
 1871SOL    HW1 6512   0.303   1.158   6.625
 1871SOL    HW2 6513   0.433   1.067   6.586
 1872SOL     OW 6514   3.443   2.678   0.207
 1872SOL    HW1 6515   3.345   2.685   0.220
 1872SOL    HW2 6516   3.479   2.767   0.179
 1873SOL     OW 6517   4.838   1.818   5.975
 1873SOL    HW1 6518   4.824   1.724   5.945
 1873SOL    HW2 6519   4.930   1.848   5.947
 1874SOL     OW 6520   3.301   1.307   1.057
 1874SOL    HW1 6521   3.333   1.227   1.007
 1874SOL    HW2 6522   3.217   1.342   1.016
 1875SOL     OW 6523   0.613   1.284   0.316
 1875SOL    HW1 6524   0.640   1.253   0.225
 1875SOL    HW2 6525   0.514   1.297   0.318
 1876SOL     OW 6526   4.203   7.012   6.022
 1876SOL    HW1 6527   4.144   6.934   5.999
 1876SOL    HW2 6528   4.237   0.028   5.938
 1877SOL     OW 6529   0.461   0.030   2.574
 1877SOL    HW1 6530   0.516   0.072   2.501
 1877SOL    HW2 6531   0.430   6.966   2.546
 1878SOL     OW 6532   6.763   2.106   3.681
 1878SOL    HW1 6533   6.774   2.185   3.620
 1878SOL    HW2 6534   6.718   2.136   3.765
 1879SOL     OW 6535   1.137   4.413   4.356
 1879SOL    HW1 6536   1.168   4.503   4.325
 1879SOL    HW2 6537   1.202   4.343   4.325
 1880SOL     OW 6538   6.952   2.116   4.894
 1880SOL    HW1 6539   6.906   2.204   4.883
 1880SOL    HW2 6540   0.025   2.128   4.889
 1881SOL     OW 6541   5.645   1.800   3.046
 1881SOL    HW1 6542   5.615   1.783   2.952
 1881SOL    HW2 6543   5.745   1.795   3.051
 1882SOL     OW 6544   1.482   3.919   6.201
 1882SOL    HW1 6545   1.558   3.868   6.160
 1882SOL    HW2 6546   1.395   3.875   6.177
 1883SOL     OW 6547   6.914   2.180   3.331
 1883SOL    HW1 6548   7.002   2.176   3.285
 1883SOL    HW2 6549   6.844   2.138   3.272
 1884SOL     OW 6550   0.122   2.147   0.721
 1884SOL    HW1 6551   0.058   2.202   0.775
 1884SOL    HW2 6552   0.139   2.060   0.768
 1885SOL     OW 6553   1.741   1.831   6.365
 1885SOL    HW1 6554   1.771   1.768   6.294
 1885SOL    HW2 6555   1.814   1.844   6.432
 1886SOL     OW 6556   1.484   0.548   1.461
 1886SOL    HW1 6557   1.473   0.486   1.539
 1886SOL    HW2 6558   1.574   0.534   1.420
 1887SOL     OW 6559   1.315   5.570   4.958
 1887SOL    HW1 6560   1.246   5.543   5.025
 1887SOL    HW2 6561   1.405   5.573   5.001
 1888SOL     OW 6562   3.001   2.329   6.846
 1888SOL    HW1 6563   3.078   2.268   6.827
 1888SOL    HW2 6564   2.917   2.275   6.852
 1889SOL     OW 6565   0.301   3.296   5.420
 1889SOL    HW1 6566   0.245   3.240   5.359
 1889SOL    HW2 6567   0.307   3.389   5.384
 1890SOL     OW 6568   1.762   5.806   4.207
 1890SOL    HW1 6569   1.771   5.855   4.294
 1890SOL    HW2 6570   1.667   5.809   4.177
 1891SOL     OW 6571   5.197   2.330   2.073
 1891SOL    HW1 6572   5.215   2.428   2.068
 1891SOL    HW2 6573   5.283   2.280   2.062
 1892SOL     OW 6574   2.020   0.614   2.674
 1892SOL    HW1 6575   1.959   0.542   2.639
 1892SOL    HW2 6576   2.026   0.606   2.774
 1893SOL     OW 6577   3.103   3.901   1.227
 1893SOL    HW1 6578   3.104   3.926   1.323
 1893SOL    HW2 6579   3.017   3.856   1.205
 1894SOL     OW 6580   3.682   4.148   3.811
 1894SOL    HW1 6581   3.764   4.112   3.766
 1894SOL    HW2 6582   3.699   4.156   3.909
 1895SOL     OW 6583   4.357   0.429   1.301
 1895SOL    HW1 6584   4.367   0.496   1.227
 1895SOL    HW2 6585   4.402   0.463   1.383
 1896SOL     OW 6586   5.345   1.158   1.592
 1896SOL    HW1 6587   5.286   1.225   1.546
 1896SOL    HW2 6588   5.324   1.156   1.690
 1897SOL     OW 6589   2.353   5.529   1.663
 1897SOL    HW1 6590   2.266   5.484   1.683
 1897SOL    HW2 6591   2.354   5.560   1.568
 1898SOL     OW 6592   2.265   5.275   3.779
 1898SOL    HW1 6593   2.180   5.327   3.788
 1898SOL    HW2 6594   2.246   5.177   3.781
 1899SOL     OW 6595   0.484   1.443   1.600
 1899SOL    HW1 6596   0.504   1.346   1.587
 1899SOL    HW2 6597   0.447   1.457   1.692
 1900SOL     OW 6598   2.256   0.609   6.824
 1900SOL    HW1 6599   2.195   0.558   6.763
 1900SOL    HW2 6600   2.318   0.666   6.770
 1901SOL     OW 6601   1.557   1.876   0.687
 1901SOL    HW1 6602   1.620   1.865   0.764
 1901SOL    HW2 6603   1.486   1.806   0.692
 1902SOL     OW 6604   1.883   0.647   5.183
 1902SOL    HW1 6605   1.928   0.560   5.205
 1902SOL    HW2 6606   1.941   0.723   5.214
 1903SOL     OW 6607   0.333   3.897   3.058
 1903SOL    HW1 6608   0.407   3.947   3.012
 1903SOL    HW2 6609   0.323   3.807   3.015
 1904SOL     OW 6610   5.902   5.403   3.709
 1904SOL    HW1 6611   5.921   5.368   3.801
 1904SOL    HW2 6612   5.947   5.492   3.697
 1905SOL     OW 6613   0.819   0.170   3.392
 1905SOL    HW1 6614   0.832   0.239   3.320
 1905SOL    HW2 6615   0.742   0.111   3.369
 1906SOL     OW 6616   1.701   0.349   4.860
 1906SOL    HW1 6617   1.701   0.414   4.936
 1906SOL    HW2 6618   1.651   0.388   4.783
 1907SOL     OW 6619   4.016   1.597   2.027
 1907SOL    HW1 6620   3.926   1.636   2.045
 1907SOL    HW2 6621   4.075   1.612   2.107
 1908SOL     OW 6622   3.814   6.634   5.651
 1908SOL    HW1 6623   3.758   6.717   5.653
 1908SOL    HW2 6624   3.790   6.576   5.729
 1909SOL     OW 6625   0.848   3.491   3.506
 1909SOL    HW1 6626   0.885   3.556   3.440
 1909SOL    HW2 6627   0.920   3.468   3.573
 1910SOL     OW 6628   0.220   5.776   6.013
 1910SOL    HW1 6629   0.159   5.793   5.936
 1910SOL    HW2 6630   0.246   5.863   6.055
 1911SOL     OW 6631   6.984   3.674   4.965
 1911SOL    HW1 6632   0.009   3.757   4.988
 1911SOL    HW2 6633   6.889   3.698   4.944
 1912SOL     OW 6634   3.147   5.640   0.940
 1912SOL    HW1 6635   3.080   5.687   0.883
 1912SOL    HW2 6636   3.100   5.595   1.016
 1913SOL     OW 6637   2.472   0.240   4.770
 1913SOL    HW1 6638   2.521   0.301   4.833
 1913SOL    HW2 6639   2.536   0.203   4.703
 1914SOL     OW 6640   3.987   3.060   6.482
 1914SOL    HW1 6641   4.055   3.133   6.487
 1914SOL    HW2 6642   3.967   3.028   6.574
 1915SOL     OW 6643   3.533   2.812   5.814
 1915SOL    HW1 6644   3.564   2.899   5.777
 1915SOL    HW2 6645   3.611   2.757   5.842
 1916SOL     OW 6646   4.073   5.828   1.485
 1916SOL    HW1 6647   4.116   5.738   1.485
 1916SOL    HW2 6648   4.083   5.870   1.394
 1917SOL     OW 6649   2.196   3.151   0.107
 1917SOL    HW1 6650   2.267   3.217   0.084
 1917SOL    HW2 6651   2.132   3.193   0.171
 1918SOL     OW 6652   1.498   1.668   4.790
 1918SOL    HW1 6653   1.479   1.593   4.853
 1918SOL    HW2 6654   1.564   1.731   4.832
 1919SOL     OW 6655   1.400   1.754   1.615
 1919SOL    HW1 6656   1.337   1.762   1.692
 1919SOL    HW2 6657   1.491   1.786   1.642
 1920SOL     OW 6658   6.782   4.364   2.911
 1920SOL    HW1 6659   6.809   4.356   3.007
 1920SOL    HW2 6660   6.703   4.306   2.893
 1921SOL     OW 6661   1.838   3.514   6.986
 1921SOL    HW1 6662   1.913   3.516   6.921
 1921SOL    HW2 6663   1.801   3.421   6.991
 1922SOL     OW 6664   2.963   3.529   1.568
 1922SOL    HW1 6665   2.887   3.557   1.627
 1922SOL    HW2 6666   3.043   3.510   1.624
 1923SOL     OW 6667   4.226   1.688   6.444
 1923SOL    HW1 6668   4.132   1.655   6.433
 1923SOL    HW2 6669   4.227   1.762   6.512
 1924SOL     OW 6670   4.672   6.597   0.629
 1924SOL    HW1 6671   4.657   6.552   0.542
 1924SOL    HW2 6672   4.591   6.649   0.656
 1925SOL     OW 6673   1.266   4.690   0.788
 1925SOL    HW1 6674   1.344   4.697   0.727
 1925SOL    HW2 6675   1.255   4.775   0.839
 1926SOL     OW 6676   3.384   7.007   2.602
 1926SOL    HW1 6677   3.392   6.992   2.504
 1926SOL    HW2 6678   3.473   0.013   2.638
 1927SOL     OW 6679   2.314   4.727   0.185
 1927SOL    HW1 6680   2.356   4.751   0.272
 1927SOL    HW2 6681   2.379   4.743   0.110
 1928SOL     OW 6682   6.144   4.405   5.063
 1928SOL    HW1 6683   6.126   4.433   4.968
 1928SOL    HW2 6684   6.083   4.454   5.124
 1929SOL     OW 6685   2.534   0.477   1.624
 1929SOL    HW1 6686   2.587   0.554   1.589
 1929SOL    HW2 6687   2.486   0.432   1.548
 1930SOL     OW 6688   5.575   3.792   6.471
 1930SOL    HW1 6689   5.505   3.745   6.525
 1930SOL    HW2 6690   5.578   3.889   6.498
 1931SOL     OW 6691   0.796   2.207   0.133
 1931SOL    HW1 6692   0.885   2.166   0.115
 1931SOL    HW2 6693   0.725   2.139   0.115
 1932SOL     OW 6694   4.790   2.589   3.365
 1932SOL    HW1 6695   4.761   2.501   3.401
 1932SOL    HW2 6696   4.734   2.612   3.285
 1933SOL     OW 6697   0.973   3.067   0.692
 1933SOL    HW1 6698   0.905   2.994   0.694
 1933SOL    HW2 6699   0.928   3.156   0.686
 1934SOL     OW 6700   0.299   1.551   4.475
 1934SOL    HW1 6701   0.294   1.627   4.540
 1934SOL    HW2 6702   0.220   1.491   4.488
 1935SOL     OW 6703   4.368   5.023   3.515
 1935SOL    HW1 6704   4.465   5.022   3.541
 1935SOL    HW2 6705   4.326   4.936   3.539
 1936SOL     OW 6706   4.938   3.799   3.802
 1936SOL    HW1 6707   5.032   3.829   3.784
 1936SOL    HW2 6708   4.878   3.834   3.730
 1937SOL     OW 6709   4.410   6.232   0.234
 1937SOL    HW1 6710   4.379   6.314   0.185
 1937SOL    HW2 6711   4.345   6.211   0.306
 1938SOL     OW 6712   1.445   2.060   0.923
 1938SOL    HW1 6713   1.536   2.097   0.941
 1938SOL    HW2 6714   1.438   2.034   0.827
 1939SOL     OW 6715   6.524   6.734   4.758
 1939SOL    HW1 6716   6.430   6.700   4.756
 1939SOL    HW2 6717   6.565   6.725   4.667
 1940SOL     OW 6718   6.103   4.205   1.334
 1940SOL    HW1 6719   6.199   4.209   1.360
 1940SOL    HW2 6720   6.094   4.204   1.234
 1941SOL     OW 6721   1.645   2.640   3.885
 1941SOL    HW1 6722   1.679   2.686   3.803
 1941SOL    HW2 6723   1.690   2.679   3.966
 1942SOL     OW 6724   5.224   3.364   2.977
 1942SOL    HW1 6725   5.192   3.440   3.034
 1942SOL    HW2 6726   5.158   3.348   2.903
 1943SOL     OW 6727   1.291   0.551   2.586
 1943SOL    HW1 6728   1.300   0.480   2.656
 1943SOL    HW2 6729   1.253   0.634   2.626
 1944SOL     OW 6730   6.171   4.106   0.433
 1944SOL    HW1 6731   6.107   4.120   0.358
 1944SOL    HW2 6732   6.206   4.195   0.464
 1945SOL     OW 6733   3.840   5.720   0.388
 1945SOL    HW1 6734   3.859   5.691   0.482
 1945SOL    HW2 6735   3.741   5.716   0.372
 1946SOL     OW 6736   5.692   0.034   1.598
 1946SOL    HW1 6737   5.733   0.008   1.511
 1946SOL    HW2 6738   5.762   0.065   1.661
 1947SOL     OW 6739   5.634   5.466   4.070
 1947SOL    HW1 6740   5.687   5.528   4.012
 1947SOL    HW2 6741   5.638   5.374   4.032
 1948SOL     OW 6742   6.361   5.337   2.799
 1948SOL    HW1 6743   6.413   5.392   2.865
 1948SOL    HW2 6744   6.301   5.274   2.848
 1949SOL     OW 6745   4.136   3.454   0.030
 1949SOL    HW1 6746   4.154   3.460   6.958
 1949SOL    HW2 6747   4.092   3.366   0.050
 1950SOL     OW 6748   3.984   3.086   3.116
 1950SOL    HW1 6749   3.930   3.169   3.106
 1950SOL    HW2 6750   3.996   3.043   3.026
 1951SOL     OW 6751   0.266   4.685   6.294
 1951SOL    HW1 6752   0.251   4.770   6.243
 1951SOL    HW2 6753   0.359   4.654   6.280
 1952SOL     OW 6754   5.583   4.854   1.215
 1952SOL    HW1 6755   5.542   4.940   1.185
 1952SOL    HW2 6756   5.556   4.836   1.310
 1953SOL     OW 6757   6.665   1.649   6.191
 1953SOL    HW1 6758   6.704   1.736   6.162
 1953SOL    HW2 6759   6.739   1.581   6.198
 1954SOL     OW 6760   5.765   0.095   1.228
 1954SOL    HW1 6761   5.746   0.026   1.298
 1954SOL    HW2 6762   5.736   0.185   1.262
 1955SOL     OW 6763   0.195   0.779   2.173
 1955SOL    HW1 6764   0.265   0.749   2.108
 1955SOL    HW2 6765   0.239   0.817   2.254
 1956SOL     OW 6766   4.613   0.211   2.029
 1956SOL    HW1 6767   4.557   0.252   2.102
 1956SOL    HW2 6768   4.631   0.115   2.051
 1957SOL     OW 6769   5.379   4.618   4.292
 1957SOL    HW1 6770   5.413   4.527   4.270
 1957SOL    HW2 6771   5.282   4.613   4.314
 1958SOL     OW 6772   4.888   1.194   1.819
 1958SOL    HW1 6773   4.912   1.135   1.896
 1958SOL    HW2 6774   4.810   1.252   1.844
 1959SOL     OW 6775   0.025   6.437   3.776
 1959SOL    HW1 6776   0.058   6.441   3.870
 1959SOL    HW2 6777   6.999   6.352   3.763
 1960SOL     OW 6778   0.065   3.667   2.420
 1960SOL    HW1 6779   7.003   3.638   2.459
 1960SOL    HW2 6780   0.075   3.628   2.328
 1961SOL     OW 6781   5.924   4.497   4.632
 1961SOL    HW1 6782   5.842   4.443   4.648
 1961SOL    HW2 6783   5.903   4.594   4.642
 1962SOL     OW 6784   1.411   6.324   2.822
 1962SOL    HW1 6785   1.346   6.371   2.762
 1962SOL    HW2 6786   1.380   6.330   2.917
 1963SOL     OW 6787   1.306   2.158   1.568
 1963SOL    HW1 6788   1.341   2.165   1.474
 1963SOL    HW2 6789   1.372   2.108   1.624
 1964SOL     OW 6790   4.370   4.887   2.038
 1964SOL    HW1 6791   4.299   4.881   1.968
 1964SOL    HW2 6792   4.416   4.976   2.031
 1965SOL     OW 6793   1.952   2.481   4.312
 1965SOL    HW1 6794   1.883   2.457   4.243
 1965SOL    HW2 6795   1.906   2.517   4.393
 1966SOL     OW 6796   1.527   5.926   1.309
 1966SOL    HW1 6797   1.557   5.852   1.369
 1966SOL    HW2 6798   1.550   5.904   1.215
 1967SOL     OW 6799   6.238   2.926   4.239
 1967SOL    HW1 6800   6.272   2.851   4.182
 1967SOL    HW2 6801   6.171   2.979   4.188
 1968SOL     OW 6802   2.791   0.513   5.200
 1968SOL    HW1 6803   2.794   0.419   5.165
 1968SOL    HW2 6804   2.727   0.518   5.276
 1969SOL     OW 6805   3.342   0.638   1.495
 1969SOL    HW1 6806   3.313   0.543   1.481
 1969SOL    HW2 6807   3.310   0.695   1.419
 1970SOL     OW 6808   0.310   0.202   5.299
 1970SOL    HW1 6809   0.326   0.251   5.214
 1970SOL    HW2 6810   0.357   0.114   5.296
 1971SOL     OW 6811   0.416   0.913   5.618
 1971SOL    HW1 6812   0.482   0.879   5.552
 1971SOL    HW2 6813   0.347   0.967   5.571
 1972SOL     OW 6814   5.689   2.570   1.484
 1972SOL    HW1 6815   5.751   2.507   1.438
 1972SOL    HW2 6816   5.595   2.539   1.471
 1973SOL     OW 6817   2.647   4.224   1.624
 1973SOL    HW1 6818   2.555   4.224   1.586
 1973SOL    HW2 6819   2.668   4.313   1.664
 1974SOL     OW 6820   4.803   6.520   4.530
 1974SOL    HW1 6821   4.836   6.552   4.619
 1974SOL    HW2 6822   4.703   6.512   4.533
 1975SOL     OW 6823   2.201   2.063   4.074
 1975SOL    HW1 6824   2.218   2.152   4.117
 1975SOL    HW2 6825   2.223   1.990   4.138
 1976SOL     OW 6826   5.482   5.875   6.982
 1976SOL    HW1 6827   5.533   5.947   0.002
 1976SOL    HW2 6828   5.505   5.786   7.023
 1977SOL     OW 6829   1.866   3.694   5.212
 1977SOL    HW1 6830   1.827   3.665   5.299
 1977SOL    HW2 6831   1.841   3.789   5.193
 1978SOL     OW 6832   1.592   5.735   3.148
 1978SOL    HW1 6833   1.646   5.674   3.091
 1978SOL    HW2 6834   1.596   5.828   3.111
 1979SOL     OW 6835   5.321   5.295   6.967
 1979SOL    HW1 6836   5.326   5.333   0.034
 1979SOL    HW2 6837   5.340   5.197   6.971
 1980SOL     OW 6838   3.782   0.686   2.982
 1980SOL    HW1 6839   3.690   0.658   2.954
 1980SOL    HW2 6840   3.806   0.641   3.067
 1981SOL     OW 6841   5.496   2.690   2.325
 1981SOL    HW1 6842   5.482   2.764   2.392
 1981SOL    HW2 6843   5.559   2.721   2.254
 1982SOL     OW 6844   6.534   3.863   3.902
 1982SOL    HW1 6845   6.595   3.795   3.861
 1982SOL    HW2 6846   6.584   3.914   3.972
 1983SOL     OW 6847   1.085   0.301   1.883
 1983SOL    HW1 6848   1.170   0.307   1.936
 1983SOL    HW2 6849   1.104   0.315   1.786
 1984SOL     OW 6850   4.396   2.654   5.347
 1984SOL    HW1 6851   4.435   2.727   5.290
 1984SOL    HW2 6852   4.300   2.673   5.366
 1985SOL     OW 6853   6.809   5.961   2.392
 1985SOL    HW1 6854   6.901   5.921   2.393
 1985SOL    HW2 6855   6.762   5.932   2.308
 1986SOL     OW 6856   2.843   1.109   6.104
 1986SOL    HW1 6857   2.840   1.014   6.135
 1986SOL    HW2 6858   2.757   1.154   6.126
 1987SOL     OW 6859   2.266   1.693   3.646
 1987SOL    HW1 6860   2.300   1.602   3.670
 1987SOL    HW2 6861   2.334   1.762   3.670
 1988SOL     OW 6862   0.488   1.622   1.009
 1988SOL    HW1 6863   0.575   1.571   1.009
 1988SOL    HW2 6864   0.417   1.566   0.967
 1989SOL     OW 6865   2.121   5.868   4.208
 1989SOL    HW1 6866   2.057   5.934   4.247
 1989SOL    HW2 6867   2.160   5.812   4.281
 1990SOL     OW 6868   3.646   6.582   0.464
 1990SOL    HW1 6869   3.664   6.539   0.375
 1990SOL    HW2 6870   3.547   6.583   0.482
 1991SOL     OW 6871   1.977   5.536   0.058
 1991SOL    HW1 6872   2.011   5.445   0.035
 1991SOL    HW2 6873   2.031   5.574   0.133
 1992SOL     OW 6874   6.699   0.561   0.456
 1992SOL    HW1 6875   6.708   0.496   0.532
 1992SOL    HW2 6876   6.619   0.619   0.472
 1993SOL     OW 6877   3.420   1.923   4.938
 1993SOL    HW1 6878   3.453   1.964   5.023
 1993SOL    HW2 6879   3.372   1.992   4.884
 1994SOL     OW 6880   5.227   1.918   1.123
 1994SOL    HW1 6881   5.145   1.974   1.128
 1994SOL    HW2 6882   5.288   1.954   1.052
 1995SOL     OW 6883   5.769   3.124   3.769
 1995SOL    HW1 6884   5.785   3.053   3.701
 1995SOL    HW2 6885   5.676   3.161   3.758
 1996SOL     OW 6886   2.624   1.882   1.309
 1996SOL    HW1 6887   2.610   1.979   1.288
 1996SOL    HW2 6888   2.554   1.828   1.263
 1997SOL     OW 6889   3.235   1.590   3.872
 1997SOL    HW1 6890   3.182   1.608   3.955
 1997SOL    HW2 6891   3.293   1.510   3.885
 1998SOL     OW 6892   1.546   3.911   0.776
 1998SOL    HW1 6893   1.497   3.993   0.747
 1998SOL    HW2 6894   1.642   3.933   0.794
 1999SOL     OW 6895   0.689   0.386   5.092
 1999SOL    HW1 6896   0.690   0.338   5.004
 1999SOL    HW2 6897   0.772   0.441   5.101
 2000SOL     OW 6898   4.306   3.306   5.876
 2000SOL    HW1 6899   4.238   3.273   5.942
 2000SOL    HW2 6900   4.314   3.405   5.884
 2001SOL     OW 6901   2.081   1.495   6.980
 2001SOL    HW1 6902   1.987   1.529   6.980
 2001SOL    HW2 6903   2.110   1.476   0.048
 2002SOL     OW 6904   0.610   5.557   0.842
 2002SOL    HW1 6905   0.569   5.644   0.871
 2002SOL    HW2 6906   0.591   5.487   0.911
 2003SOL     OW 6907   6.804   4.956   1.806
 2003SOL    HW1 6908   6.782   5.019   1.732
 2003SOL    HW2 6909   6.732   4.960   1.876
 2004SOL     OW 6910   4.554   0.730   4.984
 2004SOL    HW1 6911   4.646   0.744   5.021
 2004SOL    HW2 6912   4.542   0.633   4.962
 2005SOL     OW 6913   0.044   5.062   6.957
 2005SOL    HW1 6914   0.121   5.015   7.001
 2005SOL    HW2 6915   0.079   5.132   6.895
 2006SOL     OW 6916   5.580   6.774   4.663
 2006SOL    HW1 6917   5.596   6.858   4.613
 2006SOL    HW2 6918   5.606   6.696   4.606
 2007SOL     OW 6919   5.424   3.937   1.246
 2007SOL    HW1 6920   5.379   3.848   1.242
 2007SOL    HW2 6921   5.523   3.925   1.243
 2008SOL     OW 6922   2.043   3.283   3.557
 2008SOL    HW1 6923   1.954   3.239   3.567
 2008SOL    HW2 6924   2.031   3.382   3.556
 2009SOL     OW 6925   5.389   6.294   2.252
 2009SOL    HW1 6926   5.469   6.341   2.215
 2009SOL    HW2 6927   5.356   6.343   2.333
 2010SOL     OW 6928   1.874   1.308   1.631
 2010SOL    HW1 6929   1.907   1.397   1.664
 2010SOL    HW2 6930   1.792   1.322   1.576
 2011SOL     OW 6931   0.083   0.901   4.735
 2011SOL    HW1 6932   0.161   0.839   4.740
 2011SOL    HW2 6933   0.073   0.936   4.642
 2012SOL     OW 6934   1.542   3.356   2.171
 2012SOL    HW1 6935   1.499   3.269   2.145
 2012SOL    HW2 6936   1.577   3.401   2.089
 2013SOL     OW 6937   6.665   3.037   3.518
 2013SOL    HW1 6938   6.727   3.102   3.562
 2013SOL    HW2 6939   6.573   3.076   3.514
 2014SOL     OW 6940   3.135   0.214   2.989
 2014SOL    HW1 6941   3.047   0.170   2.971
 2014SOL    HW2 6942   3.158   0.273   2.912
 2015SOL     OW 6943   3.373   6.585   0.524
 2015SOL    HW1 6944   3.282   6.588   0.566
 2015SOL    HW2 6945   3.377   6.651   0.449
 2016SOL     OW 6946   1.615   5.626   5.476
 2016SOL    HW1 6947   1.549   5.620   5.401
 2016SOL    HW2 6948   1.673   5.707   5.464
 2017SOL     OW 6949   4.128   0.341   3.369
 2017SOL    HW1 6950   4.078   0.339   3.282
 2017SOL    HW2 6951   4.065   0.368   3.442
 2018SOL     OW 6952   6.775   3.025   4.124
 2018SOL    HW1 6953   6.802   3.074   4.042
 2018SOL    HW2 6954   6.855   2.981   4.165
 2019SOL     OW 6955   6.249   4.170   6.428
 2019SOL    HW1 6956   6.225   4.239   6.496
 2019SOL    HW2 6957   6.344   4.141   6.443
 2020SOL     OW 6958   1.902   6.266   5.833
 2020SOL    HW1 6959   1.905   6.298   5.738
 2020SOL    HW2 6960   1.993   6.234   5.860
 2021SOL     OW 6961   6.321   6.646   4.025
 2021SOL    HW1 6962   6.316   6.739   3.988
 2021SOL    HW2 6963   6.252   6.635   4.096
 2022SOL     OW 6964   2.157   4.521   4.670
 2022SOL    HW1 6965   2.177   4.612   4.634
 2022SOL    HW2 6966   2.152   4.455   4.594
 2023SOL     OW 6967   0.234   0.078   6.917
 2023SOL    HW1 6968   0.319   0.120   6.886
 2023SOL    HW2 6969   0.198   0.129   6.995
 2024SOL     OW 6970   6.965   5.702   3.886
 2024SOL    HW1 6971   7.004   5.712   3.795
 2024SOL    HW2 6972   6.880   5.649   3.881
 2025SOL     OW 6973   3.176   0.338   3.440
 2025SOL    HW1 6974   3.106   0.380   3.499
 2025SOL    HW2 6975   3.267   0.360   3.475
 2026SOL     OW 6976   6.514   1.922   6.672
 2026SOL    HW1 6977   6.438   1.877   6.719
 2026SOL    HW2 6978   6.517   1.892   6.576
 2027SOL     OW 6979   0.649   6.381   1.491
 2027SOL    HW1 6980   0.727   6.428   1.451
 2027SOL    HW2 6981   0.619   6.431   1.573
 2028SOL     OW 6982   3.402   5.663   3.202
 2028SOL    HW1 6983   3.342   5.730   3.246
 2028SOL    HW2 6984   3.479   5.711   3.160
 2029SOL     OW 6985   6.735   2.460   6.876
 2029SOL    HW1 6986   6.769   2.367   6.890
 2029SOL    HW2 6987   6.641   2.467   6.910
 2030SOL     OW 6988   3.483   0.043   2.340
 2030SOL    HW1 6989   3.521   6.987   2.297
 2030SOL    HW2 6990   3.435   0.098   2.272
 2031SOL     OW 6991   6.979   6.359   2.340
 2031SOL    HW1 6992   6.977   6.434   2.275
 2031SOL    HW2 6993   6.951   6.392   2.430
 2032SOL     OW 6994   3.567   1.233   1.165
 2032SOL    HW1 6995   3.545   1.220   1.262
 2032SOL    HW2 6996   3.488   1.273   1.118
 2033SOL     OW 6997   2.228   0.801   1.082
 2033SOL    HW1 6998   2.245   0.754   1.168
 2033SOL    HW2 6999   2.286   0.762   1.010
 2034SOL     OW 7000   1.854   5.009   5.643
 2034SOL    HW1 7001   1.887   5.056   5.561
 2034SOL    HW2 7002   1.842   5.074   5.717
 2035SOL     OW 7003   6.346   6.871   2.290
 2035SOL    HW1 7004   6.301   6.804   2.349
 2035SOL    HW2 7005   6.282   6.902   2.219
 2036SOL     OW 7006   1.642   3.708   3.454
 2036SOL    HW1 7007   1.612   3.803   3.447
 2036SOL    HW2 7008   1.570   3.647   3.420
 2037SOL     OW 7009   6.714   2.953   6.267
 2037SOL    HW1 7010   6.634   2.968   6.208
 2037SOL    HW2 7011   6.699   2.870   6.321
 2038SOL     OW 7012   2.590   0.854   0.336
 2038SOL    HW1 7013   2.560   0.831   0.243
 2038SOL    HW2 7014   2.527   0.922   0.375
 2039SOL     OW 7015   0.388   6.492   2.946
 2039SOL    HW1 7016   0.421   6.399   2.957
 2039SOL    HW2 7017   0.350   6.503   2.854
 2040SOL     OW 7018   1.818   1.760   0.012
 2040SOL    HW1 7019   1.859   1.826   6.974
 2040SOL    HW2 7020   1.825   1.795   0.106
 2041SOL     OW 7021   1.036   0.424   5.534
 2041SOL    HW1 7022   0.994   0.395   5.448
 2041SOL    HW2 7023   0.967   0.471   5.590
 2042SOL     OW 7024   4.915   0.227   6.130
 2042SOL    HW1 7025   4.981   0.223   6.056
 2042SOL    HW2 7026   4.892   0.135   6.160
 2043SOL     OW 7027   6.429   2.488   2.134
 2043SOL    HW1 7028   6.371   2.562   2.168
 2043SOL    HW2 7029   6.511   2.528   2.093
 2044SOL     OW 7030   5.997   0.780   1.340
 2044SOL    HW1 7031   5.979   0.778   1.242
 2044SOL    HW2 7032   6.093   0.761   1.358
 2045SOL     OW 7033   1.324   5.792   4.792
 2045SOL    HW1 7034   1.328   5.713   4.854
 2045SOL    HW2 7035   1.322   5.759   4.697
 2046SOL     OW 7036   6.543   2.608   5.255
 2046SOL    HW1 7037   6.463   2.564   5.295
 2046SOL    HW2 7038   6.572   2.558   5.173
 2047SOL     OW 7039   5.965   2.416   1.013
 2047SOL    HW1 7040   6.044   2.360   0.988
 2047SOL    HW2 7041   5.911   2.368   1.083
 2048SOL     OW 7042   0.187   0.963   4.475
 2048SOL    HW1 7043   0.239   0.898   4.418
 2048SOL    HW2 7044   0.090   0.955   4.454
 2049SOL     OW 7045   4.789   0.999   4.594
 2049SOL    HW1 7046   4.731   1.079   4.611
 2049SOL    HW2 7047   4.852   0.987   4.670
 2050SOL     OW 7048   0.433   2.393   4.434
 2050SOL    HW1 7049   0.441   2.449   4.517
 2050SOL    HW2 7050   0.495   2.315   4.439
 2051SOL     OW 7051   1.763   5.978   7.007
 2051SOL    HW1 7052   1.719   6.024   0.059
 2051SOL    HW2 7053   1.834   6.037   6.969
 2052SOL     OW 7054   1.466   3.017   0.993
 2052SOL    HW1 7055   1.552   2.968   1.007
 2052SOL    HW2 7056   1.464   3.054   0.900
 2053SOL     OW 7057   1.283   5.237   4.884
 2053SOL    HW1 7058   1.332   5.290   4.815
 2053SOL    HW2 7059   1.335   5.237   4.969
 2054SOL     OW 7060   3.290   3.210   3.215
 2054SOL    HW1 7061   3.292   3.126   3.160
 2054SOL    HW2 7062   3.377   3.257   3.206
 2055SOL     OW 7063   0.075   2.732   4.724
 2055SOL    HW1 7064   0.014   2.666   4.679
 2055SOL    HW2 7065   0.080   2.816   4.670
 2056SOL     OW 7066   4.515   4.424   1.216
 2056SOL    HW1 7067   4.425   4.441   1.176
 2056SOL    HW2 7068   4.518   4.462   1.308
 2057SOL     OW 7069   5.228   3.341   4.523
 2057SOL    HW1 7070   5.195   3.263   4.577
 2057SOL    HW2 7071   5.326   3.353   4.539
 2058SOL     OW 7072   0.712   6.576   2.401
 2058SOL    HW1 7073   0.696   6.671   2.427
 2058SOL    HW2 7074   0.746   6.525   2.480
 2059SOL     OW 7075   2.915   0.549   5.666
 2059SOL    HW1 7076   2.908   0.467   5.609
 2059SOL    HW2 7077   2.878   0.530   5.756
 2060SOL     OW 7078   0.610   3.156   1.409
 2060SOL    HW1 7079   0.700   3.114   1.405
 2060SOL    HW2 7080   0.540   3.084   1.411
 2061SOL     OW 7081   1.880   2.587   2.377
 2061SOL    HW1 7082   1.915   2.630   2.460
 2061SOL    HW2 7083   1.912   2.639   2.297
 2062SOL     OW 7084   6.588   5.444   5.183
 2062SOL    HW1 7085   6.663   5.477   5.240
 2062SOL    HW2 7086   6.589   5.344   5.180
 2063SOL     OW 7087   1.547   6.607   4.668
 2063SOL    HW1 7088   1.601   6.620   4.751
 2063SOL    HW2 7089   1.458   6.567   4.692
 2064SOL     OW 7090   1.068   3.030   4.286
 2064SOL    HW1 7091   1.070   2.930   4.290
 2064SOL    HW2 7092   1.040   3.066   4.374
 2065SOL     OW 7093   5.394   3.510   6.279
 2065SOL    HW1 7094   5.466   3.578   6.267
 2065SOL    HW2 7095   5.347   3.525   6.366
 2066SOL     OW 7096   6.762   4.074   5.452
 2066SOL    HW1 7097   6.851   4.121   5.451
 2066SOL    HW2 7098   6.777   3.975   5.447
 2067SOL     OW 7099   6.194   5.028   1.415
 2067SOL    HW1 7100   6.131   4.950   1.417
 2067SOL    HW2 7101   6.144   5.112   1.435
 2068SOL     OW 7102   3.967   1.391   4.186
 2068SOL    HW1 7103   4.030   1.370   4.260
 2068SOL    HW2 7104   4.013   1.378   4.098
 2069SOL     OW 7105   0.418   2.283   4.102
 2069SOL    HW1 7106   0.347   2.215   4.085
 2069SOL    HW2 7107   0.475   2.253   4.178
 2070SOL     OW 7108   1.416   2.698   1.047
 2070SOL    HW1 7109   1.385   2.745   0.965
 2070SOL    HW2 7110   1.343   2.640   1.082
 2071SOL     OW 7111   5.834   1.668   6.322
 2071SOL    HW1 7112   5.787   1.623   6.398
 2071SOL    HW2 7113   5.866   1.758   6.352
 2072SOL     OW 7114   3.917   5.128   5.514
 2072SOL    HW1 7115   3.905   5.101   5.610
 2072SOL    HW2 7116   3.827   5.133   5.470
 2073SOL     OW 7117   3.579   6.258   5.975
 2073SOL    HW1 7118   3.607   6.230   6.067
 2073SOL    HW2 7119   3.617   6.193   5.908
 2074SOL     OW 7120   1.798   2.711   6.374
 2074SOL    HW1 7121   1.859   2.632   6.379
 2074SOL    HW2 7122   1.849   2.794   6.395
 2075SOL     OW 7123   6.551   2.289   3.061
 2075SOL    HW1 7124   6.490   2.263   3.136
 2075SOL    HW2 7125   6.641   2.311   3.097
 2076SOL     OW 7126   6.426   0.508   5.250
 2076SOL    HW1 7127   6.372   0.503   5.167
 2076SOL    HW2 7128   6.503   0.570   5.236
 2077SOL     OW 7129   6.363   2.107   1.686
 2077SOL    HW1 7130   6.444   2.076   1.636
 2077SOL    HW2 7131   6.339   2.039   1.755
 2078SOL     OW 7132   1.552   4.928   6.059
 2078SOL    HW1 7133   1.617   4.961   6.128
 2078SOL    HW2 7134   1.560   4.829   6.050
 2079SOL     OW 7135   5.815   1.149   2.252
 2079SOL    HW1 7136   5.782   1.167   2.345
 2079SOL    HW2 7137   5.894   1.207   2.233
 2080SOL     OW 7138   3.777   1.687   4.787
 2080SOL    HW1 7139   3.697   1.698   4.729
 2080SOL    HW2 7140   3.749   1.691   4.883
 2081SOL     OW 7141   1.048   6.409   3.791
 2081SOL    HW1 7142   1.088   6.336   3.848
 2081SOL    HW2 7143   0.953   6.423   3.818
 2082SOL     OW 7144   0.975   5.951   3.182
 2082SOL    HW1 7145   0.933   5.877   3.131
 2082SOL    HW2 7146   1.035   5.913   3.253
 2083SOL     OW 7147   0.806   5.837   4.086
 2083SOL    HW1 7148   0.759   5.758   4.047
 2083SOL    HW2 7149   0.871   5.874   4.020
 2084SOL     OW 7150   1.343   2.431   1.534
 2084SOL    HW1 7151   1.398   2.442   1.451
 2084SOL    HW2 7152   1.359   2.340   1.572
 2085SOL     OW 7153   5.036   6.105   0.673
 2085SOL    HW1 7154   5.102   6.100   0.749
 2085SOL    HW2 7155   5.008   6.012   0.647
 2086SOL     OW 7156   3.457   6.378   0.151
 2086SOL    HW1 7157   3.524   6.309   0.125
 2086SOL    HW2 7158   3.378   6.372   0.090
 2087SOL     OW 7159   4.167   2.217   0.066
 2087SOL    HW1 7160   4.105   2.280   0.020
 2087SOL    HW2 7161   4.169   2.238   0.164
 2088SOL     OW 7162   0.953   6.194   5.631
 2088SOL    HW1 7163   0.890   6.116   5.631
 2088SOL    HW2 7164   1.047   6.162   5.616
 2089SOL     OW 7165   3.968   2.355   5.280
 2089SOL    HW1 7166   3.907   2.370   5.358
 2089SOL    HW2 7167   3.998   2.443   5.243
 2090SOL     OW 7168   5.073   2.971   5.347
 2090SOL    HW1 7169   4.976   2.948   5.332
 2090SOL    HW2 7170   5.093   2.968   5.445
 2091SOL     OW 7171   6.916   6.154   1.278
 2091SOL    HW1 7172   6.918   6.250   1.254
 2091SOL    HW2 7173   6.900   6.145   1.377
 2092SOL     OW 7174   5.230   3.937   0.538
 2092SOL    HW1 7175   5.248   3.852   0.588
 2092SOL    HW2 7176   5.277   3.935   0.450
 2093SOL     OW 7177   3.599   2.101   2.285
 2093SOL    HW1 7178   3.611   2.115   2.186
 2093SOL    HW2 7179   3.506   2.126   2.311
 2094SOL     OW 7180   5.730   2.667   0.407
 2094SOL    HW1 7181   5.730   2.746   0.346
 2094SOL    HW2 7182   5.639   2.657   0.448
 2095SOL     OW 7183   5.850   6.287   3.082
 2095SOL    HW1 7184   5.804   6.201   3.103
 2095SOL    HW2 7185   5.948   6.271   3.074
 2096SOL     OW 7186   4.497   6.149   3.056
 2096SOL    HW1 7187   4.557   6.228   3.061
 2096SOL    HW2 7188   4.526   6.089   2.982
 2097SOL     OW 7189   3.053   4.059   6.269
 2097SOL    HW1 7190   2.965   4.015   6.284
 2097SOL    HW2 7191   3.121   3.990   6.244
 2098SOL     OW 7192   4.139   6.357   3.121
 2098SOL    HW1 7193   4.170   6.401   3.037
 2098SOL    HW2 7194   4.137   6.258   3.109
 2099SOL     OW 7195   4.617   2.039   0.339
 2099SOL    HW1 7196   4.567   2.089   0.268
 2099SOL    HW2 7197   4.592   2.075   0.428
 2100SOL     OW 7198   5.134   1.056   0.643
 2100SOL    HW1 7199   5.041   1.085   0.669
 2100SOL    HW2 7200   5.201   1.109   0.694
 2101SOL     OW 7201   0.178   6.236   0.757
 2101SOL    HW1 7202   0.127   6.281   0.683
 2101SOL    HW2 7203   0.237   6.304   0.802
 2102SOL     OW 7204   4.106   3.517   1.092
 2102SOL    HW1 7205   4.169   3.543   1.165
 2102SOL    HW2 7206   4.020   3.567   1.103
 2103SOL     OW 7207   3.056   3.766   0.254
 2103SOL    HW1 7208   2.979   3.827   0.239
 2103SOL    HW2 7209   3.023   3.676   0.281
 2104SOL     OW 7210   1.527   4.677   2.190
 2104SOL    HW1 7211   1.622   4.698   2.165
 2104SOL    HW2 7212   1.524   4.647   2.286
 2105SOL     OW 7213   4.335   4.590   0.084
 2105SOL    HW1 7214   4.266   4.587   0.012
 2105SOL    HW2 7215   4.394   4.511   0.077
 2106SOL     OW 7216   5.286   3.583   1.546
 2106SOL    HW1 7217   5.279   3.665   1.604
 2106SOL    HW2 7218   5.346   3.602   1.468
 2107SOL     OW 7219   5.961   3.389   5.693
 2107SOL    HW1 7220   5.910   3.359   5.613
 2107SOL    HW2 7221   5.960   3.489   5.698
 2108SOL     OW 7222   5.518   6.538   6.509
 2108SOL    HW1 7223   5.434   6.580   6.473
 2108SOL    HW2 7224   5.597   6.585   6.471
 2109SOL     OW 7225   3.168   5.336   2.318
 2109SOL    HW1 7226   3.218   5.390   2.384
 2109SOL    HW2 7227   3.135   5.252   2.361
 2110SOL     OW 7228   4.413   0.745   6.246
 2110SOL    HW1 7229   4.375   0.830   6.282
 2110SOL    HW2 7230   4.441   0.759   6.151
 2111SOL     OW 7231   1.185   2.257   5.549
 2111SOL    HW1 7232   1.139   2.188   5.605
 2111SOL    HW2 7233   1.203   2.339   5.604
 2112SOL     OW 7234   6.064   1.775   6.657
 2112SOL    HW1 7235   6.080   1.677   6.666
 2112SOL    HW2 7236   6.066   1.818   6.747
 2113SOL     OW 7237   2.198   6.851   4.435
 2113SOL    HW1 7238   2.193   6.755   4.465
 2113SOL    HW2 7239   2.224   6.909   4.512
 2114SOL     OW 7240   2.824   2.718   0.129
 2114SOL    HW1 7241   2.861   2.649   0.068
 2114SOL    HW2 7242   2.870   2.805   0.113
 2115SOL     OW 7243   1.187   4.755   2.309
 2115SOL    HW1 7244   1.221   4.662   2.326
 2115SOL    HW2 7245   1.117   4.778   2.376
 2116SOL     OW 7246   0.515   2.535   0.806
 2116SOL    HW1 7247   0.567   2.526   0.721
 2116SOL    HW2 7248   0.565   2.492   0.881
 2117SOL     OW 7249   5.048   3.023   1.389
 2117SOL    HW1 7250   5.027   3.115   1.357
 2117SOL    HW2 7251   5.117   2.982   1.329
 2118SOL     OW 7252   6.271   3.638   2.236
 2118SOL    HW1 7253   6.212   3.717   2.255
 2118SOL    HW2 7254   6.286   3.632   2.137
 2119SOL     OW 7255   1.456   0.723   6.538
 2119SOL    HW1 7256   1.361   0.741   6.514
 2119SOL    HW2 7257   1.469   0.738   6.636
 2120SOL     OW 7258   6.581   2.112   2.845
 2120SOL    HW1 7259   6.582   2.182   2.775
 2120SOL    HW2 7260   6.552   2.152   2.932
 2121SOL     OW 7261   2.406   1.631   5.982
 2121SOL    HW1 7262   2.413   1.531   5.982
 2121SOL    HW2 7263   2.329   1.659   6.039
 2122SOL     OW 7264   5.781   6.958   5.911
 2122SOL    HW1 7265   5.769   6.908   5.997
 2122SOL    HW2 7266   5.871   6.937   5.873
 2123SOL     OW 7267   6.934   6.564   2.169
 2123SOL    HW1 7268   6.846   6.578   2.123
 2123SOL    HW2 7269   6.975   6.652   2.190
 2124SOL     OW 7270   3.107   2.294   5.512
 2124SOL    HW1 7271   3.192   2.268   5.466
 2124SOL    HW2 7272   3.066   2.372   5.464
 2125SOL     OW 7273   1.723   6.148   3.266
 2125SOL    HW1 7274   1.644   6.103   3.309
 2125SOL    HW2 7275   1.782   6.079   3.225
 2126SOL     OW 7276   3.860   3.176   0.387
 2126SOL    HW1 7277   3.780   3.223   0.350
 2126SOL    HW2 7278   3.921   3.244   0.429
 2127SOL     OW 7279   6.857   2.492   5.437
 2127SOL    HW1 7280   6.916   2.507   5.516
 2127SOL    HW2 7281   6.851   2.577   5.384
 2128SOL     OW 7282   5.238   3.691   0.677
 2128SOL    HW1 7283   5.184   3.614   0.644
 2128SOL    HW2 7284   5.336   3.670   0.667
 2129SOL     OW 7285   5.245   4.134   3.570
 2129SOL    HW1 7286   5.167   4.126   3.508
 2129SOL    HW2 7287   5.213   4.167   3.659
 2130SOL     OW 7288   2.480   1.730   1.133
 2130SOL    HW1 7289   2.562   1.718   1.078
 2130SOL    HW2 7290   2.469   1.651   1.194
 2131SOL     OW 7291   5.232   2.106   6.839
 2131SOL    HW1 7292   5.277   2.064   6.918
 2131SOL    HW2 7293   5.162   2.044   6.803
 2132SOL     OW 7294   3.294   1.078   6.878
 2132SOL    HW1 7295   3.341   1.143   6.938
 2132SOL    HW2 7296   3.202   1.112   6.860
 2133SOL     OW 7297   2.620   2.402   1.313
 2133SOL    HW1 7298   2.679   2.455   1.252
 2133SOL    HW2 7299   2.565   2.463   1.368
 2134SOL     OW 7300   0.633   0.681   4.395
 2134SOL    HW1 7301   0.728   0.708   4.377
 2134SOL    HW2 7302   0.622   0.584   4.378
 2135SOL     OW 7303   0.718   2.219   4.067
 2135SOL    HW1 7304   0.739   2.141   4.125
 2135SOL    HW2 7305   0.650   2.192   3.998
 2136SOL     OW 7306   1.027   3.734   5.104
 2136SOL    HW1 7307   1.106   3.794   5.116
 2136SOL    HW2 7308   0.943   3.788   5.110
 2137SOL     OW 7309   0.864   6.773   5.156
 2137SOL    HW1 7310   0.865   6.727   5.244
 2137SOL    HW2 7311   0.821   6.713   5.088
 2138SOL     OW 7312   6.546   2.366   1.568
 2138SOL    HW1 7313   6.502   2.303   1.503
 2138SOL    HW2 7314   6.505   2.457   1.558
 2139SOL     OW 7315   3.138   0.806   4.005
 2139SOL    HW1 7316   3.068   0.871   4.035
 2139SOL    HW2 7317   3.097   0.738   3.945
 2140SOL     OW 7318   2.481   6.224   2.697
 2140SOL    HW1 7319   2.498   6.272   2.783
 2140SOL    HW2 7320   2.563   6.226   2.641
 2141SOL     OW 7321   6.827   2.600   1.448
 2141SOL    HW1 7322   6.805   2.527   1.383
 2141SOL    HW2 7323   6.879   2.562   1.525
 2142SOL     OW 7324   1.786   2.126   3.233
 2142SOL    HW1 7325   1.792   2.210   3.180
 2142SOL    HW2 7326   1.825   2.141   3.324
 2143SOL     OW 7327   3.773   6.152   1.311
 2143SOL    HW1 7328   3.832   6.136   1.231
 2143SOL    HW2 7329   3.813   6.223   1.368
 2144SOL     OW 7330   1.319   0.747   3.151
 2144SOL    HW1 7331   1.304   0.842   3.179
 2144SOL    HW2 7332   1.334   0.743   3.053
 2145SOL     OW 7333   3.429   5.465   3.597
 2145SOL    HW1 7334   3.406   5.446   3.502
 2145SOL    HW2 7335   3.347   5.493   3.647
 2146SOL     OW 7336   3.033   3.953   2.009
 2146SOL    HW1 7337   3.086   3.899   2.074
 2146SOL    HW2 7338   2.936   3.948   2.033
 2147SOL     OW 7339   0.236   1.609   0.242
 2147SOL    HW1 7340   0.144   1.624   0.277
 2147SOL    HW2 7341   0.241   1.519   0.199
 2148SOL     OW 7342   4.891   3.542   3.696
 2148SOL    HW1 7343   4.954   3.481   3.745
 2148SOL    HW2 7344   4.886   3.630   3.744
 2149SOL     OW 7345   3.640   0.058   1.670
 2149SOL    HW1 7346   3.649   7.009   1.736
 2149SOL    HW2 7347   3.686   0.139   1.705
 2150SOL     OW 7348   3.502   2.140   2.677
 2150SOL    HW1 7349   3.531   2.172   2.767
 2150SOL    HW2 7350   3.473   2.044   2.683
 2151SOL     OW 7351   3.772   2.501   5.480
 2151SOL    HW1 7352   3.679   2.534   5.461
 2151SOL    HW2 7353   3.838   2.564   5.441
 2152SOL     OW 7354   5.758   6.267   2.160
 2152SOL    HW1 7355   5.673   6.215   2.163
 2152SOL    HW2 7356   5.743   6.357   2.201
 2153SOL     OW 7357   4.568   1.194   3.972
 2153SOL    HW1 7358   4.656   1.235   3.995
 2153SOL    HW2 7359   4.536   1.138   4.048
 2154SOL     OW 7360   3.338   6.115   4.396
 2154SOL    HW1 7361   3.269   6.081   4.460
 2154SOL    HW2 7362   3.411   6.047   4.386
 2155SOL     OW 7363   1.684   5.318   0.173
 2155SOL    HW1 7364   1.585   5.305   0.172
 2155SOL    HW2 7365   1.721   5.305   0.081
 2156SOL     OW 7366   1.745   0.545   1.346
 2156SOL    HW1 7367   1.821   0.601   1.315
 2156SOL    HW2 7368   1.713   0.487   1.270
 2157SOL     OW 7369   6.643   1.536   4.716
 2157SOL    HW1 7370   6.693   1.449   4.717
 2157SOL    HW2 7371   6.569   1.532   4.650
 2158SOL     OW 7372   3.292   6.645   0.131
 2158SOL    HW1 7373   3.330   6.678   0.218
 2158SOL    HW2 7374   3.291   6.720   0.065
 2159SOL     OW 7375   1.794   6.782   5.092
 2159SOL    HW1 7376   1.757   6.848   5.157
 2159SOL    HW2 7377   1.879   6.743   5.128
 2160SOL     OW 7378   4.291   4.352   1.637
 2160SOL    HW1 7379   4.322   4.335   1.731
 2160SOL    HW2 7380   4.248   4.269   1.601
 2161SOL     OW 7381   4.871   3.415   3.313
 2161SOL    HW1 7382   4.858   3.383   3.219
 2161SOL    HW2 7383   4.873   3.336   3.375
 2162SOL     OW 7384   1.866   0.734   6.640
 2162SOL    HW1 7385   1.843   0.655   6.696
 2162SOL    HW2 7386   1.939   0.786   6.684
 2163SOL     OW 7387   1.458   6.874   6.565
 2163SOL    HW1 7388   1.532   6.874   6.633
 2163SOL    HW2 7389   1.374   6.841   6.607
 2164SOL     OW 7390   2.336   0.624   6.077
 2164SOL    HW1 7391   2.306   0.703   6.131
 2164SOL    HW2 7392   2.267   0.603   6.008
 2165SOL     OW 7393   1.491   0.967   2.793
 2165SOL    HW1 7394   1.444   1.052   2.771
 2165SOL    HW2 7395   1.423   0.896   2.812
 2166SOL     OW 7396   1.494   2.568   5.482
 2166SOL    HW1 7397   1.529   2.528   5.397
 2166SOL    HW2 7398   1.443   2.651   5.462
 2167SOL     OW 7399   2.602   0.727   2.168
 2167SOL    HW1 7400   2.609   0.823   2.141
 2167SOL    HW2 7401   2.618   0.718   2.266
 2168SOL     OW 7402   6.176   3.133   5.302
 2168SOL    HW1 7403   6.108   3.193   5.346
 2168SOL    HW2 7404   6.216   3.181   5.224
 2169SOL     OW 7405   5.703   2.724   6.139
 2169SOL    HW1 7406   5.642   2.727   6.059
 2169SOL    HW2 7407   5.655   2.762   6.218
 2170SOL     OW 7408   5.154   4.661   5.216
 2170SOL    HW1 7409   5.058   4.654   5.243
 2170SOL    HW2 7410   5.161   4.660   5.116
 2171SOL     OW 7411   6.749   2.998   0.014
 2171SOL    HW1 7412   6.650   2.997   0.029
 2171SOL    HW2 7413   6.794   3.048   0.088
 2172SOL     OW 7414   3.045   0.539   0.474
 2172SOL    HW1 7415   3.082   0.518   0.384
 2172SOL    HW2 7416   2.996   0.626   0.470
 2173SOL     OW 7417   4.133   0.556   5.818
 2173SOL    HW1 7418   4.164   0.614   5.743
 2173SOL    HW2 7419   4.093   0.472   5.781
 2174SOL     OW 7420   6.601   4.392   5.451
 2174SOL    HW1 7421   6.585   4.324   5.523
 2174SOL    HW2 7422   6.698   4.396   5.430
 2175SOL     OW 7423   3.044   0.452   3.224
 2175SOL    HW1 7424   3.119   0.470   3.160
 2175SOL    HW2 7425   3.078   0.397   3.300
 2176SOL     OW 7426   1.647   1.828   1.684
 2176SOL    HW1 7427   1.728   1.846   1.629
 2176SOL    HW2 7428   1.672   1.774   1.764
 2177SOL     OW 7429   6.509   1.444   1.990
 2177SOL    HW1 7430   6.596   1.418   2.032
 2177SOL    HW2 7431   6.437   1.382   2.022
 2178SOL     OW 7432   0.990   4.395   0.296
 2178SOL    HW1 7433   1.075   4.387   0.347
 2178SOL    HW2 7434   0.943   4.307   0.296
 2179SOL     OW 7435   1.427   5.986   3.850
 2179SOL    HW1 7436   1.445   5.928   3.770
 2179SOL    HW2 7437   1.331   6.016   3.848
 2180SOL     OW 7438   3.058   4.020   2.888
 2180SOL    HW1 7439   3.070   4.008   2.789
 2180SOL    HW2 7440   3.033   4.115   2.907
 2181SOL     OW 7441   4.933   4.786   5.881
 2181SOL    HW1 7442   4.854   4.726   5.883
 2181SOL    HW2 7443   4.992   4.762   5.805
 2182SOL     OW 7444   0.182   3.595   6.178
 2182SOL    HW1 7445   0.124   3.657   6.231
 2182SOL    HW2 7446   0.229   3.646   6.107
 2183SOL     OW 7447   2.837   2.974   0.632
 2183SOL    HW1 7448   2.906   2.977   0.705
 2183SOL    HW2 7449   2.847   3.054   0.574
 2184SOL     OW 7450   3.941   0.649   6.443
 2184SOL    HW1 7451   3.848   0.678   6.467
 2184SOL    HW2 7452   3.998   0.646   6.526
 2185SOL     OW 7453   1.680   1.343   0.599
 2185SOL    HW1 7454   1.583   1.334   0.623
 2185SOL    HW2 7455   1.714   1.432   0.630
 2186SOL     OW 7456   0.284   4.809   2.209
 2186SOL    HW1 7457   0.190   4.777   2.211
 2186SOL    HW2 7458   0.343   4.744   2.256
 2187SOL     OW 7459   0.065   1.272   1.298
 2187SOL    HW1 7460   0.064   1.368   1.270
 2187SOL    HW2 7461   7.012   1.225   1.258
 2188SOL     OW 7462   4.815   6.065   3.825
 2188SOL    HW1 7463   4.868   6.104   3.750
 2188SOL    HW2 7464   4.759   6.137   3.866
 2189SOL     OW 7465   1.848   7.002   6.153
 2189SOL    HW1 7466   1.885   6.980   6.063
 2189SOL    HW2 7467   1.807   6.921   6.193
 2190SOL     OW 7468   6.264   2.494   1.857
 2190SOL    HW1 7469   6.280   2.567   1.924
 2190SOL    HW2 7470   6.309   2.516   1.771
 2191SOL     OW 7471   3.384   2.508   6.640
 2191SOL    HW1 7472   3.315   2.462   6.585
 2191SOL    HW2 7473   3.437   2.570   6.582
 2192SOL     OW 7474   4.299   6.068   5.466
 2192SOL    HW1 7475   4.350   6.018   5.396
 2192SOL    HW2 7476   4.246   6.141   5.423
 2193SOL     OW 7477   0.463   5.556   5.616
 2193SOL    HW1 7478   0.453   5.583   5.521
 2193SOL    HW2 7479   0.411   5.471   5.632
 2194SOL     OW 7480   2.008   5.823   0.316
 2194SOL    HW1 7481   2.074   5.810   0.390
 2194SOL    HW2 7482   2.057   5.821   0.228
 2195SOL     OW 7483   0.480   6.460   1.693
 2195SOL    HW1 7484   0.528   6.403   1.760
 2195SOL    HW2 7485   0.411   6.515   1.739
 2196SOL     OW 7486   3.216   0.711   5.370
 2196SOL    HW1 7487   3.191   0.614   5.376
 2196SOL    HW2 7488   3.175   0.751   5.288
 2197SOL     OW 7489   4.819   4.380   1.816
 2197SOL    HW1 7490   4.784   4.468   1.787
 2197SOL    HW2 7491   4.786   4.359   1.908
 2198SOL     OW 7492   6.623   3.649   6.844
 2198SOL    HW1 7493   6.681   3.594   6.784
 2198SOL    HW2 7494   6.527   3.629   6.825
 2199SOL     OW 7495   4.722   6.913   0.494
 2199SOL    HW1 7496   4.723   6.911   0.593
 2199SOL    HW2 7497   4.777   6.838   0.458
 2200SOL     OW 7498   4.157   0.655   4.678
 2200SOL    HW1 7499   4.239   0.712   4.687
 2200SOL    HW2 7500   4.182   0.566   4.639
 2201SOL     OW 7501   6.078   3.619   1.697
 2201SOL    HW1 7502   5.992   3.572   1.716
 2201SOL    HW2 7503   6.069   3.670   1.611
 2202SOL     OW 7504   3.715   4.930   4.372
 2202SOL    HW1 7505   3.755   4.911   4.462
 2202SOL    HW2 7506   3.777   4.898   4.301
 2203SOL     OW 7507   3.504   2.080   3.268
 2203SOL    HW1 7508   3.533   2.060   3.175
 2203SOL    HW2 7509   3.584   2.087   3.327
 2204SOL     OW 7510   3.717   1.229   0.025
 2204SOL    HW1 7511   3.666   1.187   6.976
 2204SOL    HW2 7512   3.668   1.213   0.111
 2205SOL     OW 7513   1.288   0.353   0.068
 2205SOL    HW1 7514   1.370   0.396   0.105
 2205SOL    HW2 7515   1.212   0.365   0.133
 2206SOL     OW 7516   3.063   3.516   6.330
 2206SOL    HW1 7517   3.121   3.567   6.393
 2206SOL    HW2 7518   3.114   3.497   6.245
 2207SOL     OW 7519   0.993   4.042   6.200
 2207SOL    HW1 7520   1.007   3.960   6.145
 2207SOL    HW2 7521   1.070   4.054   6.263
 2208SOL     OW 7522   0.145   3.507   1.964
 2208SOL    HW1 7523   0.049   3.484   1.944
 2208SOL    HW2 7524   0.150   3.602   1.996
 2209SOL     OW 7525   1.785   5.960   6.665
 2209SOL    HW1 7526   1.726   6.041   6.661
 2209SOL    HW2 7527   1.747   5.894   6.730
 2210SOL     OW 7528   0.718   4.965   3.155
 2210SOL    HW1 7529   0.712   5.007   3.065
 2210SOL    HW2 7530   0.814   4.959   3.183
 2211SOL     OW 7531   5.889   1.485   5.412
 2211SOL    HW1 7532   5.911   1.389   5.435
 2211SOL    HW2 7533   5.958   1.520   5.348
 2212SOL     OW 7534   0.394   6.900   5.902
 2212SOL    HW1 7535   0.376   6.995   5.877
 2212SOL    HW2 7536   0.491   6.879   5.886
 2213SOL     OW 7537   4.160   2.324   4.158
 2213SOL    HW1 7538   4.238   2.373   4.119
 2213SOL    HW2 7539   4.191   2.265   4.232
 2214SOL     OW 7540   5.018   0.421   5.135
 2214SOL    HW1 7541   5.057   0.455   5.049
 2214SOL    HW2 7542   4.983   0.329   5.122
 2215SOL     OW 7543   6.756   1.661   5.447
 2215SOL    HW1 7544   6.826   1.733   5.452
 2215SOL    HW2 7545   6.695   1.667   5.526
 2216SOL     OW 7546   1.309   6.982   1.398
 2216SOL    HW1 7547   1.314   6.936   1.487
 2216SOL    HW2 7548   1.283   6.915   1.328
 2217SOL     OW 7549   3.987   6.935   0.931
 2217SOL    HW1 7550   3.907   6.987   0.901
 2217SOL    HW2 7551   4.025   6.977   1.013
 2218SOL     OW 7552   1.173   6.353   6.507
 2218SOL    HW1 7553   1.271   6.367   6.490
 2218SOL    HW2 7554   1.152   6.379   6.601
 2219SOL     OW 7555   1.620   4.172   3.375
 2219SOL    HW1 7556   1.599   4.074   3.376
 2219SOL    HW2 7557   1.539   4.224   3.349
 2220SOL     OW 7558   0.650   2.082   4.733
 2220SOL    HW1 7559   0.614   1.997   4.770
 2220SOL    HW2 7560   0.749   2.086   4.748
 2221SOL     OW 7561   6.655   2.020   1.555
 2221SOL    HW1 7562   6.596   1.947   1.521
 2221SOL    HW2 7563   6.749   1.988   1.560
 2222SOL     OW 7564   4.288   0.201   1.730
 2222SOL    HW1 7565   4.303   0.250   1.816
 2222SOL    HW2 7566   4.192   0.205   1.705
 2223SOL     OW 7567   6.288   5.397   3.412
 2223SOL    HW1 7568   6.386   5.384   3.421
 2223SOL    HW2 7569   6.267   5.495   3.414
 2224SOL     OW 7570   1.538   4.945   1.570
 2224SOL    HW1 7571   1.576   4.928   1.661
 2224SOL    HW2 7572   1.608   4.984   1.511
 2225SOL     OW 7573   6.113   4.680   2.297
 2225SOL    HW1 7574   6.084   4.734   2.218
 2225SOL    HW2 7575   6.042   4.613   2.319
 2226SOL     OW 7576   3.951   2.688   1.240
 2226SOL    HW1 7577   3.971   2.591   1.254
 2226SOL    HW2 7578   3.891   2.720   1.313
 2227SOL     OW 7579   6.811   4.188   6.268
 2227SOL    HW1 7580   6.739   4.126   6.299
 2227SOL    HW2 7581   6.900   4.154   6.299
 2228SOL     OW 7582   3.119   4.690   6.870
 2228SOL    HW1 7583   3.127   4.662   6.774
 2228SOL    HW2 7584   3.198   4.656   6.921
 2229SOL     OW 7585   4.734   1.038   4.327
 2229SOL    HW1 7586   4.791   1.110   4.288
 2229SOL    HW2 7587   4.757   1.025   4.423
 2230SOL     OW 7588   1.396   5.345   4.228
 2230SOL    HW1 7589   1.425   5.287   4.304
 2230SOL    HW2 7590   1.321   5.300   4.178
 2231SOL     OW 7591   1.822   1.254   2.388
 2231SOL    HW1 7592   1.854   1.163   2.361
 2231SOL    HW2 7593   1.887   1.323   2.357
 2232SOL     OW 7594   0.201   3.372   2.619
 2232SOL    HW1 7595   0.234   3.388   2.526
 2232SOL    HW2 7596   0.102   3.388   2.622
 2233SOL     OW 7597   3.270   5.281   0.476
 2233SOL    HW1 7598   3.312   5.191   0.469
 2233SOL    HW2 7599   3.250   5.301   0.572
 2234SOL     OW 7600   4.004   2.008   1.043
 2234SOL    HW1 7601   3.988   1.969   1.134
 2234SOL    HW2 7602   4.018   1.934   0.977
 2235SOL     OW 7603   1.028   0.285   7.007
 2235SOL    HW1 7604   1.006   0.375   6.969
 2235SOL    HW2 7605   1.127   0.278   7.020
 2236SOL     OW 7606   0.378   4.194   0.870
 2236SOL    HW1 7607   0.396   4.292   0.860
 2236SOL    HW2 7608   0.325   4.161   0.792
 2237SOL     OW 7609   6.728   3.458   4.786
 2237SOL    HW1 7610   6.668   3.396   4.736
 2237SOL    HW2 7611   6.746   3.540   4.731
 2238SOL     OW 7612   0.129   5.454   2.025
 2238SOL    HW1 7613   0.143   5.546   2.060
 2238SOL    HW2 7614   0.211   5.399   2.041
 2239SOL     OW 7615   4.268   4.725   3.362
 2239SOL    HW1 7616   4.204   4.745   3.436
 2239SOL    HW2 7617   4.362   4.730   3.397
 2240SOL     OW 7618   6.796   5.124   3.741
 2240SOL    HW1 7619   6.765   5.031   3.719
 2240SOL    HW2 7620   6.721   5.188   3.724
 2241SOL     OW 7621   0.023   6.127   2.190
 2241SOL    HW1 7622   0.123   6.124   2.192
 2241SOL    HW2 7623   7.016   6.207   2.240
 2242SOL     OW 7624   4.947   1.803   3.255
 2242SOL    HW1 7625   4.858   1.849   3.266
 2242SOL    HW2 7626   4.978   1.814   3.161
 2243SOL     OW 7627   2.354   6.209   4.414
 2243SOL    HW1 7628   2.422   6.138   4.432
 2243SOL    HW2 7629   2.306   6.233   4.499
 2244SOL     OW 7630   3.767   0.768   4.161
 2244SOL    HW1 7631   3.768   0.741   4.257
 2244SOL    HW2 7632   3.800   0.862   4.152
 2245SOL     OW 7633   7.009   2.455   2.445
 2245SOL    HW1 7634   0.010   2.424   2.536
 2245SOL    HW2 7635   0.036   2.405   2.376
 2246SOL     OW 7636   1.525   3.375   5.466
 2246SOL    HW1 7637   1.468   3.367   5.547
 2246SOL    HW2 7638   1.558   3.470   5.458
 2247SOL     OW 7639   2.295   2.188   5.295
 2247SOL    HW1 7640   2.214   2.181   5.353
 2247SOL    HW2 7641   2.377   2.169   5.351
 2248SOL     OW 7642   4.919   4.263   5.111
 2248SOL    HW1 7643   4.992   4.288   5.048
 2248SOL    HW2 7644   4.924   4.165   5.132
 2249SOL     OW 7645   5.085   5.929   2.999
 2249SOL    HW1 7646   5.162   5.992   2.989
 2249SOL    HW2 7647   5.007   5.978   3.039
 2250SOL     OW 7648   5.360   3.448   1.223
 2250SOL    HW1 7649   5.351   3.450   1.124
 2250SOL    HW2 7650   5.355   3.353   1.255
 2251SOL     OW 7651   6.124   1.871   6.915
 2251SOL    HW1 7652   6.062   1.828   6.980
 2251SOL    HW2 7653   6.214   1.828   6.922
 2252SOL     OW 7654   5.439   2.759   5.504
 2252SOL    HW1 7655   5.489   2.845   5.501
 2252SOL    HW2 7656   5.351   2.772   5.551
 2253SOL     OW 7657   2.487   3.193   6.979
 2253SOL    HW1 7658   2.459   3.098   6.990
 2253SOL    HW2 7659   2.557   3.215   0.021
 2254SOL     OW 7660   1.724   3.445   5.819
 2254SOL    HW1 7661   1.748   3.351   5.795
 2254SOL    HW2 7662   1.786   3.508   5.773
 2255SOL     OW 7663   6.075   2.791   1.961
 2255SOL    HW1 7664   6.012   2.751   1.895
 2255SOL    HW2 7665   6.092   2.727   2.035
 2256SOL     OW 7666   3.622   5.039   2.658
 2256SOL    HW1 7667   3.653   4.975   2.588
 2256SOL    HW2 7668   3.650   5.131   2.633
 2257SOL     OW 7669   1.519   3.660   4.563
 2257SOL    HW1 7670   1.450   3.678   4.493
 2257SOL    HW2 7671   1.501   3.572   4.605
 2258SOL     OW 7672   1.877   4.762   5.137
 2258SOL    HW1 7673   1.923   4.675   5.118
 2258SOL    HW2 7674   1.784   4.744   5.170
 2259SOL     OW 7675   5.800   4.075   6.410
 2259SOL    HW1 7676   5.737   4.120   6.346
 2259SOL    HW2 7677   5.797   4.121   6.498
 2260SOL     OW 7678   4.296   5.193   2.450
 2260SOL    HW1 7679   4.379   5.141   2.437
 2260SOL    HW2 7680   4.216   5.135   2.432
 2261SOL     OW 7681   5.356   6.309   0.963
 2261SOL    HW1 7682   5.359   6.210   0.948
 2261SOL    HW2 7683   5.417   6.354   0.897
 2262SOL     OW 7684   5.452   2.258   4.307
 2262SOL    HW1 7685   5.432   2.213   4.220
 2262SOL    HW2 7686   5.542   2.300   4.303
 2263SOL     OW 7687   1.888   5.368   5.669
 2263SOL    HW1 7688   1.813   5.434   5.666
 2263SOL    HW2 7689   1.864   5.294   5.731
 2264SOL     OW 7690   2.865   3.510   2.659
 2264SOL    HW1 7691   2.896   3.517   2.754
 2264SOL    HW2 7692   2.774   3.469   2.656
 2265SOL     OW 7693   6.872   0.895   2.346
 2265SOL    HW1 7694   6.912   0.852   2.265
 2265SOL    HW2 7695   6.941   0.949   2.393
 2266SOL     OW 7696   6.480   0.898   0.962
 2266SOL    HW1 7697   6.523   0.834   1.025
 2266SOL    HW2 7698   6.533   0.901   0.877
 2267SOL     OW 7699   5.815   2.571   4.770
 2267SOL    HW1 7700   5.764   2.657   4.775
 2267SOL    HW2 7701   5.758   2.496   4.804
 2268SOL     OW 7702   6.785   6.346   0.533
 2268SOL    HW1 7703   6.753   6.331   0.627
 2268SOL    HW2 7704   6.706   6.358   0.473
 2269SOL     OW 7705   6.369   6.132   5.775
 2269SOL    HW1 7706   6.444   6.079   5.734
 2269SOL    HW2 7707   6.368   6.116   5.874
 2270SOL     OW 7708   3.107   2.980   2.163
 2270SOL    HW1 7709   3.128   3.001   2.259
 2270SOL    HW2 7710   3.178   2.919   2.127
 2271SOL     OW 7711   5.783   4.534   1.538
 2271SOL    HW1 7712   5.720   4.532   1.460
 2271SOL    HW2 7713   5.859   4.471   1.522
 2272SOL     OW 7714   4.857   2.182   5.265
 2272SOL    HW1 7715   4.870   2.226   5.177
 2272SOL    HW2 7716   4.925   2.109   5.276
 2273SOL     OW 7717   0.352   0.322   3.485
 2273SOL    HW1 7718   0.327   0.315   3.388
 2273SOL    HW2 7719   0.279   0.368   3.534
 2274SOL     OW 7720   1.620   3.793   5.111
 2274SOL    HW1 7721   1.637   3.801   5.013
 2274SOL    HW2 7722   1.538   3.738   5.126
 2275SOL     OW 7723   5.157   6.030   4.833
 2275SOL    HW1 7724   5.140   5.946   4.781
 2275SOL    HW2 7725   5.119   6.020   4.925
 2276SOL     OW 7726   4.209   4.186   0.715
 2276SOL    HW1 7727   4.244   4.277   0.737
 2276SOL    HW2 7728   4.110   4.191   0.704
 2277SOL     OW 7729   2.790   3.422   5.946
 2277SOL    HW1 7730   2.877   3.416   5.898
 2277SOL    HW2 7731   2.770   3.334   5.990
 2278SOL     OW 7732   5.578   6.276   2.515
 2278SOL    HW1 7733   5.559   6.261   2.418
 2278SOL    HW2 7734   5.654   6.217   2.543
 2279SOL     OW 7735   5.731   3.452   4.922
 2279SOL    HW1 7736   5.725   3.391   4.843
 2279SOL    HW2 7737   5.822   3.493   4.926
 2280SOL     OW 7738   6.863   6.325   5.218
 2280SOL    HW1 7739   6.840   6.320   5.120
 2280SOL    HW2 7740   6.784   6.358   5.269
 2281SOL     OW 7741   3.883   2.139   1.834
 2281SOL    HW1 7742   3.902   2.175   1.925
 2281SOL    HW2 7743   3.820   2.200   1.786
 2282SOL     OW 7744   4.741   5.412   4.342
 2282SOL    HW1 7745   4.821   5.395   4.400
 2282SOL    HW2 7746   4.659   5.417   4.399
 2283SOL     OW 7747   6.581   4.173   3.365
 2283SOL    HW1 7748   6.510   4.242   3.380
 2283SOL    HW2 7749   6.556   4.090   3.415
 2284SOL     OW 7750   2.180   2.455   1.672
 2284SOL    HW1 7751   2.204   2.427   1.765
 2284SOL    HW2 7752   2.217   2.389   1.607
 2285SOL     OW 7753   1.588   3.608   0.278
 2285SOL    HW1 7754   1.661   3.653   0.226
 2285SOL    HW2 7755   1.536   3.677   0.329
 2286SOL     OW 7756   6.565   5.553   4.819
 2286SOL    HW1 7757   6.537   5.467   4.779
 2286SOL    HW2 7758   6.511   5.572   4.901
 2287SOL     OW 7759   2.368   2.512   0.935
 2287SOL    HW1 7760   2.401   2.600   0.970
 2287SOL    HW2 7761   2.324   2.527   0.846
 2288SOL     OW 7762   0.539   6.455   3.483
 2288SOL    HW1 7763   0.564   6.490   3.574
 2288SOL    HW2 7764   0.442   6.470   3.467
 2289SOL     OW 7765   5.680   1.575   2.030
 2289SOL    HW1 7766   5.767   1.608   2.067
 2289SOL    HW2 7767   5.605   1.609   2.086
 2290SOL     OW 7768   3.009   3.838   3.359
 2290SOL    HW1 7769   3.051   3.748   3.365
 2290SOL    HW2 7770   2.941   3.838   3.286
 2291SOL     OW 7771   1.622   1.741   1.203
 2291SOL    HW1 7772   1.702   1.692   1.239
 2291SOL    HW2 7773   1.546   1.677   1.191
 2292SOL     OW 7774   4.825   2.146   4.030
 2292SOL    HW1 7775   4.894   2.209   4.067
 2292SOL    HW2 7776   4.865   2.093   3.956
 2293SOL     OW 7777   5.488   1.386   1.067
 2293SOL    HW1 7778   5.535   1.298   1.058
 2293SOL    HW2 7779   5.390   1.371   1.074
 2294SOL     OW 7780   1.708   2.549   6.008
 2294SOL    HW1 7781   1.726   2.544   5.910
 2294SOL    HW2 7782   1.681   2.641   6.033
 2295SOL     OW 7783   6.401   0.366   1.641
 2295SOL    HW1 7784   6.350   0.448   1.664
 2295SOL    HW2 7785   6.348   0.310   1.577
 2296SOL     OW 7786   2.340   5.210   3.384
 2296SOL    HW1 7787   2.282   5.151   3.439
 2296SOL    HW2 7788   2.290   5.292   3.357
 2297SOL     OW 7789   5.291   4.842   5.451
 2297SOL    HW1 7790   5.335   4.931   5.439
 2297SOL    HW2 7791   5.320   4.780   5.377
 2298SOL     OW 7792   4.019   3.134   4.672
 2298SOL    HW1 7793   3.968   3.167   4.752
 2298SOL    HW2 7794   4.071   3.053   4.697
 2299SOL     OW 7795   5.409   3.430   4.992
 2299SOL    HW1 7796   5.439   3.418   5.087
 2299SOL    HW2 7797   5.373   3.523   4.980
 2300SOL     OW 7798   4.004   6.989   3.470
 2300SOL    HW1 7799   3.977   6.984   3.566
 2300SOL    HW2 7800   4.019   6.896   3.435
 2301SOL     OW 7801   3.292   3.297   4.147
 2301SOL    HW1 7802   3.218   3.318   4.211
 2301SOL    HW2 7803   3.261   3.230   4.080
 2302SOL     OW 7804   3.988   1.663   0.445
 2302SOL    HW1 7805   4.030   1.722   0.375
 2302SOL    HW2 7806   4.042   1.579   0.453
 2303SOL     OW 7807   2.680   2.933   0.978
 2303SOL    HW1 7808   2.748   2.916   1.050
 2303SOL    HW2 7809   2.709   3.011   0.923
 2304SOL     OW 7810   6.381   5.968   3.174
 2304SOL    HW1 7811   6.310   5.953   3.105
 2304SOL    HW2 7812   6.460   5.911   3.153
 2305SOL     OW 7813   1.501   1.195   4.460
 2305SOL    HW1 7814   1.427   1.244   4.414
 2305SOL    HW2 7815   1.537   1.251   4.534
 2306SOL     OW 7816   1.912   4.904   3.568
 2306SOL    HW1 7817   1.963   4.822   3.541
 2306SOL    HW2 7818   1.814   4.888   3.553
 2307SOL     OW 7819   1.205   3.079   5.716
 2307SOL    HW1 7820   1.245   3.092   5.807
 2307SOL    HW2 7821   1.114   3.040   5.725
 2308SOL     OW 7822   1.960   4.690   1.161
 2308SOL    HW1 7823   2.025   4.633   1.211
 2308SOL    HW2 7824   1.869   4.651   1.169
 2309SOL     OW 7825   1.207   0.197   4.147
 2309SOL    HW1 7826   1.266   0.149   4.212
 2309SOL    HW2 7827   1.226   0.165   4.055
 2310SOL     OW 7828   4.566   6.609   1.897
 2310SOL    HW1 7829   4.508   6.666   1.839
 2310SOL    HW2 7830   4.509   6.559   1.962
 2311SOL     OW 7831   2.565   6.183   0.300
 2311SOL    HW1 7832   2.567   6.139   0.210
 2311SOL    HW2 7833   2.576   6.282   0.288
 2312SOL     OW 7834   3.521   6.097   2.666
 2312SOL    HW1 7835   3.588   6.050   2.608
 2312SOL    HW2 7836   3.488   6.032   2.735
 2313SOL     OW 7837   4.986   5.096   2.980
 2313SOL    HW1 7838   4.937   5.035   3.043
 2313SOL    HW2 7839   5.059   5.045   2.935
 2314SOL     OW 7840   2.773   5.698   3.158
 2314SOL    HW1 7841   2.686   5.692   3.206
 2314SOL    HW2 7842   2.826   5.614   3.173
 2315SOL     OW 7843   4.658   3.122   6.039
 2315SOL    HW1 7844   4.654   3.184   5.960
 2315SOL    HW2 7845   4.587   3.052   6.030
 2316SOL     OW 7846   5.590   2.784   3.052
 2316SOL    HW1 7847   5.616   2.816   3.143
 2316SOL    HW2 7848   5.642   2.834   2.982
 2317SOL     OW 7849   1.569   4.594   2.452
 2317SOL    HW1 7850   1.487   4.538   2.438
 2317SOL    HW2 7851   1.587   4.603   2.550
 2318SOL     OW 7852   0.316   1.600   2.737
 2318SOL    HW1 7853   0.402   1.649   2.752
 2318SOL    HW2 7854   0.283   1.564   2.825
 2319SOL     OW 7855   1.932   4.098   4.536
 2319SOL    HW1 7856   1.933   4.112   4.437
 2319SOL    HW2 7857   1.987   4.168   4.581
 2320SOL     OW 7858   0.320   2.555   4.126
 2320SOL    HW1 7859   0.369   2.468   4.133
 2320SOL    HW2 7860   0.254   2.551   4.051
 2321SOL     OW 7861   3.062   0.000   4.983
 2321SOL    HW1 7862   2.994   0.073   4.972
 2321SOL    HW2 7863   3.139   0.018   4.922
 2322SOL     OW 7864   1.305   1.257   5.312
 2322SOL    HW1 7865   1.349   1.172   5.343
 2322SOL    HW2 7866   1.276   1.246   5.217
 2323SOL     OW 7867   4.400   5.814   3.120
 2323SOL    HW1 7868   4.478   5.864   3.155
 2323SOL    HW2 7869   4.371   5.745   3.187
 2324SOL     OW 7870   0.827   6.088   2.847
 2324SOL    HW1 7871   0.793   6.055   2.758
 2324SOL    HW2 7872   0.804   6.022   2.918
 2325SOL     OW 7873   1.172   4.085   1.137
 2325SOL    HW1 7874   1.128   4.095   1.226
 2325SOL    HW2 7875   1.179   3.988   1.114
 2326SOL     OW 7876   1.891   5.136   6.743
 2326SOL    HW1 7877   1.844   5.096   6.822
 2326SOL    HW2 7878   1.889   5.073   6.666
 2327SOL     OW 7879   5.028   2.593   4.139
 2327SOL    HW1 7880   5.001   2.639   4.224
 2327SOL    HW2 7881   5.063   2.661   4.074
 2328SOL     OW 7882   4.790   1.255   3.077
 2328SOL    HW1 7883   4.810   1.257   3.175
 2328SOL    HW2 7884   4.732   1.176   3.056
 2329SOL     OW 7885   0.971   5.452   3.894
 2329SOL    HW1 7886   0.993   5.491   3.984
 2329SOL    HW2 7887   0.913   5.517   3.844
 2330SOL     OW 7888   0.876   4.528   2.080
 2330SOL    HW1 7889   0.855   4.584   2.161
 2330SOL    HW2 7890   0.937   4.579   2.019
 2331SOL     OW 7891   0.359   3.987   5.389
 2331SOL    HW1 7892   0.393   3.995   5.296
 2331SOL    HW2 7893   0.429   3.949   5.448
 2332SOL     OW 7894   5.301   2.959   6.021
 2332SOL    HW1 7895   5.225   2.959   5.956
 2332SOL    HW2 7896   5.268   2.986   6.111
 2333SOL     OW 7897   1.352   5.398   3.242
 2333SOL    HW1 7898   1.311   5.354   3.321
 2333SOL    HW2 7899   1.439   5.440   3.269
 2334SOL     OW 7900   3.356   6.984   6.985
 2334SOL    HW1 7901   3.269   6.959   6.942
 2334SOL    HW2 7902   3.416   0.001   6.918
 2335SOL     OW 7903   5.243   6.916   3.383
 2335SOL    HW1 7904   5.192   6.999   3.405
 2335SOL    HW2 7905   5.292   6.929   3.296
 2336SOL     OW 7906   4.662   1.392   6.095
 2336SOL    HW1 7907   4.638   1.369   6.190
 2336SOL    HW2 7908   4.640   1.488   6.077
 2337SOL     OW 7909   5.393   0.303   3.161
 2337SOL    HW1 7910   5.335   0.382   3.181
 2337SOL    HW2 7911   5.403   0.248   3.244
 2338SOL     OW 7912   0.017   7.016   6.766
 2338SOL    HW1 7913   0.090   0.042   6.811
 2338SOL    HW2 7914   6.967   7.002   6.830
 2339SOL     OW 7915   3.726   4.497   6.818
 2339SOL    HW1 7916   3.756   4.536   6.905
 2339SOL    HW2 7917   3.632   4.464   6.826
 2340SOL     OW 7918   3.689   5.748   4.569
 2340SOL    HW1 7919   3.613   5.686   4.550
 2340SOL    HW2 7920   3.659   5.820   4.630
 2341SOL     OW 7921   5.713   5.191   0.970
 2341SOL    HW1 7922   5.737   5.112   0.914
 2341SOL    HW2 7923   5.619   5.219   0.950
 2342SOL     OW 7924   6.657   0.301   4.988
 2342SOL    HW1 7925   6.753   0.273   4.996
 2342SOL    HW2 7926   6.609   0.277   5.072
 2343SOL     OW 7927   1.103   5.886   1.064
 2343SOL    HW1 7928   1.193   5.850   1.040
 2343SOL    HW2 7929   1.111   5.943   1.145
 2344SOL     OW 7930   2.348   1.994   2.751
 2344SOL    HW1 7931   2.375   1.919   2.690
 2344SOL    HW2 7932   2.384   2.080   2.715
 2345SOL     OW 7933   1.560   0.953   4.582
 2345SOL    HW1 7934   1.656   0.934   4.603
 2345SOL    HW2 7935   1.554   1.039   4.530
 2346SOL     OW 7936   4.770   3.639   5.732
 2346SOL    HW1 7937   4.792   3.596   5.820
 2346SOL    HW2 7938   4.670   3.645   5.722
 2347SOL     OW 7939   1.726   3.296   1.911
 2347SOL    HW1 7940   1.644   3.328   1.864
 2347SOL    HW2 7941   1.806   3.346   1.875
 2348SOL     OW 7942   3.039   6.480   3.323
 2348SOL    HW1 7943   3.041   6.398   3.266
 2348SOL    HW2 7944   3.073   6.558   3.270
 2349SOL     OW 7945   0.019   6.785   5.932
 2349SOL    HW1 7946   0.064   6.818   6.015
 2349SOL    HW2 7947   0.084   6.787   5.856
 2350SOL     OW 7948   2.865   0.321   5.524
 2350SOL    HW1 7949   2.784   0.297   5.577
 2350SOL    HW2 7950   2.889   0.243   5.465
 2351SOL     OW 7951   2.680   4.658   3.609
 2351SOL    HW1 7952   2.730   4.677   3.694
 2351SOL    HW2 7953   2.633   4.740   3.579
 2352SOL     OW 7954   6.925   4.578   2.999
 2352SOL    HW1 7955   6.877   4.511   2.941
 2352SOL    HW2 7956   6.968   4.530   3.075
 2353SOL     OW 7957   2.652   4.412   6.089
 2353SOL    HW1 7958   2.652   4.411   6.189
 2353SOL    HW2 7959   2.602   4.333   6.055
 2354SOL     OW 7960   3.578   2.334   0.891
 2354SOL    HW1 7961   3.519   2.255   0.872
 2354SOL    HW2 7962   3.571   2.399   0.816
 2355SOL     OW 7963   0.440   6.220   0.333
 2355SOL    HW1 7964   0.491   6.263   0.258
 2355SOL    HW2 7965   0.489   6.138   0.364
 2356SOL     OW 7966   2.201   4.819   2.831
 2356SOL    HW1 7967   2.123   4.858   2.782
 2356SOL    HW2 7968   2.281   4.818   2.772
 2357SOL     OW 7969   5.479   4.272   2.362
 2357SOL    HW1 7970   5.406   4.219   2.406
 2357SOL    HW2 7971   5.441   4.326   2.287
 2358SOL     OW 7972   3.827   0.483   5.246
 2358SOL    HW1 7973   3.888   0.479   5.166
 2358SOL    HW2 7974   3.883   0.488   5.329
 2359SOL     OW 7975   2.746   1.605   5.395
 2359SOL    HW1 7976   2.691   1.688   5.404
 2359SOL    HW2 7977   2.688   1.525   5.409
 2360SOL     OW 7978   3.984   4.890   0.999
 2360SOL    HW1 7979   3.945   4.799   0.987
 2360SOL    HW2 7980   4.052   4.906   0.928
 2361SOL     OW 7981   3.392   6.757   2.844
 2361SOL    HW1 7982   3.466   6.721   2.787
 2361SOL    HW2 7983   3.385   6.856   2.832
 2362SOL     OW 7984   5.105   5.887   4.541
 2362SOL    HW1 7985   5.128   5.820   4.471
 2362SOL    HW2 7986   5.006   5.901   4.543
 2363SOL     OW 7987   3.158   3.308   6.912
 2363SOL    HW1 7988   3.210   3.272   6.835
 2363SOL    HW2 7989   3.070   3.262   6.917
 2364SOL     OW 7990   4.789   1.620   1.829
 2364SOL    HW1 7991   4.834   1.536   1.797
 2364SOL    HW2 7992   4.695   1.622   1.795
 2365SOL     OW 7993   5.315   3.442   4.232
 2365SOL    HW1 7994   5.411   3.422   4.248
 2365SOL    HW2 7995   5.270   3.464   4.319
 2366SOL     OW 7996   2.294   4.083   5.764
 2366SOL    HW1 7997   2.328   4.003   5.815
 2366SOL    HW2 7998   2.317   4.074   5.668
 2367SOL     OW 7999   0.811   3.693   6.263
 2367SOL    HW1 8000   0.863   3.625   6.211
 2367SOL    HW2 8001   0.775   3.762   6.201
 2368SOL     OW 8002   5.594   0.439   4.238
 2368SOL    HW1 8003   5.527   0.381   4.193
 2368SOL    HW2 8004   5.665   0.382   4.280
 2369SOL     OW 8005   3.196   1.707   3.644
 2369SOL    HW1 8006   3.213   1.650   3.725
 2369SOL    HW2 8007   3.282   1.743   3.610
 2370SOL     OW 8008   4.552   2.617   0.947
 2370SOL    HW1 8009   4.475   2.632   1.008
 2370SOL    HW2 8010   4.611   2.545   0.985
 2371SOL     OW 8011   0.708   6.527   2.871
 2371SOL    HW1 8012   0.703   6.441   2.922
 2371SOL    HW2 8013   0.773   6.518   2.796
 2372SOL     OW 8014   6.241   1.541   5.814
 2372SOL    HW1 8015   6.279   1.531   5.722
 2372SOL    HW2 8016   6.293   1.485   5.878
 2373SOL     OW 8017   6.664   0.734   6.256
 2373SOL    HW1 8018   6.571   0.770   6.248
 2373SOL    HW2 8019   6.668   0.673   6.336
 2374SOL     OW 8020   5.691   6.064   3.096
 2374SOL    HW1 8021   5.643   6.020   3.172
 2374SOL    HW2 8022   5.714   5.994   3.027
 2375SOL     OW 8023   0.975   0.514   3.701
 2375SOL    HW1 8024   0.962   0.437   3.764
 2375SOL    HW2 8025   0.894   0.524   3.643
 2376SOL     OW 8026   6.636   2.664   3.175
 2376SOL    HW1 8027   6.690   2.630   3.251
 2376SOL    HW2 8028   6.546   2.620   3.176
 2377SOL     OW 8029   3.991   4.901   6.607
 2377SOL    HW1 8030   3.995   4.947   6.518
 2377SOL    HW2 8031   3.960   4.966   6.677
 2378SOL     OW 8032   6.021   2.366   0.280
 2378SOL    HW1 8033   5.953   2.439   0.275
 2378SOL    HW2 8034   5.982   2.287   0.326
 2379SOL     OW 8035   0.084   5.382   0.383
 2379SOL    HW1 8036   0.094   5.463   0.326
 2379SOL    HW2 8037   0.160   5.377   0.448
 2380SOL     OW 8038   5.772   3.601   5.441
 2380SOL    HW1 8039   5.716   3.660   5.499
 2380SOL    HW2 8040   5.850   3.652   5.406
 2381SOL     OW 8041   2.420   4.765   5.080
 2381SOL    HW1 8042   2.417   4.797   5.175
 2381SOL    HW2 8043   2.350   4.695   5.066
 2382SOL     OW 8044   1.832   5.932   2.814
 2382SOL    HW1 8045   1.932   5.925   2.820
 2382SOL    HW2 8046   1.806   6.029   2.816
 2383SOL     OW 8047   5.268   6.075   5.798
 2383SOL    HW1 8048   5.195   6.135   5.765
 2383SOL    HW2 8049   5.264   6.069   5.898
 2384SOL     OW 8050   0.833   2.249   1.672
 2384SOL    HW1 8051   0.822   2.169   1.613
 2384SOL    HW2 8052   0.931   2.264   1.690
 2385SOL     OW 8053   0.765   1.928   0.495
 2385SOL    HW1 8054   0.809   1.885   0.416
 2385SOL    HW2 8055   0.677   1.965   0.469
 2386SOL     OW 8056   3.281   5.324   4.351
 2386SOL    HW1 8057   3.307   5.408   4.304
 2386SOL    HW2 8058   3.193   5.337   4.396
 2387SOL     OW 8059   0.748   2.480   3.303
 2387SOL    HW1 8060   0.702   2.535   3.372
 2387SOL    HW2 8061   0.844   2.508   3.297
 2388SOL     OW 8062   6.790   2.106   6.297
 2388SOL    HW1 8063   6.754   2.018   6.329
 2388SOL    HW2 8064   6.879   2.122   6.339
 2389SOL     OW 8065   5.440   4.763   4.664
 2389SOL    HW1 8066   5.481   4.760   4.573
 2389SOL    HW2 8067   5.486   4.698   4.724
 2390SOL     OW 8068   4.510   3.248   6.293
 2390SOL    HW1 8069   4.425   3.252   6.241
 2390SOL    HW2 8070   4.544   3.154   6.296
 2391SOL     OW 8071   3.577   3.642   6.346
 2391SOL    HW1 8072   3.663   3.592   6.343
 2391SOL    HW2 8073   3.534   3.641   6.255
 2392SOL     OW 8074   3.141   5.381   5.835
 2392SOL    HW1 8075   3.111   5.320   5.761
 2392SOL    HW2 8076   3.233   5.354   5.865
 2393SOL     OW 8077   3.881   5.419   1.676
 2393SOL    HW1 8078   3.963   5.384   1.630
 2393SOL    HW2 8079   3.906   5.455   1.766
 2394SOL     OW 8080   7.000   3.738   3.357
 2394SOL    HW1 8081   0.003   3.670   3.424
 2394SOL    HW2 8082   6.970   3.821   3.404
 2395SOL     OW 8083   0.172   3.494   6.464
 2395SOL    HW1 8084   0.259   3.449   6.486
 2395SOL    HW2 8085   0.163   3.503   6.365
 2396SOL     OW 8086   5.372   0.618   5.136
 2396SOL    HW1 8087   5.441   0.617   5.063
 2396SOL    HW2 8088   5.303   0.686   5.115
 2397SOL     OW 8089   0.889   5.346   5.646
 2397SOL    HW1 8090   0.974   5.312   5.604
 2397SOL    HW2 8091   0.874   5.299   5.734
 2398SOL     OW 8092   2.703   5.484   3.457
 2398SOL    HW1 8093   2.676   5.571   3.498
 2398SOL    HW2 8094   2.661   5.409   3.508
 2399SOL     OW 8095   2.557   2.513   3.761
 2399SOL    HW1 8096   2.645   2.560   3.748
 2399SOL    HW2 8097   2.537   2.506   3.859
 2400SOL     OW 8098   2.053   3.978   0.121
 2400SOL    HW1 8099   2.121   3.978   0.194
 2400SOL    HW2 8100   2.044   3.885   0.084
 2401SOL     OW 8101   3.473   0.130   4.481
 2401SOL    HW1 8102   3.561   0.166   4.450
 2401SOL    HW2 8103   3.402   0.198   4.462
 2402SOL     OW 8104   0.787   2.122   2.428
 2402SOL    HW1 8105   0.799   2.030   2.389
 2402SOL    HW2 8106   0.804   2.119   2.527
 2403SOL     OW 8107   3.815   3.279   1.229
 2403SOL    HW1 8108   3.833   3.199   1.172
 2403SOL    HW2 8109   3.735   3.327   1.194
 2404SOL     OW 8110   6.510   1.627   1.630
 2404SOL    HW1 8111   6.580   1.563   1.661
 2404SOL    HW2 8112   6.487   1.690   1.705
 2405SOL     OW 8113   2.491   4.663   6.722
 2405SOL    HW1 8114   2.574   4.666   6.665
 2405SOL    HW2 8115   2.462   4.569   6.734
 2406SOL     OW 8116   1.584   0.797   3.758
 2406SOL    HW1 8117   1.571   0.895   3.742
 2406SOL    HW2 8118   1.612   0.782   3.853
 2407SOL     OW 8119   4.183   1.945   3.512
 2407SOL    HW1 8120   4.277   1.921   3.487
 2407SOL    HW2 8121   4.121   1.871   3.484
 2408SOL     OW 8122   2.166   5.958   3.439
 2408SOL    HW1 8123   2.209   5.990   3.354
 2408SOL    HW2 8124   2.073   5.927   3.420
 2409SOL     OW 8125   2.409   2.957   1.077
 2409SOL    HW1 8126   2.330   2.944   1.018
 2409SOL    HW2 8127   2.490   2.977   1.022
 2410SOL     OW 8128   6.007   3.375   5.951
 2410SOL    HW1 8129   5.953   3.312   6.008
 2410SOL    HW2 8130   5.965   3.381   5.860
 2411SOL     OW 8131   2.868   4.413   6.567
 2411SOL    HW1 8132   2.958   4.447   6.538
 2411SOL    HW2 8133   2.877   4.320   6.601
 2412SOL     OW 8134   2.969   2.889   6.827
 2412SOL    HW1 8135   3.034   2.839   6.884
 2412SOL    HW2 8136   2.949   2.836   6.744
 2413SOL     OW 8137   7.005   3.358   5.869
 2413SOL    HW1 8138   6.963   3.336   5.957
 2413SOL    HW2 8139   0.078   3.365   5.880
 2414SOL     OW 8140   5.627   2.614   3.880
 2414SOL    HW1 8141   5.628   2.692   3.943
 2414SOL    HW2 8142   5.634   2.529   3.932
 2415SOL     OW 8143   2.367   6.823   0.494
 2415SOL    HW1 8144   2.404   6.849   0.405
 2415SOL    HW2 8145   2.323   6.733   0.487
 2416SOL     OW 8146   0.400   3.499   2.780
 2416SOL    HW1 8147   0.353   3.442   2.711
 2416SOL    HW2 8148   0.457   3.440   2.837
 2417SOL     OW 8149   4.810   2.445   6.872
 2417SOL    HW1 8150   4.868   2.365   6.886
 2417SOL    HW2 8151   4.864   2.518   6.830
 2418SOL     OW 8152   4.028   4.258   5.368
 2418SOL    HW1 8153   4.041   4.357   5.363
 2418SOL    HW2 8154   4.034   4.219   5.276
 2419SOL     OW 8155   1.776   6.941   4.548
 2419SOL    HW1 8156   1.679   6.930   4.568
 2419SOL    HW2 8157   1.830   6.907   4.624
 2420SOL     OW 8158   3.535   5.921   2.254
 2420SOL    HW1 8159   3.455   5.975   2.280
 2420SOL    HW2 8160   3.507   5.826   2.241
 2421SOL     OW 8161   3.528   6.330   3.848
 2421SOL    HW1 8162   3.621   6.353   3.879
 2421SOL    HW2 8163   3.494   6.403   3.789
 2422SOL     OW 8164   3.687   6.810   1.338
 2422SOL    HW1 8165   3.776   6.837   1.373
 2422SOL    HW2 8166   3.663   6.720   1.374
 2423SOL     OW 8167   2.262   5.182   1.709
 2423SOL    HW1 8168   2.316   5.253   1.664
 2423SOL    HW2 8169   2.187   5.154   1.648
 2424SOL     OW 8170   5.391   6.717   0.031
 2424SOL    HW1 8171   5.352   6.730   0.122
 2424SOL    HW2 8172   5.439   6.801   0.003
 2425SOL     OW 8173   5.185   5.371   5.526
 2425SOL    HW1 8174   5.257   5.343   5.589
 2425SOL    HW2 8175   5.189   5.471   5.514
 2426SOL     OW 8176   1.448   5.940   5.010
 2426SOL    HW1 8177   1.544   5.961   4.989
 2426SOL    HW2 8178   1.403   5.903   4.928
 2427SOL     OW 8179   4.764   6.331   6.394
 2427SOL    HW1 8180   4.693   6.263   6.412
 2427SOL    HW2 8181   4.723   6.411   6.349
 2428SOL     OW 8182   0.096   1.279   3.473
 2428SOL    HW1 8183   0.134   1.370   3.458
 2428SOL    HW2 8184   0.001   1.287   3.501
 2429SOL     OW 8185   5.544   5.112   2.380
 2429SOL    HW1 8186   5.633   5.066   2.385
 2429SOL    HW2 8187   5.472   5.043   2.384
 2430SOL     OW 8188   5.873   2.253   0.698
 2430SOL    HW1 8189   5.778   2.226   0.717
 2430SOL    HW2 8190   5.877   2.351   0.680
 2431SOL     OW 8191   6.168   1.957   2.036
 2431SOL    HW1 8192   6.161   2.032   2.102
 2431SOL    HW2 8193   6.199   1.874   2.082
 2432SOL     OW 8194   3.252   5.243   1.787
 2432SOL    HW1 8195   3.312   5.206   1.715
 2432SOL    HW2 8196   3.261   5.343   1.788
 2433SOL     OW 8197   0.455   5.619   6.910
 2433SOL    HW1 8198   0.487   5.666   6.992
 2433SOL    HW2 8199   0.529   5.564   6.871
 2434SOL     OW 8200   4.273   2.342   2.467
 2434SOL    HW1 8201   4.254   2.246   2.487
 2434SOL    HW2 8202   4.193   2.398   2.491
 2435SOL     OW 8203   5.648   6.027   0.104
 2435SOL    HW1 8204   5.713   5.976   0.160
 2435SOL    HW2 8205   5.698   6.095   0.049
 2436SOL     OW 8206   1.666   1.164   1.273
 2436SOL    HW1 8207   1.762   1.135   1.271
 2436SOL    HW2 8208   1.624   1.147   1.185
 2437SOL     OW 8209   5.831   5.656   2.308
 2437SOL    HW1 8210   5.884   5.669   2.224
 2437SOL    HW2 8211   5.883   5.602   2.373
 2438SOL     OW 8212   3.978   1.852   4.821
 2438SOL    HW1 8213   3.912   1.787   4.784
 2438SOL    HW2 8214   3.975   1.937   4.769
 2439SOL     OW 8215   0.156   5.877   6.701
 2439SOL    HW1 8216   0.132   5.899   6.607
 2439SOL    HW2 8217   0.256   5.872   6.709
 2440SOL     OW 8218   4.403   0.766   4.437
 2440SOL    HW1 8219   4.417   0.844   4.498
 2440SOL    HW2 8220   4.470   0.695   4.458
 2441SOL     OW 8221   5.462   0.659   6.863
 2441SOL    HW1 8222   5.489   0.563   6.869
 2441SOL    HW2 8223   5.454   0.698   6.955
 2442SOL     OW 8224   5.478   3.454   2.181
 2442SOL    HW1 8225   5.388   3.443   2.222
 2442SOL    HW2 8226   5.548   3.413   2.240
 2443SOL     OW 8227   2.352   1.153   6.558
 2443SOL    HW1 8228   2.388   1.216   6.627
 2443SOL    HW2 8229   2.267   1.111   6.592
 2444SOL     OW 8230   4.055   4.873   0.361
 2444SOL    HW1 8231   3.982   4.846   0.424
 2444SOL    HW2 8232   4.136   4.816   0.377
 2445SOL     OW 8233   6.169   1.647   2.095
 2445SOL    HW1 8234   6.210   1.637   2.186
 2445SOL    HW2 8235   6.224   1.597   2.028
 2446SOL     OW 8236   1.015   2.505   2.101
 2446SOL    HW1 8237   1.048   2.557   2.179
 2446SOL    HW2 8238   0.973   2.566   2.034
 2447SOL     OW 8239   2.164   0.511   0.773
 2447SOL    HW1 8240   2.217   0.594   0.755
 2447SOL    HW2 8241   2.227   0.438   0.800
 2448SOL     OW 8242   6.265   2.447   4.148
 2448SOL    HW1 8243   6.190   2.454   4.213
 2448SOL    HW2 8244   6.228   2.449   4.055
 2449SOL     OW 8245   1.197   4.024   1.889
 2449SOL    HW1 8246   1.222   3.976   1.973
 2449SOL    HW2 8247   1.269   4.012   1.821
 2450SOL     OW 8248   3.288   5.180   6.944
 2450SOL    HW1 8249   3.315   5.249   7.012
 2450SOL    HW2 8250   3.206   5.212   6.896
 2451SOL     OW 8251   0.802   6.952   4.142
 2451SOL    HW1 8252   0.843   6.893   4.211
 2451SOL    HW2 8253   0.832   0.021   4.156
 2452SOL     OW 8254   2.314   2.269   3.093
 2452SOL    HW1 8255   2.319   2.364   3.123
 2452SOL    HW2 8256   2.239   2.223   3.141
 2453SOL     OW 8257   6.881   2.548   0.670
 2453SOL    HW1 8258   6.968   2.554   0.718
 2453SOL    HW2 8259   6.810   2.594   0.723
 2454SOL     OW 8260   3.060   5.719   6.989
 2454SOL    HW1 8261   3.010   5.785   0.019
 2454SOL    HW2 8262   3.151   5.706   0.001
 2455SOL     OW 8263   3.658   1.140   0.418
 2455SOL    HW1 8264   3.578   1.197   0.437
 2455SOL    HW2 8265   3.634   1.071   0.349
 2456SOL     OW 8266   0.727   3.488   6.895
 2456SOL    HW1 8267   0.740   3.580   6.930
 2456SOL    HW2 8268   0.748   3.421   6.966
 2457SOL     OW 8269   5.948   0.994   5.670
 2457SOL    HW1 8270   5.859   1.038   5.657
 2457SOL    HW2 8271   5.940   0.923   5.740
 2458SOL     OW 8272   0.903   0.578   3.458
 2458SOL    HW1 8273   0.998   0.575   3.489
 2458SOL    HW2 8274   0.883   0.668   3.421
 2459SOL     OW 8275   3.198   6.285   5.531
 2459SOL    HW1 8276   3.234   6.201   5.489
 2459SOL    HW2 8277   3.139   6.332   5.466
 2460SOL     OW 8278   1.194   0.772   0.520
 2460SOL    HW1 8279   1.215   0.695   0.460
 2460SOL    HW2 8280   1.098   0.798   0.509
 2461SOL     OW 8281   4.768   6.956   4.172
 2461SOL    HW1 8282   4.854   6.981   4.129
 2461SOL    HW2 8283   4.754   6.857   4.163
 2462SOL     OW 8284   1.454   5.129   0.608
 2462SOL    HW1 8285   1.413   5.126   0.699
 2462SOL    HW2 8286   1.392   5.177   0.546
 2463SOL     OW 8287   6.351   1.781   0.544
 2463SOL    HW1 8288   6.434   1.734   0.575
 2463SOL    HW2 8289   6.376   1.864   0.495
 2464SOL     OW 8290   1.248   2.866   2.676
 2464SOL    HW1 8291   1.276   2.961   2.683
 2464SOL    HW2 8292   1.183   2.844   2.748
 2465SOL     OW 8293   0.026   6.094   6.222
 2465SOL    HW1 8294   0.012   5.997   6.202
 2465SOL    HW2 8295   0.092   6.132   6.157
 2466SOL     OW 8296   1.472   1.830   2.496
 2466SOL    HW1 8297   1.508   1.747   2.453
 2466SOL    HW2 8298   1.497   1.831   2.593
 2467SOL     OW 8299   4.901   2.166   5.947
 2467SOL    HW1 8300   4.803   2.148   5.947
 2467SOL    HW2 8301   4.935   2.169   5.853
 2468SOL     OW 8302   4.223   0.027   0.110
 2468SOL    HW1 8303   4.222   0.087   0.030
 2468SOL    HW2 8304   4.150   0.054   0.173
 2469SOL     OW 8305   3.857   3.257   5.715
 2469SOL    HW1 8306   3.950   3.238   5.684
 2469SOL    HW2 8307   3.832   3.191   5.786
 2470SOL     OW 8308   3.946   5.350   6.316
 2470SOL    HW1 8309   4.009   5.428   6.314
 2470SOL    HW2 8310   3.989   5.272   6.271
 2471SOL     OW 8311   2.963   6.951   0.286
 2471SOL    HW1 8312   2.995   0.015   0.256
 2471SOL    HW2 8313   2.864   6.954   0.300
 2472SOL     OW 8314   4.039   2.168   3.475
 2472SOL    HW1 8315   3.960   2.198   3.529
 2472SOL    HW2 8316   4.078   2.086   3.515
 2473SOL     OW 8317   1.290   4.345   5.637
 2473SOL    HW1 8318   1.389   4.361   5.633
 2473SOL    HW2 8319   1.273   4.249   5.661
 2474SOL     OW 8320   1.139   5.381   0.963
 2474SOL    HW1 8321   1.233   5.409   0.986
 2474SOL    HW2 8322   1.111   5.427   0.878
 2475SOL     OW 8323   4.672   0.413   1.836
 2475SOL    HW1 8324   4.587   0.463   1.819
 2475SOL    HW2 8325   4.654   0.336   1.897
 2476SOL     OW 8326   5.647   0.215   2.572
 2476SOL    HW1 8327   5.583   0.144   2.602
 2476SOL    HW2 8328   5.652   0.215   2.472
 2477SOL     OW 8329   3.955   0.895   3.198
 2477SOL    HW1 8330   3.926   0.925   3.107
 2477SOL    HW2 8331   3.906   0.811   3.222
 2478SOL     OW 8332   5.473   1.169   2.022
 2478SOL    HW1 8333   5.387   1.173   1.970
 2478SOL    HW2 8334   5.522   1.256   2.011
 2479SOL     OW 8335   1.242   3.162   1.893
 2479SOL    HW1 8336   1.194   3.218   1.825
 2479SOL    HW2 8337   1.266   3.074   1.853
 2480SOL     OW 8338   4.115   2.763   1.033
 2480SOL    HW1 8339   4.039   2.759   1.098
 2480SOL    HW2 8340   4.163   2.850   1.044
 2481SOL     OW 8341   3.050   6.701   1.261
 2481SOL    HW1 8342   3.059   6.691   1.360
 2481SOL    HW2 8343   2.954   6.691   1.236
 2482SOL     OW 8344   5.552   3.363   6.629
 2482SOL    HW1 8345   5.551   3.324   6.537
 2482SOL    HW2 8346   5.499   3.306   6.691
 2483SOL     OW 8347   1.907   1.187   6.549
 2483SOL    HW1 8348   1.861   1.248   6.484
 2483SOL    HW2 8349   1.839   1.131   6.595
 2484SOL     OW 8350   3.420   0.831   0.392
 2484SOL    HW1 8351   3.424   0.930   0.408
 2484SOL    HW2 8352   3.355   0.790   0.456
 2485SOL     OW 8353   5.234   3.079   0.782
 2485SOL    HW1 8354   5.196   3.114   0.868
 2485SOL    HW2 8355   5.301   3.008   0.802
 2486SOL     OW 8356   1.407   5.190   5.723
 2486SOL    HW1 8357   1.424   5.282   5.688
 2486SOL    HW2 8358   1.442   5.123   5.659
 2487SOL     OW 8359   4.402   6.510   0.172
 2487SOL    HW1 8360   4.448   6.573   0.234
 2487SOL    HW2 8361   4.303   6.517   0.184
 2488SOL     OW 8362   0.633   3.821   1.961
 2488SOL    HW1 8363   0.721   3.780   1.986
 2488SOL    HW2 8364   0.583   3.758   1.902
 2489SOL     OW 8365   0.963   5.958   3.911
 2489SOL    HW1 8366   0.916   5.953   3.822
 2489SOL    HW2 8367   1.034   6.029   3.907
 2490SOL     OW 8368   0.527   5.348   0.969
 2490SOL    HW1 8369   0.579   5.262   0.963
 2490SOL    HW2 8370   0.468   5.345   1.050
 2491SOL     OW 8371   3.173   4.278   0.276
 2491SOL    HW1 8372   3.197   4.371   0.250
 2491SOL    HW2 8373   3.090   4.279   0.333
 2492SOL     OW 8374   4.436   4.121   0.814
 2492SOL    HW1 8375   4.342   4.149   0.796
 2492SOL    HW2 8376   4.472   4.073   0.735
 2493SOL     OW 8377   6.358   0.071   1.876
 2493SOL    HW1 8378   6.343   0.010   1.798
 2493SOL    HW2 8379   6.455   0.070   1.900
 2494SOL     OW 8380   5.387   4.153   2.745
 2494SOL    HW1 8381   5.414   4.246   2.720
 2494SOL    HW2 8382   5.463   4.090   2.730
 2495SOL     OW 8383   5.171   5.925   3.775
 2495SOL    HW1 8384   5.103   5.927   3.849
 2495SOL    HW2 8385   5.138   5.867   3.701
 2496SOL     OW 8386   0.330   2.899   7.001
 2496SOL    HW1 8387   0.233   2.923   7.002
 2496SOL    HW2 8388   0.371   2.930   6.915
 2497SOL     OW 8389   0.700   0.244   0.924
 2497SOL    HW1 8390   0.766   0.214   0.993
 2497SOL    HW2 8391   0.607   0.223   0.954
 2498SOL     OW 8392   2.829   2.228   5.292
 2498SOL    HW1 8393   2.759   2.279   5.241
 2498SOL    HW2 8394   2.872   2.289   5.359
 2499SOL     OW 8395   5.884   3.449   2.351
 2499SOL    HW1 8396   5.973   3.417   2.382
 2499SOL    HW2 8397   5.888   3.548   2.336
 2500SOL     OW 8398   3.578   4.219   6.614
 2500SOL    HW1 8399   3.659   4.160   6.620
 2500SOL    HW2 8400   3.556   4.254   6.705
 2501SOL     OW 8401   5.203   5.267   0.649
 2501SOL    HW1 8402   5.137   5.232   0.583
 2501SOL    HW2 8403   5.165   5.259   0.742
 2502SOL     OW 8404   0.993   0.442   4.551
 2502SOL    HW1 8405   1.047   0.485   4.478
 2502SOL    HW2 8406   0.977   0.346   4.528
 2503SOL     OW 8407   2.385   6.789   4.237
 2503SOL    HW1 8408   2.473   6.784   4.286
 2503SOL    HW2 8409   2.312   6.811   4.302
 2504SOL     OW 8410   3.673   5.573   4.020
 2504SOL    HW1 8411   3.759   5.563   4.069
 2504SOL    HW2 8412   3.684   5.641   3.947
 2505SOL     OW 8413   0.130   6.954   2.840
 2505SOL    HW1 8414   0.151   6.987   2.932
 2505SOL    HW2 8415   0.159   7.021   2.772
 2506SOL     OW 8416   0.003   3.717   6.342
 2506SOL    HW1 8417   0.037   3.684   6.430
 2506SOL    HW2 8418   6.937   3.756   6.355
 2507SOL     OW 8419   6.386   3.049   0.164
 2507SOL    HW1 8420   6.416   2.963   0.125
 2507SOL    HW2 8421   6.412   3.124   0.103
 2508SOL     OW 8422   2.830   1.502   3.469
 2508SOL    HW1 8423   2.877   1.517   3.556
 2508SOL    HW2 8424   2.865   1.419   3.426
 2509SOL     OW 8425   0.215   4.155   0.643
 2509SOL    HW1 8426   0.304   4.136   0.601
 2509SOL    HW2 8427   0.157   4.202   0.577
 2510SOL     OW 8428   2.415   4.964   0.937
 2510SOL    HW1 8429   2.319   4.936   0.933
 2510SOL    HW2 8430   2.446   4.965   1.032
 2511SOL     OW 8431   3.691   2.095   3.944
 2511SOL    HW1 8432   3.735   2.135   4.024
 2511SOL    HW2 8433   3.598   2.131   3.934
 2512SOL     OW 8434   4.392   3.953   5.318
 2512SOL    HW1 8435   4.408   3.881   5.251
 2512SOL    HW2 8436   4.477   3.971   5.369
 2513SOL     OW 8437   2.168   4.852   4.954
 2513SOL    HW1 8438   2.210   4.920   5.014
 2513SOL    HW2 8439   2.205   4.761   4.975
 2514SOL     OW 8440   0.481   3.871   5.168
 2514SOL    HW1 8441   0.516   3.886   5.076
 2514SOL    HW2 8442   0.530   3.793   5.209
 2515SOL     OW 8443   1.254   6.769   0.485
 2515SOL    HW1 8444   1.281   6.859   0.521
 2515SOL    HW2 8445   1.332   6.706   0.492
 2516SOL     OW 8446   5.057   1.504   3.038
 2516SOL    HW1 8447   5.062   1.604   3.035
 2516SOL    HW2 8448   4.998   1.472   2.964
 2517SOL     OW 8449   1.015   0.194   6.592
 2517SOL    HW1 8450   1.076   0.266   6.558
 2517SOL    HW2 8451   0.990   0.214   6.687
 2518SOL     OW 8452   1.817   5.572   0.790
 2518SOL    HW1 8453   1.777   5.652   0.746
 2518SOL    HW2 8454   1.917   5.575   0.780
 2519SOL     OW 8455   3.526   6.619   1.902
 2519SOL    HW1 8456   3.489   6.534   1.864
 2519SOL    HW2 8457   3.608   6.598   1.956
 2520SOL     OW 8458   3.150   1.576   0.871
 2520SOL    HW1 8459   3.188   1.665   0.847
 2520SOL    HW2 8460   3.179   1.508   0.805
 2521SOL     OW 8461   3.068   0.471   5.351
 2521SOL    HW1 8462   2.969   0.468   5.368
 2521SOL    HW2 8463   3.104   0.378   5.356
 2522SOL     OW 8464   0.466   2.234   5.472
 2522SOL    HW1 8465   0.419   2.174   5.537
 2522SOL    HW2 8466   0.428   2.326   5.479
 2523SOL     OW 8467   0.984   2.587   0.806
 2523SOL    HW1 8468   0.918   2.628   0.870
 2523SOL    HW2 8469   1.070   2.571   0.853
 2524SOL     OW 8470   0.030   6.521   5.159
 2524SOL    HW1 8471   0.013   6.577   5.240
 2524SOL    HW2 8472   6.998   6.440   5.162
 2525SOL     OW 8473   1.020   2.270   5.320
 2525SOL    HW1 8474   1.063   2.271   5.411
 2525SOL    HW2 8475   1.048   2.187   5.271
 2526SOL     OW 8476   1.701   5.104   6.252
 2526SOL    HW1 8477   1.798   5.079   6.248
 2526SOL    HW2 8478   1.692   5.203   6.243
 2527SOL     OW 8479   5.855   6.475   6.064
 2527SOL    HW1 8480   5.921   6.547   6.083
 2527SOL    HW2 8481   5.880   6.428   5.979
 2528SOL     OW 8482   6.485   4.920   0.134
 2528SOL    HW1 8483   6.418   4.857   0.175
 2528SOL    HW2 8484   6.438   4.988   0.078
 2529SOL     OW 8485   6.237   6.308   6.322
 2529SOL    HW1 8486   6.192   6.396   6.341
 2529SOL    HW2 8487   6.285   6.277   6.404
 2530SOL     OW 8488   2.796   6.342   4.338
 2530SOL    HW1 8489   2.710   6.329   4.289
 2530SOL    HW2 8490   2.871   6.299   4.288
 2531SOL     OW 8491   5.559   5.835   4.702
 2531SOL    HW1 8492   5.614   5.888   4.766
 2531SOL    HW2 8493   5.465   5.828   4.736
 2532SOL     OW 8494   0.014   6.091   0.357
 2532SOL    HW1 8495   0.067   6.175   0.343
 2532SOL    HW2 8496   0.044   6.047   0.442
 2533SOL     OW 8497   3.947   6.738   4.111
 2533SOL    HW1 8498   3.867   6.763   4.166
 2533SOL    HW2 8499   3.948   6.793   4.028
 2534SOL     OW 8500   3.713   1.288   2.092
 2534SOL    HW1 8501   3.748   1.319   2.004
 2534SOL    HW2 8502   3.626   1.332   2.111
 2535SOL     OW 8503   3.024   3.070   5.673
 2535SOL    HW1 8504   3.124   3.079   5.678
 2535SOL    HW2 8505   3.001   2.979   5.638
 2536SOL     OW 8506   1.089   1.668   5.170
 2536SOL    HW1 8507   1.185   1.641   5.174
 2536SOL    HW2 8508   1.082   1.767   5.173
 2537SOL     OW 8509   3.568   0.315   6.415
 2537SOL    HW1 8510   3.472   0.334   6.438
 2537SOL    HW2 8511   3.578   0.310   6.316
 2538SOL     OW 8512   0.792   4.093   3.362
 2538SOL    HW1 8513   0.818   4.048   3.447
 2538SOL    HW2 8514   0.861   4.073   3.291
 2539SOL     OW 8515   5.964   1.103   4.698
 2539SOL    HW1 8516   6.020   1.164   4.754
 2539SOL    HW2 8517   6.006   1.013   4.693
 2540SOL     OW 8518   3.953   1.870   2.920
 2540SOL    HW1 8519   3.866   1.888   2.965
 2540SOL    HW2 8520   3.956   1.917   2.832
 2541SOL     OW 8521   2.563   0.495   4.911
 2541SOL    HW1 8522   2.560   0.567   4.842
 2541SOL    HW2 8523   2.644   0.506   4.968
 2542SOL     OW 8524   3.155   2.799   5.928
 2542SOL    HW1 8525   3.215   2.852   5.867
 2542SOL    HW2 8526   3.173   2.701   5.915
 2543SOL     OW 8527   0.926   0.610   3.157
 2543SOL    HW1 8528   0.839   0.651   3.131
 2543SOL    HW2 8529   0.935   0.611   3.256
 2544SOL     OW 8530   0.462   5.799   1.052
 2544SOL    HW1 8531   0.509   5.887   1.059
 2544SOL    HW2 8532   0.508   5.732   1.110
 2545SOL     OW 8533   0.819   0.026   2.262
 2545SOL    HW1 8534   0.720   0.011   2.269
 2545SOL    HW2 8535   0.846   0.102   2.322
 2546SOL     OW 8536   6.647   0.820   2.054
 2546SOL    HW1 8537   6.560   0.864   2.077
 2546SOL    HW2 8538   6.642   0.723   2.078
 2547SOL     OW 8539   6.787   4.454   0.246
 2547SOL    HW1 8540   6.797   4.533   0.307
 2547SOL    HW2 8541   6.808   4.370   0.297
 2548SOL     OW 8542   0.874   6.955   5.537
 2548SOL    HW1 8543   0.917   6.888   5.598
 2548SOL    HW2 8544   0.774   6.943   5.540
 2549SOL     OW 8545   1.769   0.112   1.175
 2549SOL    HW1 8546   1.746   0.209   1.183
 2549SOL    HW2 8547   1.687   0.061   1.148
 2550SOL     OW 8548   0.446   0.716   6.600
 2550SOL    HW1 8549   0.370   0.710   6.664
 2550SOL    HW2 8550   0.411   0.727   6.507
 2551SOL     OW 8551   3.163   5.080   0.197
 2551SOL    HW1 8552   3.240   5.143   0.206
 2551SOL    HW2 8553   3.153   5.054   0.101
 2552SOL     OW 8554   1.881   6.184   4.612
 2552SOL    HW1 8555   1.883   6.259   4.546
 2552SOL    HW2 8556   1.832   6.212   4.694
 2553SOL     OW 8557   4.839   3.438   5.941
 2553SOL    HW1 8558   4.755   3.385   5.929
 2553SOL    HW2 8559   4.833   3.491   6.026
 2554SOL     OW 8560   2.173   6.892   0.244
 2554SOL    HW1 8561   2.098   6.899   0.310
 2554SOL    HW2 8562   2.157   6.955   0.168
 2555SOL     OW 8563   5.374   0.045   4.948
 2555SOL    HW1 8564   5.348   0.065   5.042
 2555SOL    HW2 8565   5.393   6.973   4.938
 2556SOL     OW 8566   4.245   6.133   6.895
 2556SOL    HW1 8567   4.307   6.054   6.898
 2556SOL    HW2 8568   4.287   6.207   6.843
 2557SOL     OW 8569   2.146   4.669   6.448
 2557SOL    HW1 8570   2.128   4.732   6.523
 2557SOL    HW2 8571   2.162   4.577   6.485
 2558SOL     OW 8572   5.042   1.722   4.911
 2558SOL    HW1 8573   5.033   1.681   4.821
 2558SOL    HW2 8574   5.080   1.654   4.975
 2559SOL     OW 8575   0.603   3.931   4.929
 2559SOL    HW1 8576   0.539   4.006   4.918
 2559SOL    HW2 8577   0.637   3.902   4.840
 2560SOL     OW 8578   5.521   3.057   4.465
 2560SOL    HW1 8579   5.599   3.098   4.512
 2560SOL    HW2 8580   5.440   3.115   4.477
 2561SOL     OW 8581   3.146   5.816   5.005
 2561SOL    HW1 8582   3.109   5.827   4.913
 2561SOL    HW2 8583   3.071   5.804   5.070
 2562SOL     OW 8584   2.225   5.068   1.242
 2562SOL    HW1 8585   2.145   5.024   1.203
 2562SOL    HW2 8586   2.197   5.143   1.302
 2563SOL     OW 8587   3.730   2.024   0.502
 2563SOL    HW1 8588   3.737   2.022   0.602
 2563SOL    HW2 8589   3.674   2.102   0.474
 2564SOL     OW 8590   2.587   5.663   6.623
 2564SOL    HW1 8591   2.672   5.619   6.593
 2564SOL    HW2 8592   2.509   5.610   6.591
 2565SOL     OW 8593   1.430   6.929   6.973
 2565SOL    HW1 8594   1.337   6.893   6.981
 2565SOL    HW2 8595   1.427   7.020   6.932
 2566SOL     OW 8596   2.411   6.807   1.047
 2566SOL    HW1 8597   2.428   6.906   1.053
 2566SOL    HW2 8598   2.324   6.791   1.001
 2567SOL     OW 8599   1.173   0.498   0.834
 2567SOL    HW1 8600   1.139   0.592   0.829
 2567SOL    HW2 8601   1.124   0.448   0.905
 2568SOL     OW 8602   4.390   1.011   0.047
 2568SOL    HW1 8603   4.358   0.929   7.025
 2568SOL    HW2 8604   4.489   1.018   0.038
 2569SOL     OW 8605   2.967   0.777   2.402
 2569SOL    HW1 8606   2.936   0.734   2.487
 2569SOL    HW2 8607   2.888   0.792   2.342
 2570SOL     OW 8608   5.800   6.986   0.026
 2570SOL    HW1 8609   5.820   6.894   0.059
 2570SOL    HW2 8610   5.883   0.004   7.018
 2571SOL     OW 8611   2.547   4.501   5.188
 2571SOL    HW1 8612   2.459   4.456   5.177
 2571SOL    HW2 8613   2.557   4.572   5.119
 2572SOL     OW 8614   2.286   6.110   0.604
 2572SOL    HW1 8615   2.260   6.152   0.517
 2572SOL    HW2 8616   2.379   6.074   0.597
 2573SOL     OW 8617   0.102   1.598   1.673
 2573SOL    HW1 8618   0.195   1.593   1.636
 2573SOL    HW2 8619   0.043   1.535   1.623
 2574SOL     OW 8620   5.777   3.945   0.379
 2574SOL    HW1 8621   5.752   4.040   0.395
 2574SOL    HW2 8622   5.810   3.904   0.464
 2575SOL     OW 8623   4.885   5.463   0.895
 2575SOL    HW1 8624   4.957   5.523   0.930
 2575SOL    HW2 8625   4.817   5.519   0.846
 2576SOL     OW 8626   4.596   6.568   4.850
 2576SOL    HW1 8627   4.603   6.665   4.875
 2576SOL    HW2 8628   4.675   6.519   4.886
 2577SOL     OW 8629   3.929   6.340   2.384
 2577SOL    HW1 8630   3.907   6.283   2.306
 2577SOL    HW2 8631   3.847   6.354   2.439
 2578SOL     OW 8632   4.772   1.608   4.632
 2578SOL    HW1 8633   4.782   1.536   4.700
 2578SOL    HW2 8634   4.862   1.638   4.601
 2579SOL     OW 8635   1.607   6.756   3.291
 2579SOL    HW1 8636   1.618   6.683   3.225
 2579SOL    HW2 8637   1.528   6.737   3.350
 2580SOL     OW 8638   3.219   4.778   6.430
 2580SOL    HW1 8639   3.142   4.719   6.405
 2580SOL    HW2 8640   3.297   4.721   6.457
 2581SOL     OW 8641   2.259   4.953   1.902
 2581SOL    HW1 8642   2.355   4.952   1.930
 2581SOL    HW2 8643   2.248   5.007   1.818
 2582SOL     OW 8644   0.452   4.389   1.208
 2582SOL    HW1 8645   0.543   4.415   1.175
 2582SOL    HW2 8646   0.453   4.382   1.308
 2583SOL     OW 8647   1.363   1.949   6.177
 2583SOL    HW1 8648   1.344   1.871   6.236
 2583SOL    HW2 8649   1.460   1.972   6.183
 2584SOL     OW 8650   5.091   5.183   6.241
 2584SOL    HW1 8651   5.012   5.169   6.302
 2584SOL    HW2 8652   5.061   5.175   6.146
 2585SOL     OW 8653   3.604   3.268   0.808
 2585SOL    HW1 8654   3.592   3.353   0.757
 2585SOL    HW2 8655   3.702   3.247   0.815
 2586SOL     OW 8656   3.517   0.710   4.952
 2586SOL    HW1 8657   3.433   0.764   4.946
 2586SOL    HW2 8658   3.589   0.755   4.899
 2587SOL     OW 8659   6.204   0.852   3.577
 2587SOL    HW1 8660   6.129   0.880   3.637
 2587SOL    HW2 8661   6.229   0.757   3.597
 2588SOL     OW 8662   5.105   2.290   6.422
 2588SOL    HW1 8663   5.109   2.217   6.355
 2588SOL    HW2 8664   5.116   2.378   6.376
 2589SOL     OW 8665   1.574   6.737   5.451
 2589SOL    HW1 8666   1.514   6.751   5.372
 2589SOL    HW2 8667   1.657   6.689   5.422
 2590SOL     OW 8668   3.643   5.049   0.265
 2590SOL    HW1 8669   3.717   5.057   0.197
 2590SOL    HW2 8670   3.678   5.077   0.354
 2591SOL     OW 8671   6.637   4.589   3.054
 2591SOL    HW1 8672   6.552   4.537   3.060
 2591SOL    HW2 8673   6.709   4.542   3.105
 2592SOL     OW 8674   2.975   5.124   0.398
 2592SOL    HW1 8675   2.988   5.064   0.478
 2592SOL    HW2 8676   3.054   5.115   0.338
 2593SOL     OW 8677   4.436   5.943   6.920
 2593SOL    HW1 8678   4.502   5.965   6.992
 2593SOL    HW2 8679   4.481   5.888   6.849
 2594SOL     OW 8680   1.809   4.143   6.110
 2594SOL    HW1 8681   1.857   4.093   6.038
 2594SOL    HW2 8682   1.840   4.111   6.199
 2595SOL     OW 8683   0.135   0.851   3.994
 2595SOL    HW1 8684   0.233   0.843   4.012
 2595SOL    HW2 8685   0.084   0.832   4.077
 2596SOL     OW 8686   3.066   2.174   1.747
 2596SOL    HW1 8687   3.160   2.187   1.716
 2596SOL    HW2 8688   3.037   2.254   1.799
 2597SOL     OW 8689   0.563   5.454   6.351
 2597SOL    HW1 8690   0.607   5.535   6.388
 2597SOL    HW2 8691   0.473   5.478   6.315
 2598SOL     OW 8692   6.253   1.784   2.987
 2598SOL    HW1 8693   6.330   1.811   2.930
 2598SOL    HW2 8694   6.228   1.859   3.047
 2599SOL     OW 8695   1.312   5.882   0.808
 2599SOL    HW1 8696   1.389   5.946   0.808
 2599SOL    HW2 8697   1.321   5.819   0.731
 2600SOL     OW 8698   5.700   2.604   4.474
 2600SOL    HW1 8699   5.746   2.526   4.516
 2600SOL    HW2 8700   5.654   2.575   4.390
 2601SOL     OW 8701   1.455   1.468   1.541
 2601SOL    HW1 8702   1.444   1.405   1.618
 2601SOL    HW2 8703   1.461   1.561   1.575
 2602SOL     OW 8704   0.841   4.879   4.993
 2602SOL    HW1 8705   0.881   4.899   5.083
 2602SOL    HW2 8706   0.914   4.856   4.929
 2603SOL     OW 8707   2.994   1.274   3.084
 2603SOL    HW1 8708   2.960   1.364   3.109
 2603SOL    HW2 8709   2.988   1.213   3.162
 2604SOL     OW 8710   4.639   2.074   2.932
 2604SOL    HW1 8711   4.630   2.046   2.836
 2604SOL    HW2 8712   4.624   2.172   2.939
 2605SOL     OW 8713   1.558   3.260   2.552
 2605SOL    HW1 8714   1.640   3.317   2.550
 2605SOL    HW2 8715   1.499   3.286   2.475
 2606SOL     OW 8716   6.255   5.119   1.730
 2606SOL    HW1 8717   6.159   5.113   1.705
 2606SOL    HW2 8718   6.309   5.060   1.671
 2607SOL     OW 8719   0.711   1.317   1.241
 2607SOL    HW1 8720   0.787   1.342   1.302
 2607SOL    HW2 8721   0.665   1.236   1.278
 2608SOL     OW 8722   4.031   5.432   0.669
 2608SOL    HW1 8723   4.032   5.396   0.576
 2608SOL    HW2 8724   3.982   5.519   0.671
 2609SOL     OW 8725   6.213   1.614   2.366
 2609SOL    HW1 8726   6.171   1.704   2.375
 2609SOL    HW2 8727   6.158   1.546   2.414
 2610SOL     OW 8728   0.885   4.682   4.368
 2610SOL    HW1 8729   0.885   4.749   4.442
 2610SOL    HW2 8730   0.967   4.694   4.312
 2611SOL     OW 8731   4.706   5.972   0.474
 2611SOL    HW1 8732   4.636   5.975   0.545
 2611SOL    HW2 8733   4.665   5.992   0.385
 2612SOL     OW 8734   6.002   6.522   4.843
 2612SOL    HW1 8735   5.942   6.459   4.794
 2612SOL    HW2 8736   6.057   6.470   4.909
 2613SOL     OW 8737   2.603   5.314   6.048
 2613SOL    HW1 8738   2.519   5.362   6.075
 2613SOL    HW2 8739   2.676   5.380   6.035
 2614SOL     OW 8740   6.820   2.436   0.337
 2614SOL    HW1 8741   6.722   2.419   0.339
 2614SOL    HW2 8742   6.841   2.517   0.391
 2615SOL     OW 8743   0.895   3.459   1.968
 2615SOL    HW1 8744   0.904   3.398   1.890
 2615SOL    HW2 8745   0.813   3.435   2.020
 2616SOL     OW 8746   2.025   1.929   6.140
 2616SOL    HW1 8747   2.072   1.925   6.052
 2616SOL    HW2 8748   2.016   2.025   6.169
 2617SOL     OW 8749   4.588   1.363   0.680
 2617SOL    HW1 8750   4.623   1.287   0.735
 2617SOL    HW2 8751   4.533   1.423   0.737
 2618SOL     OW 8752   6.596   6.896   4.070
 2618SOL    HW1 8753   6.670   6.953   4.107
 2618SOL    HW2 8754   6.525   6.885   4.139
 2619SOL     OW 8755   4.423   1.947   1.738
 2619SOL    HW1 8756   4.494   1.969   1.671
 2619SOL    HW2 8757   4.359   1.881   1.699
 2620SOL     OW 8758   6.597   0.225   3.005
 2620SOL    HW1 8759   6.659   0.255   3.078
 2620SOL    HW2 8760   6.613   0.128   2.986
 2621SOL     OW 8761   1.188   5.403   2.638
 2621SOL    HW1 8762   1.090   5.420   2.628
 2621SOL    HW2 8763   1.203   5.310   2.674
 2622SOL     OW 8764   2.308   3.670   6.190
 2622SOL    HW1 8765   2.306   3.619   6.104
 2622SOL    HW2 8766   2.361   3.753   6.179
 2623SOL     OW 8767   0.955   0.873   5.101
 2623SOL    HW1 8768   1.000   0.923   5.175
 2623SOL    HW2 8769   0.947   0.933   5.021
 2624SOL     OW 8770   0.113   1.990   5.191
 2624SOL    HW1 8771   0.087   1.894   5.199
 2624SOL    HW2 8772   0.111   2.033   5.281
 2625SOL     OW 8773   2.461   3.872   5.780
 2625SOL    HW1 8774   2.538   3.808   5.783
 2625SOL    HW2 8775   2.471   3.933   5.702
 2626SOL     OW 8776   6.680   0.410   6.331
 2626SOL    HW1 8777   6.592   0.410   6.282
 2626SOL    HW2 8778   6.754   0.429   6.266
 2627SOL     OW 8779   1.864   0.968   5.569
 2627SOL    HW1 8780   1.837   0.878   5.605
 2627SOL    HW2 8781   1.831   0.977   5.475
 2628SOL     OW 8782   1.747   3.930   5.436
 2628SOL    HW1 8783   1.710   3.966   5.351
 2628SOL    HW2 8784   1.821   3.989   5.468
 2629SOL     OW 8785   3.862   3.534   2.865
 2629SOL    HW1 8786   3.930   3.461   2.870
 2629SOL    HW2 8787   3.902   3.619   2.899
 2630SOL     OW 8788   3.374   1.522   3.196
 2630SOL    HW1 8789   3.383   1.459   3.119
 2630SOL    HW2 8790   3.465   1.549   3.228
 2631SOL     OW 8791   5.212   0.888   6.483
 2631SOL    HW1 8792   5.230   0.979   6.521
 2631SOL    HW2 8793   5.164   0.898   6.395
 2632SOL     OW 8794   5.636   3.696   0.350
 2632SOL    HW1 8795   5.666   3.792   0.354
 2632SOL    HW2 8796   5.713   3.637   0.373
 2633SOL     OW 8797   6.687   2.235   4.939
 2633SOL    HW1 8798   6.704   2.155   4.881
 2633SOL    HW2 8799   6.701   2.210   5.035
 2634SOL     OW 8800   0.631   5.479   3.566
 2634SOL    HW1 8801   0.546   5.506   3.521
 2634SOL    HW2 8802   0.609   5.430   3.651
 2635SOL     OW 8803   6.751   5.466   4.189
 2635SOL    HW1 8804   6.687   5.539   4.167
 2635SOL    HW2 8805   6.712   5.408   4.261
 2636SOL     OW 8806   4.000   1.028   6.806
 2636SOL    HW1 8807   4.082   1.062   6.851
 2636SOL    HW2 8808   3.926   1.018   6.873
 2637SOL     OW 8809   6.423   1.709   4.096
 2637SOL    HW1 8810   6.363   1.638   4.060
 2637SOL    HW2 8811   6.442   1.776   4.025
 2638SOL     OW 8812   0.261   6.960   4.499
 2638SOL    HW1 8813   0.163   6.943   4.513
 2638SOL    HW2 8814   0.311   6.934   4.582
 2639SOL     OW 8815   6.692   5.760   6.255
 2639SOL    HW1 8816   6.734   5.678   6.294
 2639SOL    HW2 8817   6.605   5.778   6.300
 2640SOL     OW 8818   6.590   0.271   5.244
 2640SOL    HW1 8819   6.661   0.232   5.304
 2640SOL    HW2 8820   6.575   0.367   5.270
 2641SOL     OW 8821   4.962   1.862   1.336
 2641SOL    HW1 8822   4.920   1.856   1.246
 2641SOL    HW2 8823   5.011   1.949   1.344
 2642SOL     OW 8824   6.177   0.031   4.215
 2642SOL    HW1 8825   6.141   0.001   4.304
 2642SOL    HW2 8826   6.106   0.021   4.146
 2643SOL     OW 8827   1.402   3.250   3.492
 2643SOL    HW1 8828   1.369   3.344   3.506
 2643SOL    HW2 8829   1.342   3.186   3.539
 2644SOL     OW 8830   4.321   5.207   5.342
 2644SOL    HW1 8831   4.278   5.162   5.421
 2644SOL    HW2 8832   4.363   5.293   5.372
 2645SOL     OW 8833   5.192   5.015   3.809
 2645SOL    HW1 8834   5.127   5.037   3.737
 2645SOL    HW2 8835   5.174   5.072   3.890
 2646SOL     OW 8836   0.132   2.780   0.364
 2646SOL    HW1 8837   0.153   2.697   0.313
 2646SOL    HW2 8838   0.088   2.756   0.450
 2647SOL     OW 8839   5.830   0.179   1.798
 2647SOL    HW1 8840   5.791   0.270   1.787
 2647SOL    HW2 8841   5.844   0.160   1.895
 2648SOL     OW 8842   0.009   6.836   4.508
 2648SOL    HW1 8843   6.985   6.802   4.428
 2648SOL    HW2 8844   6.974   6.891   4.565
 2649SOL     OW 8845   6.258   3.319   1.519
 2649SOL    HW1 8846   6.204   3.300   1.600
 2649SOL    HW2 8847   6.291   3.414   1.522
 2650SOL     OW 8848   2.549   5.752   4.722
 2650SOL    HW1 8849   2.642   5.749   4.685
 2650SOL    HW2 8850   2.507   5.840   4.700
 2651SOL     OW 8851   2.972   0.926   0.286
 2651SOL    HW1 8852   2.923   0.985   0.221
 2651SOL    HW2 8853   2.946   0.830   0.269
 2652SOL     OW 8854   4.900   3.014   5.580
 2652SOL    HW1 8855   4.805   2.982   5.582
 2652SOL    HW2 8856   4.902   3.113   5.594
 2653SOL     OW 8857   4.664   5.998   5.983
 2653SOL    HW1 8858   4.753   6.019   5.942
 2653SOL    HW2 8859   4.611   5.941   5.920
 2654SOL     OW 8860   4.964   6.101   1.145
 2654SOL    HW1 8861   4.943   6.135   1.237
 2654SOL    HW2 8862   4.938   6.171   1.078
 2655SOL     OW 8863   4.783   5.182   3.921
 2655SOL    HW1 8864   4.772   5.169   4.019
 2655SOL    HW2 8865   4.848   5.115   3.885
 2656SOL     OW 8866   3.561   4.903   3.561
 2656SOL    HW1 8867   3.630   4.933   3.627
 2656SOL    HW2 8868   3.473   4.944   3.583
 2657SOL     OW 8869   1.988   3.458   0.839
 2657SOL    HW1 8870   1.966   3.454   0.742
 2657SOL    HW2 8871   1.910   3.424   0.892
 2658SOL     OW 8872   4.730   4.739   0.061
 2658SOL    HW1 8873   4.663   4.717   7.016
 2658SOL    HW2 8874   4.709   4.688   0.144
 2659SOL     OW 8875   4.706   3.095   5.303
 2659SOL    HW1 8876   4.710   3.069   5.400
 2659SOL    HW2 8877   4.697   3.194   5.296
 2660SOL     OW 8878   0.584   0.514   1.263
 2660SOL    HW1 8879   0.603   0.580   1.191
 2660SOL    HW2 8880   0.576   0.562   1.351
 2661SOL     OW 8881   2.002   6.816   1.445
 2661SOL    HW1 8882   1.921   6.787   1.496
 2661SOL    HW2 8883   2.029   6.908   1.474
 2662SOL     OW 8884   2.347   0.265   3.778
 2662SOL    HW1 8885   2.334   0.294   3.683
 2662SOL    HW2 8886   2.402   0.333   3.826
 2663SOL     OW 8887   4.647   5.439   6.287
 2663SOL    HW1 8888   4.631   5.533   6.318
 2663SOL    HW2 8889   4.560   5.389   6.289
 2664SOL     OW 8890   4.029   3.025   5.438
 2664SOL    HW1 8891   3.979   3.091   5.384
 2664SOL    HW2 8892   4.127   3.043   5.431
 2665SOL     OW 8893   2.324   3.370   5.285
 2665SOL    HW1 8894   2.310   3.458   5.332
 2665SOL    HW2 8895   2.400   3.322   5.328
 2666SOL     OW 8896   1.461   4.363   1.445
 2666SOL    HW1 8897   1.419   4.434   1.388
 2666SOL    HW2 8898   1.416   4.361   1.534
 2667SOL     OW 8899   1.012   5.209   3.852
 2667SOL    HW1 8900   0.977   5.302   3.854
 2667SOL    HW2 8901   0.945   5.149   3.808
 2668SOL     OW 8902   5.932   3.066   4.369
 2668SOL    HW1 8903   5.901   2.977   4.336
 2668SOL    HW2 8904   5.872   3.137   4.333
 2669SOL     OW 8905   3.426   5.676   6.945
 2669SOL    HW1 8906   3.393   5.632   6.862
 2669SOL    HW2 8907   3.511   5.724   6.926
 2670SOL     OW 8908   6.237   2.687   4.806
 2670SOL    HW1 8909   6.263   2.610   4.865
 2670SOL    HW2 8910   6.320   2.732   4.773
 2671SOL     OW 8911   5.019   5.534   6.053
 2671SOL    HW1 8912   5.082   5.515   5.977
 2671SOL    HW2 8913   4.966   5.451   6.073
 2672SOL     OW 8914   3.126   7.010   1.600
 2672SOL    HW1 8915   3.216   0.027   1.609
 2672SOL    HW2 8916   3.055   0.055   1.595
 2673SOL     OW 8917   5.770   1.914   2.262
 2673SOL    HW1 8918   5.835   1.983   2.293
 2673SOL    HW2 8919   5.820   1.839   2.218
 2674SOL     OW 8920   1.488   4.986   4.085
 2674SOL    HW1 8921   1.577   4.941   4.074
 2674SOL    HW2 8922   1.468   5.039   4.003
 2675SOL     OW 8923   0.242   6.575   4.021
 2675SOL    HW1 8924   0.295   6.535   3.946
 2675SOL    HW2 8925   0.281   6.547   4.108
 2676SOL     OW 8926   3.762   3.643   2.525
 2676SOL    HW1 8927   3.670   3.618   2.555
 2676SOL    HW2 8928   3.825   3.567   2.543
 2677SOL     OW 8929   2.807   5.038   1.430
 2677SOL    HW1 8930   2.858   4.951   1.429
 2677SOL    HW2 8931   2.710   5.019   1.417
 2678SOL     OW 8932   0.055   2.417   2.029
 2678SOL    HW1 8933   6.983   2.404   2.047
 2678SOL    HW2 8934   0.108   2.371   2.100
 2679SOL     OW 8935   1.965   4.918   2.695
 2679SOL    HW1 8936   2.004   4.897   2.605
 2679SOL    HW2 8937   1.870   4.889   2.698
 2680SOL     OW 8938   1.150   2.283   0.230
 2680SOL    HW1 8939   1.142   2.374   0.190
 2680SOL    HW2 8940   1.242   2.271   0.268
 2681SOL     OW 8941   1.403   2.760   5.020
 2681SOL    HW1 8942   1.351   2.763   4.935
 2681SOL    HW2 8943   1.353   2.807   5.093
 2682SOL     OW 8944   5.320   3.792   3.368
 2682SOL    HW1 8945   5.282   3.700   3.368
 2682SOL    HW2 8946   5.368   3.808   3.282
 2683SOL     OW 8947   2.190   4.615   2.303
 2683SOL    HW1 8948   2.135   4.534   2.283
 2683SOL    HW2 8949   2.284   4.587   2.324
 2684SOL     OW 8950   5.097   6.940   1.320
 2684SOL    HW1 8951   5.115   6.904   1.412
 2684SOL    HW2 8952   5.184   6.961   1.275
 2685SOL     OW 8953   6.445   4.866   5.279
 2685SOL    HW1 8954   6.419   4.905   5.367
 2685SOL    HW2 8955   6.497   4.781   5.294
 2686SOL     OW 8956   1.018   1.219   5.319
 2686SOL    HW1 8957   1.049   1.129   5.288
 2686SOL    HW2 8958   1.095   1.267   5.361
 2687SOL     OW 8959   3.492   6.360   0.675
 2687SOL    HW1 8960   3.437   6.360   0.759
 2687SOL    HW2 8961   3.471   6.442   0.621
 2688SOL     OW 8962   2.921   1.519   0.538
 2688SOL    HW1 8963   2.843   1.494   0.595
 2688SOL    HW2 8964   2.953   1.610   0.563
 2689SOL     OW 8965   0.412   4.198   2.695
 2689SOL    HW1 8966   0.328   4.144   2.696
 2689SOL    HW2 8967   0.426   4.237   2.604
 2690SOL     OW 8968   3.189   3.278   6.627
 2690SOL    HW1 8969   3.166   3.180   6.622
 2690SOL    HW2 8970   3.107   3.332   6.609
 2691SOL     OW 8971   0.260   4.377   3.510
 2691SOL    HW1 8972   0.224   4.377   3.603
 2691SOL    HW2 8973   0.259   4.284   3.473
 2692SOL     OW 8974   2.090   6.543   3.170
 2692SOL    HW1 8975   2.018   6.482   3.202
 2692SOL    HW2 8976   2.114   6.608   3.242
 2693SOL     OW 8977   1.993   4.587   3.938
 2693SOL    HW1 8978   2.030   4.507   3.986
 2693SOL    HW2 8979   1.987   4.567   3.840
 2694SOL     OW 8980   4.162   6.866   3.239
 2694SOL    HW1 8981   4.112   6.915   3.167
 2694SOL    HW2 8982   4.222   6.798   3.197
 2695SOL     OW 8983   5.898   6.845   2.832
 2695SOL    HW1 8984   5.929   6.878   2.922
 2695SOL    HW2 8985   5.942   6.899   2.760
 2696SOL     OW 8986   4.643   4.009   5.984
 2696SOL    HW1 8987   4.587   4.004   5.902
 2696SOL    HW2 8988   4.693   4.096   5.985
 2697SOL     OW 8989   4.464   1.652   2.492
 2697SOL    HW1 8990   4.510   1.630   2.578
 2697SOL    HW2 8991   4.407   1.575   2.463
 2698SOL     OW 8992   1.863   4.763   6.643
 2698SOL    HW1 8993   1.825   4.714   6.722
 2698SOL    HW2 8994   1.960   4.780   6.657
 2699SOL     OW 8995   2.718   6.039   0.942
 2699SOL    HW1 8996   2.731   6.051   1.040
 2699SOL    HW2 8997   2.625   6.006   0.925
 2700SOL     OW 8998   2.935   1.701   1.028
 2700SOL    HW1 8999   3.021   1.669   0.988
 2700SOL    HW2 9000   2.935   1.682   1.126
 2701SOL     OW 9001   5.037   2.397   5.644
 2701SOL    HW1 9002   4.998   2.446   5.566
 2701SOL    HW2 9003   5.076   2.463   5.708
 2702SOL     OW 9004   1.268   2.016   2.941
 2702SOL    HW1 9005   1.232   2.073   2.868
 2702SOL    HW2 9006   1.360   2.048   2.966
 2703SOL     OW 9007   1.624   5.405   1.593
 2703SOL    HW1 9008   1.712   5.450   1.577
 2703SOL    HW2 9009   1.553   5.450   1.538
 2704SOL     OW 9010   6.913   5.322   2.067
 2704SOL    HW1 9011   6.871   5.337   1.978
 2704SOL    HW2 9012   7.001   5.370   2.071
 2705SOL     OW 9013   6.655   0.997   5.143
 2705SOL    HW1 9014   6.672   0.979   5.240
 2705SOL    HW2 9015   6.742   0.992   5.093
 2706SOL     OW 9016   6.401   4.494   4.425
 2706SOL    HW1 9017   6.492   4.481   4.465
 2706SOL    HW2 9018   6.364   4.581   4.456
 2707SOL     OW 9019   4.184   7.024   4.220
 2707SOL    HW1 9020   4.212   6.995   4.128
 2707SOL    HW2 9021   4.198   6.949   4.284
 2708SOL     OW 9022   6.440   2.784   0.612
 2708SOL    HW1 9023   6.424   2.876   0.576
 2708SOL    HW2 9024   6.439   2.719   0.536
 2709SOL     OW 9025   4.721   0.320   6.598
 2709SOL    HW1 9026   4.779   0.332   6.516
 2709SOL    HW2 9027   4.657   0.245   6.582
 2710SOL     OW 9028   1.938   2.747   3.705
 2710SOL    HW1 9029   1.972   2.655   3.722
 2710SOL    HW2 9030   2.000   2.814   3.746
 2711SOL     OW 9031   3.118   1.279   3.747
 2711SOL    HW1 9032   3.119   1.262   3.648
 2711SOL    HW2 9033   3.206   1.251   3.786
 2712SOL     OW 9034   2.992   5.347   2.017
 2712SOL    HW1 9035   2.913   5.355   2.078
 2712SOL    HW2 9036   2.998   5.428   1.958
 2713SOL     OW 9037   3.834   4.159   6.482
 2713SOL    HW1 9038   3.922   4.159   6.434
 2713SOL    HW2 9039   3.761   4.178   6.417
 2714SOL     OW 9040   3.650   4.057   0.309
 2714SOL    HW1 9041   3.709   4.123   0.261
 2714SOL    HW2 9042   3.557   4.093   0.311
 2715SOL     OW 9043   5.519   2.488   0.696
 2715SOL    HW1 9044   5.603   2.524   0.737
 2715SOL    HW2 9045   5.453   2.469   0.768
 2716SOL     OW 9046   4.852   3.019   3.481
 2716SOL    HW1 9047   4.839   3.112   3.514
 2716SOL    HW2 9048   4.948   2.993   3.488
 2717SOL     OW 9049   0.672   6.624   2.044
 2717SOL    HW1 9050   0.732   6.644   2.122
 2717SOL    HW2 9051   0.600   6.693   2.039
 2718SOL     OW 9052   0.091   1.252   4.761
 2718SOL    HW1 9053   0.053   1.323   4.702
 2718SOL    HW2 9054   0.024   1.178   4.770
 2719SOL     OW 9055   1.256   4.404   2.128
 2719SOL    HW1 9056   1.180   4.364   2.078
 2719SOL    HW2 9057   1.340   4.355   2.105
 2720SOL     OW 9058   0.766   0.040   3.876
 2720SOL    HW1 9059   0.778   7.007   3.957
 2720SOL    HW2 9060   0.747   7.008   3.796
 2721SOL     OW 9061   3.339   6.601   3.101
 2721SOL    HW1 9062   3.412   6.599   3.169
 2721SOL    HW2 9063   3.371   6.649   3.019
 2722SOL     OW 9064   4.941   5.430   6.583
 2722SOL    HW1 9065   4.957   5.492   6.506
 2722SOL    HW2 9066   5.025   5.380   6.603
 2723SOL     OW 9067   2.367   6.306   6.491
 2723SOL    HW1 9068   2.461   6.308   6.523
 2723SOL    HW2 9069   2.305   6.311   6.569
 2724SOL     OW 9070   1.582   6.146   6.581
 2724SOL    HW1 9071   1.543   6.063   6.540
 2724SOL    HW2 9072   1.544   6.159   6.673
 2725SOL     OW 9073   5.539   3.622   4.644
 2725SOL    HW1 9074   5.556   3.528   4.616
 2725SOL    HW2 9075   5.521   3.678   4.563
 2726SOL     OW 9076   0.706   1.973   1.944
 2726SOL    HW1 9077   0.728   2.071   1.950
 2726SOL    HW2 9078   0.644   1.957   1.868
 2727SOL     OW 9079   1.442   3.987   4.249
 2727SOL    HW1 9080   1.492   3.982   4.335
 2727SOL    HW2 9081   1.361   3.930   4.254
 2728SOL     OW 9082   5.337   6.134   6.429
 2728SOL    HW1 9083   5.296   6.222   6.403
 2728SOL    HW2 9084   5.338   6.127   6.529
 2729SOL     OW 9085   6.505   6.649   0.093
 2729SOL    HW1 9086   6.568   6.693   0.030
 2729SOL    HW2 9087   6.521   6.550   0.091
 2730SOL     OW 9088   0.558   5.928   1.604
 2730SOL    HW1 9089   0.541   5.905   1.700
 2730SOL    HW2 9090   0.615   6.010   1.598
 2731SOL     OW 9091   3.221   3.728   3.108
 2731SOL    HW1 9092   3.141   3.778   3.076
 2731SOL    HW2 9093   3.304   3.777   3.080
 2732SOL     OW 9094   6.100   2.163   1.533
 2732SOL    HW1 9095   6.181   2.174   1.591
 2732SOL    HW2 9096   6.129   2.141   1.440
 2733SOL     OW 9097   0.309   1.893   4.860
 2733SOL    HW1 9098   0.283   1.974   4.912
 2733SOL    HW2 9099   0.255   1.815   4.891
 2734SOL     OW 9100   3.592   5.695   1.581
 2734SOL    HW1 9101   3.600   5.650   1.492
 2734SOL    HW2 9102   3.683   5.726   1.611
 2735SOL     OW 9103   1.551   2.275   1.371
 2735SOL    HW1 9104   1.568   2.185   1.330
 2735SOL    HW2 9105   1.578   2.346   1.307
 2736SOL     OW 9106   6.211   6.202   4.670
 2736SOL    HW1 9107   6.298   6.220   4.624
 2736SOL    HW2 9108   6.224   6.202   4.769
 2737SOL     OW 9109   2.588   3.357   5.769
 2737SOL    HW1 9110   2.597   3.258   5.753
 2737SOL    HW2 9111   2.652   3.385   5.840
 2738SOL     OW 9112   6.271   6.712   2.502
 2738SOL    HW1 9113   6.352   6.724   2.559
 2738SOL    HW2 9114   6.194   6.683   2.559
 2739SOL     OW 9115   0.732   5.130   1.023
 2739SOL    HW1 9116   0.785   5.169   0.948
 2739SOL    HW2 9117   0.794   5.104   1.098
 2740SOL     OW 9118   6.576   5.146   1.909
 2740SOL    HW1 9119   6.614   5.148   2.002
 2740SOL    HW2 9120   6.530   5.059   1.894
 2741SOL     OW 9121   0.205   2.168   5.006
 2741SOL    HW1 9122   0.305   2.170   5.008
 2741SOL    HW2 9123   0.172   2.105   5.077
 2742SOL     OW 9124   2.145   5.262   1.441
 2742SOL    HW1 9125   2.193   5.348   1.428
 2742SOL    HW2 9126   2.047   5.278   1.447
 2743SOL     OW 9127   6.562   4.500   2.259
 2743SOL    HW1 9128   6.586   4.576   2.320
 2743SOL    HW2 9129   6.462   4.488   2.259
 2744SOL     OW 9130   4.220   3.320   1.696
 2744SOL    HW1 9131   4.193   3.224   1.704
 2744SOL    HW2 9132   4.255   3.338   1.605
 2745SOL     OW 9133   6.780   1.391   5.399
 2745SOL    HW1 9134   6.796   1.488   5.416
 2745SOL    HW2 9135   6.769   1.343   5.486
 2746SOL     OW 9136   0.580   2.606   4.358
 2746SOL    HW1 9137   0.599   2.569   4.268
 2746SOL    HW2 9138   0.539   2.535   4.416
 2747SOL     OW 9139   4.487   5.579   6.514
 2747SOL    HW1 9140   4.512   5.483   6.518
 2747SOL    HW2 9141   4.570   5.635   6.516
 2748SOL     OW 9142   4.390   0.779   1.981
 2748SOL    HW1 9143   4.351   0.781   2.073
 2748SOL    HW2 9144   4.477   0.829   1.981
 2749SOL     OW 9145   0.326   4.941   0.735
 2749SOL    HW1 9146   0.418   4.974   0.752
 2749SOL    HW2 9147   0.308   4.861   0.793
 2750SOL     OW 9148   2.082   4.384   2.254
 2750SOL    HW1 9149   2.143   4.305   2.262
 2750SOL    HW2 9150   1.987   4.355   2.266
 2751SOL     OW 9151   1.612   2.576   1.740
 2751SOL    HW1 9152   1.570   2.486   1.751
 2751SOL    HW2 9153   1.706   2.565   1.707
 2752SOL     OW 9154   3.299   4.290   5.991
 2752SOL    HW1 9155   3.256   4.261   6.076
 2752SOL    HW2 9156   3.289   4.389   5.980
 2753SOL     OW 9157   7.000   6.213   4.855
 2753SOL    HW1 9158   0.039   6.173   4.791
 2753SOL    HW2 9159   6.984   6.150   4.931
 2754SOL     OW 9160   0.171   0.232   0.107
 2754SOL    HW1 9161   0.188   0.330   0.107
 2754SOL    HW2 9162   0.194   0.194   0.197
 2755SOL     OW 9163   3.933   0.114   3.242
 2755SOL    HW1 9164   3.845   0.163   3.243
 2755SOL    HW2 9165   3.963   0.098   3.335
 2756SOL     OW 9166   4.177   6.205   0.384
 2756SOL    HW1 9167   4.109   6.262   0.431
 2756SOL    HW2 9168   4.185   6.117   0.431
 2757SOL     OW 9169   1.759   6.636   0.784
 2757SOL    HW1 9170   1.692   6.674   0.848
 2757SOL    HW2 9171   1.795   6.708   0.726
 2758SOL     OW 9172   4.775   0.126   4.742
 2758SOL    HW1 9173   4.677   0.147   4.736
 2758SOL    HW2 9174   4.811   0.107   4.650
 2759SOL     OW 9175   5.610   6.665   5.794
 2759SOL    HW1 9176   5.651   6.716   5.718
 2759SOL    HW2 9177   5.519   6.634   5.767
 2760SOL     OW 9178   1.165   5.765   1.457
 2760SOL    HW1 9179   1.087   5.708   1.432
 2760SOL    HW2 9180   1.177   5.762   1.557
 2761SOL     OW 9181   2.418   4.529   4.481
 2761SOL    HW1 9182   2.434   4.460   4.410
 2761SOL    HW2 9183   2.447   4.492   4.569
 2762SOL     OW 9184   1.027   1.133   4.914
 2762SOL    HW1 9185   0.967   1.210   4.893
 2762SOL    HW2 9186   1.110   1.166   4.959
 2763SOL     OW 9187   5.677   1.574   3.907
 2763SOL    HW1 9188   5.674   1.647   3.975
 2763SOL    HW2 9189   5.714   1.609   3.822
 2764SOL     OW 9190   6.280   0.381   1.229
 2764SOL    HW1 9191   6.265   0.393   1.131
 2764SOL    HW2 9192   6.343   0.304   1.244
 2765SOL     OW 9193   5.674   0.273   0.691
 2765SOL    HW1 9194   5.660   0.364   0.730
 2765SOL    HW2 9195   5.666   0.204   0.763
 2766SOL     OW 9196   4.988   2.871   0.381
 2766SOL    HW1 9197   4.909   2.848   0.438
 2766SOL    HW2 9198   5.048   2.933   0.432
 2767SOL     OW 9199   6.992   4.818   6.715
 2767SOL    HW1 9200   6.990   4.874   6.633
 2767SOL    HW2 9201   6.920   4.748   6.710
 2768SOL     OW 9202   4.868   0.744   0.395
 2768SOL    HW1 9203   4.922   0.661   0.379
 2768SOL    HW2 9204   4.927   0.824   0.387
 2769SOL     OW 9205   0.487   3.991   3.923
 2769SOL    HW1 9206   0.455   4.021   4.013
 2769SOL    HW2 9207   0.471   4.063   3.855
 2770SOL     OW 9208   2.580   5.742   6.343
 2770SOL    HW1 9209   2.622   5.815   6.396
 2770SOL    HW2 9210   2.481   5.758   6.335
 2771SOL     OW 9211   5.709   1.304   2.033
 2771SOL    HW1 9212   5.767   1.257   2.099
 2771SOL    HW2 9213   5.728   1.403   2.036
 2772SOL     OW 9214   4.778   1.755   1.025
 2772SOL    HW1 9215   4.732   1.686   1.081
 2772SOL    HW2 9216   4.713   1.796   0.961
 2773SOL     OW 9217   5.793   3.220   5.550
 2773SOL    HW1 9218   5.861   3.177   5.609
 2773SOL    HW2 9219   5.785   3.167   5.465
 2774SOL     OW 9220   6.705   3.086   2.757
 2774SOL    HW1 9221   6.802   3.106   2.762
 2774SOL    HW2 9222   6.660   3.149   2.694
 2775SOL     OW 9223   0.121   5.279   6.818
 2775SOL    HW1 9224   0.080   5.369   6.804
 2775SOL    HW2 9225   0.213   5.278   6.780
 2776SOL     OW 9226   5.325   5.118   5.472
 2776SOL    HW1 9227   5.288   5.153   5.386
 2776SOL    HW2 9228   5.373   5.192   5.519
 2777SOL     OW 9229   2.772   1.168   1.915
 2777SOL    HW1 9230   2.689   1.129   1.954
 2777SOL    HW2 9231   2.796   1.253   1.963
 2778SOL     OW 9232   1.112   0.958   4.718
 2778SOL    HW1 9233   1.091   1.027   4.787
 2778SOL    HW2 9234   1.126   0.870   4.762
 2779SOL     OW 9235   5.081   6.490   0.824
 2779SOL    HW1 9236   5.041   6.565   0.771
 2779SOL    HW2 9237   5.162   6.456   0.777
 2780SOL     OW 9238   7.024   5.723   6.412
 2780SOL    HW1 9239   7.009   5.734   6.313
 2780SOL    HW2 9240   0.034   5.809   6.450
 2781SOL     OW 9241   5.870   5.681   1.685
 2781SOL    HW1 9242   5.945   5.744   1.662
 2781SOL    HW2 9243   5.819   5.717   1.763
 2782SOL     OW 9244   2.937   1.923   5.471
 2782SOL    HW1 9245   2.895   1.918   5.380
 2782SOL    HW2 9246   2.869   1.898   5.540
 2783SOL     OW 9247   6.141   3.130   4.896
 2783SOL    HW1 9248   6.041   3.131   4.893
 2783SOL    HW2 9249   6.174   3.206   4.953
 2784SOL     OW 9250   3.114   1.735   1.288
 2784SOL    HW1 9251   3.174   1.657   1.265
 2784SOL    HW2 9252   3.055   1.710   1.365
 2785SOL     OW 9253   5.902   1.390   0.497
 2785SOL    HW1 9254   5.928   1.482   0.466
 2785SOL    HW2 9255   5.962   1.322   0.454
 2786SOL     OW 9256   4.192   5.934   1.735
 2786SOL    HW1 9257   4.233   5.860   1.789
 2786SOL    HW2 9258   4.140   5.895   1.659
 2787SOL     OW 9259   2.881   2.733   6.609
 2787SOL    HW1 9260   2.844   2.823   6.585
 2787SOL    HW2 9261   2.825   2.692   6.681
 2788SOL     OW 9262   2.393   4.416   6.746
 2788SOL    HW1 9263   2.474   4.358   6.741
 2788SOL    HW2 9264   2.330   4.392   6.672
 2789SOL     OW 9265   2.137   3.141   3.352
 2789SOL    HW1 9266   2.113   3.215   3.416
 2789SOL    HW2 9267   2.058   3.080   3.340
 2790SOL     OW 9268   2.733   5.356   2.280
 2790SOL    HW1 9269   2.742   5.442   2.332
 2790SOL    HW2 9270   2.708   5.282   2.342
 2791SOL     OW 9271   1.182   3.904   4.553
 2791SOL    HW1 9272   1.242   3.852   4.493
 2791SOL    HW2 9273   1.116   3.843   4.596
 2792SOL     OW 9274   0.821   7.014   4.971
 2792SOL    HW1 9275   0.834   6.956   4.891
 2792SOL    HW2 9276   0.806   6.958   5.052
 2793SOL     OW 9277   4.806   2.863   2.698
 2793SOL    HW1 9278   4.799   2.890   2.794
 2793SOL    HW2 9279   4.888   2.905   2.658
 2794SOL     OW 9280   0.024   2.332   0.928
 2794SOL    HW1 9281   6.998   2.416   0.943
 2794SOL    HW2 9282   0.003   2.267   1.002
 2795SOL     OW 9283   2.220   3.245   0.836
 2795SOL    HW1 9284   2.141   3.298   0.805
 2795SOL    HW2 9285   2.239   3.266   0.932
 2796SOL     OW 9286   6.758   5.229   2.776
 2796SOL    HW1 9287   6.746   5.237   2.677
 2796SOL    HW2 9288   6.756   5.320   2.818
 2797SOL     OW 9289   4.917   5.376   4.141
 2797SOL    HW1 9290   4.837   5.367   4.201
 2797SOL    HW2 9291   4.956   5.468   4.151
 2798SOL     OW 9292   1.262   4.570   1.887
 2798SOL    HW1 9293   1.323   4.649   1.896
 2798SOL    HW2 9294   1.250   4.527   1.977
 2799SOL     OW 9295   0.106   6.167   6.914
 2799SOL    HW1 9296   0.090   6.113   6.831
 2799SOL    HW2 9297   0.021   6.176   6.965
 2800SOL     OW 9298   4.548   5.283   6.570
 2800SOL    HW1 9299   4.548   5.289   6.670
 2800SOL    HW2 9300   4.642   5.272   6.538
 2801SOL     OW 9301   4.863   5.650   4.621
 2801SOL    HW1 9302   4.890   5.592   4.544
 2801SOL    HW2 9303   4.845   5.742   4.588
 2802SOL     OW 9304   4.591   2.959   6.299
 2802SOL    HW1 9305   4.622   2.918   6.213
 2802SOL    HW2 9306   4.583   2.888   6.369
 2803SOL     OW 9307   3.651   6.199   6.233
 2803SOL    HW1 9308   3.668   6.194   6.332
 2803SOL    HW2 9309   3.643   6.106   6.196
 2804SOL     OW 9310   6.837   4.846   4.690
 2804SOL    HW1 9311   6.756   4.802   4.651
 2804SOL    HW2 9312   6.845   4.822   4.787
 2805SOL     OW 9313   5.255   2.569   1.724
 2805SOL    HW1 9314   5.285   2.475   1.712
 2805SOL    HW2 9315   5.264   2.596   1.820
 2806SOL     OW 9316   6.822   4.928   4.189
 2806SOL    HW1 9317   6.889   4.937   4.263
 2806SOL    HW2 9318   6.745   4.989   4.207
 2807SOL     OW 9319   5.959   5.390   3.977
 2807SOL    HW1 9320   5.968   5.478   4.025
 2807SOL    HW2 9321   5.921   5.322   4.039
 2808SOL     OW 9322   5.106   2.719   2.553
 2808SOL    HW1 9323   5.052   2.644   2.516
 2808SOL    HW2 9324   5.049   2.800   2.563
 2809SOL     OW 9325   5.810   2.392   1.896
 2809SOL    HW1 9326   5.824   2.487   1.866
 2809SOL    HW2 9327   5.897   2.343   1.892
 2810SOL     OW 9328   2.993   6.270   4.171
 2810SOL    HW1 9329   3.077   6.321   4.186
 2810SOL    HW2 9330   2.969   6.272   4.074
 2811SOL     OW 9331   0.529   0.766   3.109
 2811SOL    HW1 9332   0.533   0.736   3.205
 2811SOL    HW2 9333   0.591   0.710   3.054
 2812SOL     OW 9334   5.558   3.689   0.085
 2812SOL    HW1 9335   5.575   3.600   0.043
 2812SOL    HW2 9336   5.616   3.699   0.166
 2813SOL     OW 9337   6.631   0.386   5.832
 2813SOL    HW1 9338   6.588   0.339   5.755
 2813SOL    HW2 9339   6.650   0.320   5.905
 2814SOL     OW 9340   5.009   3.211   6.802
 2814SOL    HW1 9341   4.968   3.224   6.892
 2814SOL    HW2 9342   5.036   3.116   6.790
 2815SOL     OW 9343   0.080   1.507   5.676
 2815SOL    HW1 9344   7.022   1.527   5.726
 2815SOL    HW2 9345   0.067   1.530   5.579
 2816SOL     OW 9346   6.721   6.009   3.592
 2816SOL    HW1 9347   6.699   6.058   3.508
 2816SOL    HW2 9348   6.818   6.019   3.612
 2817SOL     OW 9349   2.274   0.009   1.280
 2817SOL    HW1 9350   2.332   6.984   1.344
 2817SOL    HW2 9351   2.327   0.034   1.199
 2818SOL     OW 9352   0.023   6.762   0.013
 2818SOL    HW1 9353   0.088   6.758   6.963
 2818SOL    HW2 9354   0.014   6.856   0.044
 2819SOL     OW 9355   0.413   1.228   1.345
 2819SOL    HW1 9356   0.428   1.313   1.294
 2819SOL    HW2 9357   0.496   1.201   1.392
 2820SOL     OW 9358   1.217   1.741   2.874
 2820SOL    HW1 9359   1.305   1.696   2.887
 2820SOL    HW2 9360   1.230   1.840   2.881
 2821SOL     OW 9361   4.054   3.721   0.105
 2821SOL    HW1 9362   4.051   3.622   0.087
 2821SOL    HW2 9363   3.981   3.746   0.169
 2822SOL     OW 9364   4.256   2.139   6.785
 2822SOL    HW1 9365   4.300   2.226   6.762
 2822SOL    HW2 9366   4.278   2.116   6.880
 2823SOL     OW 9367   3.353   6.809   0.354
 2823SOL    HW1 9368   3.426   6.876   0.369
 2823SOL    HW2 9369   3.271   6.838   0.404
 2824SOL     OW 9370   2.690   1.072   4.273
 2824SOL    HW1 9371   2.607   1.128   4.270
 2824SOL    HW2 9372   2.758   1.111   4.211
 2825SOL     OW 9373   6.832   0.688   6.995
 2825SOL    HW1 9374   6.864   0.610   6.940
 2825SOL    HW2 9375   6.874   0.772   6.960
 2826SOL     OW 9376   5.427   2.322   0.197
 2826SOL    HW1 9377   5.498   2.253   0.214
 2826SOL    HW2 9378   5.465   2.413   0.209
 2827SOL     OW 9379   5.891   0.936   5.200
 2827SOL    HW1 9380   5.950   0.883   5.139
 2827SOL    HW2 9381   5.932   0.939   5.292
 2828SOL     OW 9382   3.144   0.432   0.243
 2828SOL    HW1 9383   3.243   0.422   0.250
 2828SOL    HW2 9384   3.122   0.477   0.156
 2829SOL     OW 9385   3.584   3.807   5.866
 2829SOL    HW1 9386   3.649   3.883   5.863
 2829SOL    HW2 9387   3.523   3.813   5.787
 2830SOL     OW 9388   0.662   3.244   0.022
 2830SOL    HW1 9389   0.644   3.172   0.090
 2830SOL    HW2 9390   0.754   3.231   7.010
 2831SOL     OW 9391   0.631   5.861   3.822
 2831SOL    HW1 9392   0.659   5.770   3.852
 2831SOL    HW2 9393   0.694   5.895   3.752
 2832SOL     OW 9394   0.922   1.343   2.257
 2832SOL    HW1 9395   0.963   1.434   2.263
 2832SOL    HW2 9396   0.877   1.321   2.344
 2833SOL     OW 9397   4.566   2.440   2.435
 2833SOL    HW1 9398   4.501   2.368   2.458
 2833SOL    HW2 9399   4.572   2.450   2.336
 2834SOL     OW 9400   2.759   6.704   5.099
 2834SOL    HW1 9401   2.848   6.704   5.053
 2834SOL    HW2 9402   2.771   6.730   5.195
 2835SOL     OW 9403   6.940   0.529   2.270
 2835SOL    HW1 9404   6.988   0.585   2.338
 2835SOL    HW2 9405   6.943   0.574   2.181
 2836SOL     OW 9406   6.106   0.001   1.491
 2836SOL    HW1 9407   6.102   0.070   1.563
 2836SOL    HW2 9408   6.085   0.043   1.403
 2837SOL     OW 9409   5.752   3.566   2.964
 2837SOL    HW1 9410   5.842   3.536   2.933
 2837SOL    HW2 9411   5.692   3.580   2.885
 2838SOL     OW 9412   1.965   4.266   1.174
 2838SOL    HW1 9413   1.907   4.269   1.255
 2838SOL    HW2 9414   1.950   4.180   1.125
 2839SOL     OW 9415   5.891   1.717   2.118
 2839SOL    HW1 9416   5.978   1.669   2.127
 2839SOL    HW2 9417   5.893   1.776   2.038
 2840SOL     OW 9418   1.256   1.165   3.580
 2840SOL    HW1 9419   1.303   1.169   3.668
 2840SOL    HW2 9420   1.239   1.257   3.547
 2841SOL     OW 9421   0.534   1.185   5.712
 2841SOL    HW1 9422   0.506   1.090   5.697
 2841SOL    HW2 9423   0.598   1.212   5.640
 2842SOL     OW 9424   6.953   3.484   4.217
 2842SOL    HW1 9425   6.956   3.447   4.310
 2842SOL    HW2 9426   6.979   3.580   4.219
 2843SOL     OW 9427   2.816   1.668   2.843
 2843SOL    HW1 9428   2.717   1.683   2.849
 2843SOL    HW2 9429   2.847   1.693   2.752
 2844SOL     OW 9430   1.060   5.443   0.349
 2844SOL    HW1 9431   1.039   5.541   0.351
 2844SOL    HW2 9432   1.135   5.426   0.285
 2845SOL     OW 9433   0.830   2.895   1.183
 2845SOL    HW1 9434   0.917   2.940   1.167
 2845SOL    HW2 9435   0.841   2.796   1.173
 2846SOL     OW 9436   4.277   1.179   6.722
 2846SOL    HW1 9437   4.346   1.191   6.793
 2846SOL    HW2 9438   4.294   1.094   6.672
 2847SOL     OW 9439   5.025   3.150   3.272
 2847SOL    HW1 9440   5.011   3.053   3.252
 2847SOL    HW2 9441   4.980   3.205   3.201
 2848SOL     OW 9442   1.387   3.267   6.433
 2848SOL    HW1 9443   1.384   3.177   6.476
 2848SOL    HW2 9444   1.423   3.260   6.340
 2849SOL     OW 9445   3.443   6.707   0.922
 2849SOL    HW1 9446   3.420   6.773   0.851
 2849SOL    HW2 9447   3.519   6.742   0.977
 2850SOL     OW 9448   3.662   6.973   2.555
 2850SOL    HW1 9449   3.605   7.005   2.480
 2850SOL    HW2 9450   3.641   6.877   2.574
 2851SOL     OW 9451   0.252   2.755   5.682
 2851SOL    HW1 9452   0.198   2.738   5.765
 2851SOL    HW2 9453   0.332   2.811   5.705
 2852SOL     OW 9454   5.638   4.214   0.469
 2852SOL    HW1 9455   5.675   4.274   0.398
 2852SOL    HW2 9456   5.620   4.266   0.552
 2853SOL     OW 9457   2.216   2.740   0.350
 2853SOL    HW1 9458   2.301   2.756   0.400
 2853SOL    HW2 9459   2.138   2.744   0.413
 2854SOL     OW 9460   3.725   1.274   5.284
 2854SOL    HW1 9461   3.626   1.267   5.300
 2854SOL    HW2 9462   3.754   1.368   5.298
 2855SOL     OW 9463   2.627   1.251   6.170
 2855SOL    HW1 9464   2.539   1.209   6.190
 2855SOL    HW2 9465   2.650   1.316   6.242
 2856SOL     OW 9466   1.710   2.840   5.758
 2856SOL    HW1 9467   1.755   2.879   5.839
 2856SOL    HW2 9468   1.640   2.904   5.725
 2857SOL     OW 9469   3.183   1.639   2.224
 2857SOL    HW1 9470   3.129   1.702   2.280
 2857SOL    HW2 9471   3.267   1.685   2.195
 2858SOL     OW 9472   5.566   3.627   1.475
 2858SOL    HW1 9473   5.556   3.725   1.491
 2858SOL    HW2 9474   5.535   3.577   1.556
 2859SOL     OW 9475   4.987   2.251   0.420
 2859SOL    HW1 9476   5.042   2.180   0.464
 2859SOL    HW2 9477   4.917   2.208   0.363
 2860SOL     OW 9478   3.688   1.886   1.336
 2860SOL    HW1 9479   3.687   1.937   1.250
 2860SOL    HW2 9480   3.738   1.939   1.405
 2861SOL     OW 9481   4.506   4.878   6.058
 2861SOL    HW1 9482   4.576   4.904   6.124
 2861SOL    HW2 9483   4.539   4.894   5.965
 2862SOL     OW 9484   5.211   1.893   3.309
 2862SOL    HW1 9485   5.117   1.861   3.295
 2862SOL    HW2 9486   5.225   1.916   3.405
 2863SOL     OW 9487   4.979   1.461   0.033
 2863SOL    HW1 9488   4.953   1.458   6.962
 2863SOL    HW2 9489   5.031   1.544   0.051
 2864SOL     OW 9490   4.123   1.176   1.613
 2864SOL    HW1 9491   4.104   1.260   1.562
 2864SOL    HW2 9492   4.164   1.108   1.552
 2865SOL     OW 9493   5.476   4.513   5.435
 2865SOL    HW1 9494   5.493   4.599   5.388
 2865SOL    HW2 9495   5.378   4.501   5.449
 2866SOL     OW 9496   6.307   5.833   0.014
 2866SOL    HW1 9497   6.221   5.879   0.041
 2866SOL    HW2 9498   6.298   5.799   6.947
 2867SOL     OW 9499   5.662   3.826   1.979
 2867SOL    HW1 9500   5.584   3.866   1.931
 2867SOL    HW2 9501   5.660   3.853   2.076
 2868SOL     OW 9502   0.325   2.813   5.218
 2868SOL    HW1 9503   0.333   2.714   5.207
 2868SOL    HW2 9504   0.241   2.834   5.268
 2869SOL     OW 9505   6.005   0.907   4.080
 2869SOL    HW1 9506   5.981   0.811   4.067
 2869SOL    HW2 9507   6.084   0.929   4.023
 2870SOL     OW 9508   0.656   1.687   4.140
 2870SOL    HW1 9509   0.725   1.667   4.209
 2870SOL    HW2 9510   0.575   1.726   4.184
 2871SOL     OW 9511   1.027   2.063   0.110
 2871SOL    HW1 9512   1.083   2.011   0.046
 2871SOL    HW2 9513   1.085   2.124   0.164
 2872SOL     OW 9514   2.888   1.767   3.398
 2872SOL    HW1 9515   2.871   1.792   3.303
 2872SOL    HW2 9516   2.891   1.667   3.405
 2873SOL     OW 9517   0.079   4.748   2.867
 2873SOL    HW1 9518   0.002   4.685   2.870
 2873SOL    HW2 9519   0.138   4.733   2.947
 2874SOL     OW 9520   4.122   6.468   3.380
 2874SOL    HW1 9521   4.155   6.398   3.443
 2874SOL    HW2 9522   4.112   6.429   3.288
 2875SOL     OW 9523   5.083   6.357   0.514
 2875SOL    HW1 9524   5.072   6.268   0.557
 2875SOL    HW2 9525   5.088   6.428   0.584
 2876SOL     OW 9526   0.640   0.233   2.069
 2876SOL    HW1 9527   0.570   0.297   2.099
 2876SOL    HW2 9528   0.726   0.281   2.056
 2877SOL     OW 9529   3.714   2.790   5.269
 2877SOL    HW1 9530   3.750   2.834   5.351
 2877SOL    HW2 9531   3.789   2.746   5.219
 2878SOL     OW 9532   4.140   5.167   4.435
 2878SOL    HW1 9533   4.191   5.112   4.501
 2878SOL    HW2 9534   4.181   5.258   4.428
 2879SOL     OW 9535   5.266   4.562   1.069
 2879SOL    HW1 9536   5.349   4.560   1.124
 2879SOL    HW2 9537   5.186   4.575   1.129
 2880SOL     OW 9538   6.045   6.944   1.082
 2880SOL    HW1 9539   6.056   0.010   1.119
 2880SOL    HW2 9540   5.964   6.941   1.024
 2881SOL     OW 9541   5.766   6.273   0.681
 2881SOL    HW1 9542   5.797   6.328   0.603
 2881SOL    HW2 9543   5.834   6.202   0.701
 2882SOL     OW 9544   0.596   4.565   2.313
 2882SOL    HW1 9545   0.544   4.604   2.389
 2882SOL    HW2 9546   0.533   4.537   2.241
 2883SOL     OW 9547   5.357   6.242   3.934
 2883SOL    HW1 9548   5.371   6.168   4.000
 2883SOL    HW2 9549   5.412   6.321   3.959
 2884SOL     OW 9550   0.862   5.495   3.160
 2884SOL    HW1 9551   0.856   5.576   3.102
 2884SOL    HW2 9552   0.849   5.521   3.256
 2885SOL     OW 9553   0.758   3.253   2.324
 2885SOL    HW1 9554   0.825   3.325   2.339
 2885SOL    HW2 9555   0.804   3.168   2.300
 2886SOL     OW 9556   2.654   4.062   6.495
 2886SOL    HW1 9557   2.723   4.016   6.438
 2886SOL    HW2 9558   2.573   4.081   6.440
 2887SOL     OW 9559   1.350   0.179   4.588
 2887SOL    HW1 9560   1.317   0.103   4.532
 2887SOL    HW2 9561   1.417   0.232   4.536
 2888SOL     OW 9562   0.960   4.473   6.772
 2888SOL    HW1 9563   0.991   4.401   6.834
 2888SOL    HW2 9564   1.035   4.501   6.713
 2889SOL     OW 9565   1.969   6.964   2.688
 2889SOL    HW1 9566   1.886   6.929   2.732
 2889SOL    HW2 9567   1.956   0.035   2.667
 2890SOL     OW 9568   2.814   0.285   1.079
 2890SOL    HW1 9569   2.848   0.195   1.107
 2890SOL    HW2 9570   2.748   0.318   1.146
 2891SOL     OW 9571   2.175   3.728   3.883
 2891SOL    HW1 9572   2.077   3.730   3.898
 2891SOL    HW2 9573   2.213   3.820   3.890
 2892SOL     OW 9574   5.380   3.643   6.846
 2892SOL    HW1 9575   5.343   3.595   6.925
 2892SOL    HW2 9576   5.480   3.640   6.849
 2893SOL     OW 9577   6.913   6.476   4.635
 2893SOL    HW1 9578   6.997   6.427   4.658
 2893SOL    HW2 9579   6.931   6.575   4.631
 2894SOL     OW 9580   3.171   2.689   0.211
 2894SOL    HW1 9581   3.155   2.730   0.121
 2894SOL    HW2 9582   3.088   2.645   0.243
 2895SOL     OW 9583   3.782   2.767   6.743
 2895SOL    HW1 9584   3.761   2.741   6.649
 2895SOL    HW2 9585   3.872   2.810   6.746
 2896SOL     OW 9586   3.356   5.296   6.552
 2896SOL    HW1 9587   3.324   5.211   6.595
 2896SOL    HW2 9588   3.286   5.330   6.489
 2897SOL     OW 9589   3.205   5.834   3.302
 2897SOL    HW1 9590   3.133   5.833   3.233
 2897SOL    HW2 9591   3.257   5.919   3.295
 2898SOL     OW 9592   4.538   4.932   3.928
 2898SOL    HW1 9593   4.598   4.951   4.006
 2898SOL    HW2 9594   4.477   5.009   3.913
 2899SOL     OW 9595   0.456   1.834   6.924
 2899SOL    HW1 9596   0.537   1.801   6.973
 2899SOL    HW2 9597   0.389   1.868   6.991
 2900SOL     OW 9598   2.077   4.864   5.323
 2900SOL    HW1 9599   2.139   4.794   5.356
 2900SOL    HW2 9600   2.000   4.821   5.275
 2901SOL     OW 9601   2.106   0.477   3.156
 2901SOL    HW1 9602   2.135   0.538   3.230
 2901SOL    HW2 9603   2.136   0.383   3.177
 2902SOL     OW 9604   5.329   6.239   1.665
 2902SOL    HW1 9605   5.324   6.146   1.629
 2902SOL    HW2 9606   5.383   6.296   1.604
 2903SOL     OW 9607   2.952   0.401   0.871
 2903SOL    HW1 9608   3.048   0.409   0.897
 2903SOL    HW2 9609   2.903   0.346   0.939
 2904SOL     OW 9610   1.746   3.231   5.388
 2904SOL    HW1 9611   1.788   3.321   5.389
 2904SOL    HW2 9612   1.648   3.240   5.405
 2905SOL     OW 9613   1.688   2.409   3.475
 2905SOL    HW1 9614   1.663   2.380   3.382
 2905SOL    HW2 9615   1.774   2.460   3.472
 2906SOL     OW 9616   5.177   5.555   2.913
 2906SOL    HW1 9617   5.158   5.462   2.881
 2906SOL    HW2 9618   5.263   5.586   2.871
 2907SOL     OW 9619   0.384   1.217   4.211
 2907SOL    HW1 9620   0.427   1.302   4.182
 2907SOL    HW2 9621   0.426   1.186   4.296
 2908SOL     OW 9622   4.535   6.909   4.017
 2908SOL    HW1 9623   4.468   6.969   3.974
 2908SOL    HW2 9624   4.609   6.964   4.057
 2909SOL     OW 9625   0.560   6.133   3.814
 2909SOL    HW1 9626   0.593   6.040   3.802
 2909SOL    HW2 9627   0.476   6.147   3.762
 2910SOL     OW 9628   4.756   5.864   4.224
 2910SOL    HW1 9629   4.766   5.932   4.152
 2910SOL    HW2 9630   4.721   5.779   4.186
 2911SOL     OW 9631   1.766   5.523   3.843
 2911SOL    HW1 9632   1.689   5.586   3.848
 2911SOL    HW2 9633   1.738   5.434   3.879
 2912SOL     OW 9634   4.211   0.011   6.425
 2912SOL    HW1 9635   4.146   0.031   6.498
 2912SOL    HW2 9636   4.161   0.002   6.338
 2913SOL     OW 9637   2.362   5.100   2.282
 2913SOL    HW1 9638   2.363   5.192   2.245
 2913SOL    HW2 9639   2.323   5.037   2.215
 2914SOL     OW 9640   6.158   6.570   5.836
 2914SOL    HW1 9641   6.091   6.496   5.842
 2914SOL    HW2 9642   6.156   6.623   5.920
 2915SOL     OW 9643   5.245   1.476   4.900
 2915SOL    HW1 9644   5.156   1.457   4.941
 2915SOL    HW2 9645   5.291   1.548   4.953
 2916SOL     OW 9646   6.481   5.829   5.840
 2916SOL    HW1 9647   6.504   5.732   5.829
 2916SOL    HW2 9648   6.385   5.838   5.865
 2917SOL     OW 9649   4.031   6.731   1.960
 2917SOL    HW1 9650   4.042   6.830   1.968
 2917SOL    HW2 9651   4.014   6.692   2.051
 2918SOL     OW 9652   6.792   4.027   3.441
 2918SOL    HW1 9653   6.801   3.972   3.358
 2918SOL    HW2 9654   6.718   4.094   3.429
 2919SOL     OW 9655   6.642   0.969   0.721
 2919SOL    HW1 9656   6.592   1.027   0.657
 2919SOL    HW2 9657   6.737   0.959   0.690
 2920SOL     OW 9658   3.053   1.877   2.307
 2920SOL    HW1 9659   3.048   1.883   2.407
 2920SOL    HW2 9660   3.008   1.957   2.267
 2921SOL     OW 9661   0.723   6.853   2.829
 2921SOL    HW1 9662   0.671   6.815   2.753
 2921SOL    HW2 9663   0.817   6.818   2.826
 2922SOL     OW 9664   6.032   0.041   6.947
 2922SOL    HW1 9665   6.093   7.015   7.008
 2922SOL    HW2 9666   6.088   0.101   6.889
 2923SOL     OW 9667   0.113   4.615   1.635
 2923SOL    HW1 9668   0.153   4.526   1.657
 2923SOL    HW2 9669   0.038   4.602   1.571
 2924SOL     OW 9670   0.275   2.080   6.615
 2924SOL    HW1 9671   0.325   2.002   6.652
 2924SOL    HW2 9672   0.229   2.129   6.689
 2925SOL     OW 9673   5.212   0.831   3.520
 2925SOL    HW1 9674   5.244   0.743   3.485
 2925SOL    HW2 9675   5.132   0.817   3.577
 2926SOL     OW 9676   0.294   1.194   4.597
 2926SOL    HW1 9677   0.248   1.217   4.683
 2926SOL    HW2 9678   0.248   1.118   4.553
 2927SOL     OW 9679   1.670   1.687   2.356
 2927SOL    HW1 9680   1.721   1.670   2.441
 2927SOL    HW2 9681   1.715   1.760   2.305
 2928SOL     OW 9682   6.858   2.294   6.098
 2928SOL    HW1 9683   6.827   2.231   6.169
 2928SOL    HW2 9684   6.957   2.288   6.089
 2929SOL     OW 9685   0.642   0.936   6.370
 2929SOL    HW1 9686   0.621   0.974   6.460
 2929SOL    HW2 9687   0.713   0.866   6.379
 2930SOL     OW 9688   4.594   6.092   5.034
 2930SOL    HW1 9689   4.513   6.058   4.987
 2930SOL    HW2 9690   4.675   6.079   4.976
 2931SOL     OW 9691   5.970   5.769   0.085
 2931SOL    HW1 9692   5.932   5.778   7.019
 2931SOL    HW2 9693   6.018   5.681   0.093
 2932SOL     OW 9694   1.453   5.484   2.018
 2932SOL    HW1 9695   1.534   5.494   1.961
 2932SOL    HW2 9696   1.450   5.392   2.057
 2933SOL     OW 9697   6.253   3.266   3.174
 2933SOL    HW1 9698   6.226   3.358   3.203
 2933SOL    HW2 9699   6.352   3.263   3.160
 2934SOL     OW 9700   4.334   1.518   0.386
 2934SOL    HW1 9701   4.345   1.491   0.482
 2934SOL    HW2 9702   4.279   1.602   0.382
 2935SOL     OW 9703   6.336   3.585   1.515
 2935SOL    HW1 9704   6.435   3.588   1.499
 2935SOL    HW2 9705   6.298   3.678   1.508
 2936SOL     OW 9706   4.660   5.307   2.333
 2936SOL    HW1 9707   4.594   5.367   2.287
 2936SOL    HW2 9708   4.712   5.361   2.400
 2937SOL     OW 9709   4.026   5.114   0.225
 2937SOL    HW1 9710   3.989   5.103   0.133
 2937SOL    HW2 9711   4.027   5.025   0.271
 2938SOL     OW 9712   5.511   5.025   5.689
 2938SOL    HW1 9713   5.421   4.997   5.723
 2938SOL    HW2 9714   5.581   4.998   5.755
 2939SOL     OW 9715   0.653   0.170   4.545
 2939SOL    HW1 9716   0.655   0.188   4.643
 2939SOL    HW2 9717   0.741   0.192   4.504
 2940SOL     OW 9718   5.731   6.890   6.205
 2940SOL    HW1 9719   5.715   6.982   6.241
 2940SOL    HW2 9720   5.829   6.875   6.192
 2941SOL     OW 9721   2.286   2.209   4.655
 2941SOL    HW1 9722   2.355   2.265   4.610
 2941SOL    HW2 9723   2.331   2.145   4.718
 2942SOL     OW 9724   2.558   2.144   1.273
 2942SOL    HW1 9725   2.588   2.239   1.271
 2942SOL    HW2 9726   2.517   2.120   1.185
 2943SOL     OW 9727   5.968   3.854   2.887
 2943SOL    HW1 9728   6.024   3.832   2.967
 2943SOL    HW2 9729   5.884   3.899   2.916
 2944SOL     OW 9730   2.597   5.848   5.154
 2944SOL    HW1 9731   2.685   5.890   5.174
 2944SOL    HW2 9732   2.591   5.828   5.056
 2945SOL     OW 9733   3.697   4.123   4.079
 2945SOL    HW1 9734   3.693   4.029   4.113
 2945SOL    HW2 9735   3.722   4.184   4.154
 2946SOL     OW 9736   0.663   5.674   6.510
 2946SOL    HW1 9737   0.591   5.650   6.574
 2946SOL    HW2 9738   0.712   5.755   6.544
 2947SOL     OW 9739   1.045   4.069   6.786
 2947SOL    HW1 9740   1.135   4.113   6.783
 2947SOL    HW2 9741   1.054   3.977   6.823
 2948SOL     OW 9742   0.235   4.712   5.359
 2948SOL    HW1 9743   0.297   4.698   5.437
 2948SOL    HW2 9744   0.242   4.634   5.297
 2949SOL     OW 9745   1.701   6.217   1.178
 2949SOL    HW1 9746   1.715   6.228   1.080
 2949SOL    HW2 9747   1.647   6.134   1.195
 2950SOL     OW 9748   4.937   3.747   4.472
 2950SOL    HW1 9749   4.997   3.826   4.464
 2950SOL    HW2 9750   4.916   3.730   4.569
 2951SOL     OW 9751   6.894   2.265   1.517
 2951SOL    HW1 9752   6.844   2.289   1.600
 2951SOL    HW2 9753   6.830   2.250   1.442
 2952SOL     OW 9754   1.071   6.347   5.320
 2952SOL    HW1 9755   1.161   6.353   5.277
 2952SOL    HW2 9756   1.058   6.427   5.379
 2953SOL     OW 9757   4.819   2.967   2.957
 2953SOL    HW1 9758   4.914   2.950   2.982
 2953SOL    HW2 9759   4.759   2.942   3.033
 2954SOL     OW 9760   0.857   5.481   1.638
 2954SOL    HW1 9761   0.949   5.447   1.621
 2954SOL    HW2 9762   0.827   5.535   1.559
 2955SOL     OW 9763   1.204   3.808   1.036
 2955SOL    HW1 9764   1.240   3.795   0.944
 2955SOL    HW2 9765   1.280   3.814   1.101
 2956SOL     OW 9766   6.167   6.330   2.845
 2956SOL    HW1 9767   6.128   6.248   2.887
 2956SOL    HW2 9768   6.246   6.361   2.898
 2957SOL     OW 9769   6.854   3.071   1.622
 2957SOL    HW1 9770   6.887   2.978   1.633
 2957SOL    HW2 9771   6.765   3.081   1.666
 2958SOL     OW 9772   2.468   4.435   4.719
 2958SOL    HW1 9773   2.437   4.368   4.787
 2958SOL    HW2 9774   2.505   4.515   4.766
 2959SOL     OW 9775   4.322   4.448   0.742
 2959SOL    HW1 9776   4.245   4.492   0.787
 2959SOL    HW2 9777   4.397   4.437   0.806
 2960SOL     OW 9778   3.548   0.148   6.852
 2960SOL    HW1 9779   3.481   0.213   6.889
 2960SOL    HW2 9780   3.591   0.187   6.771
 2961SOL     OW 9781   5.408   2.769   4.617
 2961SOL    HW1 9782   5.411   2.672   4.641
 2961SOL    HW2 9783   5.499   2.799   4.588
 2962SOL     OW 9784   4.482   1.045   4.182
 2962SOL    HW1 9785   4.468   0.948   4.164
 2962SOL    HW2 9786   4.559   1.057   4.245
 2963SOL     OW 9787   2.358   1.370   5.586
 2963SOL    HW1 9788   2.375   1.449   5.643
 2963SOL    HW2 9789   2.299   1.305   5.635
 2964SOL     OW 9790   0.390   0.326   2.191
 2964SOL    HW1 9791   0.321   0.266   2.232
 2964SOL    HW2 9792   0.394   0.412   2.242
 2965SOL     OW 9793   6.937   0.975   4.446
 2965SOL    HW1 9794   6.888   0.891   4.427
 2965SOL    HW2 9795   6.875   1.042   4.487
 2966SOL     OW 9796   5.558   5.045   4.368
 2966SOL    HW1 9797   5.627   5.073   4.435
 2966SOL    HW2 9798   5.536   4.948   4.382
 2967SOL     OW 9799   6.474   2.100   4.473
 2967SOL    HW1 9800   6.476   2.072   4.569
 2967SOL    HW2 9801   6.413   2.178   4.462
 2968SOL     OW 9802   1.236   3.721   6.325
 2968SOL    HW1 9803   1.227   3.765   6.235
 2968SOL    HW2 9804   1.168   3.648   6.332
 2969SOL     OW 9805   5.920   1.223   4.464
 2969SOL    HW1 9806   5.936   1.169   4.546
 2969SOL    HW2 9807   5.940   1.319   4.482
 2970SOL     OW 9808   1.281   3.841   6.568
 2970SOL    HW1 9809   1.274   3.769   6.638
 2970SOL    HW2 9810   1.271   3.799   6.478
 2971SOL     OW 9811   5.437   3.391   6.003
 2971SOL    HW1 9812   5.445   3.477   5.953
 2971SOL    HW2 9813   5.428   3.410   6.101
 2972SOL     OW 9814   6.921   4.975   6.467
 2972SOL    HW1 9815   6.938   5.072   6.487
 2972SOL    HW2 9816   6.916   4.962   6.368
 2973SOL     OW 9817   5.641   1.219   4.332
 2973SOL    HW1 9818   5.735   1.196   4.358
 2973SOL    HW2 9819   5.641   1.263   4.243
 2974SOL     OW 9820   0.628   3.853   2.928
 2974SOL    HW1 9821   0.589   3.812   2.845
 2974SOL    HW2 9822   0.605   3.950   2.931
 2975SOL     OW 9823   0.764   2.476   5.183
 2975SOL    HW1 9824   0.780   2.378   5.176
 2975SOL    HW2 9825   0.788   2.520   5.096
 2976SOL     OW 9826   4.303   1.462   3.134
 2976SOL    HW1 9827   4.320   1.373   3.091
 2976SOL    HW2 9828   4.271   1.527   3.065
 2977SOL     OW 9829   1.714   6.562   4.258
 2977SOL    HW1 9830   1.753   6.480   4.217
 2977SOL    HW2 9831   1.684   6.625   4.186
 2978SOL     OW 9832   4.272   4.913   6.731
 2978SOL    HW1 9833   4.313   4.933   6.643
 2978SOL    HW2 9834   4.175   4.893   6.719
 2979SOL     OW 9835   4.921   6.538   4.125
 2979SOL    HW1 9836   4.849   6.583   4.177
 2979SOL    HW2 9837   5.007   6.587   4.137
 2980SOL     OW 9838   1.179   6.138   3.850
 2980SOL    HW1 9839   1.235   6.221   3.850
 2980SOL    HW2 9840   1.187   6.093   3.761
 2981SOL     OW 9841   0.841   1.062   5.580
 2981SOL    HW1 9842   0.811   1.157   5.584
 2981SOL    HW2 9843   0.819   1.023   5.491
 2982SOL     OW 9844   4.937   6.064   3.292
 2982SOL    HW1 9845   4.860   6.101   3.241
 2982SOL    HW2 9846   4.921   6.074   3.390
 2983SOL     OW 9847   0.856   1.396   4.221
 2983SOL    HW1 9848   0.864   1.494   4.238
 2983SOL    HW2 9849   0.826   1.381   4.127
 2984SOL     OW 9850   4.784   5.627   1.903
 2984SOL    HW1 9851   4.843   5.664   1.832
 2984SOL    HW2 9852   4.838   5.603   1.983
 2985SOL     OW 9853   1.024   2.790   4.898
 2985SOL    HW1 9854   0.992   2.844   4.820
 2985SOL    HW2 9855   1.027   2.847   4.980
 2986SOL     OW 9856   2.045   3.670   6.289
 2986SOL    HW1 9857   2.035   3.619   6.374
 2986SOL    HW2 9858   2.139   3.662   6.256
 2987SOL     OW 9859   5.559   0.386   3.824
 2987SOL    HW1 9860   5.467   0.348   3.832
 2987SOL    HW2 9861   5.600   0.392   3.915
 2988SOL     OW 9862   0.555   6.677   2.683
 2988SOL    HW1 9863   0.468   6.634   2.660
 2988SOL    HW2 9864   0.588   6.640   2.771
 2989SOL     OW 9865   6.394   6.260   0.639
 2989SOL    HW1 9866   6.474   6.288   0.586
 2989SOL    HW2 9867   6.412   6.275   0.737
 2990SOL     OW 9868   4.390   1.355   3.895
 2990SOL    HW1 9869   4.453   1.281   3.919
 2990SOL    HW2 9870   4.363   1.346   3.799
 2991SOL     OW 9871   6.786   3.982   6.820
 2991SOL    HW1 9872   6.835   3.937   6.745
 2991SOL    HW2 9873   6.775   3.917   6.895
 2992SOL     OW 9874   2.217   4.800   5.736
 2992SOL    HW1 9875   2.237   4.872   5.802
 2992SOL    HW2 9876   2.259   4.714   5.765
 2993SOL     OW 9877   1.106   5.014   1.746
 2993SOL    HW1 9878   1.050   5.055   1.674
 2993SOL    HW2 9879   1.149   4.931   1.712
 2994SOL     OW 9880   3.927   0.213   0.815
 2994SOL    HW1 9881   3.947   0.311   0.810
 2994SOL    HW2 9882   4.012   0.162   0.818
 2995SOL     OW 9883   1.836   3.378   6.679
 2995SOL    HW1 9884   1.788   3.366   6.592
 2995SOL    HW2 9885   1.933   3.356   6.666
 2996SOL     OW 9886   2.275   6.482   3.505
 2996SOL    HW1 9887   2.188   6.434   3.506
 2996SOL    HW2 9888   2.260   6.579   3.522
 2997SOL     OW 9889   5.090   0.156   1.789
 2997SOL    HW1 9890   5.175   0.129   1.744
 2997SOL    HW2 9891   5.031   0.075   1.799
 2998SOL     OW 9892   5.765   6.290   5.219
 2998SOL    HW1 9893   5.835   6.313   5.286
 2998SOL    HW2 9894   5.684   6.254   5.266
 2999SOL     OW 9895   3.309   4.968   3.623
 2999SOL    HW1 9896   3.232   4.952   3.684
 2999SOL    HW2 9897   3.276   5.008   3.537
 3000SOL     OW 9898   1.886   3.665   6.630
 3000SOL    HW1 9899   1.821   3.654   6.705
 3000SOL    HW2 9900   1.837   3.688   6.546
 3001SOL     OW 9901   5.633   6.277   6.836
 3001SOL    HW1 9902   5.554   6.270   6.897
 3001SOL    HW2 9903   5.605   6.255   6.743
 3002SOL     OW 9904   4.279   0.381   6.032
 3002SOL    HW1 9905   4.371   0.405   6.002
 3002SOL    HW2 9906   4.216   0.456   6.009
 3003SOL     OW 9907   2.490   0.058   6.397
 3003SOL    HW1 9908   2.526   7.006   6.345
 3003SOL    HW2 9909   2.390   0.052   6.402
 3004SOL     OW 9910   0.776   5.154   3.717
 3004SOL    HW1 9911   0.768   5.062   3.756
 3004SOL    HW2 9912   0.714   5.216   3.765
 3005SOL     OW 9913   3.190   2.700   6.921
 3005SOL    HW1 9914   3.223   2.755   6.845
 3005SOL    HW2 9915   3.245   2.616   6.928
 3006SOL     OW 9916   6.118   2.222   6.717
 3006SOL    HW1 9917   6.211   2.218   6.681
 3006SOL    HW2 9918   6.084   2.130   6.731
 3007SOL     OW 9919   5.978   4.848   2.117
 3007SOL    HW1 9920   5.904   4.781   2.128
 3007SOL    HW2 9921   6.013   4.843   2.024
 3008SOL     OW 9922   3.310   0.770   6.408
 3008SOL    HW1 9923   3.376   0.767   6.482
 3008SOL    HW2 9924   3.262   0.682   6.402
 3009SOL     OW 9925   0.183   6.694   3.091
 3009SOL    HW1 9926   0.146   6.607   3.127
 3009SOL    HW2 9927   0.280   6.683   3.069
 3010SOL     OW 9928   3.730   6.631   3.612
 3010SOL    HW1 9929   3.731   6.636   3.712
 3010SOL    HW2 9930   3.804   6.687   3.575
 3011SOL     OW 9931   5.642   1.622   7.026
 3011SOL    HW1 9932   5.714   1.612   0.069
 3011SOL    HW2 9933   5.684   1.642   6.937
 3012SOL     OW 9934   1.113   3.325   5.282
 3012SOL    HW1 9935   1.054   3.309   5.203
 3012SOL    HW2 9936   1.059   3.312   5.366
 3013SOL     OW 9937   5.431   5.582   4.932
 3013SOL    HW1 9938   5.394   5.507   4.987
 3013SOL    HW2 9939   5.493   5.544   4.863
 3014SOL     OW 9940   5.165   3.550   4.021
 3014SOL    HW1 9941   5.077   3.555   4.069
 3014SOL    HW2 9942   5.233   3.506   4.079
 3015SOL     OW 9943   2.944   2.442   0.502
 3015SOL    HW1 9944   2.856   2.396   0.489
 3015SOL    HW2 9945   2.980   2.471   0.413
 3016SOL     OW 9946   2.828   5.694   3.904
 3016SOL    HW1 9947   2.831   5.634   3.984
 3016SOL    HW2 9948   2.733   5.715   3.881
 3017SOL     OW 9949   0.855   5.074   2.024
 3017SOL    HW1 9950   0.941   5.024   2.027
 3017SOL    HW2 9951   0.851   5.128   1.940
 3018SOL     OW 9952   2.059   0.112   4.911
 3018SOL    HW1 9953   2.110   0.093   4.995
 3018SOL    HW2 9954   1.961   0.107   4.929
 3019SOL     OW 9955   1.948   6.857   0.742
 3019SOL    HW1 9956   1.968   6.940   0.793
 3019SOL    HW2 9957   1.946   6.779   0.804
 3020SOL     OW 9958   3.660   3.826   1.604
 3020SOL    HW1 9959   3.623   3.808   1.695
 3020SOL    HW2 9960   3.644   3.922   1.579
 3021SOL     OW 9961   3.290   0.821   0.078
 3021SOL    HW1 9962   3.338   0.820   0.167
 3021SOL    HW2 9963   3.350   0.862   0.009
 3022SOL     OW 9964   4.114   5.665   3.890
 3022SOL    HW1 9965   4.061   5.741   3.928
 3022SOL    HW2 9966   4.210   5.692   3.882
 3023SOL     OW 9967   4.677   6.904   2.474
 3023SOL    HW1 9968   4.698   6.824   2.419
 3023SOL    HW2 9969   4.717   6.986   2.431
 3024SOL     OW 9970   4.141   0.055   5.679
 3024SOL    HW1 9971   4.210   0.096   5.740
 3024SOL    HW2 9972   4.056   0.043   5.729
 3025SOL     OW 9973   3.707   1.747   0.461
 3025SOL    HW1 9974   3.699   1.844   0.481
 3025SOL    HW2 9975   3.804   1.721   0.458
 3026SOL     OW 9976   2.125   2.053   0.490
 3026SOL    HW1 9977   2.221   2.066   0.465
 3026SOL    HW2 9978   2.114   1.963   0.533
 3027SOL     OW 9979   4.250   0.379   1.960
 3027SOL    HW1 9980   4.256   0.318   2.039
 3027SOL    HW2 9981   4.155   0.409   1.949
 3028SOL     OW 9982   1.780   3.849   5.874
 3028SOL    HW1 9983   1.820   3.933   5.911
 3028SOL    HW2 9984   1.818   3.770   5.923
 3029SOL     OW 9985   0.356   5.264   5.235
 3029SOL    HW1 9986   0.319   5.242   5.145
 3029SOL    HW2 9987   0.350   5.363   5.251
 3030SOL     OW 9988   1.094   2.376   6.423
 3030SOL    HW1 9989   1.111   2.469   6.455
 3030SOL    HW2 9990   1.097   2.374   6.323
 3031SOL     OW 9991   0.059   3.587   0.959
 3031SOL    HW1 9992   6.995   3.631   0.950
 3031SOL    HW2 9993   0.086   3.549   0.871
 3032SOL     OW 9994   4.331   6.510   1.335
 3032SOL    HW1 9995   4.321   6.594   1.282
 3032SOL    HW2 9996   4.409   6.519   1.397
 3033SOL     OW 9997   0.466   2.916   1.386
 3033SOL    HW1 9998   0.419   2.828   1.394
 3033SOL    HW2 9999   0.438   2.961   1.301
 3034SOL     OW10000   1.864   5.604   3.330
 3034SOL    HW110001   1.957   5.569   3.339
 3034SOL    HW210002   1.856   5.689   3.382
 3035SOL     OW10003   6.846   3.140   0.262
 3035SOL    HW110004   6.751   3.115   0.279
 3035SOL    HW210005   6.870   3.220   0.317
 3036SOL     OW10006   1.531   3.052   6.105
 3036SOL    HW110007   1.486   3.018   6.187
 3036SOL    HW210008   1.615   2.999   6.089
 3037SOL     OW10009   6.968   5.699   4.401
 3037SOL    HW110010   6.970   5.672   4.305
 3037SOL    HW210011   6.912   5.782   4.411
 3038SOL     OW10012   5.870   6.530   6.569
 3038SOL    HW110013   5.827   6.572   6.489
 3038SOL    HW210014   5.875   6.431   6.557
 3039SOL     OW10015   6.633   3.763   1.975
 3039SOL    HW110016   6.648   3.701   1.898
 3039SOL    HW210017   6.540   3.800   1.971
 3040SOL     OW10018   4.844   3.228   6.216
 3040SOL    HW110019   4.765   3.196   6.163
 3040SOL    HW210020   4.860   3.325   6.196
 3041SOL     OW10021   2.203   3.137   5.241
 3041SOL    HW110022   2.241   3.226   5.265
 3041SOL    HW210023   2.267   3.088   5.182
 3042SOL     OW10024   5.400   7.007   1.335
 3042SOL    HW110025   5.455   6.928   1.360
 3042SOL    HW210026   5.402   0.048   1.410
 3043SOL     OW10027   0.701   5.368   1.300
 3043SOL    HW110028   0.789   5.367   1.349
 3043SOL    HW210029   0.679   5.275   1.271
 3044SOL     OW10030   2.924   4.681   6.279
 3044SOL    HW110031   2.828   4.665   6.303
 3044SOL    HW210032   2.944   4.779   6.286
 3045SOL     OW10033   4.816   0.784   3.100
 3045SOL    HW110034   4.728   0.787   3.148
 3045SOL    HW210035   4.842   0.876   3.073
 3046SOL     OW10036   2.740   2.241   6.917
 3046SOL    HW110037   2.672   2.292   6.864
 3046SOL    HW210038   2.735   2.144   6.892
 3047SOL     OW10039   5.601   6.500   2.264
 3047SOL    HW110040   5.544   6.575   2.232
 3047SOL    HW210041   5.686   6.536   2.303
 3048SOL     OW10042   3.844   2.777   1.731
 3048SOL    HW110043   3.803   2.686   1.737
 3048SOL    HW210044   3.792   2.841   1.788
 3049SOL     OW10045   1.568   6.374   1.717
 3049SOL    HW110046   1.585   6.448   1.652
 3049SOL    HW210047   1.527   6.296   1.670
 3050SOL     OW10048   3.383   1.176   3.055
 3050SOL    HW110049   3.383   1.267   3.014
 3050SOL    HW210050   3.295   1.132   3.039
 3051SOL     OW10051   2.359   4.057   7.013
 3051SOL    HW110052   2.445   4.063   6.963
 3051SOL    HW210053   2.289   4.016   6.955
 3052SOL     OW10054   4.266   0.817   2.229
 3052SOL    HW110055   4.222   0.903   2.202
 3052SOL    HW210056   4.229   0.786   2.316
 3053SOL     OW10057   6.939   1.207   6.711
 3053SOL    HW110058   6.881   1.285   6.736
 3053SOL    HW210059   6.984   1.225   6.623
 3054SOL     OW10060   0.085   2.456   1.531
 3054SOL    HW110061   0.072   2.410   1.443
 3054SOL    HW210062   0.141   2.399   1.590
 3055SOL     OW10063   5.099   6.958   4.082
 3055SOL    HW110064   5.094   6.976   3.984
 3055SOL    HW210065   5.133   6.865   4.098
 3056SOL     OW10066   6.647   1.454   5.841
 3056SOL    HW110067   6.737   1.466   5.882
 3056SOL    HW210068   6.652   1.382   5.771
 3057SOL     OW10069   3.962   6.126   3.383
 3057SOL    HW110070   3.934   6.030   3.378
 3057SOL    HW210071   4.016   6.149   3.302
 3058SOL     OW10072   6.933   5.887   1.229
 3058SOL    HW110073   6.942   5.846   1.138
 3058SOL    HW210074   6.913   5.984   1.221
 3059SOL     OW10075   2.467   2.363   4.530
 3059SOL    HW110076   2.517   2.431   4.583
 3059SOL    HW210077   2.480   2.380   4.432
 3060SOL     OW10078   0.866   6.127   0.623
 3060SOL    HW110079   0.776   6.154   0.659
 3060SOL    HW210080   0.936   6.152   0.689
 3061SOL     OW10081   6.046   0.965   5.430
 3061SOL    HW110082   6.022   0.943   5.525
 3061SOL    HW210083   6.132   0.920   5.407
 3062SOL     OW10084   1.173   6.858   6.973
 3062SOL    HW110085   1.162   6.808   6.887
 3062SOL    HW210086   1.083   6.877   7.012
 3063SOL     OW10087   2.876   5.586   1.382
 3063SOL    HW110088   2.782   5.620   1.378
 3063SOL    HW210089   2.936   5.659   1.413
 3064SOL     OW10090   5.347   3.734   3.915
 3064SOL    HW110091   5.281   3.673   3.958
 3064SOL    HW210092   5.349   3.822   3.962
 3065SOL     OW10093   2.116   1.075   6.717
 3065SOL    HW110094   2.100   0.988   6.763
 3065SOL    HW210095   2.029   1.122   6.701
 3066SOL     OW10096   4.781   4.897   0.878
 3066SOL    HW110097   4.749   4.857   0.792
 3066SOL    HW210098   4.792   4.996   0.866
 3067SOL     OW10099   4.009   2.122   4.746
 3067SOL    HW110100   4.033   2.177   4.826
 3067SOL    HW210101   4.065   2.151   4.668
 3068SOL     OW10102   5.453   5.806   1.161
 3068SOL    HW110103   5.369   5.860   1.161
 3068SOL    HW210104   5.442   5.728   1.223
 3069SOL     OW10105   6.649   6.148   1.876
 3069SOL    HW110106   6.737   6.113   1.907
 3069SOL    HW210107   6.639   6.243   1.904
 3070SOL     OW10108   1.487   1.019   2.254
 3070SOL    HW110109   1.529   1.109   2.243
 3070SOL    HW210110   1.417   1.023   2.325
 3071SOL     OW10111   5.833   5.996   3.524
 3071SOL    HW110112   5.850   5.978   3.427
 3071SOL    HW210113   5.840   6.094   3.541
 3072SOL     OW10114   1.113   6.376   0.405
 3072SOL    HW110115   1.117   6.276   0.412
 3072SOL    HW210116   1.022   6.404   0.372
 3073SOL     OW10117   0.724   3.285   5.274
 3073SOL    HW110118   0.706   3.254   5.368
 3073SOL    HW210119   0.651   3.346   5.244
 3074SOL     OW10120   5.761   2.765   1.001
 3074SOL    HW110121   5.818   2.775   1.083
 3074SOL    HW210122   5.665   2.756   1.029
 3075SOL     OW10123   1.934   6.540   1.319
 3075SOL    HW110124   1.999   6.572   1.387
 3075SOL    HW210125   1.880   6.465   1.356
 3076SOL     OW10126   6.919   1.666   4.700
 3076SOL    HW110127   6.824   1.641   4.679
 3076SOL    HW210128   6.952   1.730   4.631
 3077SOL     OW10129   5.153   5.281   2.882
 3077SOL    HW110130   5.189   5.240   2.799
 3077SOL    HW210131   5.070   5.233   2.911
 3078SOL     OW10132   1.062   3.446   1.324
 3078SOL    HW110133   0.989   3.427   1.390
 3078SOL    HW210134   1.028   3.432   1.231
 3079SOL     OW10135   2.635   2.076   4.353
 3079SOL    HW110136   2.678   2.148   4.406
 3079SOL    HW210137   2.702   2.039   4.287
 3080SOL     OW10138   5.105   4.465   3.325
 3080SOL    HW110139   5.013   4.460   3.363
 3080SOL    HW210140   5.109   4.412   3.240
 3081SOL     OW10141   0.433   2.854   6.080
 3081SOL    HW110142   0.369   2.927   6.059
 3081SOL    HW210143   0.387   2.784   6.135
 3082SOL     OW10144   3.419   6.926   3.814
 3082SOL    HW110145   3.511   6.953   3.784
 3082SOL    HW210146   3.384   6.855   3.753
 3083SOL     OW10147   4.237   6.213   3.522
 3083SOL    HW110148   4.233   6.195   3.620
 3083SOL    HW210149   4.165   6.162   3.476
 3084SOL     OW10150   4.880   4.127   4.739
 3084SOL    HW110151   4.848   4.089   4.652
 3084SOL    HW210152   4.830   4.212   4.759
 3085SOL     OW10153   0.711   4.816   2.016
 3085SOL    HW110154   0.768   4.785   2.093
 3085SOL    HW210155   0.759   4.889   1.967
 3086SOL     OW10156   3.919   1.843   2.249
 3086SOL    HW110157   3.909   1.940   2.271
 3086SOL    HW210158   3.832   1.796   2.267
 3087SOL     OW10159   1.183   5.225   4.123
 3087SOL    HW110160   1.151   5.148   4.178
 3087SOL    HW210161   1.146   5.218   4.030
 3088SOL     OW10162   2.130   5.222   5.983
 3088SOL    HW110163   2.174   5.244   5.896
 3088SOL    HW210164   2.170   5.138   6.020
 3089SOL     OW10165   1.283   3.167   0.819
 3089SOL    HW110166   1.223   3.091   0.843
 3089SOL    HW210167   1.230   3.237   0.771
 3090SOL     OW10168   2.174   2.323   1.920
 3090SOL    HW110169   2.178   2.248   1.854
 3090SOL    HW210170   2.101   2.306   1.986
 3091SOL     OW10171   1.727   6.768   0.423
 3091SOL    HW110172   1.827   6.779   0.424
 3091SOL    HW210173   1.691   6.801   0.336
 3092SOL     OW10174   5.145   6.950   0.312
 3092SOL    HW110175   5.177   7.022   0.250
 3092SOL    HW210176   5.131   6.989   0.403
 3093SOL     OW10177   5.355   5.603   5.713
 3093SOL    HW110178   5.451   5.594   5.687
 3093SOL    HW210179   5.302   5.631   5.632
 3094SOL     OW10180   3.031   6.620   4.157
 3094SOL    HW110181   3.074   6.617   4.067
 3094SOL    HW210182   2.932   6.613   4.147
 3095SOL     OW10183   2.782   5.643   4.631
 3095SOL    HW110184   2.706   5.588   4.597
 3095SOL    HW210185   2.840   5.588   4.691
 3096SOL     OW10186   0.858   0.461   4.787
 3096SOL    HW110187   0.916   0.462   4.706
 3096SOL    HW210188   0.815   0.551   4.798
 3097SOL     OW10189   0.465   2.258   1.232
 3097SOL    HW110190   0.410   2.220   1.306
 3097SOL    HW210191   0.406   2.284   1.156
 3098SOL     OW10192   2.461   3.780   1.219
 3098SOL    HW110193   2.486   3.876   1.206
 3098SOL    HW210194   2.368   3.775   1.254
 3099SOL     OW10195   0.118   5.850   4.568
 3099SOL    HW110196   0.106   5.762   4.615
 3099SOL    HW210197   0.112   5.835   4.469
 3100SOL     OW10198   6.228   0.019   4.898
 3100SOL    HW110199   6.214   0.082   4.821
 3100SOL    HW210200   6.270   0.068   4.974
 3101SOL     OW10201   5.307   6.014   6.100
 3101SOL    HW110202   5.367   5.941   6.134
 3101SOL    HW210203   5.214   5.978   6.088
 3102SOL     OW10204   0.370   5.233   3.057
 3102SOL    HW110205   0.391   5.173   3.134
 3102SOL    HW210206   0.435   5.216   2.983
 3103SOL     OW10207   3.126   1.241   1.831
 3103SOL    HW110208   3.219   1.218   1.804
 3103SOL    HW210209   3.104   1.334   1.802
 3104SOL     OW10210   5.341   6.854   5.341
 3104SOL    HW110211   5.342   6.938   5.394
 3104SOL    HW210212   5.395   6.866   5.258
 3105SOL     OW10213   6.174   4.597   1.945
 3105SOL    HW110214   6.122   4.532   1.890
 3105SOL    HW210215   6.138   4.689   1.931
 3106SOL     OW10216   6.317   0.725   3.288
 3106SOL    HW110217   6.298   0.809   3.238
 3106SOL    HW210218   6.232   0.686   3.323
 3107SOL     OW10219   4.284   0.780   3.876
 3107SOL    HW110220   4.266   0.732   3.962
 3107SOL    HW210221   4.231   0.865   3.873
 3108SOL     OW10222   1.213   0.615   4.444
 3108SOL    HW110223   1.223   0.566   4.530
 3108SOL    HW210224   1.252   0.706   4.453
 3109SOL     OW10225   5.631   6.002   2.630
 3109SOL    HW110226   5.700   6.023   2.700
 3109SOL    HW210227   5.542   5.993   2.674
 3110SOL     OW10228   1.248   1.737   3.384
 3110SOL    HW110229   1.283   1.830   3.376
 3110SOL    HW210230   1.211   1.724   3.476
 3111SOL     OW10231   6.698   5.646   3.768
 3111SOL    HW110232   6.612   5.644   3.819
 3111SOL    HW210233   6.727   5.741   3.756
 3112SOL     OW10234   5.108   2.538   6.293
 3112SOL    HW110235   5.182   2.565   6.232
 3112SOL    HW210236   5.041   2.613   6.299
 3113SOL     OW10237   1.720   6.460   4.517
 3113SOL    HW110238   1.711   6.514   4.434
 3113SOL    HW210239   1.660   6.497   4.588
 3114SOL     OW10240   4.426   2.578   7.000
 3114SOL    HW110241   4.335   2.577   6.960
 3114SOL    HW210242   4.458   2.672   7.011
 3115SOL     OW10243   4.776   3.461   6.671
 3115SOL    HW110244   4.868   3.497   6.690
 3115SOL    HW210245   4.765   3.450   6.573
 3116SOL     OW10246   6.763   3.782   0.002
 3116SOL    HW110247   6.733   3.785   0.098
 3116SOL    HW210248   6.694   3.735   6.973
 3117SOL     OW10249   4.519   3.688   5.324
 3117SOL    HW110250   4.449   3.617   5.333
 3117SOL    HW210251   4.587   3.659   5.257
 3118SOL     OW10252   0.520   4.555   6.938
 3118SOL    HW110253   0.482   4.624   7.000
 3118SOL    HW210254   0.616   4.538   6.962
 3119SOL     OW10255   1.343   3.326   5.664
 3119SOL    HW110256   1.292   3.404   5.700
 3119SOL    HW210257   1.285   3.245   5.666
 3120SOL     OW10258   2.766   6.639   4.150
 3120SOL    HW110259   2.764   6.739   4.145
 3120SOL    HW210260   2.728   6.601   4.065
 3121SOL     OW10261   0.447   1.758   2.437
 3121SOL    HW110262   0.389   1.677   2.442
 3121SOL    HW210263   0.535   1.735   2.398
 3122SOL     OW10264   2.866   6.274   5.754
 3122SOL    HW110265   2.892   6.270   5.851
 3122SOL    HW210266   2.860   6.370   5.726
 3123SOL     OW10267   3.441   0.457   3.955
 3123SOL    HW110268   3.530   0.494   3.982
 3123SOL    HW210269   3.371   0.494   4.015
 3124SOL     OW10270   4.481   6.912   4.598
 3124SOL    HW110271   4.394   6.899   4.549
 3124SOL    HW210272   4.505   7.009   4.598
 3125SOL     OW10273   6.300   1.864   5.534
 3125SOL    HW110274   6.326   1.782   5.483
 3125SOL    HW210275   6.232   1.839   5.604
 3126SOL     OW10276   5.073   4.802   6.236
 3126SOL    HW110277   5.066   4.848   6.325
 3126SOL    HW210278   5.036   4.862   6.165
 3127SOL     OW10279   1.398   2.423   2.969
 3127SOL    HW110280   1.317   2.450   2.918
 3127SOL    HW210281   1.373   2.402   3.063
 3128SOL     OW10282   2.063   0.176   6.461
 3128SOL    HW110283   2.113   0.263   6.458
 3128SOL    HW210284   2.125   0.101   6.443
 3129SOL     OW10285   1.230   4.050   6.326
 3129SOL    HW110286   1.246   3.994   6.408
 3129SOL    HW210287   1.291   4.129   6.328
 3130SOL     OW10288   1.768   4.418   1.781
 3130SOL    HW110289   1.835   4.445   1.712
 3130SOL    HW210290   1.737   4.325   1.763
 3131SOL     OW10291   0.635   2.412   1.543
 3131SOL    HW110292   0.535   2.410   1.550
 3131SOL    HW210293   0.674   2.356   1.616
 3132SOL     OW10294   5.400   5.265   5.735
 3132SOL    HW110295   5.462   5.336   5.769
 3132SOL    HW210296   5.449   5.178   5.729
 3133SOL     OW10297   3.239   2.120   3.329
 3133SOL    HW110298   3.337   2.101   3.317
 3133SOL    HW210299   3.190   2.034   3.344
 3134SOL     OW10300   4.870   4.856   1.854
 3134SOL    HW110301   4.873   4.954   1.872
 3134SOL    HW210302   4.961   4.816   1.872
 3135SOL     OW10303   4.839   1.166   4.964
 3135SOL    HW110304   4.895   1.133   4.888
 3135SOL    HW210305   4.827   1.092   5.031
 3136SOL     OW10306   5.519   0.461   6.576
 3136SOL    HW110307   5.614   0.491   6.584
 3136SOL    HW210308   5.461   0.540   6.560
 3137SOL     OW10309   5.921   0.162   3.448
 3137SOL    HW110310   5.823   0.151   3.464
 3137SOL    HW210311   5.937   0.185   3.352
 3138SOL     OW10312   6.643   2.202   3.933
 3138SOL    HW110313   6.556   2.186   3.980
 3138SOL    HW210314   6.684   2.287   3.967
 3139SOL     OW10315   4.387   6.833   0.169
 3139SOL    HW110316   4.384   6.790   0.079
 3139SOL    HW210317   4.333   6.917   0.168
 3140SOL     OW10318   6.074   6.975   6.403
 3140SOL    HW110319   6.052   6.919   6.484
 3140SOL    HW210320   6.106   0.039   6.433
 3141SOL     OW10321   0.911   6.518   6.130
 3141SOL    HW110322   0.826   6.526   6.182
 3141SOL    HW210323   0.976   6.587   6.162
 3142SOL     OW10324   4.854   6.026   1.572
 3142SOL    HW110325   4.877   6.050   1.666
 3142SOL    HW210326   4.825   6.107   1.522
 3143SOL     OW10327   0.293   2.575   6.800
 3143SOL    HW110328   0.276   2.670   6.775
 3143SOL    HW210329   0.377   2.544   6.756
 3144SOL     OW10330   2.782   3.992   1.546
 3144SOL    HW110331   2.730   4.070   1.580
 3144SOL    HW210332   2.720   3.925   1.505
 3145SOL     OW10333   1.673   4.881   2.670
 3145SOL    HW110334   1.669   4.889   2.570
 3145SOL    HW210335   1.606   4.942   2.711
 3146SOL     OW10336   1.008   6.875   3.319
 3146SOL    HW110337   0.961   6.960   3.295
 3146SOL    HW210338   1.094   6.870   3.268
 3147SOL     OW10339   4.613   5.283   6.859
 3147SOL    HW110340   4.651   5.194   6.885
 3147SOL    HW210341   4.553   5.316   6.932
 3148SOL     OW10342   5.412   5.580   4.454
 3148SOL    HW110343   5.439   5.657   4.396
 3148SOL    HW210344   5.483   5.562   4.522
 3149SOL     OW10345   3.582   0.428   5.338
 3149SOL    HW110346   3.666   0.468   5.300
 3149SOL    HW210347   3.540   0.493   5.401
 3150SOL     OW10348   6.475   5.625   3.919
 3150SOL    HW110349   6.460   5.661   4.011
 3150SOL    HW210350   6.400   5.655   3.860
 3151SOL     OW10351   3.786   0.717   6.779
 3151SOL    HW110352   3.697   0.680   6.807
 3151SOL    HW210353   3.808   0.798   6.834
 3152SOL     OW10354   1.399   5.026   1.891
 3152SOL    HW110355   1.387   5.021   1.792
 3152SOL    HW210356   1.365   4.942   1.933
 3153SOL     OW10357   6.876   4.116   1.603
 3153SOL    HW110358   6.847   4.038   1.658
 3153SOL    HW210359   6.890   4.087   1.508
 3154SOL     OW10360   5.986   1.738   0.097
 3154SOL    HW110361   5.921   1.692   0.157
 3154SOL    HW210362   5.984   1.836   0.113
 3155SOL     OW10363   6.881   5.258   1.646
 3155SOL    HW110364   6.832   5.180   1.605
 3155SOL    HW210365   6.973   5.229   1.672
 3156SOL     OW10366   4.109   3.424   3.577
 3156SOL    HW110367   4.027   3.432   3.634
 3156SOL    HW210368   4.180   3.375   3.627
 3157SOL     OW10369   1.799   3.425   5.006
 3157SOL    HW110370   1.847   3.501   5.050
 3157SOL    HW210371   1.842   3.339   5.030
 3158SOL     OW10372   4.755   0.116   1.661
 3158SOL    HW110373   4.795   0.076   1.744
 3158SOL    HW210374   4.821   0.179   1.620
 3159SOL     OW10375   5.740   0.488   0.268
 3159SOL    HW110376   5.812   0.492   0.337
 3159SOL    HW210377   5.771   0.533   0.185
 3160SOL     OW10378   6.515   5.561   5.641
 3160SOL    HW110379   6.564   5.482   5.604
 3160SOL    HW210380   6.417   5.539   5.646
 3161SOL     OW10381   0.878   1.272   2.796
 3161SOL    HW110382   0.893   1.305   2.889
 3161SOL    HW210383   0.948   1.311   2.735
 3162SOL     OW10384   0.601   5.394   0.443
 3162SOL    HW110385   0.664   5.432   0.376
 3162SOL    HW210386   0.647   5.382   0.530
 3163SOL     OW10387   3.474   2.336   6.827
 3163SOL    HW110388   3.572   2.315   6.828
 3163SOL    HW210389   3.453   2.391   6.747
 3164SOL     OW10390   4.603   4.207   1.388
 3164SOL    HW110391   4.553   4.283   1.346
 3164SOL    HW210392   4.607   4.220   1.487
 3165SOL     OW10393   0.830   6.633   1.679
 3165SOL    HW110394   0.738   6.671   1.692
 3165SOL    HW210395   0.897   6.693   1.723
 3166SOL     OW10396   5.094   2.327   6.705
 3166SOL    HW110397   5.121   2.301   6.612
 3166SOL    HW210398   5.172   2.316   6.767
 3167SOL     OW10399   0.329   4.765   1.631
 3167SOL    HW110400   0.391   4.718   1.694
 3167SOL    HW210401   0.239   4.722   1.634
 3168SOL     OW10402   5.130   3.040   0.524
 3168SOL    HW110403   5.171   3.062   0.612
 3168SOL    HW210404   5.132   3.122   0.466
 3169SOL     OW10405   0.891   2.757   5.968
 3169SOL    HW110406   0.912   2.665   5.936
 3169SOL    HW210407   0.859   2.754   6.062
 3170SOL     OW10408   3.782   0.564   0.206
 3170SOL    HW110409   3.856   0.588   0.269
 3170SOL    HW210410   3.704   0.625   0.222
 3171SOL     OW10411   6.771   6.732   1.000
 3171SOL    HW110412   6.724   6.803   0.948
 3171SOL    HW210413   6.861   6.766   1.028
 3172SOL     OW10414   0.581   5.907   5.422
 3172SOL    HW110415   0.607   5.953   5.337
 3172SOL    HW210416   0.614   5.960   5.500
 3173SOL     OW10417   2.970   1.698   1.527
 3173SOL    HW110418   2.988   1.618   1.584
 3173SOL    HW210419   2.902   1.757   1.572
 3174SOL     OW10420   2.380   2.643   6.742
 3174SOL    HW110421   2.429   2.630   6.828
 3174SOL    HW210422   2.344   2.736   6.739
 3175SOL     OW10423   6.882   6.459   0.261
 3175SOL    HW110424   6.869   6.412   0.348
 3175SOL    HW210425   6.796   6.456   0.209
 3176SOL     OW10426   2.136   5.210   5.016
 3176SOL    HW110427   2.157   5.124   5.062
 3176SOL    HW210428   2.222   5.254   4.988
 3177SOL     OW10429   5.223   5.638   5.460
 3177SOL    HW110430   5.133   5.658   5.498
 3177SOL    HW210431   5.245   5.707   5.390
 3178SOL     OW10432   6.743   3.027   0.929
 3178SOL    HW110433   6.813   3.084   0.887
 3178SOL    HW210434   6.782   2.976   1.005
 3179SOL     OW10435   1.934   2.836   1.636
 3179SOL    HW110436   1.926   2.879   1.546
 3179SOL    HW210437   2.012   2.874   1.685
 3180SOL     OW10438   4.274   0.729   6.664
 3180SOL    HW110439   4.178   0.702   6.654
 3180SOL    HW210440   4.331   0.646   6.667
 3181SOL     OW10441   0.534   0.211   2.836
 3181SOL    HW110442   0.523   0.142   2.764
 3181SOL    HW210443   0.452   0.211   2.894
 3182SOL     OW10444   1.026   0.972   5.770
 3182SOL    HW110445   0.953   1.000   5.708
 3182SOL    HW210446   1.064   0.885   5.740
 3183SOL     OW10447   4.720   3.923   1.726
 3183SOL    HW110448   4.746   3.973   1.644
 3183SOL    HW210449   4.620   3.926   1.737
 3184SOL     OW10450   2.667   2.037   2.429
 3184SOL    HW110451   2.674   2.030   2.330
 3184SOL    HW210452   2.627   2.126   2.453
 3185SOL     OW10453   6.075   0.647   6.452
 3185SOL    HW110454   6.065   0.707   6.532
 3185SOL    HW210455   6.168   0.610   6.450
 3186SOL     OW10456   3.147   1.093   2.951
 3186SOL    HW110457   3.106   1.019   3.004
 3186SOL    HW210458   3.087   1.172   2.951
 3187SOL     OW10459   4.092   4.236   6.919
 3187SOL    HW110460   4.186   4.236   6.953
 3187SOL    HW210461   4.046   4.320   6.949
 3188SOL     OW10462   3.588   5.804   3.083
 3188SOL    HW110463   3.618   5.899   3.089
 3188SOL    HW210464   3.664   5.747   3.053
 3189SOL     OW10465   2.270   1.503   3.259
 3189SOL    HW110466   2.179   1.487   3.219
 3189SOL    HW210467   2.272   1.593   3.302
 3190SOL     OW10468   0.867   6.527   1.448
 3190SOL    HW110469   0.954   6.561   1.412
 3190SOL    HW210470   0.854   6.562   1.541
 3191SOL     OW10471   3.159   6.652   0.681
 3191SOL    HW110472   3.086   6.620   0.741
 3191SOL    HW210473   3.126   6.729   0.626
 3192SOL     OW10474   0.688   2.093   1.146
 3192SOL    HW110475   0.651   2.002   1.165
 3192SOL    HW210476   0.621   2.162   1.176
 3193SOL     OW10477   4.357   2.491   6.700
 3193SOL    HW110478   4.390   2.410   6.652
 3193SOL    HW210479   4.436   2.542   6.736
 3194SOL     OW10480   1.585   2.470   6.689
 3194SOL    HW110481   1.507   2.441   6.634
 3194SOL    HW210482   1.662   2.409   6.675
 3195SOL     OW10483   1.956   2.794   2.867
 3195SOL    HW110484   1.947   2.886   2.907
 3195SOL    HW210485   1.865   2.762   2.840
 3196SOL     OW10486   6.143   0.660   5.132
 3196SOL    HW110487   6.102   0.728   5.072
 3196SOL    HW210488   6.218   0.614   5.083
 3197SOL     OW10489   1.650   5.788   3.534
 3197SOL    HW110490   1.672   5.780   3.631
 3197SOL    HW210491   1.609   5.703   3.502
 3198SOL     OW10492   6.502   2.400   6.981
 3198SOL    HW110493   6.429   2.370   6.920
 3198SOL    HW210494   6.498   2.348   0.040
 3199SOL     OW10495   4.709   2.550   1.869
 3199SOL    HW110496   4.746   2.542   1.776
 3199SOL    HW210497   4.711   2.645   1.898
 3200SOL     OW10498   6.881   1.831   1.534
 3200SOL    HW110499   6.868   1.733   1.550
 3200SOL    HW210500   6.921   1.845   1.444
 3201SOL     OW10501   5.161   4.204   3.932
 3201SOL    HW110502   5.107   4.214   4.016
 3201SOL    HW210503   5.100   4.183   3.856
 3202SOL     OW10504   1.627   4.426   2.072
 3202SOL    HW110505   1.570   4.495   2.116
 3202SOL    HW210506   1.671   4.466   1.992
 3203SOL     OW10507   5.595   1.148   0.965
 3203SOL    HW110508   5.534   1.096   0.905
 3203SOL    HW210509   5.656   1.085   1.013
 3204SOL     OW10510   5.621   6.057   1.795
 3204SOL    HW110511   5.585   6.108   1.718
 3204SOL    HW210512   5.708   6.098   1.824
 3205SOL     OW10513   0.377   4.098   6.847
 3205SOL    HW110514   0.305   4.029   6.846
 3205SOL    HW210515   0.368   4.156   6.927
 3206SOL     OW10516   6.916   0.098   6.196
 3206SOL    HW110517   6.986   0.147   6.144
 3206SOL    HW210518   6.951   0.079   6.288
 3207SOL     OW10519   0.474   1.463   6.164
 3207SOL    HW110520   0.503   1.417   6.080
 3207SOL    HW210521   0.375   1.457   6.173
 3208SOL     OW10522   4.225   6.006   5.141
 3208SOL    HW110523   4.164   6.058   5.201
 3208SOL    HW210524   4.266   6.067   5.074
 3209SOL     OW10525   2.713   6.480   3.603
 3209SOL    HW110526   2.758   6.569   3.606
 3209SOL    HW210527   2.658   6.473   3.519
 3210SOL     OW10528   0.505   3.622   2.176
 3210SOL    HW110529   0.545   3.533   2.153
 3210SOL    HW210530   0.513   3.684   2.097
 3211SOL     OW10531   2.133   4.905   0.061
 3211SOL    HW110532   2.186   4.838   0.114
 3211SOL    HW210533   2.184   4.928   7.004
 3212SOL     OW10534   4.502   1.600   0.101
 3212SOL    HW110535   4.444   1.525   0.131
 3212SOL    HW210536   4.521   1.661   0.178
 3213SOL     OW10537   6.081   4.875   2.875
 3213SOL    HW110538   6.174   4.846   2.853
 3213SOL    HW210539   6.015   4.822   2.821
 3214SOL     OW10540   4.611   6.060   0.217
 3214SOL    HW110541   4.541   6.129   0.203
 3214SOL    HW210542   4.570   5.969   0.210
 3215SOL     OW10543   6.268   3.078   0.792
 3215SOL    HW110544   6.368   3.072   0.802
 3215SOL    HW210545   6.227   3.097   0.881
 3216SOL     OW10546   5.758   5.402   2.491
 3216SOL    HW110547   5.660   5.393   2.504
 3216SOL    HW210548   5.796   5.458   2.565
 3217SOL     OW10549   1.379   4.261   3.297
 3217SOL    HW110550   1.343   4.205   3.222
 3217SOL    HW210551   1.305   4.316   3.335
 3218SOL     OW10552   4.413   6.541   3.536
 3218SOL    HW110553   4.407   6.462   3.597
 3218SOL    HW210554   4.346   6.610   3.564
 3219SOL     OW10555   6.884   0.356   3.489
 3219SOL    HW110556   6.966   0.404   3.459
 3219SOL    HW210557   6.902   0.311   3.577
 3220SOL     OW10558   6.466   4.766   5.714
 3220SOL    HW110559   6.471   4.826   5.794
 3220SOL    HW210560   6.484   4.672   5.742
 3221SOL     OW10561   2.720   6.274   2.327
 3221SOL    HW110562   2.760   6.184   2.310
 3221SOL    HW210563   2.637   6.284   2.273
 3222SOL     OW10564   4.855   2.109   3.537
 3222SOL    HW110565   4.873   2.054   3.455
 3222SOL    HW210566   4.942   2.141   3.575
 3223SOL     OW10567   2.714   5.353   6.848
 3223SOL    HW110568   2.664   5.330   6.765
 3223SOL    HW210569   2.677   5.301   6.925
 3224SOL     OW10570   4.715   5.168   5.859
 3224SOL    HW110571   4.801   5.211   5.830
 3224SOL    HW210572   4.693   5.093   5.797
 3225SOL     OW10573   4.467   2.330   6.153
 3225SOL    HW110574   4.537   2.392   6.187
 3225SOL    HW210575   4.379   2.377   6.149
 3226SOL     OW10576   2.313   1.448   3.970
 3226SOL    HW110577   2.264   1.533   3.991
 3226SOL    HW210578   2.326   1.441   3.871
 3227SOL     OW10579   3.221   2.316   6.500
 3227SOL    HW110580   3.223   2.216   6.511
 3227SOL    HW210581   3.138   2.353   6.540
 3228SOL     OW10582   5.607   2.815   4.056
 3228SOL    HW110583   5.543   2.845   4.126
 3228SOL    HW210584   5.656   2.894   4.019
 3229SOL     OW10585   3.155   1.782   5.550
 3229SOL    HW110586   3.070   1.810   5.507
 3229SOL    HW210587   3.208   1.863   5.576
 3230SOL     OW10588   0.355   1.953   3.017
 3230SOL    HW110589   0.278   1.975   2.957
 3230SOL    HW210590   0.320   1.923   3.106
 3231SOL     OW10591   4.557   5.663   1.779
 3231SOL    HW110592   4.562   5.731   1.706
 3231SOL    HW210593   4.633   5.675   1.842
 3232SOL     OW10594   4.483   4.957   4.738
 3232SOL    HW110595   4.516   5.025   4.673
 3232SOL    HW210596   4.531   4.967   4.825
 3233SOL     OW10597   0.937   4.109   0.646
 3233SOL    HW110598   0.898   4.060   0.725
 3233SOL    HW210599   0.915   4.206   0.653
 3234SOL     OW10600   0.060   2.541   0.472
 3234SOL    HW110601   0.139   2.531   0.533
 3234SOL    HW210602   7.001   2.535   0.526
 3235SOL     OW10603   6.061   5.938   2.537
 3235SOL    HW110604   6.148   5.988   2.536
 3235SOL    HW210605   6.067   5.860   2.474
 3236SOL     OW10606   1.497   3.699   1.448
 3236SOL    HW110607   1.512   3.663   1.540
 3236SOL    HW210608   1.561   3.657   1.384
 3237SOL     OW10609   5.048   0.217   3.924
 3237SOL    HW110610   5.017   0.146   3.860
 3237SOL    HW210611   4.973   0.279   3.943
 3238SOL     OW10612   0.453   5.815   6.717
 3238SOL    HW110613   0.552   5.830   6.710
 3238SOL    HW210614   0.434   5.744   6.784
 3239SOL     OW10615   5.794   1.640   0.260
 3239SOL    HW110616   5.725   1.712   0.262
 3239SOL    HW210617   5.757   1.557   0.304
 3240SOL     OW10618   0.297   6.938   4.803
 3240SOL    HW110619   0.232   7.003   4.763
 3240SOL    HW210620   0.260   6.904   4.889
 3241SOL     OW10621   4.986   1.224   4.332
 3241SOL    HW110622   4.973   1.319   4.359
 3241SOL    HW210623   5.056   1.218   4.261
 3242SOL     OW10624   3.407   5.106   0.836
 3242SOL    HW110625   3.412   5.206   0.839
 3242SOL    HW210626   3.319   5.078   0.798
 3243SOL     OW10627   5.459   5.330   0.291
 3243SOL    HW110628   5.468   5.292   0.383
 3243SOL    HW210629   5.539   5.304   0.236
 3244SOL     OW10630   5.209   5.622   6.231
 3244SOL    HW110631   5.231   5.717   6.211
 3244SOL    HW210632   5.134   5.592   6.171
 3245SOL     OW10633   4.160   2.675   6.462
 3245SOL    HW110634   4.246   2.669   6.410
 3245SOL    HW210635   4.083   2.679   6.399
 3246SOL     OW10636   5.438   0.413   2.912
 3246SOL    HW110637   5.413   0.358   2.992
 3246SOL    HW210638   5.480   0.499   2.942
 3247SOL     OW10639   0.309   4.281   2.459
 3247SOL    HW110640   0.308   4.186   2.429
 3247SOL    HW210641   0.215   4.309   2.483
 3248SOL     OW10642   5.879   3.680   2.178
 3248SOL    HW110643   5.854   3.621   2.102
 3248SOL    HW210644   5.958   3.736   2.153
 3249SOL     OW10645   3.848   4.916   5.282
 3249SOL    HW110646   3.828   4.820   5.302
 3249SOL    HW210647   3.898   4.956   5.358
 3250SOL     OW10648   5.450   6.710   2.940
 3250SOL    HW110649   5.375   6.651   2.907
 3250SOL    HW210650   5.525   6.708   2.874
 3251SOL     OW10651   3.459   1.425   2.934
 3251SOL    HW110652   3.470   1.396   2.839
 3251SOL    HW210653   3.540   1.476   2.963
 3252SOL     OW10654   3.517   0.924   2.570
 3252SOL    HW110655   3.437   0.955   2.621
 3252SOL    HW210656   3.499   0.933   2.472
 3253SOL     OW10657   4.982   2.166   1.981
 3253SOL    HW110658   5.060   2.222   2.009
 3253SOL    HW210659   4.897   2.215   2.001
 3254SOL     OW10660   3.606   5.065   3.910
 3254SOL    HW110661   3.647   4.996   3.851
 3254SOL    HW210662   3.648   5.154   3.890
 3255SOL     OW10663   4.555   5.132   0.872
 3255SOL    HW110664   4.518   5.089   0.954
 3255SOL    HW210665   4.487   5.129   0.799
 3256SOL     OW10666   5.758   0.073   6.793
 3256SOL    HW110667   5.693   0.001   6.767
 3256SOL    HW210668   5.798   0.051   6.882
 3257SOL     OW10669   1.473   2.402   0.785
 3257SOL    HW110670   1.501   2.445   0.872
 3257SOL    HW210671   1.393   2.449   0.749
 3258SOL     OW10672   4.824   6.582   1.500
 3258SOL    HW110673   4.841   6.670   1.545
 3258SOL    HW210674   4.876   6.579   1.414
 3259SOL     OW10675   4.472   5.711   4.394
 3259SOL    HW110676   4.566   5.676   4.404
 3259SOL    HW210677   4.459   5.789   4.455
 3260SOL     OW10678   2.149   1.838   0.676
 3260SOL    HW110679   2.154   1.744   0.641
 3260SOL    HW210680   2.215   1.849   0.750
 3261SOL     OW10681   3.975   6.342   0.469
 3261SOL    HW110682   3.881   6.338   0.435
 3261SOL    HW210683   3.974   6.370   0.565
 3262SOL     OW10684   4.028   1.481   3.265
 3262SOL    HW110685   3.978   1.394   3.270
 3262SOL    HW210686   4.027   1.515   3.171
 3263SOL     OW10687   4.882   6.921   3.265
 3263SOL    HW110688   4.821   6.942   3.189
 3263SOL    HW210689   4.955   6.989   3.268
 3264SOL     OW10690   0.287   5.180   0.118
 3264SOL    HW110691   0.288   5.085   0.086
 3264SOL    HW210692   0.363   5.230   0.076
 3265SOL     OW10693   3.992   2.196   6.627
 3265SOL    HW110694   4.017   2.287   6.659
 3265SOL    HW210695   4.045   2.127   6.676
 3266SOL     OW10696   0.336   2.238   0.157
 3266SOL    HW110697   0.275   2.304   0.202
 3266SOL    HW210698   0.367   2.275   0.070
 3267SOL     OW10699   3.281   2.605   1.471
 3267SOL    HW110700   3.288   2.568   1.564
 3267SOL    HW210701   3.264   2.703   1.475
 3268SOL     OW10702   1.181   3.915   0.107
 3268SOL    HW110703   1.171   3.837   0.169
 3268SOL    HW210704   1.152   3.888   0.015
 3269SOL     OW10705   4.751   4.638   1.725
 3269SOL    HW110706   4.730   4.664   1.630
 3269SOL    HW210707   4.783   4.719   1.775
 3270SOL     OW10708   0.594   5.387   3.828
 3270SOL    HW110709   0.648   5.323   3.883
 3270SOL    HW210710   0.509   5.409   3.876
 3271SOL     OW10711   5.640   2.010   2.682
 3271SOL    HW110712   5.562   2.031   2.623
 3271SOL    HW210713   5.709   2.082   2.675
 3272SOL     OW10714   3.696   6.562   0.198
 3272SOL    HW110715   3.765   6.516   0.143
 3272SOL    HW210716   3.605   6.533   0.168
 3273SOL     OW10717   0.654   6.382   1.933
 3273SOL    HW110718   0.742   6.335   1.925
 3273SOL    HW210719   0.667   6.474   1.969
 3274SOL     OW10720   3.557   1.871   7.012
 3274SOL    HW110721   3.471   1.879   0.037
 3274SOL    HW210722   3.633   1.862   0.051
 3275SOL     OW10723   1.715   0.271   0.032
 3275SOL    HW110724   1.801   0.321   0.021
 3275SOL    HW210725   1.671   0.261   6.968
 3276SOL     OW10726   3.613   5.497   6.816
 3276SOL    HW110727   3.658   5.575   6.860
 3276SOL    HW210728   3.663   5.413   6.838
 3277SOL     OW10729   5.985   6.917   6.146
 3277SOL    HW110730   6.004   6.953   6.237
 3277SOL    HW210731   6.009   6.985   6.077
 3278SOL     OW10732   0.037   1.486   5.000
 3278SOL    HW110733   0.078   1.397   4.980
 3278SOL    HW210734   6.984   1.473   5.061
 3279SOL     OW10735   6.993   0.255   0.886
 3279SOL    HW110736   6.898   0.225   0.900
 3279SOL    HW210737   0.024   0.225   0.963
 3280SOL     OW10738   2.592   5.206   6.374
 3280SOL    HW110739   2.547   5.118   6.361
 3280SOL    HW210740   2.551   5.274   6.314
 3281SOL     OW10741   1.606   5.890   1.036
 3281SOL    HW110742   1.589   5.959   0.966
 3281SOL    HW210743   1.691   5.841   1.016
 3282SOL     OW10744   3.228   6.591   4.341
 3282SOL    HW110745   3.251   6.500   4.306
 3282SOL    HW210746   3.161   6.634   4.281
 3283SOL     OW10747   2.924   1.536   3.159
 3283SOL    HW110748   2.990   1.487   3.216
 3283SOL    HW210749   2.960   1.627   3.138
 3284SOL     OW10750   6.825   6.747   0.151
 3284SOL    HW110751   6.921   6.730   0.130
 3284SOL    HW210752   6.768   6.722   0.073
 3285SOL     OW10753   0.249   2.830   3.381
 3285SOL    HW110754   0.271   2.736   3.356
 3285SOL    HW210755   0.224   2.835   3.477
 3286SOL     OW10756   4.046   3.774   3.700
 3286SOL    HW110757   4.062   3.745   3.606
 3286SOL    HW210758   4.104   3.853   3.721
 3287SOL     OW10759   1.057   5.768   0.096
 3287SOL    HW110760   1.150   5.800   0.083
 3287SOL    HW210761   1.057   5.684   0.151
 3288SOL     OW10762   0.252   6.354   6.996
 3288SOL    HW110763   0.191   6.406   0.030
 3288SOL    HW210764   0.216   6.261   6.986
 3289SOL     OW10765   1.409   6.633   5.230
 3289SOL    HW110766   1.391   6.535   5.235
 3289SOL    HW210767   1.330   6.680   5.191
 3290SOL     OW10768   0.633   5.831   1.998
 3290SOL    HW110769   0.602   5.857   2.089
 3290SOL    HW210770   0.571   5.761   1.960
 3291SOL     OW10771   1.741   6.315   6.442
 3291SOL    HW110772   1.719   6.318   6.344
 3291SOL    HW210773   1.677   6.253   6.487
 3292SOL     OW10774   0.266   1.295   6.734
 3292SOL    HW110775   0.217   1.234   6.795
 3292SOL    HW210776   0.272   1.386   6.775
 3293SOL     OW10777   6.872   1.767   3.318
 3293SOL    HW110778   6.960   1.788   3.362
 3293SOL    HW210779   6.867   1.815   3.231
 3294SOL     OW10780   6.664   0.581   6.553
 3294SOL    HW110781   6.731   0.569   6.625
 3294SOL    HW210782   6.656   0.497   6.499
 3295SOL     OW10783   2.654   1.787   0.937
 3295SOL    HW110784   2.623   1.840   0.857
 3295SOL    HW210785   2.753   1.789   0.942
 3296SOL     OW10786   2.380   6.906   1.780
 3296SOL    HW110787   2.432   6.823   1.760
 3296SOL    HW210788   2.437   6.969   1.831
 3297SOL     OW10789   3.072   2.100   5.211
 3297SOL    HW110790   3.151   2.155   5.185
 3297SOL    HW210791   3.001   2.159   5.250
 3298SOL     OW10792   6.181   3.101   2.813
 3298SOL    HW110793   6.129   3.078   2.896
 3298SOL    HW210794   6.243   3.176   2.832
 3299SOL     OW10795   1.824   0.414   3.786
 3299SOL    HW110796   1.784   0.339   3.733
 3299SOL    HW210797   1.842   0.491   3.726
 3300SOL     OW10798   6.744   0.641   5.970
 3300SOL    HW110799   6.707   0.655   6.062
 3300SOL    HW210800   6.679   0.586   5.917
 3301SOL     OW10801   1.577   4.072   3.994
 3301SOL    HW110802   1.508   4.042   4.060
 3301SOL    HW210803   1.619   4.157   4.026
 3302SOL     OW10804   1.299   4.868   4.542
 3302SOL    HW110805   1.362   4.894   4.469
 3302SOL    HW210806   1.319   4.922   4.624
 3303SOL     OW10807   3.516   3.178   2.792
 3303SOL    HW110808   3.436   3.235   2.815
 3303SOL    HW210809   3.561   3.148   2.876
 3304SOL     OW10810   0.973   4.914   3.566
 3304SOL    HW110811   0.924   4.954   3.644
 3304SOL    HW210812   1.015   4.987   3.512
 3305SOL     OW10813   1.886   1.379   2.073
 3305SOL    HW110814   1.953   1.322   2.026
 3305SOL    HW210815   1.929   1.424   2.151
 3306SOL     OW10816   2.132   4.001   3.027
 3306SOL    HW110817   2.163   4.045   3.112
 3306SOL    HW210818   2.130   4.069   2.954
 3307SOL     OW10819   0.094   5.750   0.276
 3307SOL    HW110820   0.065   5.845   0.284
 3307SOL    HW210821   0.192   5.746   0.261
 3308SOL     OW10822   4.746   5.680   0.313
 3308SOL    HW110823   4.679   5.752   0.295
 3308SOL    HW210824   4.780   5.643   0.227
 3309SOL     OW10825   0.946   5.097   2.516
 3309SOL    HW110826   0.950   5.128   2.421
 3309SOL    HW210827   0.944   5.176   2.577
 3310SOL     OW10828   0.290   3.630   2.978
 3310SOL    HW110829   0.346   3.608   3.058
 3310SOL    HW210830   0.317   3.571   2.902
 3311SOL     OW10831   2.803   5.737   0.614
 3311SOL    HW110832   2.774   5.670   0.682
 3311SOL    HW210833   2.829   5.822   0.659
 3312SOL     OW10834   3.106   4.502   6.363
 3312SOL    HW110835   3.029   4.546   6.318
 3312SOL    HW210836   3.124   4.413   6.321
 3313SOL     OW10837   1.263   5.285   3.765
 3313SOL    HW110838   1.167   5.259   3.774
 3313SOL    HW210839   1.284   5.298   3.668
 3314SOL     OW10840   1.767   2.850   4.767
 3314SOL    HW110841   1.863   2.831   4.790
 3314SOL    HW210842   1.762   2.925   4.701
 3315SOL     OW10843   6.507   3.010   4.088
 3315SOL    HW110844   6.460   2.986   4.173
 3315SOL    HW210845   6.604   3.025   4.106
 3316SOL     OW10846   4.155   2.069   6.208
 3316SOL    HW110847   4.201   1.980   6.208
 3316SOL    HW210848   4.187   2.123   6.286
 3317SOL     OW10849   4.479   2.487   1.763
 3317SOL    HW110850   4.574   2.498   1.791
 3317SOL    HW210851   4.475   2.437   1.677
 3318SOL     OW10852   2.606   6.379   5.970
 3318SOL    HW110853   2.614   6.296   6.024
 3318SOL    HW210854   2.634   6.458   6.024
 3319SOL     OW10855   6.956   6.349   4.058
 3319SOL    HW110856   6.922   6.422   3.999
 3319SOL    HW210857   6.990   6.388   4.144
 3320SOL     OW10858   5.624   1.591   5.201
 3320SOL    HW110859   5.651   1.651   5.275
 3320SOL    HW210860   5.617   1.497   5.234
 3321SOL     OW10861   3.896   3.059   2.615
 3321SOL    HW110862   3.886   3.103   2.705
 3321SOL    HW210863   3.948   2.974   2.625
 3322SOL     OW10864   4.973   2.040   1.064
 3322SOL    HW110865   4.886   2.061   1.110
 3322SOL    HW210866   4.954   1.999   0.974
 3323SOL     OW10867   2.221   4.391   6.539
 3323SOL    HW110868   2.163   4.314   6.568
 3323SOL    HW210869   2.285   4.360   6.469
 3324SOL     OW10870   1.498   3.815   0.469
 3324SOL    HW110871   1.582   3.862   0.444
 3324SOL    HW210872   1.420   3.863   0.429
 3325SOL     OW10873   2.441   3.391   0.226
 3325SOL    HW110874   2.400   3.375   0.316
 3325SOL    HW210875   2.540   3.395   0.234
 3326SOL     OW10876   5.680   2.185   2.151
 3326SOL    HW110877   5.709   2.097   2.187
 3326SOL    HW210878   5.712   2.195   2.057
 3327SOL     OW10879   2.487   6.653   1.709
 3327SOL    HW110880   2.435   6.569   1.697
 3327SOL    HW210881   2.575   6.632   1.752
 3328SOL     OW10882   4.629   1.323   1.843
 3328SOL    HW110883   4.561   1.276   1.900
 3328SOL    HW210884   4.592   1.409   1.811
 3329SOL     OW10885   4.046   0.492   5.058
 3329SOL    HW110886   4.019   0.474   4.964
 3329SOL    HW210887   4.094   0.580   5.063
 3330SOL     OW10888   5.988   6.874   2.037
 3330SOL    HW110889   5.912   6.930   2.005
 3330SOL    HW210890   5.955   6.784   2.064
 3331SOL     OW10891   1.347   3.664   3.067
 3331SOL    HW110892   1.370   3.750   3.113
 3331SOL    HW210893   1.276   3.617   3.120
 3332SOL     OW10894   5.344   4.741   0.574
 3332SOL    HW110895   5.413   4.813   0.569
 3332SOL    HW210896   5.388   4.652   0.561
 3333SOL     OW10897   3.284   3.777   1.083
 3333SOL    HW110898   3.249   3.721   1.008
 3333SOL    HW210899   3.212   3.838   1.115
 3334SOL     OW10900   1.460   2.724   2.265
 3334SOL    HW110901   1.439   2.720   2.167
 3334SOL    HW210902   1.558   2.707   2.279
 3335SOL     OW10903   3.786   4.519   5.895
 3335SOL    HW110904   3.735   4.581   5.835
 3335SOL    HW210905   3.727   4.490   5.971
 3336SOL     OW10906   2.465   0.117   3.961
 3336SOL    HW110907   2.422   0.157   3.880
 3336SOL    HW210908   2.508   0.031   3.936
 3337SOL     OW10909   3.881   3.393   2.581
 3337SOL    HW110910   3.864   3.400   2.680
 3337SOL    HW210911   3.918   3.303   2.559
 3338SOL     OW10912   1.054   1.974   1.720
 3338SOL    HW110913   1.043   1.924   1.634
 3338SOL    HW210914   1.082   2.068   1.700
 3339SOL     OW10915   1.837   0.070   5.597
 3339SOL    HW110916   1.742   0.100   5.592
 3339SOL    HW210917   1.882   0.116   5.674
 3340SOL     OW10918   4.830   0.589   4.322
 3340SOL    HW110919   4.878   0.657   4.378
 3340SOL    HW210920   4.891   0.556   4.250
 3341SOL     OW10921   2.428   4.794   2.670
 3341SOL    HW110922   2.521   4.773   2.641
 3341SOL    HW210923   2.392   4.868   2.614
 3342SOL     OW10924   6.224   0.484   3.157
 3342SOL    HW110925   6.280   0.566   3.172
 3342SOL    HW210926   6.132   0.500   3.192
 3343SOL     OW10927   5.162   5.305   6.687
 3343SOL    HW110928   5.222   5.380   6.660
 3343SOL    HW210929   5.191   5.270   6.776
 3344SOL     OW10930   6.240   2.642   2.340
 3344SOL    HW110931   6.316   2.613   2.398
 3344SOL    HW210932   6.200   2.726   2.378
 3345SOL     OW10933   0.805   3.642   0.315
 3345SOL    HW110934   0.892   3.615   0.356
 3345SOL    HW210935   0.761   3.562   0.274
 3346SOL     OW10936   2.379   1.081   0.422
 3346SOL    HW110937   2.305   1.063   0.486
 3346SOL    HW210938   2.348   1.062   0.329
 3347SOL     OW10939   1.050   2.655   6.441
 3347SOL    HW110940   1.014   2.658   6.348
 3347SOL    HW210941   1.116   2.729   6.455
 3348SOL     OW10942   3.663   4.424   6.424
 3348SOL    HW110943   3.738   4.435   6.490
 3348SOL    HW210944   3.596   4.358   6.460
 3349SOL     OW10945   2.204   4.095   3.821
 3349SOL    HW110946   2.124   4.152   3.841
 3349SOL    HW210947   2.280   4.153   3.791
 3350SOL     OW10948   0.881   4.256   5.569
 3350SOL    HW110949   0.953   4.323   5.589
 3350SOL    HW210950   0.803   4.303   5.526
 3351SOL     OW10951   5.340   0.722   1.479
 3351SOL    HW110952   5.256   0.773   1.459
 3351SOL    HW210953   5.351   0.649   1.412
 3352SOL     OW10954   5.562   2.983   0.851
 3352SOL    HW110955   5.527   3.031   0.932
 3352SOL    HW210956   5.662   2.979   0.856
 3353SOL     OW10957   1.740   0.091   1.476
 3353SOL    HW110958   1.749   0.186   1.508
 3353SOL    HW210959   1.731   0.090   1.377
 3354SOL     OW10960   4.094   3.521   5.703
 3354SOL    HW110961   4.159   3.596   5.709
 3354SOL    HW210962   4.019   3.538   5.767
 3355SOL     OW10963   1.915   1.442   5.216
 3355SOL    HW110964   1.949   1.425   5.124
 3355SOL    HW210965   1.817   1.463   5.211
 3356SOL     OW10966   1.155   0.098   6.198
 3356SOL    HW110967   1.254   0.092   6.207
 3356SOL    HW210968   1.125   0.191   6.219
 3357SOL     OW10969   3.132   3.632   1.857
 3357SOL    HW110970   3.048   3.664   1.901
 3357SOL    HW210971   3.144   3.534   1.874
 3358SOL     OW10972   5.385   1.328   3.537
 3358SOL    HW110973   5.354   1.277   3.457
 3358SOL    HW210974   5.421   1.265   3.606
 3359SOL     OW10975   0.751   5.427   4.169
 3359SOL    HW110976   0.724   5.438   4.265
 3359SOL    HW210977   0.851   5.420   4.164
 3360SOL     OW10978   0.513   2.269   6.316
 3360SOL    HW110979   0.596   2.259   6.370
 3360SOL    HW210980   0.456   2.187   6.326
 3361SOL     OW10981   0.907   0.151   4.203
 3361SOL    HW110982   0.854   0.230   4.172
 3361SOL    HW210983   1.004   0.165   4.183
 3362SOL     OW10984   3.983   1.906   4.167
 3362SOL    HW110985   3.899   1.915   4.113
 3362SOL    HW210986   4.057   1.871   4.109
 3363SOL     OW10987   6.941   2.819   1.646
 3363SOL    HW110988   6.879   2.741   1.651
 3363SOL    HW210989   0.007   2.791   1.674
 3364SOL     OW10990   0.991   4.092   2.843
 3364SOL    HW110991   1.002   4.053   2.935
 3364SOL    HW210992   0.988   4.019   2.776
 3365SOL     OW10993   1.993   3.297   4.523
 3365SOL    HW110994   2.058   3.299   4.447
 3365SOL    HW210995   2.039   3.326   4.607
 3366SOL     OW10996   0.045   3.674   4.594
 3366SOL    HW110997   0.062   3.723   4.509
 3366SOL    HW210998   0.105   3.710   4.666
 3367SOL     OW10999   3.652   3.613   4.163
 3367SOL    HW111000   3.555   3.613   4.138
 3367SOL    HW211001   3.704   3.668   4.098
 3368SOL     OW11002   1.406   6.517   6.651
 3368SOL    HW111003   1.423   6.492   6.556
 3368SOL    HW211004   1.488   6.561   6.689
 3369SOL     OW11005   4.226   1.855   1.520
 3369SOL    HW111006   4.248   1.930   1.457
 3369SOL    HW211007   4.153   1.884   1.582
 3370SOL     OW11008   6.286   6.174   1.533
 3370SOL    HW111009   6.283   6.167   1.633
 3370SOL    HW211010   6.343   6.100   1.496
 3371SOL     OW11011   2.078   3.682   2.204
 3371SOL    HW111012   2.129   3.761   2.238
 3371SOL    HW211013   2.130   3.636   2.133
 3372SOL     OW11014   6.783   2.857   1.376
 3372SOL    HW111015   6.801   2.760   1.395
 3372SOL    HW211016   6.825   2.913   1.447
 3373SOL     OW11017   0.576   1.246   1.843
 3373SOL    HW111018   0.509   1.173   1.833
 3373SOL    HW211019   0.531   1.335   1.837
 3374SOL     OW11020   0.333   6.859   4.103
 3374SOL    HW111021   0.260   6.791   4.098
 3374SOL    HW211022   0.417   6.821   4.063
 3375SOL     OW11023   7.023   4.753   0.026
 3375SOL    HW111024   0.049   4.690   6.993
 3375SOL    HW211025   0.058   4.790   0.096
 3376SOL     OW11026   2.356   3.491   5.733
 3376SOL    HW111027   2.440   3.436   5.732
 3376SOL    HW211028   2.347   3.539   5.646
 3377SOL     OW11029   6.590   5.190   4.530
 3377SOL    HW111030   6.663   5.132   4.565
 3377SOL    HW211031   6.629   5.276   4.497
 3378SOL     OW11032   0.872   6.597   7.008
 3378SOL    HW111033   0.781   6.591   6.968
 3378SOL    HW211034   0.888   6.689   0.017
 3379SOL     OW11035   1.078   3.243   4.768
 3379SOL    HW111036   1.096   3.322   4.709
 3379SOL    HW211037   1.158   3.183   4.768
 3380SOL     OW11038   3.895   4.691   5.616
 3380SOL    HW111039   3.860   4.656   5.529
 3380SOL    HW211040   3.819   4.701   5.681
 3381SOL     OW11041   0.642   2.509   1.862
 3381SOL    HW111042   0.575   2.559   1.807
 3381SOL    HW211043   0.732   2.550   1.850
 3382SOL     OW11044   6.869   2.522   1.058
 3382SOL    HW111045   6.848   2.620   1.064
 3382SOL    HW211046   6.815   2.472   1.126
 3383SOL     OW11047   3.431   4.999   0.474
 3383SOL    HW111048   3.503   5.033   0.535
 3383SOL    HW211049   3.458   5.014   0.379
 3384SOL     OW11050   2.540   5.016   0.695
 3384SOL    HW111051   2.631   4.974   0.696
 3384SOL    HW211052   2.495   5.000   0.783
 3385SOL     OW11053   0.289   2.582   3.712
 3385SOL    HW111054   0.265   2.663   3.659
 3385SOL    HW211055   0.255   2.591   3.806
 3386SOL     OW11056   6.859   4.481   7.012
 3386SOL    HW111057   6.835   4.577   7.002
 3386SOL    HW211058   6.854   4.456   0.084
 3387SOL     OW11059   5.461   0.911   3.524
 3387SOL    HW111060   5.478   0.979   3.595
 3387SOL    HW211061   5.370   0.871   3.537
 3388SOL     OW11062   4.802   4.083   1.530
 3388SOL    HW111063   4.887   4.110   1.485
 3388SOL    HW211064   4.725   4.101   1.468
 3389SOL     OW11065   6.305   6.196   0.159
 3389SOL    HW111066   6.278   6.252   0.081
 3389SOL    HW211067   6.277   6.101   0.144
 3390SOL     OW11068   4.053   6.423   5.927
 3390SOL    HW111069   4.135   6.426   5.984
 3390SOL    HW211070   4.074   6.458   5.836
 3391SOL     OW11071   5.427   2.472   3.665
 3391SOL    HW111072   5.436   2.398   3.599
 3391SOL    HW211073   5.489   2.456   3.742
 3392SOL     OW11074   4.217   6.906   4.794
 3392SOL    HW111075   4.237   6.994   4.750
 3392SOL    HW211076   4.298   6.848   4.790
 3393SOL     OW11077   5.234   6.985   0.710
 3393SOL    HW111078   5.334   6.978   0.709
 3393SOL    HW211079   5.204   0.007   0.627
 3394SOL     OW11080   3.380   5.157   1.358
 3394SOL    HW111081   3.420   5.243   1.390
 3394SOL    HW211082   3.284   5.153   1.384
 3395SOL     OW11083   4.250   1.010   2.975
 3395SOL    HW111084   4.303   1.092   2.957
 3395SOL    HW211085   4.173   1.031   3.036
 3396SOL     OW11086   5.523   0.680   3.874
 3396SOL    HW111087   5.556   0.590   3.846
 3396SOL    HW211088   5.473   0.672   3.960
 3397SOL     OW11089   2.604   5.851   6.057
 3397SOL    HW111090   2.594   5.807   6.146
 3397SOL    HW211091   2.695   5.892   6.050
 3398SOL     OW11092   0.975   1.538   5.389
 3398SOL    HW111093   0.913   1.478   5.337
 3398SOL    HW211094   1.019   1.602   5.326
 3399SOL     OW11095   0.139   4.920   3.317
 3399SOL    HW111096   0.074   4.858   3.272
 3399SOL    HW211097   0.089   4.997   3.357
 3400SOL     OW11098   5.837   3.183   6.063
 3400SOL    HW111099   5.758   3.170   6.004
 3400SOL    HW211100   5.811   3.236   6.143
 3401SOL     OW11101   6.761   3.805   6.078
 3401SOL    HW111102   6.857   3.804   6.050
 3401SOL    HW211103   6.706   3.851   6.009
 3402SOL     OW11104   6.878   5.210   1.058
 3402SOL    HW111105   6.954   5.176   1.003
 3402SOL    HW211106   6.912   5.270   1.129
 3403SOL     OW11107   4.523   6.207   6.353
 3403SOL    HW111108   4.439   6.259   6.340
 3403SOL    HW211109   4.573   6.204   6.266
 3404SOL     OW11110   5.179   3.237   5.986
 3404SOL    HW111111   5.265   3.286   5.974
 3404SOL    HW211112   5.137   3.264   6.072
 3405SOL     OW11113   5.616   5.960   6.092
 3405SOL    HW111114   5.556   5.884   6.116
 3405SOL    HW211115   5.619   5.970   5.992
 3406SOL     OW11116   2.074   3.382   2.434
 3406SOL    HW111117   2.153   3.436   2.402
 3406SOL    HW211118   1.999   3.392   2.369
 3407SOL     OW11119   2.381   4.365   0.846
 3407SOL    HW111120   2.436   4.281   0.851
 3407SOL    HW211121   2.436   4.438   0.805
 3408SOL     OW11122   4.399   2.418   4.037
 3408SOL    HW111123   4.378   2.492   3.973
 3408SOL    HW211124   4.434   2.339   3.987
 3409SOL     OW11125   4.226   6.469   0.574
 3409SOL    HW111126   4.178   6.470   0.486
 3409SOL    HW211127   4.305   6.408   0.568
 3410SOL     OW11128   5.698   6.637   2.796
 3410SOL    HW111129   5.765   6.711   2.789
 3410SOL    HW211130   5.715   6.584   2.879
 3411SOL     OW11131   6.714   2.055   0.845
 3411SOL    HW111132   6.659   2.091   0.770
 3411SOL    HW211133   6.795   2.112   0.858
 3412SOL     OW11134   5.038   3.184   1.638
 3412SOL    HW111135   4.963   3.122   1.616
 3412SOL    HW211136   5.056   3.244   1.561
 3413SOL     OW11137   6.272   1.666   6.414
 3413SOL    HW111138   6.322   1.750   6.434
 3413SOL    HW211139   6.177   1.676   6.446
 3414SOL     OW11140   3.814   2.970   0.016
 3414SOL    HW111141   3.888   2.913   0.053
 3414SOL    HW211142   3.823   2.975   6.942
 3415SOL     OW11143   2.184   2.313   4.210
 3415SOL    HW111144   2.104   2.352   4.256
 3415SOL    HW211145   2.209   2.369   4.132
 3416SOL     OW11146   6.097   6.971   0.333
 3416SOL    HW111147   6.184   7.015   0.359
 3416SOL    HW211148   6.021   0.005   0.358
 3417SOL     OW11149   0.280   0.113   3.266
 3417SOL    HW111150   0.244   0.040   3.207
 3417SOL    HW211151   0.363   0.080   3.312
 3418SOL     OW11152   4.057   5.340   3.115
 3418SOL    HW111153   4.038   5.251   3.155
 3418SOL    HW211154   3.977   5.399   3.126
 3419SOL     OW11155   4.026   5.473   5.557
 3419SOL    HW111156   3.961   5.547   5.537
 3419SOL    HW211157   3.977   5.397   5.600
 3420SOL     OW11158   4.809   2.960   3.999
 3420SOL    HW111159   4.710   2.968   3.985
 3420SOL    HW211160   4.831   2.987   4.093
 3421SOL     OW11161   5.417   1.592   3.613
 3421SOL    HW111162   5.386   1.528   3.543
 3421SOL    HW211163   5.478   1.660   3.572
 3422SOL     OW11164   2.280   7.015   6.795
 3422SOL    HW111165   2.328   0.063   6.748
 3422SOL    HW211166   2.335   6.982   6.871
 3423SOL     OW11167   0.732   4.527   6.179
 3423SOL    HW111168   0.758   4.623   6.186
 3423SOL    HW211169   0.814   4.470   6.187
 3424SOL     OW11170   4.153   6.657   1.548
 3424SOL    HW111171   4.244   6.697   1.561
 3424SOL    HW211172   4.156   6.560   1.574
 3425SOL     OW11173   5.051   4.478   2.042
 3425SOL    HW111174   5.038   4.470   2.141
 3425SOL    HW211175   5.055   4.386   2.001
 3426SOL     OW11176   4.948   3.525   0.733
 3426SOL    HW111177   4.857   3.537   0.693
 3426SOL    HW211178   4.950   3.439   0.784
 3427SOL     OW11179   1.517   2.590   1.335
 3427SOL    HW111180   1.528   2.688   1.323
 3427SOL    HW211181   1.602   2.543   1.309
 3428SOL     OW11182   4.956   4.977   5.418
 3428SOL    HW111183   5.016   5.000   5.494
 3428SOL    HW211184   4.889   4.910   5.447
 3429SOL     OW11185   0.344   0.639   1.004
 3429SOL    HW111186   0.374   0.704   1.074
 3429SOL    HW211187   0.391   0.658   0.918
 3430SOL     OW11188   2.181   4.627   5.484
 3430SOL    HW111189   2.270   4.606   5.445
 3430SOL    HW211190   2.191   4.699   5.553
 3431SOL     OW11191   2.020   6.510   2.392
 3431SOL    HW111192   2.047   6.499   2.488
 3431SOL    HW211193   2.093   6.476   2.333
 3432SOL     OW11194   2.122   4.863   6.679
 3432SOL    HW111195   2.182   4.845   6.756
 3432SOL    HW211196   2.067   4.945   6.697
 3433SOL     OW11197   2.456   0.756   6.713
 3433SOL    HW111198   2.481   0.778   6.618
 3433SOL    HW211199   2.538   0.724   6.761
 3434SOL     OW11200   2.773   2.149   1.864
 3434SOL    HW111201   2.771   2.238   1.910
 3434SOL    HW211202   2.865   2.133   1.829
 3435SOL     OW11203   2.177   0.730   0.380
 3435SOL    HW111204   2.088   0.774   0.392
 3435SOL    HW211205   2.197   0.722   0.282
 3436SOL     OW11206   4.190   5.355   0.103
 3436SOL    HW111207   4.148   5.265   0.091
 3436SOL    HW211208   4.150   5.420   0.039
 3437SOL     OW11209   1.647   6.682   5.971
 3437SOL    HW111210   1.613   6.594   6.004
 3437SOL    HW211211   1.604   6.705   5.884
 3438SOL     OW11212   0.569   3.576   1.437
 3438SOL    HW111213   0.596   3.501   1.498
 3438SOL    HW211214   0.477   3.606   1.460
 3439SOL     OW11215   2.330   5.854   2.969
 3439SOL    HW111216   2.421   5.839   2.930
 3439SOL    HW211217   2.330   5.824   3.065
 3440SOL     OW11218   3.755   2.988   4.825
 3440SOL    HW111219   3.747   2.938   4.911
 3440SOL    HW211220   3.839   2.959   4.778
 3441SOL     OW11221   6.780   6.050   6.302
 3441SOL    HW111222   6.758   5.953   6.308
 3441SOL    HW211223   6.875   6.061   6.273
 3442SOL     OW11224   3.310   4.158   1.335
 3442SOL    HW111225   3.290   4.062   1.356
 3442SOL    HW211226   3.253   4.217   1.392
 3443SOL     OW11227   3.205   5.992   2.639
 3443SOL    HW111228   3.211   5.950   2.548
 3443SOL    HW211229   3.110   6.008   2.663
 3444SOL     OW11230   5.197   4.556   1.589
 3444SOL    HW111231   5.285   4.508   1.582
 3444SOL    HW211232   5.123   4.489   1.588
 3445SOL     OW11233   6.837   4.690   4.067
 3445SOL    HW111234   6.773   4.687   3.990
 3445SOL    HW211235   6.830   4.779   4.112
 3446SOL     OW11236   5.537   0.216   1.984
 3446SOL    HW111237   5.527   0.135   1.926
 3446SOL    HW211238   5.493   0.294   1.940
 3447SOL     OW11239   5.328   0.356   0.199
 3447SOL    HW111240   5.365   0.398   0.282
 3447SOL    HW211241   5.394   0.366   0.124
 3448SOL     OW11242   1.843   6.618   5.436
 3448SOL    HW111243   1.850   6.521   5.458
 3448SOL    HW211244   1.894   6.637   5.352
 3449SOL     OW11245   5.892   5.435   5.072
 3449SOL    HW111246   5.893   5.523   5.025
 3449SOL    HW211247   5.964   5.376   5.035
 3450SOL     OW11248   1.384   0.177   6.564
 3450SOL    HW111249   1.377   0.100   6.500
 3450SOL    HW211250   1.421   0.256   6.516
 3451SOL     OW11251   1.734   5.751   0.336
 3451SOL    HW111252   1.831   5.759   0.310
 3451SOL    HW211253   1.706   5.655   0.330
 3452SOL     OW11254   5.591   0.825   5.623
 3452SOL    HW111255   5.672   0.881   5.641
 3452SOL    HW211256   5.584   0.806   5.525
 3453SOL     OW11257   5.287   6.639   6.140
 3453SOL    HW111258   5.372   6.688   6.120
 3453SOL    HW211259   5.277   6.561   6.078
 3454SOL     OW11260   1.698   2.747   2.643
 3454SOL    HW111261   1.617   2.738   2.585
 3454SOL    HW211262   1.720   2.844   2.653
 3455SOL     OW11263   1.664   2.580   4.742
 3455SOL    HW111264   1.696   2.672   4.765
 3455SOL    HW211265   1.655   2.526   4.825
 3456SOL     OW11266   4.507   4.530   1.859
 3456SOL    HW111267   4.585   4.557   1.803
 3456SOL    HW211268   4.501   4.430   1.862
 3457SOL     OW11269   3.944   5.284   4.625
 3457SOL    HW111270   3.850   5.268   4.597
 3457SOL    HW211271   4.006   5.232   4.565
 3458SOL     OW11272   4.444   1.941   2.461
 3458SOL    HW111273   4.463   1.843   2.453
 3458SOL    HW211274   4.392   1.957   2.544
 3459SOL     OW11275   4.345   1.280   2.950
 3459SOL    HW111276   4.432   1.265   2.902
 3459SOL    HW211277   4.295   1.354   2.905
 3460SOL     OW11278   3.533   1.836   5.751
 3460SOL    HW111279   3.471   1.763   5.724
 3460SOL    HW211280   3.576   1.876   5.670
 3461SOL     OW11281   5.435   4.938   6.927
 3461SOL    HW111282   5.445   4.841   6.903
 3461SOL    HW211283   5.386   4.946   7.013
 3462SOL     OW11284   2.071   3.499   6.486
 3462SOL    HW111285   2.000   3.538   6.545
 3462SOL    HW211286   2.160   3.511   6.529
 3463SOL     OW11287   0.027   3.947   0.850
 3463SOL    HW111288   0.043   4.044   0.867
 3463SOL    HW211289   0.112   3.904   0.821
 3464SOL     OW11290   0.246   4.617   6.573
 3464SOL    HW111291   0.231   4.640   6.476
 3464SOL    HW211292   0.339   4.581   6.584
 3465SOL     OW11293   2.227   1.426   1.279
 3465SOL    HW111294   2.220   1.515   1.233
 3465SOL    HW211295   2.210   1.353   1.213
 3466SOL     OW11296   0.086   5.107   5.962
 3466SOL    HW111297   0.179   5.127   5.991
 3466SOL    HW211298   0.084   5.022   5.910
 3467SOL     OW11299   2.098   2.000   6.578
 3467SOL    HW111300   2.144   1.943   6.511
 3467SOL    HW211301   2.000   2.004   6.557
 3468SOL     OW11302   2.589   5.717   3.756
 3468SOL    HW111303   2.547   5.789   3.700
 3468SOL    HW211304   2.545   5.630   3.735
 3469SOL     OW11305   6.987   2.371   3.936
 3469SOL    HW111306   6.892   2.403   3.942
 3469SOL    HW211307   7.014   2.332   4.024
 3470SOL     OW11308   0.598   5.181   1.560
 3470SOL    HW111309   0.577   5.112   1.630
 3470SOL    HW211310   0.548   5.158   1.476
 3471SOL     OW11311   4.627   5.636   5.288
 3471SOL    HW111312   4.538   5.675   5.266
 3471SOL    HW211313   4.651   5.567   5.220
 3472SOL     OW11314   2.426   1.166   4.273
 3472SOL    HW111315   2.415   1.109   4.355
 3472SOL    HW211316   2.338   1.173   4.225
 3473SOL     OW11317   5.432   1.769   5.591
 3473SOL    HW111318   5.491   1.735   5.517
 3473SOL    HW211319   5.374   1.695   5.625
 3474SOL     OW11320   3.257   4.889   2.151
 3474SOL    HW111321   3.335   4.834   2.123
 3474SOL    HW211322   3.259   4.902   2.250
 3475SOL     OW11323   1.000   6.611   4.034
 3475SOL    HW111324   1.021   6.681   4.102
 3475SOL    HW211325   0.987   6.654   3.945
 3476SOL     OW11326   4.348   0.779   4.827
 3476SOL    HW111327   4.427   0.746   4.878
 3476SOL    HW211328   4.272   0.797   4.890
 3477SOL     OW11329   3.729   5.849   0.758
 3477SOL    HW111330   3.717   5.858   0.857
 3477SOL    HW211331   3.642   5.865   0.712
 3478SOL     OW11332   3.194   6.122   5.791
 3478SOL    HW111333   3.202   6.216   5.757
 3478SOL    HW211334   3.152   6.065   5.721
 3479SOL     OW11335   0.393   0.548   2.616
 3479SOL    HW111336   0.366   0.472   2.675
 3479SOL    HW211337   0.444   0.615   2.669
 3480SOL     OW11338   6.716   1.653   3.922
 3480SOL    HW111339   6.639   1.617   3.975
 3480SOL    HW211340   6.798   1.652   3.979
 3481SOL     OW11341   3.304   6.790   6.639
 3481SOL    HW111342   3.212   6.776   6.676
 3481SOL    HW211343   3.347   6.701   6.624
 3482SOL     OW11344   6.236   1.812   1.609
 3482SOL    HW111345   6.273   1.816   1.702
 3482SOL    HW211346   6.210   1.718   1.588
 3483SOL     OW11347   2.469   0.322   1.406
 3483SOL    HW111348   2.418   0.250   1.452
 3483SOL    HW211349   2.405   0.388   1.367
 3484SOL     OW11350   2.956   3.374   3.569
 3484SOL    HW111351   2.963   3.324   3.483
 3484SOL    HW211352   3.034   3.351   3.627
 3485SOL     OW11353   2.119   1.654   4.887
 3485SOL    HW111354   2.083   1.740   4.850
 3485SOL    HW211355   2.060   1.578   4.859
 3486SOL     OW11356   4.207   1.448   1.604
 3486SOL    HW111357   4.161   1.477   1.688
 3486SOL    HW211358   4.287   1.507   1.588
 3487SOL     OW11359   5.666   1.389   6.805
 3487SOL    HW111360   5.568   1.375   6.792
 3487SOL    HW211361   5.689   1.372   6.901
 3488SOL     OW11362   6.182   3.439   4.584
 3488SOL    HW111363   6.130   3.430   4.499
 3488SOL    HW211364   6.145   3.515   4.638
 3489SOL     OW11365   3.118   6.885   0.520
 3489SOL    HW111366   3.131   6.973   0.564
 3489SOL    HW211367   3.047   6.893   0.450
 3490SOL     OW11368   5.149   4.179   0.226
 3490SOL    HW111369   5.135   4.082   0.242
 3490SOL    HW211370   5.244   4.194   0.196
 3491SOL     OW11371   0.086   2.716   5.429
 3491SOL    HW111372   0.029   2.798   5.441
 3491SOL    HW211373   0.148   2.707   5.506
 3492SOL     OW11374   0.719   5.896   6.751
 3492SOL    HW111375   0.768   5.956   6.687
 3492SOL    HW211376   0.775   5.883   6.833
 3493SOL     OW11377   6.013   4.795   1.180
 3493SOL    HW111378   6.034   4.889   1.154
 3493SOL    HW211379   5.980   4.794   1.275
 3494SOL     OW11380   3.971   0.036   1.182
 3494SOL    HW111381   3.979   0.125   1.228
 3494SOL    HW211382   4.000   6.990   1.245
 3495SOL     OW11383   4.272   5.354   2.165
 3495SOL    HW111384   4.230   5.355   2.075
 3495SOL    HW211385   4.355   5.298   2.162
 3496SOL     OW11386   1.534   3.265   1.321
 3496SOL    HW111387   1.582   3.260   1.408
 3496SOL    HW211388   1.458   3.330   1.328
 3497SOL     OW11389   4.561   0.749   3.217
 3497SOL    HW111390   4.499   0.685   3.263
 3497SOL    HW211391   4.512   0.794   3.142
 3498SOL     OW11392   2.988   1.291   1.234
 3498SOL    HW111393   3.001   1.302   1.135
 3498SOL    HW211394   2.944   1.373   1.271
 3499SOL     OW11395   0.226   3.498   3.781
 3499SOL    HW111396   0.154   3.510   3.848
 3499SOL    HW211397   0.188   3.505   3.689
 3500SOL     OW11398   6.764   3.842   6.351
 3500SOL    HW111399   6.687   3.778   6.353
 3500SOL    HW211400   6.794   3.853   6.256
 3501SOL     OW11401   0.981   4.945   5.223
 3501SOL    HW111402   0.998   4.920   5.319
 3501SOL    HW211403   1.059   4.917   5.168
 3502SOL     OW11404   0.549   1.705   1.654
 3502SOL    HW111405   0.642   1.728   1.626
 3502SOL    HW211406   0.527   1.612   1.626
 3503SOL     OW11407   4.683   5.707   5.759
 3503SOL    HW111408   4.750   5.778   5.775
 3503SOL    HW211409   4.714   5.622   5.802
 3504SOL     OW11410   2.940   3.674   1.305
 3504SOL    HW111411   2.946   3.632   1.396
 3504SOL    HW211412   2.862   3.635   1.256
 3505SOL     OW11413   5.572   6.181   5.361
 3505SOL    HW111414   5.582   6.098   5.416
 3505SOL    HW211415   5.514   6.247   5.409
 3506SOL     OW11416   4.493   5.374   4.481
 3506SOL    HW111417   4.522   5.372   4.576
 3506SOL    HW211418   4.411   5.431   4.472
 3507SOL     OW11419   1.147   0.379   6.168
 3507SOL    HW111420   1.181   0.469   6.193
 3507SOL    HW211421   1.223   0.321   6.138
 3508SOL     OW11422   5.345   2.650   0.514
 3508SOL    HW111423   5.309   2.559   0.537
 3508SOL    HW211424   5.397   2.686   0.591
 3509SOL     OW11425   6.014   6.273   6.801
 3509SOL    HW111426   5.957   6.332   6.744
 3509SOL    HW211427   5.958   6.231   6.873
 3510SOL     OW11428   1.974   2.133   1.537
 3510SOL    HW111429   1.926   2.051   1.567
 3510SOL    HW211430   1.909   2.210   1.534
 3511SOL     OW11431   1.040   3.159   6.576
 3511SOL    HW111432   1.043   3.140   6.478
 3511SOL    HW211433   0.954   3.204   6.599
 3512SOL     OW11434   1.589   3.439   0.517
 3512SOL    HW111435   1.585   3.443   0.417
 3512SOL    HW211436   1.624   3.526   0.553
 3513SOL     OW11437   6.416   4.274   0.847
 3513SOL    HW111438   6.338   4.213   0.862
 3513SOL    HW211439   6.411   4.351   0.910
 3514SOL     OW11440   0.400   6.738   1.439
 3514SOL    HW111441   0.476   6.762   1.379
 3514SOL    HW211442   0.413   6.646   1.475
 3515SOL     OW11443   2.944   6.061   2.719
 3515SOL    HW111444   2.951   6.145   2.772
 3515SOL    HW211445   2.856   6.058   2.672
 3516SOL     OW11446   3.560   0.852   0.784
 3516SOL    HW111447   3.472   0.808   0.766
 3516SOL    HW211448   3.580   0.848   0.882
 3517SOL     OW11449   1.009   1.658   0.342
 3517SOL    HW111450   0.938   1.589   0.336
 3517SOL    HW211451   1.089   1.620   0.388
 3518SOL     OW11452   4.762   3.776   6.530
 3518SOL    HW111453   4.692   3.806   6.595
 3518SOL    HW211454   4.790   3.683   6.552
 3519SOL     OW11455   0.916   6.874   0.034
 3519SOL    HW111456   0.898   6.921   6.973
 3519SOL    HW211457   0.841   6.891   0.098
 3520SOL     OW11458   3.908   4.639   1.024
 3520SOL    HW111459   3.836   4.597   0.969
 3520SOL    HW211460   3.892   4.619   1.121
 3521SOL     OW11461   5.568   2.789   1.958
 3521SOL    HW111462   5.582   2.787   1.859
 3521SOL    HW211463   5.478   2.751   1.980
 3522SOL     OW11464   2.522   4.955   1.488
 3522SOL    HW111465   2.505   4.872   1.542
 3522SOL    HW211466   2.442   5.015   1.493
 3523SOL     OW11467   3.097   4.791   5.063
 3523SOL    HW111468   3.111   4.798   4.964
 3523SOL    HW211469   3.013   4.741   5.082
 3524SOL     OW11470   2.421   0.303   1.124
 3524SOL    HW111471   2.358   0.373   1.157
 3524SOL    HW211472   2.515   0.331   1.141
 3525SOL     OW11473   0.455   2.704   2.038
 3525SOL    HW111474   0.497   2.766   2.104
 3525SOL    HW211475   0.362   2.734   2.017
 3526SOL     OW11476   0.708   0.617   2.948
 3526SOL    HW111477   0.649   0.630   2.868
 3526SOL    HW211478   0.787   0.562   2.922
 3527SOL     OW11479   5.452   2.829   6.265
 3527SOL    HW111480   5.365   2.858   6.305
 3527SOL    HW211481   5.519   2.903   6.273
 3528SOL     OW11482   0.759   5.635   3.365
 3528SOL    HW111483   0.715   5.716   3.405
 3528SOL    HW211484   0.699   5.555   3.377
 3529SOL     OW11485   4.603   0.069   5.726
 3529SOL    HW111486   4.647   0.157   5.746
 3529SOL    HW211487   4.509   0.071   5.759
 3530SOL     OW11488   2.681   5.544   2.464
 3530SOL    HW111489   2.585   5.564   2.483
 3530SOL    HW211490   2.738   5.618   2.501
 3531SOL     OW11491   5.473   4.510   0.485
 3531SOL    HW111492   5.450   4.439   0.419
 3531SOL    HW211493   5.518   4.469   0.564
 3532SOL     OW11494   2.674   0.696   6.869
 3532SOL    HW111495   2.717   0.785   6.880
 3532SOL    HW211496   2.676   0.647   6.956
 3533SOL     OW11497   0.952   1.788   3.228
 3533SOL    HW111498   0.892   1.829   3.295
 3533SOL    HW211499   1.030   1.848   3.211
 3534SOL     OW11500   5.372   1.643   5.041
 3534SOL    HW111501   5.389   1.741   5.029
 3534SOL    HW211502   5.446   1.603   5.095
 3535SOL     OW11503   6.662   5.060   6.317
 3535SOL    HW111504   6.638   5.086   6.410
 3535SOL    HW211505   6.612   4.977   6.291
 3536SOL     OW11506   2.085   3.254   3.066
 3536SOL    HW111507   2.098   3.256   3.165
 3536SOL    HW211508   2.090   3.347   3.030
 3537SOL     OW11509   2.518   5.765   0.479
 3537SOL    HW111510   2.534   5.864   0.479
 3537SOL    HW211511   2.606   5.718   0.481
 3538SOL     OW11512   3.145   6.597   2.808
 3538SOL    HW111513   3.231   6.631   2.845
 3538SOL    HW211514   3.160   6.508   2.764
 3539SOL     OW11515   5.747   4.881   5.809
 3539SOL    HW111516   5.762   4.871   5.907
 3539SOL    HW211517   5.750   4.791   5.766
 3540SOL     OW11518   2.312   2.921   6.709
 3540SOL    HW111519   2.286   3.009   6.669
 3540SOL    HW211520   2.315   2.929   6.809
 3541SOL     OW11521   2.667   3.221   0.821
 3541SOL    HW111522   2.607   3.221   0.901
 3541SOL    HW211523   2.632   3.156   0.754
 3542SOL     OW11524   5.462   2.853   0.110
 3542SOL    HW111525   5.489   2.791   0.036
 3542SOL    HW211526   5.411   2.930   0.071
 3543SOL     OW11527   1.781   3.407   2.917
 3543SOL    HW111528   1.780   3.504   2.893
 3543SOL    HW211529   1.705   3.360   2.873
 3544SOL     OW11530   2.908   4.146   6.625
 3544SOL    HW111531   2.820   4.115   6.590
 3544SOL    HW211532   2.960   4.067   6.659
 3545SOL     OW11533   3.486   5.900   0.683
 3545SOL    HW111534   3.424   5.934   0.613
 3545SOL    HW211535   3.434   5.873   0.764
 3546SOL     OW11536   6.164   3.651   2.991
 3546SOL    HW111537   6.222   3.612   2.919
 3546SOL    HW211538   6.223   3.690   3.063
 3547SOL     OW11539   0.056   3.120   5.293
 3547SOL    HW111540   0.063   3.043   5.356
 3547SOL    HW211541   0.128   3.114   5.224
 3548SOL     OW11542   4.872   1.806   6.299
 3548SOL    HW111543   4.909   1.881   6.244
 3548SOL    HW211544   4.789   1.770   6.255
 3549SOL     OW11545   2.298   5.788   6.650
 3549SOL    HW111546   2.328   5.881   6.668
 3549SOL    HW211547   2.251   5.751   6.730
 3550SOL     OW11548   5.054   2.143   4.923
 3550SOL    HW111549   4.976   2.168   4.865
 3550SOL    HW211550   5.134   2.127   4.866
 3551SOL     OW11551   3.771   2.365   5.735
 3551SOL    HW111552   3.770   2.411   5.646
 3551SOL    HW211553   3.689   2.308   5.743
 3552SOL     OW11554   6.841   5.860   1.656
 3552SOL    HW111555   6.804   5.828   1.569
 3552SOL    HW211556   6.842   5.785   1.722
 3553SOL     OW11557   3.980   6.002   5.906
 3553SOL    HW111558   3.943   6.075   5.962
 3553SOL    HW211559   4.018   6.041   5.822
 3554SOL     OW11560   4.191   3.777   0.802
 3554SOL    HW111561   4.218   3.830   0.882
 3554SOL    HW211562   4.243   3.692   0.798
 3555SOL     OW11563   1.895   2.225   3.870
 3555SOL    HW111564   1.814   2.263   3.824
 3555SOL    HW211565   1.866   2.176   3.952
 3556SOL     OW11566   3.553   1.069   5.065
 3556SOL    HW111567   3.501   1.154   5.061
 3556SOL    HW211568   3.637   1.084   5.116
 3557SOL     OW11569   0.144   0.344   2.669
 3557SOL    HW111570   0.203   0.264   2.665
 3557SOL    HW211571   0.057   0.320   2.712
 3558SOL     OW11572   2.965   6.321   0.211
 3558SOL    HW111573   2.943   6.309   0.308
 3558SOL    HW211574   2.901   6.268   0.155
 3559SOL     OW11575   3.931   6.481   4.593
 3559SOL    HW111576   3.928   6.381   4.602
 3559SOL    HW211577   3.852   6.513   4.541
 3560SOL     OW11578   2.039   5.455   5.117
 3560SOL    HW111579   2.047   5.465   5.217
 3560SOL    HW211580   2.064   5.362   5.090
 3561SOL     OW11581   5.124   4.596   4.966
 3561SOL    HW111582   5.133   4.496   4.965
 3561SOL    HW211583   5.041   4.623   4.917
 3562SOL     OW11584   2.574   1.542   4.671
 3562SOL    HW111585   2.641   1.486   4.720
 3562SOL    HW211586   2.618   1.589   4.595
 3563SOL     OW11587   5.964   2.211   5.926
 3563SOL    HW111588   5.920   2.300   5.940
 3563SOL    HW211589   5.901   2.151   5.877
 3564SOL     OW11590   0.101   4.375   2.612
 3564SOL    HW111591   0.013   4.420   2.625
 3564SOL    HW211592   0.164   4.402   2.684
 3565SOL     OW11593   3.359   5.143   3.160
 3565SOL    HW111594   3.434   5.142   3.094
 3565SOL    HW211595   3.299   5.064   3.144
 3566SOL     OW11596   6.856   1.396   5.126
 3566SOL    HW111597   6.834   1.397   5.223
 3566SOL    HW211598   6.773   1.412   5.073
 3567SOL     OW11599   0.736   3.760   6.956
 3567SOL    HW111600   0.747   3.775   0.028
 3567SOL    HW211601   0.683   3.835   6.916
 3568SOL     OW11602   6.810   3.901   5.707
 3568SOL    HW111603   6.806   3.849   5.621
 3568SOL    HW211604   6.848   3.991   5.689
 3569SOL     OW11605   2.694   1.567   5.822
 3569SOL    HW111606   2.769   1.579   5.757
 3569SOL    HW211607   2.729   1.572   5.915
 3570SOL     OW11608   5.668   0.851   4.566
 3570SOL    HW111609   5.599   0.810   4.507
 3570SOL    HW211610   5.694   0.941   4.530
 3571SOL     OW11611   6.639   5.962   6.509
 3571SOL    HW111612   6.665   6.021   6.433
 3571SOL    HW211613   6.601   6.017   6.583
 3572SOL     OW11614   5.621   3.828   3.830
 3572SOL    HW111615   5.711   3.829   3.787
 3572SOL    HW211616   5.552   3.800   3.763
 3573SOL     OW11617   0.791   4.424   4.545
 3573SOL    HW111618   0.823   4.514   4.576
 3573SOL    HW211619   0.712   4.437   4.485
 3574SOL     OW11620   0.618   5.113   0.408
 3574SOL    HW111621   0.584   5.207   0.401
 3574SOL    HW211622   0.542   5.049   0.394
 3575SOL     OW11623   6.161   5.344   3.103
 3575SOL    HW111624   6.139   5.264   3.048
 3575SOL    HW211625   6.128   5.331   3.196
 3576SOL     OW11626   1.497   1.141   5.918
 3576SOL    HW111627   1.458   1.159   5.828
 3576SOL    HW211628   1.567   1.070   5.910
 3577SOL     OW11629   0.883   2.703   6.653
 3577SOL    HW111630   0.910   2.663   6.565
 3577SOL    HW211631   0.883   2.632   6.723
 3578SOL     OW11632   3.493   3.891   6.715
 3578SOL    HW111633   3.528   3.930   6.630
 3578SOL    HW211634   3.569   3.860   6.771
 3579SOL     OW11635   6.680   3.927   4.945
 3579SOL    HW111636   6.692   4.001   5.012
 3579SOL    HW211637   6.681   3.839   4.993
 3580SOL     OW11638   5.710   2.132   1.566
 3580SOL    HW111639   5.719   2.047   1.515
 3580SOL    HW211640   5.749   2.208   1.513
 3581SOL     OW11641   6.763   0.232   3.241
 3581SOL    HW111642   6.841   0.262   3.298
 3581SOL    HW211643   6.695   0.187   3.299
 3582SOL     OW11644   1.256   1.901   5.689
 3582SOL    HW111645   1.274   1.870   5.782
 3582SOL    HW211646   1.189   1.975   5.689
 3583SOL     OW11647   1.006   4.268   6.982
 3583SOL    HW111648   1.007   4.196   6.912
 3583SOL    HW211649   1.073   4.247   0.027
 3584SOL     OW11650   5.954   6.310   6.274
 3584SOL    HW111651   5.913   6.360   6.198
 3584SOL    HW211652   6.032   6.257   6.240
 3585SOL     OW11653   3.869   5.156   4.887
 3585SOL    HW111654   3.796   5.095   4.857
 3585SOL    HW211655   3.891   5.220   4.813
 3586SOL     OW11656   6.043   2.920   5.503
 3586SOL    HW111657   6.045   2.994   5.570
 3586SOL    HW211658   6.020   2.834   5.549
 3587SOL     OW11659   2.789   6.765   1.240
 3587SOL    HW111660   2.716   6.769   1.172
 3587SOL    HW211661   2.750   6.740   1.329
 3588SOL     OW11662   1.420   2.168   5.441
 3588SOL    HW111663   1.454   2.076   5.460
 3588SOL    HW211664   1.352   2.193   5.511
 3589SOL     OW11665   3.385   0.826   4.348
 3589SOL    HW111666   3.310   0.892   4.360
 3589SOL    HW211667   3.443   0.855   4.272
 3590SOL     OW11668   1.090   4.727   6.329
 3590SOL    HW111669   1.042   4.746   6.243
 3590SOL    HW211670   1.165   4.664   6.311
 3591SOL     OW11671   5.695   2.929   6.385
 3591SOL    HW111672   5.662   3.017   6.418
 3591SOL    HW211673   5.793   2.921   6.404
 3592SOL     OW11674   5.039   2.872   3.249
 3592SOL    HW111675   5.086   2.885   3.162
 3592SOL    HW211676   5.074   2.790   3.294
 3593SOL     OW11677   2.503   6.474   4.468
 3593SOL    HW111678   2.574   6.435   4.409
 3593SOL    HW211679   2.416   6.475   4.419
 3594SOL     OW11680   3.003   1.024   3.330
 3594SOL    HW111681   3.080   0.978   3.373
 3594SOL    HW211682   2.917   0.991   3.370
 3595SOL     OW11683   2.678   6.445   5.120
 3595SOL    HW111684   2.694   6.542   5.099
 3595SOL    HW211685   2.580   6.428   5.127
 3596SOL     OW11686   6.210   1.087   2.767
 3596SOL    HW111687   6.199   0.989   2.785
 3596SOL    HW211688   6.246   1.100   2.674
 3597SOL     OW11689   3.394   6.275   4.655
 3597SOL    HW111690   3.296   6.293   4.656
 3597SOL    HW211691   3.427   6.274   4.561
 3598SOL     OW11692   0.799   0.679   5.467
 3598SOL    HW111693   0.815   0.622   5.548
 3598SOL    HW211694   0.730   0.636   5.409
 3599SOL     OW11695   1.034   1.887   5.952
 3599SOL    HW111696   0.969   1.887   5.876
 3599SOL    HW211697   1.110   1.825   5.931
 3600SOL     OW11698   6.709   2.996   0.536
 3600SOL    HW111699   6.633   3.006   0.600
 3600SOL    HW211700   6.795   3.021   0.582
 3601SOL     OW11701   6.866   4.402   0.819
 3601SOL    HW111702   6.912   4.322   0.858
 3601SOL    HW211703   6.823   4.376   0.732
 3602SOL     OW11704   2.159   1.013   0.565
 3602SOL    HW111705   2.086   1.081   0.571
 3602SOL    HW211706   2.127   0.926   0.602
 3603SOL     OW11707   4.156   5.636   4.222
 3603SOL    HW111708   4.234   5.602   4.170
 3603SOL    HW211709   4.170   5.733   4.244
 3604SOL     OW11710   6.984   3.153   2.730
 3604SOL    HW111711   6.953   3.248   2.723
 3604SOL    HW211712   6.992   3.113   2.638
 3605SOL     OW11713   6.519   4.516   5.805
 3605SOL    HW111714   6.532   4.421   5.776
 3605SOL    HW211715   6.579   4.536   5.883
 3606SOL     OW11716   0.341   5.339   5.996
 3606SOL    HW111717   0.396   5.410   6.041
 3606SOL    HW211718   0.255   5.379   5.964
 3607SOL     OW11719   5.271   0.349   0.583
 3607SOL    HW111720   5.294   0.366   0.678
 3607SOL    HW211721   5.348   0.374   0.524
 3608SOL     OW11722   6.780   1.567   1.937
 3608SOL    HW111723   6.862   1.621   1.918
 3608SOL    HW211724   6.795   1.511   2.018
 3609SOL     OW11725   6.337   0.867   4.161
 3609SOL    HW111726   6.353   0.932   4.236
 3609SOL    HW211727   6.290   0.914   4.086
 3610SOL     OW11728   0.520   0.638   4.929
 3610SOL    HW111729   0.540   0.589   4.843
 3610SOL    HW211730   0.435   0.689   4.919
 3611SOL     OW11731   3.632   5.060   5.170
 3611SOL    HW111732   3.660   5.123   5.098
 3611SOL    HW211733   3.711   5.008   5.202
 3612SOL     OW11734   0.632   6.557   6.231
 3612SOL    HW111735   0.596   6.616   6.158
 3612SOL    HW211736   0.563   6.545   6.302
 3613SOL     OW11737   5.122   4.838   0.952
 3613SOL    HW111738   5.133   4.894   1.034
 3613SOL    HW211739   5.119   4.742   0.977
 3614SOL     OW11740   3.557   3.515   3.834
 3614SOL    HW111741   3.509   3.428   3.843
 3614SOL    HW211742   3.508   3.586   3.886
 3615SOL     OW11743   5.988   6.077   5.929
 3615SOL    HW111744   6.042   6.100   5.848
 3615SOL    HW211745   5.891   6.086   5.909
 3616SOL     OW11746   6.369   2.175   6.603
 3616SOL    HW111747   6.405   2.186   6.511
 3616SOL    HW211748   6.413   2.098   6.648
 3617SOL     OW11749   5.392   1.679   6.039
 3617SOL    HW111750   5.475   1.712   6.085
 3617SOL    HW211751   5.406   1.585   6.009
 3618SOL     OW11752   1.596   2.050   5.241
 3618SOL    HW111753   1.520   2.083   5.297
 3618SOL    HW211754   1.661   2.002   5.299
 3619SOL     OW11755   6.424   1.892   3.917
 3619SOL    HW111756   6.493   1.896   3.845
 3619SOL    HW211757   6.398   1.984   3.944
 3620SOL     OW11758   5.949   5.952   6.198
 3620SOL    HW111759   5.927   6.027   6.135
 3620SOL    HW211760   5.938   5.865   6.150
 3621SOL     OW11761   2.646   2.273   6.253
 3621SOL    HW111762   2.698   2.328   6.188
 3621SOL    HW211763   2.689   2.278   6.343
 3622SOL     OW11764   1.678   1.687   3.316
 3622SOL    HW111765   1.759   1.672   3.372
 3622SOL    HW211766   1.696   1.761   3.251
 3623SOL     OW11767   6.164   5.209   3.919
 3623SOL    HW111768   6.247   5.241   3.965
 3623SOL    HW211769   6.091   5.276   3.932
 3624SOL     OW11770   2.144   5.833   2.529
 3624SOL    HW111771   2.044   5.825   2.526
 3624SOL    HW211772   2.170   5.930   2.520
 3625SOL     OW11773   6.395   3.130   6.409
 3625SOL    HW111774   6.396   3.048   6.466
 3625SOL    HW211775   6.301   3.165   6.404
 3626SOL     OW11776   2.199   3.820   5.833
 3626SOL    HW111777   2.137   3.749   5.799
 3626SOL    HW211778   2.294   3.792   5.816
 3627SOL     OW11779   4.053   3.729   3.429
 3627SOL    HW111780   4.121   3.660   3.406
 3627SOL    HW211781   4.045   3.794   3.354
 3628SOL     OW11782   1.835   6.681   1.977
 3628SOL    HW111783   1.781   6.597   1.975
 3628SOL    HW211784   1.848   6.711   2.072
 3629SOL     OW11785   6.531   2.420   4.825
 3629SOL    HW111786   6.435   2.407   4.849
 3629SOL    HW211787   6.587   2.352   4.872
 3630SOL     OW11788   5.784   3.012   4.004
 3630SOL    HW111789   5.874   3.018   4.046
 3630SOL    HW211790   5.788   3.051   3.911
 3631SOL     OW11791   1.817   0.309   4.245
 3631SOL    HW111792   1.790   0.256   4.326
 3631SOL    HW211793   1.739   0.320   4.184
 3632SOL     OW11794   5.312   0.658   0.920
 3632SOL    HW111795   5.262   0.656   1.006
 3632SOL    HW211796   5.250   0.679   0.845
 3633SOL     OW11797   2.948   2.259   5.902
 3633SOL    HW111798   2.944   2.317   5.983
 3633SOL    HW211799   2.884   2.183   5.912
 3634SOL     OW11800   0.672   5.505   5.172
 3634SOL    HW111801   0.719   5.576   5.225
 3634SOL    HW211802   0.709   5.504   5.079
 3635SOL     OW11803   3.783   0.186   5.030
 3635SOL    HW111804   3.769   0.130   5.112
 3635SOL    HW211805   3.853   0.255   5.050
 3636SOL     OW11806   0.987   6.455   5.702
 3636SOL    HW111807   0.918   6.468   5.774
 3636SOL    HW211808   0.971   6.368   5.656
 3637SOL     OW11809   6.418   1.959   1.127
 3637SOL    HW111810   6.374   1.924   1.210
 3637SOL    HW211811   6.357   1.948   1.049
 3638SOL     OW11812   6.505   4.582   4.163
 3638SOL    HW111813   6.601   4.554   4.167
 3638SOL    HW211814   6.499   4.681   4.169
 3639SOL     OW11815   4.362   3.917   0.989
 3639SOL    HW111816   4.397   3.993   0.934
 3639SOL    HW211817   4.438   3.867   1.029
 3640SOL     OW11818   3.541   6.561   6.572
 3640SOL    HW111819   3.537   6.660   6.569
 3640SOL    HW211820   3.581   6.526   6.487
 3641SOL     OW11821   4.355   2.301   4.874
 3641SOL    HW111822   4.394   2.227   4.930
 3641SOL    HW211823   4.308   2.367   4.932
 3642SOL     OW11824   5.094   1.874   5.898
 3642SOL    HW111825   5.190   1.889   5.919
 3642SOL    HW211826   5.076   1.892   5.802
 3643SOL     OW11827   2.781   6.014   4.869
 3643SOL    HW111828   2.692   6.026   4.825
 3643SOL    HW211829   2.796   5.917   4.887
 3644SOL     OW11830   0.331   1.149   1.711
 3644SOL    HW111831   0.289   1.098   1.636
 3644SOL    HW211832   0.260   1.183   1.773
 3645SOL     OW11833   5.180   0.888   4.065
 3645SOL    HW111834   5.118   0.967   4.060
 3645SOL    HW211835   5.257   0.902   4.003
 3646SOL     OW11836   0.378   5.079   6.035
 3646SOL    HW111837   0.438   5.044   6.107
 3646SOL    HW211838   0.358   5.175   6.052
 3647SOL     OW11839   1.810   4.152   0.697
 3647SOL    HW111840   1.745   4.160   0.622
 3647SOL    HW211841   1.796   4.065   0.745
 3648SOL     OW11842   3.379   5.949   2.835
 3648SOL    HW111843   3.342   5.880   2.898
 3648SOL    HW211844   3.312   5.967   2.763
 3649SOL     OW11845   4.314   3.019   1.423
 3649SOL    HW111846   4.367   2.949   1.375
 3649SOL    HW211847   4.338   3.017   1.520
 3650SOL     OW11848   6.953   5.581   0.994
 3650SOL    HW111849   6.924   5.674   0.973
 3650SOL    HW211850   6.963   5.528   0.910
 3651SOL     OW11851   0.499   5.787   2.893
 3651SOL    HW111852   0.572   5.723   2.867
 3651SOL    HW211853   0.441   5.745   2.962
 3652SOL     OW11854   5.313   5.812   3.275
 3652SOL    HW111855   5.349   5.778   3.362
 3652SOL    HW211856   5.217   5.789   3.267
 3653SOL     OW11857   6.741   0.685   3.498
 3653SOL    HW111858   6.735   0.632   3.582
 3653SOL    HW211859   6.805   0.760   3.510
 3654SOL     OW11860   1.819   7.022   6.924
 3654SOL    HW111861   1.874   0.058   6.980
 3654SOL    HW211862   1.819   6.931   6.965
 3655SOL     OW11863   1.076   6.971   3.957
 3655SOL    HW111864   1.067   6.900   3.887
 3655SOL    HW211865   1.107   0.031   3.915
 3656SOL     OW11866   1.689   3.255   1.522
 3656SOL    HW111867   1.699   3.328   1.590
 3656SOL    HW211868   1.755   3.182   1.542
 3657SOL     OW11869   4.996   5.828   5.844
 3657SOL    HW111870   4.977   5.926   5.847
 3657SOL    HW211871   4.947   5.782   5.919
 3658SOL     OW11872   1.345   5.590   4.074
 3658SOL    HW111873   1.392   5.529   4.010
 3658SOL    HW211874   1.316   5.538   4.154
 3659SOL     OW11875   3.016   3.449   5.808
 3659SOL    HW111876   3.014   3.433   5.709
 3659SOL    HW211877   3.111   3.450   5.839
 3660SOL     OW11878   5.004   6.256   2.050
 3660SOL    HW111879   4.953   6.290   2.129
 3660SOL    HW211880   5.087   6.211   2.081
 3661SOL     OW11881   4.808   2.235   6.514
 3661SOL    HW111882   4.777   2.213   6.607
 3661SOL    HW211883   4.908   2.237   6.512
 3662SOL     OW11884   3.594   0.763   3.750
 3662SOL    HW111885   3.529   0.749   3.824
 3662SOL    HW211886   3.547   0.806   3.672
 3663SOL     OW11887   1.505   1.392   0.294
 3663SOL    HW111888   1.504   1.438   0.383
 3663SOL    HW211889   1.573   1.318   0.296
 3664SOL     OW11890   4.944   2.187   1.487
 3664SOL    HW111891   4.961   2.254   1.560
 3664SOL    HW211892   5.032   2.150   1.456
 3665SOL     OW11893   0.734   6.277   5.462
 3665SOL    HW111894   0.824   6.256   5.500
 3665SOL    HW211895   0.742   6.293   5.364
 3666SOL     OW11896   2.240   4.081   3.307
 3666SOL    HW111897   2.334   4.063   3.337
 3666SOL    HW211898   2.177   4.065   3.383
 3667SOL     OW11899   6.536   0.286   0.226
 3667SOL    HW111900   6.566   0.273   0.320
 3667SOL    HW211901   6.583   0.365   0.186
 3668SOL     OW11902   1.452   0.149   1.727
 3668SOL    HW111903   1.364   0.109   1.753
 3668SOL    HW211904   1.467   0.136   1.629
 3669SOL     OW11905   6.274   1.262   4.675
 3669SOL    HW111906   6.323   1.200   4.737
 3669SOL    HW211907   6.252   1.346   4.723
 3670SOL     OW11908   1.912   4.930   0.658
 3670SOL    HW111909   1.892   5.001   0.591
 3670SOL    HW211910   1.826   4.895   0.696
 3671SOL     OW11911   6.042   0.379   3.610
 3671SOL    HW111912   6.026   0.294   3.560
 3671SOL    HW211913   5.956   0.412   3.649
 3672SOL     OW11914   5.631   1.608   1.112
 3672SOL    HW111915   5.562   1.537   1.100
 3672SOL    HW211916   5.657   1.614   1.208
 3673SOL     OW11917   3.174   0.625   6.054
 3673SOL    HW111918   3.077   0.632   6.031
 3673SOL    HW211919   3.229   0.655   5.977
 3674SOL     OW11920   0.344   0.503   5.621
 3674SOL    HW111921   0.330   0.594   5.584
 3674SOL    HW211922   0.271   0.442   5.590
 3675SOL     OW11923   1.991   3.193   5.053
 3675SOL    HW111924   1.985   3.140   5.138
 3675SOL    HW211925   1.966   3.135   4.976
 3676SOL     OW11926   4.426   4.547   4.346
 3676SOL    HW111927   4.367   4.552   4.265
 3676SOL    HW211928   4.395   4.615   4.413
 3677SOL     OW11929   1.215   6.328   3.117
 3677SOL    HW111930   1.120   6.299   3.128
 3677SOL    HW211931   1.217   6.423   3.087
 3678SOL     OW11932   0.850   3.061   4.101
 3678SOL    HW111933   0.896   3.071   4.190
 3678SOL    HW211934   0.768   3.118   4.100
 3679SOL     OW11935   1.043   0.910   3.014
 3679SOL    HW111936   1.090   0.933   3.100
 3679SOL    HW211937   0.950   0.945   3.017
 3680SOL     OW11938   5.931   2.621   3.335
 3680SOL    HW111939   5.907   2.538   3.285
 3680SOL    HW211940   5.863   2.637   3.407
 3681SOL     OW11941   0.201   0.558   5.156
 3681SOL    HW111942   0.280   0.617   5.176
 3681SOL    HW211943   0.231   0.474   5.113
 3682SOL     OW11944   6.778   2.575   6.123
 3682SOL    HW111945   6.690   2.603   6.084
 3682SOL    HW211946   6.802   2.485   6.088
 3683SOL     OW11947   0.240   0.545   4.589
 3683SOL    HW111948   0.159   0.489   4.602
 3683SOL    HW211949   0.318   0.487   4.565
 3684SOL     OW11950   1.687   3.674   0.656
 3684SOL    HW111951   1.614   3.731   0.618
 3684SOL    HW211952   1.725   3.720   0.736
 3685SOL     OW11953   6.457   6.251   6.196
 3685SOL    HW111954   6.467   6.161   6.155
 3685SOL    HW211955   6.364   6.263   6.230
 3686SOL     OW11956   6.305   5.416   3.727
 3686SOL    HW111957   6.255   5.346   3.778
 3686SOL    HW211958   6.300   5.396   3.629
 3687SOL     OW11959   3.289   6.008   5.427
 3687SOL    HW111960   3.278   5.933   5.492
 3687SOL    HW211961   3.382   6.007   5.390
 3688SOL     OW11962   1.565   3.559   6.941
 3688SOL    HW111963   1.538   3.503   6.863
 3688SOL    HW211964   1.653   3.527   6.977
 3689SOL     OW11965   1.252   0.632   5.952
 3689SOL    HW111966   1.194   0.552   5.969
 3689SOL    HW211967   1.329   0.605   5.894
 3690SOL     OW11968   3.708   0.077   6.146
 3690SOL    HW111969   3.663   0.155   6.102
 3690SOL    HW211970   3.807   0.091   6.146
 3691SOL     OW11971   2.255   3.063   0.401
 3691SOL    HW111972   2.176   3.024   0.449
 3691SOL    HW211973   2.227   3.092   0.309
 3692SOL     OW11974   1.111   6.079   5.293
 3692SOL    HW111975   1.031   6.023   5.313
 3692SOL    HW211976   1.086   6.175   5.292
 3693SOL     OW11977   2.216   3.014   2.408
 3693SOL    HW111978   2.220   3.010   2.508
 3693SOL    HW211979   2.240   2.925   2.370
 3694SOL     OW11980   1.129   5.811   2.399
 3694SOL    HW111981   1.077   5.811   2.485
 3694SOL    HW211982   1.191   5.732   2.399
 3695SOL     OW11983   0.231   2.710   2.609
 3695SOL    HW111984   0.229   2.660   2.522
 3695SOL    HW211985   0.326   2.726   2.635
 3696SOL     OW11986   4.218   5.386   5.120
 3696SOL    HW111987   4.119   5.395   5.108
 3696SOL    HW211988   4.237   5.324   5.196
 3697SOL     OW11989   0.164   5.438   3.594
 3697SOL    HW111990   0.145   5.425   3.691
 3697SOL    HW211991   0.152   5.352   3.546
 3698SOL     OW11992   3.566   6.376   4.882
 3698SOL    HW111993   3.651   6.408   4.842
 3698SOL    HW211994   3.503   6.347   4.810
 3699SOL     OW11995   6.322   3.773   2.708
 3699SOL    HW111996   6.259   3.843   2.676
 3699SOL    HW211997   6.371   3.734   2.630
 3700SOL     OW11998   6.614   0.711   4.231
 3700SOL    HW111999   6.557   0.764   4.294
 3700SOL    HW212000   6.583   0.725   4.137
 3701SOL     OW12001   0.811   0.808   3.335
 3701SOL    HW112002   0.713   0.831   3.340
 3701SOL    HW212003   0.862   0.887   3.301
 3702SOL     OW12004   4.011   0.470   2.486
 3702SOL    HW112005   4.090   0.442   2.540
 3702SOL    HW212006   3.931   0.478   2.546
 3703SOL     OW12007   4.522   2.797   6.559
 3703SOL    HW112008   4.452   2.855   6.600
 3703SOL    HW212009   4.568   2.745   6.631
 3704SOL     OW12010   3.087   0.347   1.309
 3704SOL    HW112011   3.020   0.273   1.306
 3704SOL    HW212012   3.160   0.323   1.373
 3705SOL     OW12013   5.072   6.306   4.063
 3705SOL    HW112014   5.106   6.303   3.969
 3705SOL    HW212015   5.033   6.397   4.082
 3706SOL     OW12016   0.801   3.404   4.496
 3706SOL    HW112017   0.884   3.352   4.478
 3706SOL    HW212018   0.732   3.344   4.537
 3707SOL     OW12019   5.714   3.976   5.391
 3707SOL    HW112020   5.709   4.019   5.301
 3707SOL    HW212021   5.803   3.997   5.432
 3708SOL     OW12022   5.989   0.921   6.611
 3708SOL    HW112023   5.911   0.950   6.667
 3708SOL    HW212024   5.986   0.968   6.522
 3709SOL     OW12025   3.681   0.811   0.259
 3709SOL    HW112026   3.594   0.817   0.307
 3709SOL    HW212027   3.754   0.845   0.318
 3710SOL     OW12028   6.541   5.652   0.252
 3710SOL    HW112029   6.630   5.620   0.283
 3710SOL    HW212030   6.553   5.717   0.177
 3711SOL     OW12031   6.888   6.071   1.970
 3711SOL    HW112032   6.968   6.053   1.912
 3711SOL    HW212033   6.916   6.070   2.066
 3712SOL     OW12034   6.643   6.243   6.848
 3712SOL    HW112035   6.595   6.198   6.773
 3712SOL    HW212036   6.724   6.190   6.874
 3713SOL     OW12037   1.446   6.218   4.764
 3713SOL    HW112038   1.373   6.281   4.790
 3713SOL    HW212039   1.430   6.185   4.671
 3714SOL     OW12040   4.731   5.865   4.888
 3714SOL    HW112041   4.732   5.851   4.789
 3714SOL    HW212042   4.642   5.836   4.925
 3715SOL     OW12043   6.110   4.129   4.491
 3715SOL    HW112044   6.082   4.081   4.409
 3715SOL    HW212045   6.061   4.093   4.570
 3716SOL     OW12046   6.252   0.217   5.234
 3716SOL    HW112047   6.214   0.252   5.149
 3716SOL    HW212048   6.331   0.159   5.214
 3717SOL     OW12049   6.190   4.907   6.358
 3717SOL    HW112050   6.205   4.849   6.438
 3717SOL    HW212051   6.131   4.984   6.384
 3718SOL     OW12052   2.601   0.011   5.256
 3718SOL    HW112053   2.558   6.973   5.193
 3718SOL    HW212054   2.694   7.005   5.277
 3719SOL     OW12055   5.023   4.400   0.843
 3719SOL    HW112056   5.087   4.425   0.916
 3719SOL    HW212057   5.037   4.461   0.765
 3720SOL     OW12058   5.497   2.153   5.905
 3720SOL    HW112059   5.483   2.068   5.955
 3720SOL    HW212060   5.512   2.133   5.808
 3721SOL     OW12061   5.038   4.678   0.657
 3721SOL    HW112062   5.129   4.694   0.696
 3721SOL    HW212063   5.013   4.755   0.599
 3722SOL     OW12064   0.051   0.001   2.372
 3722SOL    HW112065   0.119   6.969   2.326
 3722SOL    HW212066   6.987   6.983   2.368
 3723SOL     OW12067   6.569   6.063   1.636
 3723SOL    HW112068   6.575   6.073   1.735
 3723SOL    HW212069   6.565   6.153   1.593
 3724SOL     OW12070   2.528   5.318   6.645
 3724SOL    HW112071   2.470   5.399   6.646
 3724SOL    HW212072   2.541   5.289   6.550
 3725SOL     OW12073   5.008   6.340   0.208
 3725SOL    HW112074   5.073   6.394   0.156
 3725SOL    HW212075   5.012   6.366   0.305
 3726SOL     OW12076   6.417   5.097   1.231
 3726SOL    HW112077   6.331   5.069   1.274
 3726SOL    HW212078   6.428   5.049   1.143
 3727SOL     OW12079   6.967   3.272   5.565
 3727SOL    HW112080   6.960   3.175   5.545
 3727SOL    HW212081   6.992   3.285   5.661
 3728SOL     OW12082   1.768   3.761   0.104
 3728SOL    HW112083   1.855   3.728   0.069
 3728SOL    HW212084   1.715   3.803   0.030
 3729SOL     OW12085   1.301   2.537   3.625
 3729SOL    HW112086   1.323   2.445   3.657
 3729SOL    HW212087   1.345   2.553   3.537
 3730SOL     OW12088   3.102   6.038   6.619
 3730SOL    HW112089   3.159   5.978   6.674
 3730SOL    HW212090   3.080   5.993   6.532
 3731SOL     OW12091   4.492   0.045   0.512
 3731SOL    HW112092   4.457   7.024   0.593
 3731SOL    HW212093   4.577   0.002   0.483
 3732SOL     OW12094   1.671   3.006   6.996
 3732SOL    HW112095   1.586   3.007   0.025
 3732SOL    HW212096   1.667   2.932   6.929
 3733SOL     OW12097   1.534   3.815   1.023
 3733SOL    HW112098   1.539   3.829   0.924
 3733SOL    HW212099   1.454   3.863   1.059
 3734SOL     OW12100   4.263   1.516   1.899
 3734SOL    HW112101   4.201   1.565   1.960
 3734SOL    HW212102   4.230   1.422   1.886
 3735SOL     OW12103   1.581   1.826   3.551
 3735SOL    HW112104   1.660   1.877   3.586
 3735SOL    HW212105   1.613   1.753   3.491
 3736SOL     OW12106   0.029   3.334   0.506
 3736SOL    HW112107   0.093   3.399   0.466
 3736SOL    HW212108   6.969   3.334   0.453
 3737SOL     OW12109   5.663   6.994   2.852
 3737SOL    HW112110   5.748   6.957   2.887
 3737SOL    HW212111   5.594   6.995   2.924
 3738SOL     OW12112   6.542   6.308   3.423
 3738SOL    HW112113   6.465   6.318   3.485
 3738SOL    HW212114   6.617   6.367   3.453
 3739SOL     OW12115   1.772   4.744   2.062
 3739SOL    HW112116   1.697   4.719   2.001
 3739SOL    HW212117   1.855   4.758   2.009
 3740SOL     OW12118   4.710   0.087   0.256
 3740SOL    HW112119   4.684   7.024   0.293
 3740SOL    HW212120   4.648   0.111   0.182
 3741SOL     OW12121   4.638   3.177   1.630
 3741SOL    HW112122   4.635   3.277   1.624
 3741SOL    HW212123   4.595   3.148   1.715
 3742SOL     OW12124   2.803   1.964   5.241
 3742SOL    HW112125   2.707   1.939   5.234
 3742SOL    HW212126   2.810   2.060   5.271
 3743SOL     OW12127   5.465   4.410   1.188
 3743SOL    HW112128   5.399   4.344   1.151
 3743SOL    HW212129   5.558   4.376   1.175
 3744SOL     OW12130   0.822   5.763   3.044
 3744SOL    HW112131   0.782   5.716   2.964
 3744SOL    HW212132   0.750   5.813   3.092
 3745SOL     OW12133   3.460   5.639   2.297
 3745SOL    HW112134   3.415   5.612   2.382
 3745SOL    HW212135   3.510   5.561   2.260
 3746SOL     OW12136   4.306   1.420   2.420
 3746SOL    HW112137   4.328   1.378   2.332
 3746SOL    HW212138   4.237   1.492   2.407
 3747SOL     OW12139   3.483   0.182   5.930
 3747SOL    HW112140   3.395   0.137   5.914
 3747SOL    HW212141   3.550   0.150   5.863
 3748SOL     OW12142   5.094   0.622   1.888
 3748SOL    HW112143   5.188   0.640   1.918
 3748SOL    HW212144   5.066   0.532   1.920
 3749SOL     OW12145   1.333   6.350   3.829
 3749SOL    HW112146   1.360   6.424   3.890
 3749SOL    HW212147   1.336   6.382   3.734
 3750SOL     OW12148   2.280   4.237   0.183
 3750SOL    HW112149   2.321   4.326   0.163
 3750SOL    HW212150   2.298   4.174   0.108
 3751SOL     OW12151   6.447   3.833   2.415
 3751SOL    HW112152   6.420   3.751   2.365
 3751SOL    HW212153   6.406   3.913   2.372
 3752SOL     OW12154   4.991   0.989   5.336
 3752SOL    HW112155   4.897   0.980   5.303
 3752SOL    HW212156   5.036   0.900   5.333
 3753SOL     OW12157   6.130   0.283   4.968
 3753SOL    HW112158   6.034   0.276   4.994
 3753SOL    HW212159   6.139   0.272   4.869
 3754SOL     OW12160   2.167   0.841   2.100
 3754SOL    HW112161   2.200   0.895   2.022
 3754SOL    HW212162   2.071   0.817   2.086
 3755SOL     OW12163   3.463   5.756   4.827
 3755SOL    HW112164   3.436   5.853   4.824
 3755SOL    HW212165   3.466   5.726   4.922
 3756SOL     OW12166   3.080   5.407   6.538
 3756SOL    HW112167   3.008   5.350   6.580
 3756SOL    HW212168   3.113   5.473   6.606
 3757SOL     OW12169   6.399   5.356   1.770
 3757SOL    HW112170   6.492   5.320   1.764
 3757SOL    HW212171   6.334   5.282   1.752
 3758SOL     OW12172   2.328   1.201   4.589
 3758SOL    HW112173   2.322   1.102   4.578
 3758SOL    HW212174   2.367   1.222   4.679
 3759SOL     OW12175   4.232   1.024   5.378
 3759SOL    HW112176   4.310   0.980   5.334
 3759SOL    HW212177   4.149   0.971   5.359
 3760SOL     OW12178   0.013   0.154   3.344
 3760SOL    HW112179   0.095   0.141   3.288
 3760SOL    HW212180   7.016   0.068   3.390
 3761SOL     OW12181   6.483   1.037   4.303
 3761SOL    HW112182   6.446   1.118   4.349
 3761SOL    HW212183   6.562   1.064   4.247
 3762SOL     OW12184   1.452   4.243   2.590
 3762SOL    HW112185   1.394   4.219   2.512
 3762SOL    HW212186   1.397   4.292   2.658
 3763SOL     OW12187   6.212   3.837   0.522
 3763SOL    HW112188   6.125   3.796   0.547
 3763SOL    HW212189   6.197   3.929   0.486
 3764SOL     OW12190   1.802   0.625   3.033
 3764SOL    HW112191   1.740   0.559   2.992
 3764SOL    HW212192   1.867   0.657   2.965
 3765SOL     OW12193   5.906   1.659   1.525
 3765SOL    HW112194   5.900   1.737   1.587
 3765SOL    HW212195   5.908   1.575   1.579
 3766SOL     OW12196   1.911   2.098   4.149
 3766SOL    HW112197   1.993   2.076   4.096
 3766SOL    HW212198   1.937   2.148   4.231
 3767SOL     OW12199   3.591   4.427   6.048
 3767SOL    HW112200   3.600   4.450   6.145
 3767SOL    HW212201   3.498   4.446   6.018
 3768SOL     OW12202   0.907   0.728   4.348
 3768SOL    HW112203   0.975   0.781   4.296
 3768SOL    HW212204   0.922   0.630   4.331
 3769SOL     OW12205   5.702   5.639   5.449
 3769SOL    HW112206   5.764   5.716   5.433
 3769SOL    HW212207   5.633   5.637   5.377
 3770SOL     OW12208   1.295   1.165   6.864
 3770SOL    HW112209   1.341   1.251   6.887
 3770SOL    HW212210   1.246   1.177   6.778
 3771SOL     OW12211   6.053   4.492   6.944
 3771SOL    HW112212   6.143   4.527   6.971
 3771SOL    HW212213   5.984   4.525   7.009
 3772SOL     OW12214   1.256   7.021   0.330
 3772SOL    HW112215   1.319   0.051   0.275
 3772SOL    HW212216   1.162   0.023   0.312
 3773SOL     OW12217   5.441   3.818   5.713
 3773SOL    HW112218   5.408   3.911   5.731
 3773SOL    HW212219   5.367   3.764   5.673
 3774SOL     OW12220   5.731   4.930   1.638
 3774SOL    HW112221   5.702   4.929   1.542
 3774SOL    HW212222   5.665   4.879   1.692
 3775SOL     OW12223   4.103   4.795   3.569
 3775SOL    HW112224   4.024   4.821   3.512
 3775SOL    HW212225   4.095   4.839   3.658
 3776SOL     OW12226   3.794   2.938   6.362
 3776SOL    HW112227   3.852   2.995   6.421
 3776SOL    HW212228   3.750   2.867   6.416
 3777SOL     OW12229   2.597   6.212   3.612
 3777SOL    HW112230   2.675   6.269   3.638
 3777SOL    HW212231   2.515   6.244   3.659
 3778SOL     OW12232   1.779   6.350   4.062
 3778SOL    HW112233   1.759   6.256   4.033
 3778SOL    HW212234   1.878   6.365   4.059
 3779SOL     OW12235   0.123   5.054   0.520
 3779SOL    HW112236   0.198   5.018   0.576
 3779SOL    HW212237   0.061   5.108   0.577
 3780SOL     OW12238   0.382   3.010   3.218
 3780SOL    HW112239   0.325   2.942   3.264
 3780SOL    HW212240   0.471   3.015   3.265
 3781SOL     OW12241   0.721   6.716   4.715
 3781SOL    HW112242   0.625   6.693   4.732
 3781SOL    HW212243   0.733   6.739   4.618
 3782SOL     OW12244   3.688   6.347   2.537
 3782SOL    HW112245   3.655   6.417   2.473
 3782SOL    HW212246   3.614   6.283   2.558
 3783SOL     OW12247   5.613   4.996   5.152
 3783SOL    HW112248   5.686   4.956   5.096
 3783SOL    HW212249   5.574   5.075   5.105
 3784SOL     OW12250   5.407   2.482   2.160
 3784SOL    HW112251   5.414   2.559   2.223
 3784SOL    HW212252   5.406   2.397   2.212
 3785SOL     OW12253   0.851   2.991   5.346
 3785SOL    HW112254   0.845   2.910   5.403
 3785SOL    HW212255   0.824   3.071   5.398
 3786SOL     OW12256   1.826   3.091   2.952
 3786SOL    HW112257   1.743   3.144   2.935
 3786SOL    HW212258   1.889   3.144   3.009
 3787SOL     OW12259   4.987   0.127   3.032
 3787SOL    HW112260   5.029   0.202   2.982
 3787SOL    HW212261   4.887   0.138   3.031
 3788SOL     OW12262   6.238   4.672   5.262
 3788SOL    HW112263   6.305   4.726   5.210
 3788SOL    HW212264   6.282   4.629   5.340
 3789SOL     OW12265   6.746   3.757   2.825
 3789SOL    HW112266   6.740   3.847   2.867
 3789SOL    HW212267   6.719   3.763   2.729
 3790SOL     OW12268   1.013   5.853   6.554
 3790SOL    HW112269   0.957   5.934   6.568
 3790SOL    HW212270   1.023   5.805   6.642
 3791SOL     OW12271   5.223   1.991   0.174
 3791SOL    HW112272   5.206   1.939   0.257
 3791SOL    HW212273   5.138   2.038   0.147
 3792SOL     OW12274   1.252   1.431   4.373
 3792SOL    HW112275   1.282   1.516   4.418
 3792SOL    HW212276   1.170   1.396   4.419
 3793SOL     OW12277   5.595   6.245   1.183
 3793SOL    HW112278   5.595   6.226   1.084
 3793SOL    HW212279   5.663   6.317   1.202
 3794SOL     OW12280   2.210   2.886   1.664
 3794SOL    HW112281   2.266   2.865   1.744
 3794SOL    HW212282   2.184   2.800   1.618
 3795SOL     OW12283   3.131   5.242   1.178
 3795SOL    HW112284   3.042   5.259   1.221
 3795SOL    HW212285   3.186   5.326   1.181
 3796SOL     OW12286   4.263   2.066   1.367
 3796SOL    HW112287   4.310   2.151   1.390
 3796SOL    HW212288   4.294   2.033   1.278
 3797SOL     OW12289   1.058   3.934   3.392
 3797SOL    HW112290   1.150   3.922   3.431
 3797SOL    HW212291   0.998   3.972   3.462
 3798SOL     OW12292   2.996   6.520   2.414
 3798SOL    HW112293   3.015   6.613   2.384
 3798SOL    HW212294   2.963   6.521   2.508
 3799SOL     OW12295   0.132   2.604   3.931
 3799SOL    HW112296   0.085   2.517   3.920
 3799SOL    HW212297   0.067   2.679   3.926
 3800SOL     OW12298   5.244   1.926   3.608
 3800SOL    HW112299   5.334   1.886   3.622
 3800SOL    HW212300   5.174   1.862   3.638
 3801SOL     OW12301   5.289   0.008   1.652
 3801SOL    HW112302   5.290   6.958   1.587
 3801SOL    HW212303   5.364   7.023   1.717
 3802SOL     OW12304   0.008   1.641   2.429
 3802SOL    HW112305   6.965   1.574   2.455
 3802SOL    HW212306   7.022   1.723   2.485
 3803SOL     OW12307   4.011   3.618   3.960
 3803SOL    HW112308   4.032   3.642   3.865
 3803SOL    HW212309   4.036   3.523   3.977
 3804SOL     OW12310   3.308   1.847   3.916
 3804SOL    HW112311   3.251   1.776   3.875
 3804SOL    HW212312   3.302   1.841   4.016
 3805SOL     OW12313   1.901   2.571   1.613
 3805SOL    HW112314   1.906   2.670   1.622
 3805SOL    HW212315   1.991   2.535   1.591
 3806SOL     OW12316   3.936   3.623   6.454
 3806SOL    HW112317   3.969   3.716   6.474
 3806SOL    HW212318   3.888   3.588   6.534
 3807SOL     OW12319   1.743   4.518   4.685
 3807SOL    HW112320   1.821   4.570   4.650
 3807SOL    HW212321   1.718   4.446   4.620
 3808SOL     OW12322   4.738   0.462   6.072
 3808SOL    HW112323   4.821   0.407   6.080
 3808SOL    HW212324   4.718   0.507   6.159
 3809SOL     OW12325   5.996   2.070   2.346
 3809SOL    HW112326   6.064   1.999   2.367
 3809SOL    HW212327   6.029   2.126   2.269
 3810SOL     OW12328   0.107   2.441   3.390
 3810SOL    HW112329   0.038   2.370   3.405
 3810SOL    HW212330   0.186   2.423   3.449
 3811SOL     OW12331   0.267   5.914   4.042
 3811SOL    HW112332   0.284   5.829   4.093
 3811SOL    HW212333   0.348   5.973   4.049
 3812SOL     OW12334   3.442   4.921   6.062
 3812SOL    HW112335   3.479   5.001   6.108
 3812SOL    HW212336   3.425   4.848   6.128
 3813SOL     OW12337   5.664   3.966   0.703
 3813SOL    HW112338   5.762   3.946   0.702
 3813SOL    HW212339   5.645   4.042   0.642
 3814SOL     OW12340   6.912   0.149   3.802
 3814SOL    HW112341   6.960   0.077   3.852
 3814SOL    HW212342   6.977   0.197   3.743
 3815SOL     OW12343   4.144   2.227   0.935
 3815SOL    HW112344   4.180   2.274   1.016
 3815SOL    HW212345   4.079   2.157   0.965
 3816SOL     OW12346   1.111   5.484   5.127
 3816SOL    HW112347   1.161   5.472   5.212
 3816SOL    HW212348   1.043   5.411   5.118
 3817SOL     OW12349   4.840   3.273   1.847
 3817SOL    HW112350   4.904   3.263   1.770
 3817SOL    HW212351   4.798   3.185   1.867
 3818SOL     OW12352   0.077   0.530   0.864
 3818SOL    HW112353   0.049   0.439   0.833
 3818SOL    HW212354   0.154   0.521   0.928
 3819SOL     OW12355   6.337   4.287   2.476
 3819SOL    HW112356   6.275   4.364   2.460
 3819SOL    HW212357   6.350   4.275   2.575
 3820SOL     OW12358   5.938   6.506   3.743
 3820SOL    HW112359   5.960   6.512   3.646
 3820SOL    HW212360   5.866   6.572   3.765
 3821SOL     OW12361   1.045   0.922   1.186
 3821SOL    HW112362   0.954   0.947   1.220
 3821SOL    HW212363   1.103   0.894   1.263
 3822SOL     OW12364   2.548   0.288   6.252
 3822SOL    HW112365   2.525   0.216   6.317
 3822SOL    HW212366   2.643   0.276   6.222
 3823SOL     OW12367   4.417   4.318   6.280
 3823SOL    HW112368   4.490   4.284   6.338
 3823SOL    HW212369   4.345   4.359   6.337
 3824SOL     OW12370   0.589   2.515   1.259
 3824SOL    HW112371   0.667   2.501   1.320
 3824SOL    HW212372   0.533   2.432   1.256
 3825SOL     OW12373   0.720   4.036   0.824
 3825SOL    HW112374   0.751   4.036   0.919
 3825SOL    HW212375   0.636   3.982   0.817
 3826SOL     OW12376   6.737   3.408   1.593
 3826SOL    HW112377   6.820   3.394   1.646
 3826SOL    HW212378   6.692   3.320   1.577
 3827SOL     OW12379   0.285   0.461   1.212
 3827SOL    HW112380   0.369   0.408   1.211
 3827SOL    HW212381   0.284   0.524   1.134
 3828SOL     OW12382   3.853   3.437   4.478
 3828SOL    HW112383   3.840   3.446   4.577
 3828SOL    HW212384   3.940   3.478   4.452
 3829SOL     OW12385   0.652   5.294   2.073
 3829SOL    HW112386   0.684   5.202   2.052
 3829SOL    HW212387   0.686   5.358   2.005
 3830SOL     OW12388   0.520   1.631   5.620
 3830SOL    HW112389   0.534   1.594   5.528
 3830SOL    HW212390   0.454   1.574   5.669
 3831SOL     OW12391   4.385   2.280   2.710
 3831SOL    HW112392   4.466   2.237   2.670
 3831SOL    HW212393   4.332   2.324   2.638
 3832SOL     OW12394   6.858   0.640   2.703
 3832SOL    HW112395   6.787   0.571   2.690
 3832SOL    HW212396   6.816   0.731   2.704
 3833SOL     OW12397   1.275   6.575   6.253
 3833SOL    HW112398   1.183   6.591   6.288
 3833SOL    HW212399   1.309   6.659   6.210
 3834SOL     OW12400   4.019   4.179   1.161
 3834SOL    HW112401   3.945   4.188   1.227
 3834SOL    HW212402   3.981   4.183   1.068
 3835SOL     OW12403   3.988   5.715   5.146
 3835SOL    HW112404   3.959   5.620   5.134
 3835SOL    HW212405   3.909   5.776   5.138
 3836SOL     OW12406   0.108   5.376   5.834
 3836SOL    HW112407   0.091   5.288   5.878
 3836SOL    HW212408   0.072   5.449   5.891
 3837SOL     OW12409   4.951   5.265   5.437
 3837SOL    HW112410   4.929   5.169   5.422
 3837SOL    HW212411   5.046   5.273   5.469
 3838SOL     OW12412   1.377   2.381   3.231
 3838SOL    HW112413   1.396   2.455   3.295
 3838SOL    HW212414   1.293   2.334   3.258
 3839SOL     OW12415   4.689   1.450   2.668
 3839SOL    HW112416   4.604   1.401   2.654
 3839SOL    HW212417   4.754   1.425   2.596
 3840SOL     OW12418   3.223   2.020   6.590
 3840SOL    HW112419   3.265   1.962   6.521
 3840SOL    HW212420   3.132   1.985   6.612
 3841SOL     OW12421   0.958   4.048   4.795
 3841SOL    HW112422   0.882   3.984   4.803
 3841SOL    HW212423   1.009   4.029   4.712
 3842SOL     OW12424   2.478   2.500   4.015
 3842SOL    HW112425   2.429   2.581   4.044
 3842SOL    HW212426   2.487   2.437   4.093
 3843SOL     OW12427   5.248   3.304   1.759
 3843SOL    HW112428   5.170   3.262   1.714
 3843SOL    HW212429   5.294   3.236   1.817
 3844SOL     OW12430   1.452   3.555   6.401
 3844SOL    HW112431   1.420   3.461   6.414
 3844SOL    HW212432   1.376   3.614   6.375
 3845SOL     OW12433   2.764   5.514   5.981
 3845SOL    HW112434   2.792   5.553   5.893
 3845SOL    HW212435   2.810   5.563   6.055
 3846SOL     OW12436   0.936   3.788   3.978
 3846SOL    HW112437   0.859   3.848   3.998
 3846SOL    HW212438   1.019   3.843   3.967
 3847SOL     OW12439   5.167   2.885   4.267
 3847SOL    HW112440   5.263   2.856   4.267
 3847SOL    HW212441   5.157   2.966   4.209
 3848SOL     OW12442   4.940   3.804   2.522
 3848SOL    HW112443   4.902   3.773   2.435
 3848SOL    HW212444   5.025   3.853   2.505
 3849SOL     OW12445   0.896   0.803   6.031
 3849SOL    HW112446   0.802   0.800   6.064
 3849SOL    HW212447   0.896   0.812   5.932
 3850SOL     OW12448   2.954   3.392   1.926
 3850SOL    HW112449   2.948   3.348   1.836
 3850SOL    HW212450   2.928   3.326   1.997
 3851SOL     OW12451   6.951   4.774   3.219
 3851SOL    HW112452   6.975   4.729   3.133
 3851SOL    HW212453   6.878   4.724   3.264
 3852SOL     OW12454   3.250   5.657   3.700
 3852SOL    HW112455   3.321   5.725   3.683
 3852SOL    HW212456   3.197   5.683   3.781
 3853SOL     OW12457   1.104   3.271   3.338
 3853SOL    HW112458   1.031   3.250   3.404
 3853SOL    HW212459   1.135   3.186   3.296
 3854SOL     OW12460   1.394   2.299   2.504
 3854SOL    HW112461   1.358   2.335   2.418
 3854SOL    HW212462   1.438   2.372   2.556
 3855SOL     OW12463   4.707   6.154   6.701
 3855SOL    HW112464   4.719   6.087   6.627
 3855SOL    HW212465   4.610   6.177   6.711
 3856SOL     OW12466   0.633   1.066   6.133
 3856SOL    HW112467   0.713   1.120   6.161
 3856SOL    HW212468   0.593   1.022   6.214
 3857SOL     OW12469   0.595   6.362   0.171
 3857SOL    HW112470   0.546   6.449   0.175
 3857SOL    HW212471   0.638   6.352   0.081
 3858SOL     OW12472   3.411   1.436   6.056
 3858SOL    HW112473   3.482   1.505   6.041
 3858SOL    HW212474   3.444   1.347   6.023
 3859SOL     OW12475   6.155   1.028   1.585
 3859SOL    HW112476   6.250   0.997   1.577
 3859SOL    HW212477   6.132   1.042   1.681
 3860SOL     OW12478   1.869   1.195   4.575
 3860SOL    HW112479   1.890   1.250   4.656
 3860SOL    HW212480   1.840   1.104   4.604
 3861SOL     OW12481   4.339   5.141   3.911
 3861SOL    HW112482   4.371   5.235   3.904
 3861SOL    HW212483   4.315   5.120   4.005
 3862SOL     OW12484   0.557   0.914   4.811
 3862SOL    HW112485   0.587   0.945   4.721
 3862SOL    HW212486   0.608   0.962   4.882
 3863SOL     OW12487   6.368   2.061   0.015
 3863SOL    HW112488   6.333   2.129   0.079
 3863SOL    HW212489   6.293   2.004   7.008
 3864SOL     OW12490   2.380   0.557   5.371
 3864SOL    HW112491   2.380   0.609   5.285
 3864SOL    HW212492   2.317   0.480   5.364
 3865SOL     OW12493   4.254   1.092   1.150
 3865SOL    HW112494   4.167   1.044   1.151
 3865SOL    HW212495   4.328   1.027   1.132
 3866SOL     OW12496   3.911   0.570   0.506
 3866SOL    HW112497   3.986   0.510   0.533
 3866SOL    HW212498   3.887   0.630   0.583
 3867SOL     OW12499   0.866   4.638   3.562
 3867SOL    HW112500   0.776   4.614   3.597
 3867SOL    HW212501   0.885   4.735   3.583
 3868SOL     OW12502   3.447   0.414   0.397
 3868SOL    HW112503   3.547   0.414   0.399
 3868SOL    HW212504   3.415   0.410   0.302
 3869SOL     OW12505   6.486   2.762   4.752
 3869SOL    HW112506   6.512   2.726   4.663
 3869SOL    HW212507   6.569   2.785   4.805
 3870SOL     OW12508   6.948   6.496   0.889
 3870SOL    HW112509   6.887   6.574   0.875
 3870SOL    HW212510   6.998   6.478   0.804
 3871SOL     OW12511   3.481   0.726   3.222
 3871SOL    HW112512   3.509   0.775   3.304
 3871SOL    HW212513   3.436   0.640   3.247
 3872SOL     OW12514   3.227   3.329   4.663
 3872SOL    HW112515   3.252   3.244   4.711
 3872SOL    HW212516   3.128   3.340   4.665
 3873SOL     OW12517   5.754   3.636   1.115
 3873SOL    HW112518   5.826   3.676   1.059
 3873SOL    HW212519   5.686   3.592   1.056
 3874SOL     OW12520   4.625   6.352   0.392
 3874SOL    HW112521   4.713   6.306   0.390
 3874SOL    HW212522   4.576   6.334   0.306
 3875SOL     OW12523   2.071   3.490   2.954
 3875SOL    HW112524   1.973   3.469   2.961
 3875SOL    HW212525   2.082   3.583   2.918
 3876SOL     OW12526   3.725   4.991   0.831
 3876SOL    HW112527   3.688   5.084   0.830
 3876SOL    HW212528   3.793   4.984   0.904
 3877SOL     OW12529   6.285   2.183   1.317
 3877SOL    HW112530   6.292   2.233   1.231
 3877SOL    HW212531   6.357   2.114   1.322
 3878SOL     OW12532   4.344   6.479   5.029
 3878SOL    HW112533   4.406   6.529   4.970
 3878SOL    HW212534   4.264   6.537   5.050
 3879SOL     OW12535   6.106   5.596   1.090
 3879SOL    HW112536   6.096   5.503   1.055
 3879SOL    HW212537   6.050   5.659   1.036
 3880SOL     OW12538   5.151   4.263   4.374
 3880SOL    HW112539   5.251   4.266   4.376
 3880SOL    HW212540   5.118   4.319   4.298
 3881SOL     OW12541   0.856   3.618   1.685
 3881SOL    HW112542   0.848   3.717   1.694
 3881SOL    HW212543   0.819   3.574   1.767
 3882SOL     OW12544   1.106   1.534   5.750
 3882SOL    HW112545   1.191   1.559   5.797
 3882SOL    HW212546   1.128   1.495   5.661
 3883SOL     OW12547   3.980   1.234   2.134
 3883SOL    HW112548   4.006   1.237   2.230
 3883SOL    HW212549   3.885   1.263   2.123
 3884SOL     OW12550   0.908   5.862   1.917
 3884SOL    HW112551   0.821   5.822   1.943
 3884SOL    HW212552   0.901   5.962   1.920
 3885SOL     OW12553   5.902   5.941   2.770
 3885SOL    HW112554   5.939   6.011   2.832
 3885SOL    HW212555   5.967   5.927   2.695
 3886SOL     OW12556   5.203   5.716   4.985
 3886SOL    HW112557   5.126   5.653   4.974
 3886SOL    HW212558   5.281   5.684   4.931
 3887SOL     OW12559   1.218   0.398   6.739
 3887SOL    HW112560   1.173   0.468   6.795
 3887SOL    HW212561   1.177   0.395   6.649
 3888SOL     OW12562   6.626   0.671   5.204
 3888SOL    HW112563   6.716   0.643   5.169
 3888SOL    HW212564   6.637   0.721   5.290
 3889SOL     OW12565   0.116   4.122   0.152
 3889SOL    HW112566   0.032   4.139   0.101
 3889SOL    HW212567   0.189   4.180   0.117
 3890SOL     OW12568   6.527   4.841   3.081
 3890SOL    HW112569   6.586   4.767   3.048
 3890SOL    HW212570   6.431   4.814   3.072
 3891SOL     OW12571   5.379   3.877   4.156
 3891SOL    HW112572   5.390   3.778   4.167
 3891SOL    HW212573   5.422   3.924   4.233
 3892SOL     OW12574   6.965   1.443   1.518
 3892SOL    HW112575   6.958   1.489   1.429
 3892SOL    HW212576   7.016   1.358   1.508
 3893SOL     OW12577   4.088   4.086   0.200
 3893SOL    HW112578   4.112   4.071   0.296
 3893SOL    HW212579   4.169   4.113   0.148
 3894SOL     OW12580   4.244   1.268   0.637
 3894SOL    HW112581   4.228   1.188   0.579
 3894SOL    HW212582   4.223   1.245   0.732
 3895SOL     OW12583   1.732   0.735   5.393
 3895SOL    HW112584   1.774   0.698   5.309
 3895SOL    HW212585   1.652   0.789   5.369
 3896SOL     OW12586   0.330   1.249   5.038
 3896SOL    HW112587   0.282   1.230   4.952
 3896SOL    HW212588   0.346   1.163   5.087
 3897SOL     OW12589   3.406   5.740   2.646
 3897SOL    HW112590   3.428   5.837   2.635
 3897SOL    HW212591   3.411   5.716   2.743
 3898SOL     OW12592   2.088   3.356   6.002
 3898SOL    HW112593   2.033   3.358   6.086
 3898SOL    HW212594   2.182   3.330   6.025
 3899SOL     OW12595   4.498   6.622   5.539
 3899SOL    HW112596   4.547   6.690   5.484
 3899SOL    HW212597   4.513   6.531   5.500
 3900SOL     OW12598   4.735   2.777   3.586
 3900SOL    HW112599   4.737   2.718   3.505
 3900SOL    HW212600   4.753   2.871   3.559
 3901SOL     OW12601   2.678   0.238   5.158
 3901SOL    HW112602   2.621   0.177   5.213
 3901SOL    HW212603   2.720   0.187   5.083
 3902SOL     OW12604   5.692   3.216   1.367
 3902SOL    HW112605   5.710   3.311   1.340
 3902SOL    HW212606   5.695   3.209   1.466
 3903SOL     OW12607   3.951   6.213   6.048
 3903SOL    HW112608   3.978   6.223   6.144
 3903SOL    HW212609   3.990   6.287   5.995
 3904SOL     OW12610   2.988   1.632   5.288
 3904SOL    HW112611   2.901   1.626   5.336
 3904SOL    HW212612   2.996   1.557   5.223
 3905SOL     OW12613   0.497   0.142   6.807
 3905SOL    HW112614   0.435   0.066   6.785
 3905SOL    HW212615   0.538   0.177   6.723
 3906SOL     OW12616   5.450   5.722   6.074
 3906SOL    HW112617   5.422   5.674   6.157
 3906SOL    HW212618   5.378   5.717   6.005
 3907SOL     OW12619   5.817   0.800   3.811
 3907SOL    HW112620   5.913   0.790   3.837
 3907SOL    HW212621   5.761   0.814   3.893
 3908SOL     OW12622   1.327   2.498   0.439
 3908SOL    HW112623   1.352   2.412   0.396
 3908SOL    HW212624   1.313   2.568   0.369
 3909SOL     OW12625   6.696   5.918   5.382
 3909SOL    HW112626   6.617   5.858   5.396
 3909SOL    HW212627   6.774   5.883   5.433
 3910SOL     OW12628   3.381   3.101   2.391
 3910SOL    HW112629   3.458   3.058   2.439
 3910SOL    HW212630   3.416   3.167   2.324
 3911SOL     OW12631   5.027   1.794   6.549
 3911SOL    HW112632   4.978   1.786   6.462
 3911SOL    HW212633   5.068   1.706   6.573
 3912SOL     OW12634   4.182   0.736   5.614
 3912SOL    HW112635   4.140   0.824   5.637
 3912SOL    HW212636   4.276   0.751   5.582
 3913SOL     OW12637   1.840   0.198   6.305
 3913SOL    HW112638   1.923   0.193   6.361
 3913SOL    HW212639   1.830   0.114   6.253
 3914SOL     OW12640   3.551   0.942   1.054
 3914SOL    HW112641   3.460   0.921   1.089
 3914SOL    HW212642   3.595   1.010   1.113
 3915SOL     OW12643   3.853   5.145   2.262
 3915SOL    HW112644   3.766   5.113   2.224
 3915SOL    HW212645   3.836   5.195   2.347
 3916SOL     OW12646   1.437   6.526   4.050
 3916SOL    HW112647   1.527   6.565   4.033
 3916SOL    HW212648   1.400   6.562   4.136
 3917SOL     OW12649   6.315   5.454   0.176
 3917SOL    HW112650   6.405   5.493   0.193
 3917SOL    HW212651   6.288   5.396   0.253
 3918SOL     OW12652   4.764   6.439   1.759
 3918SOL    HW112653   4.775   6.489   1.673
 3918SOL    HW212654   4.681   6.471   1.805
 3919SOL     OW12655   2.434   6.608   6.310
 3919SOL    HW112656   2.417   6.640   6.403
 3919SOL    HW212657   2.349   6.573   6.271
 3920SOL     OW12658   3.383   2.774   0.778
 3920SOL    HW112659   3.330   2.691   0.797
 3920SOL    HW212660   3.478   2.750   0.761
 3921SOL     OW12661   0.173   3.011   1.430
 3921SOL    HW112662   0.198   3.008   1.526
 3921SOL    HW212663   0.226   3.081   1.383
 3922SOL     OW12664   5.854   3.933   1.778
 3922SOL    HW112665   5.773   3.920   1.834
 3922SOL    HW212666   5.846   4.017   1.725
 3923SOL     OW12667   6.706   1.598   6.501
 3923SOL    HW112668   6.750   1.600   6.591
 3923SOL    HW212669   6.731   1.514   6.453
 3924SOL     OW12670   0.330   4.684   3.656
 3924SOL    HW112671   0.419   4.656   3.620
 3924SOL    HW212672   0.289   4.752   3.596
 3925SOL     OW12673   3.075   5.064   0.893
 3925SOL    HW112674   3.093   5.004   0.971
 3925SOL    HW212675   2.983   5.045   0.857
 3926SOL     OW12676   6.754   5.745   3.011
 3926SOL    HW112677   6.833   5.693   3.045
 3926SOL    HW212678   6.747   5.832   3.061
 3927SOL     OW12679   6.355   2.924   3.880
 3927SOL    HW112680   6.385   2.975   3.799
 3927SOL    HW212681   6.396   2.963   3.962
 3928SOL     OW12682   3.644   6.145   5.588
 3928SOL    HW112683   3.638   6.095   5.674
 3928SOL    HW212684   3.579   6.221   5.589
 3929SOL     OW12685   0.129   1.194   5.682
 3929SOL    HW112686   0.161   1.123   5.620
 3929SOL    HW212687   0.061   1.251   5.636
 3930SOL     OW12688   2.474   1.854   3.736
 3930SOL    HW112689   2.514   1.789   3.801
 3930SOL    HW212690   2.540   1.872   3.663
 3931SOL     OW12691   1.643   1.377   1.952
 3931SOL    HW112692   1.580   1.432   2.006
 3931SOL    HW212693   1.735   1.381   1.992
 3932SOL     OW12694   1.626   4.203   3.023
 3932SOL    HW112695   1.603   4.216   2.926
 3932SOL    HW212696   1.708   4.146   3.030
 3933SOL     OW12697   1.963   6.266   0.130
 3933SOL    HW112698   1.971   6.221   0.041
 3933SOL    HW212699   1.941   6.197   0.200
 3934SOL     OW12700   7.008   1.196   0.806
 3934SOL    HW112701   6.998   1.268   0.737
 3934SOL    HW212702   0.075   1.197   0.842
 3935SOL     OW12703   2.896   6.973   6.516
 3935SOL    HW112704   2.967   0.017   6.526
 3935SOL    HW212705   2.910   6.924   6.430
 3936SOL     OW12706   0.127   5.108   5.628
 3936SOL    HW112707   0.167   5.096   5.537
 3936SOL    HW212708   0.162   5.038   5.689
 3937SOL     OW12709   6.720   0.922   2.733
 3937SOL    HW112710   6.667   0.995   2.690
 3937SOL    HW212711   6.660   0.845   2.755
 3938SOL     OW12712   0.232   1.622   4.144
 3938SOL    HW112713   0.318   1.673   4.156
 3938SOL    HW212714   0.235   1.539   4.199
 3939SOL     OW12715   2.383   1.841   2.341
 3939SOL    HW112716   2.428   1.880   2.261
 3939SOL    HW212717   2.285   1.865   2.338
 3940SOL     OW12718   4.494   5.145   2.051
 3940SOL    HW112719   4.563   5.143   2.123
 3940SOL    HW212720   4.501   5.231   2.000
 3941SOL     OW12721   4.633   2.598   6.722
 3941SOL    HW112722   4.669   2.563   6.635
 3941SOL    HW212723   4.681   2.554   6.798
 3942SOL     OW12724   0.236   0.398   6.829
 3942SOL    HW112725   0.160   0.343   6.793
 3942SOL    HW212726   0.232   0.489   6.788
 3943SOL     OW12727   6.827   3.907   3.205
 3943SOL    HW112728   6.829   3.957   3.119
 3943SOL    HW212729   6.898   3.836   3.205
 3944SOL     OW12730   5.071   3.082   4.949
 3944SOL    HW112731   4.994   3.124   4.998
 3944SOL    HW212732   5.101   3.000   4.998
 3945SOL     OW12733   0.638   1.812   1.202
 3945SOL    HW112734   0.591   1.739   1.153
 3945SOL    HW212735   0.626   1.800   1.300
 3946SOL     OW12736   5.841   5.986   6.438
 3946SOL    HW112737   5.768   5.918   6.429
 3946SOL    HW212738   5.888   5.997   6.351
 3947SOL     OW12739   5.861   5.342   0.790
 3947SOL    HW112740   5.814   5.287   0.859
 3947SOL    HW212741   5.844   5.439   0.808
 3948SOL     OW12742   1.303   5.993   1.752
 3948SOL    HW112743   1.362   5.913   1.747
 3948SOL    HW212744   1.208   5.964   1.739
 3949SOL     OW12745   5.176   0.375   2.862
 3949SOL    HW112746   5.274   0.389   2.847
 3949SOL    HW212747   5.145   0.436   2.935
 3950SOL     OW12748   1.852   4.143   1.431
 3950SOL    HW112749   1.802   4.061   1.459
 3950SOL    HW212750   1.950   4.126   1.435
 3951SOL     OW12751   6.131   6.703   0.449
 3951SOL    HW112752   6.153   6.726   0.544
 3951SOL    HW212753   6.105   6.787   0.400
 3952SOL     OW12754   6.216   3.440   2.757
 3952SOL    HW112755   6.165   3.479   2.680
 3952SOL    HW212756   6.311   3.470   2.752
 3953SOL     OW12757   3.962   4.749   1.679
 3953SOL    HW112758   3.998   4.656   1.670
 3953SOL    HW212759   3.967   4.796   1.591
 3954SOL     OW12760   4.624   4.980   4.980
 3954SOL    HW112761   4.540   4.987   5.034
 3954SOL    HW212762   4.678   4.902   5.012
 3955SOL     OW12763   3.197   5.181   6.243
 3955SOL    HW112764   3.201   5.108   6.175
 3955SOL    HW212765   3.154   5.147   6.327
 3956SOL     OW12766   6.846   0.947   3.547
 3956SOL    HW112767   6.805   1.035   3.524
 3956SOL    HW212768   6.878   0.949   3.642
 3957SOL     OW12769   4.483   6.123   3.855
 3957SOL    HW112770   4.402   6.122   3.796
 3957SOL    HW212771   4.495   6.033   3.896
 3958SOL     OW12772   5.813   0.314   5.313
 3958SOL    HW112773   5.817   0.258   5.231
 3958SOL    HW212774   5.768   0.401   5.293
 3959SOL     OW12775   4.254   6.236   0.815
 3959SOL    HW112776   4.299   6.295   0.749
 3959SOL    HW212777   4.165   6.208   0.779
 3960SOL     OW12778   4.625   1.395   6.915
 3960SOL    HW112779   4.603   1.491   6.932
 3960SOL    HW212780   4.557   1.337   6.959
 3961SOL     OW12781   4.856   2.180   2.760
 3961SOL    HW112782   4.833   2.273   2.730
 3961SOL    HW212783   4.814   2.164   2.849
 3962SOL     OW12784   2.373   4.456   7.018
 3962SOL    HW112785   2.396   4.434   6.924
 3962SOL    HW212786   2.372   4.555   0.005
 3963SOL     OW12787   4.668   4.977   4.175
 3963SOL    HW112788   4.757   4.937   4.155
 3963SOL    HW212789   4.625   4.928   4.250
 3964SOL     OW12790   4.270   5.387   3.429
 3964SOL    HW112791   4.179   5.376   3.388
 3964SOL    HW212792   4.262   5.391   3.528
 3965SOL     OW12793   4.920   3.043   5.959
 3965SOL    HW112794   4.837   3.087   5.995
 3965SOL    HW212795   4.993   3.111   5.950
 3966SOL     OW12796   5.272   5.878   0.237
 3966SOL    HW112797   5.247   5.967   0.275
 3966SOL    HW212798   5.244   5.805   0.299
 3967SOL     OW12799   1.653   3.634   2.043
 3967SOL    HW112800   1.593   3.651   1.965
 3967SOL    HW212801   1.748   3.651   2.016
 3968SOL     OW12802   4.777   0.591   1.366
 3968SOL    HW112803   4.819   0.510   1.325
 3968SOL    HW212804   4.757   0.573   1.462
 3969SOL     OW12805   1.282   3.867   2.341
 3969SOL    HW112806   1.250   3.846   2.249
 3969SOL    HW212807   1.359   3.809   2.364
 3970SOL     OW12808   6.216   6.067   3.631
 3970SOL    HW112809   6.217   6.009   3.550
 3970SOL    HW212810   6.306   6.066   3.674
 3971SOL     OW12811   2.631   4.845   2.327
 3971SOL    HW112812   2.691   4.833   2.248
 3971SOL    HW212813   2.545   4.885   2.297
 3972SOL     OW12814   1.221   4.911   0.437
 3972SOL    HW112815   1.286   4.836   0.446
 3972SOL    HW212816   1.253   4.974   0.365
 3973SOL     OW12817   1.895   5.007   6.499
 3973SOL    HW112818   1.808   4.958   6.491
 3973SOL    HW212819   1.954   4.985   6.422
 3974SOL     OW12820   2.227   1.195   4.084
 3974SOL    HW112821   2.134   1.164   4.065
 3974SOL    HW212822   2.250   1.270   4.022
 3975SOL     OW12823   5.663   0.952   5.059
 3975SOL    HW112824   5.625   0.860   5.051
 3975SOL    HW212825   5.751   0.948   5.106
 3976SOL     OW12826   1.923   6.830   1.774
 3976SOL    HW112827   1.855   6.867   1.710
 3976SOL    HW212828   1.877   6.779   1.847
 3977SOL     OW12829   2.600   4.044   5.622
 3977SOL    HW112830   2.573   4.052   5.526
 3977SOL    HW212831   2.696   4.069   5.632
 3978SOL     OW12832   5.541   5.191   4.991
 3978SOL    HW112833   5.510   5.120   4.928
 3978SOL    HW212834   5.594   5.259   4.940
 3979SOL     OW12835   3.152   6.241   0.814
 3979SOL    HW112836   3.242   6.285   0.816
 3979SOL    HW212837   3.161   6.146   0.842
 3980SOL     OW12838   6.845   5.365   0.335
 3980SOL    HW112839   6.940   5.364   0.366
 3980SOL    HW212840   6.800   5.281   0.364
 3981SOL     OW12841   2.202   0.695   0.067
 3981SOL    HW112842   2.243   0.640   7.020
 3981SOL    HW212843   2.102   0.688   0.062
 3982SOL     OW12844   2.218   0.186   4.126
 3982SOL    HW112845   2.251   0.113   4.186
 3982SOL    HW212846   2.295   0.226   4.077
 3983SOL     OW12847   5.541   4.726   4.078
 3983SOL    HW112848   5.492   4.685   4.154
 3983SOL    HW212849   5.484   4.796   4.035
 3984SOL     OW12850   6.706   1.548   2.959
 3984SOL    HW112851   6.746   1.456   2.961
 3984SOL    HW212852   6.638   1.553   2.886
 3985SOL     OW12853   3.197   4.506   6.627
 3985SOL    HW112854   3.161   4.495   6.534
 3985SOL    HW212855   3.163   4.433   6.685
 3986SOL     OW12856   6.331   2.570   3.202
 3986SOL    HW112857   6.294   2.587   3.111
 3986SOL    HW212858   6.339   2.471   3.217
 3987SOL     OW12859   3.319   5.392   3.874
 3987SOL    HW112860   3.236   5.437   3.839
 3987SOL    HW212861   3.305   5.293   3.872
 3988SOL     OW12862   3.838   4.200   0.078
 3988SOL    HW112863   3.814   4.151   7.019
 3988SOL    HW212864   3.917   4.156   0.120
 3989SOL     OW12865   6.736   2.762   6.871
 3989SOL    HW112866   6.736   2.662   6.865
 3989SOL    HW212867   6.730   2.789   6.967
 3990SOL     OW12868   5.077   2.061   2.634
 3990SOL    HW112869   5.101   1.984   2.693
 3990SOL    HW212870   4.994   2.106   2.670
 3991SOL     OW12871   5.720   1.153   2.523
 3991SOL    HW112872   5.692   1.183   2.614
 3991SOL    HW212873   5.661   1.079   2.492
 3992SOL     OW12874   3.943   2.626   0.330
 3992SOL    HW112875   4.037   2.621   0.297
 3992SOL    HW212876   3.907   2.718   0.315
 3993SOL     OW12877   1.161   1.813   2.402
 3993SOL    HW112878   1.254   1.787   2.427
 3993SOL    HW212879   1.108   1.730   2.380
 3994SOL     OW12880   1.117   0.684   5.689
 3994SOL    HW112881   1.177   0.675   5.769
 3994SOL    HW212882   1.081   0.594   5.664
 3995SOL     OW12883   2.053   3.606   5.575
 3995SOL    HW112884   1.958   3.637   5.581
 3995SOL    HW212885   2.060   3.513   5.613
 3996SOL     OW12886   1.092   0.455   4.233
 3996SOL    HW112887   1.141   0.382   4.187
 3996SOL    HW212888   1.156   0.507   4.290
 3997SOL     OW12889   5.510   1.364   4.547
 3997SOL    HW112890   5.475   1.314   4.627
 3997SOL    HW212891   5.544   1.299   4.479
 3998SOL     OW12892   4.273   1.088   4.521
 3998SOL    HW112893   4.363   1.049   4.540
 3998SOL    HW212894   4.283   1.169   4.463
 3999SOL     OW12895   5.894   3.281   4.126
 3999SOL    HW112896   5.878   3.329   4.040
 3999SOL    HW212897   5.959   3.206   4.110
 4000SOL     OW12898   3.108   5.658   3.481
 4000SOL    HW112899   3.163   5.633   3.561
 4000SOL    HW212900   3.161   5.717   3.420
 4001SOL     OW12901   2.749   2.297   3.825
 4001SOL    HW112902   2.665   2.343   3.797
 4001SOL    HW212903   2.746   2.201   3.799
 4002SOL     OW12904   2.959   3.508   0.641
 4002SOL    HW112905   3.000   3.468   0.558
 4002SOL    HW212906   3.009   3.476   0.721
 4003SOL     OW12907   3.092   6.630   3.867
 4003SOL    HW112908   3.175   6.582   3.897
 4003SOL    HW212909   3.095   6.644   3.768
 4004SOL     OW12910   5.040   1.511   4.403
 4004SOL    HW112911   5.051   1.528   4.500
 4004SOL    HW212912   5.093   1.577   4.350
 4005SOL     OW12913   4.955   5.150   0.527
 4005SOL    HW112914   4.868   5.198   0.544
 4005SOL    HW212915   4.986   5.106   0.611
 4006SOL     OW12916   4.027   4.944   2.817
 4006SOL    HW112917   3.972   4.991   2.886
 4006SOL    HW212918   4.108   4.903   2.861
 4007SOL     OW12919   0.403   1.883   0.932
 4007SOL    HW112920   0.481   1.939   0.903
 4007SOL    HW212921   0.433   1.789   0.944
 4008SOL     OW12922   3.405   2.119   3.929
 4008SOL    HW112923   3.379   2.023   3.926
 4008SOL    HW212924   3.348   2.171   3.867
 4009SOL     OW12925   5.040   3.543   1.177
 4009SOL    HW112926   5.114   3.606   1.202
 4009SOL    HW212927   4.985   3.522   1.257
 4010SOL     OW12928   2.879   3.363   1.365
 4010SOL    HW112929   2.932   3.281   1.344
 4010SOL    HW212930   2.911   3.403   1.451
 4011SOL     OW12931   0.589   1.018   2.212
 4011SOL    HW112932   0.674   0.982   2.252
 4011SOL    HW212933   0.611   1.089   2.146
 4012SOL     OW12934   5.312   5.258   1.631
 4012SOL    HW112935   5.336   5.352   1.609
 4012SOL    HW212936   5.335   5.239   1.727
 4013SOL     OW12937   2.466   0.734   5.191
 4013SOL    HW112938   2.404   0.799   5.147
 4013SOL    HW212939   2.554   0.734   5.143
 4014SOL     OW12940   4.761   6.461   2.133
 4014SOL    HW112941   4.663   6.458   2.113
 4014SOL    HW212942   4.786   6.387   2.195
 4015SOL     OW12943   5.273   4.952   5.886
 4015SOL    HW112944   5.193   4.966   5.945
 4015SOL    HW212945   5.292   4.854   5.879
 4016SOL     OW12946   2.461   6.084   6.331
 4016SOL    HW112947   2.424   5.998   6.364
 4016SOL    HW212948   2.434   6.158   6.393
 4017SOL     OW12949   0.357   5.783   0.317
 4017SOL    HW112950   0.423   5.794   0.392
 4017SOL    HW212951   0.359   5.864   0.259
 4018SOL     OW12952   4.604   6.402   3.031
 4018SOL    HW112953   4.616   6.388   3.129
 4018SOL    HW212954   4.624   6.497   3.008
 4019SOL     OW12955   5.445   3.235   2.873
 4019SOL    HW112956   5.521   3.257   2.933
 4019SOL    HW212957   5.362   3.279   2.907
 4020SOL     OW12958   4.652   1.926   5.367
 4020SOL    HW112959   4.748   1.939   5.393
 4020SOL    HW212960   4.647   1.906   5.269
 4021SOL     OW12961   3.969   4.679   6.310
 4021SOL    HW112962   3.968   4.589   6.268
 4021SOL    HW212963   3.878   4.701   6.345
 4022SOL     OW12964   4.656   0.774   6.880
 4022SOL    HW112965   4.611   0.689   6.851
 4022SOL    HW212966   4.651   0.781   6.980
 4023SOL     OW12967   5.920   1.890   4.534
 4023SOL    HW112968   5.892   1.930   4.447
 4023SOL    HW212969   5.839   1.871   4.590
 4024SOL     OW12970   3.646   6.380   3.567
 4024SOL    HW112971   3.677   6.472   3.590
 4024SOL    HW212972   3.548   6.372   3.584
 4025SOL     OW12973   0.640   6.109   4.348
 4025SOL    HW112974   0.671   6.014   4.340
 4025SOL    HW212975   0.665   6.145   4.438
 4026SOL     OW12976   5.910   5.286   4.417
 4026SOL    HW112977   5.854   5.365   4.389
 4026SOL    HW212978   6.001   5.318   4.443
 4027SOL     OW12979   3.768   4.370   1.496
 4027SOL    HW112980   3.672   4.386   1.472
 4027SOL    HW212981   3.826   4.435   1.446
 4028SOL     OW12982   1.390   2.322   4.074
 4028SOL    HW112983   1.356   2.229   4.063
 4028SOL    HW212984   1.424   2.333   4.168
 4029SOL     OW12985   2.431   4.300   6.371
 4029SOL    HW112986   2.442   4.210   6.330
 4029SOL    HW212987   2.520   4.344   6.379
 4030SOL     OW12988   1.055   2.098   5.723
 4030SOL    HW112989   1.050   2.144   5.811
 4030SOL    HW212990   0.968   2.108   5.675
 4031SOL     OW12991   4.876   5.523   3.596
 4031SOL    HW112992   4.875   5.450   3.528
 4031SOL    HW212993   4.940   5.594   3.567
 4032SOL     OW12994   6.469   6.875   3.377
 4032SOL    HW112995   6.474   6.965   3.334
 4032SOL    HW212996   6.472   6.886   3.477
 4033SOL     OW12997   3.357   3.229   3.753
 4033SOL    HW112998   3.273   3.265   3.792
 4033SOL    HW212999   3.337   3.180   3.668
 4034SOL     OW13000   5.694   1.279   5.216
 4034SOL    HW113001   5.652   1.301   5.128
 4034SOL    HW213002   5.633   1.221   5.269
 4035SOL     OW13003   0.153   3.514   0.713
 4035SOL    HW113004   0.185   3.569   0.636
 4035SOL    HW213005   0.096   3.440   0.679
 4036SOL     OW13006   5.903   6.528   2.307
 4036SOL    HW113007   5.881   6.544   2.403
 4036SOL    HW213008   6.002   6.515   2.297
 4037SOL     OW13009   1.937   2.841   6.862
 4037SOL    HW113010   1.994   2.810   6.787
 4037SOL    HW213011   1.883   2.764   6.898
 4038SOL     OW13012   4.847   4.702   2.070
 4038SOL    HW113013   4.858   4.751   1.984
 4038SOL    HW213014   4.888   4.611   2.063
 4039SOL     OW13015   5.271   5.546   0.627
 4039SOL    HW113016   5.222   5.459   0.620
 4039SOL    HW213017   5.330   5.544   0.707
 4040SOL     OW13018   2.695   6.663   0.252
 4040SOL    HW113019   2.792   6.662   0.229
 4040SOL    HW213020   2.642   6.683   0.170
 4041SOL     OW13021   1.443   5.764   2.615
 4041SOL    HW113022   1.379   5.699   2.573
 4041SOL    HW213023   1.533   5.754   2.573
 4042SOL     OW13024   6.376   5.273   2.519
 4042SOL    HW113025   6.418   5.353   2.476
 4042SOL    HW213026   6.380   5.284   2.619
 4043SOL     OW13027   5.532   1.797   3.502
 4043SOL    HW113028   5.500   1.838   3.416
 4043SOL    HW213029   5.580   1.867   3.555
 4044SOL     OW13030   6.158   0.388   4.495
 4044SOL    HW113031   6.132   0.484   4.509
 4044SOL    HW213032   6.168   0.371   4.397
 4045SOL     OW13033   2.921   4.291   6.170
 4045SOL    HW113034   2.899   4.289   6.073
 4045SOL    HW213035   2.977   4.211   6.193
 4046SOL     OW13036   0.820   1.793   2.398
 4046SOL    HW113037   0.789   1.856   2.326
 4046SOL    HW213038   0.775   1.705   2.386
 4047SOL     OW13039   3.007   3.835   0.824
 4047SOL    HW113040   3.075   3.771   0.859
 4047SOL    HW213041   2.988   3.814   0.728
 4048SOL     OW13042   5.472   0.686   1.730
 4048SOL    HW113043   5.564   0.721   1.711
 4048SOL    HW213044   5.415   0.697   1.649
 4049SOL     OW13045   6.413   6.509   6.471
 4049SOL    HW113046   6.491   6.537   6.528
 4049SOL    HW213047   6.328   6.535   6.516
 4050SOL     OW13048   1.653   6.560   6.743
 4050SOL    HW113049   1.736   6.531   6.696
 4050SOL    HW213050   1.639   6.658   6.729
 4051SOL     OW13051   2.721   4.074   0.352
 4051SOL    HW113052   2.797   4.064   0.416
 4051SOL    HW213053   2.637   4.094   0.403
 4052SOL     OW13054   0.756   0.382   1.457
 4052SOL    HW113055   0.758   0.424   1.367
 4052SOL    HW213056   0.661   0.376   1.490
 4053SOL     OW13057   2.858   4.757   3.792
 4053SOL    HW113058   2.942   4.797   3.756
 4053SOL    HW213059   2.861   4.757   3.892
 4054SOL     OW13060   2.629   2.786   0.664
 4054SOL    HW113061   2.572   2.864   0.690
 4054SOL    HW213062   2.723   2.816   0.650
 4055SOL     OW13063   2.446   2.935   5.847
 4055SOL    HW113064   2.381   2.992   5.797
 4055SOL    HW213065   2.399   2.856   5.885
 4056SOL     OW13066   3.785   3.475   6.775
 4056SOL    HW113067   3.702   3.484   6.830
 4056SOL    HW213068   3.835   3.562   6.776
 4057SOL     OW13069   5.493   3.371   0.455
 4057SOL    HW113070   5.481   3.295   0.519
 4057SOL    HW213071   5.535   3.448   0.502
 4058SOL     OW13072   2.508   1.419   4.289
 4058SOL    HW113073   2.466   1.458   4.371
 4058SOL    HW213074   2.481   1.323   4.281
 4059SOL     OW13075   1.943   2.118   3.459
 4059SOL    HW113076   1.881   2.070   3.522
 4059SOL    HW213077   2.036   2.113   3.494
 4060SOL     OW13078   3.906   5.258   4.285
 4060SOL    HW113079   3.993   5.233   4.329
 4060SOL    HW213080   3.834   5.260   4.355
 4061SOL     OW13081   3.346   4.521   1.669
 4061SOL    HW113082   3.376   4.430   1.639
 4061SOL    HW213083   3.398   4.548   1.750
 4062SOL     OW13084   3.979   1.431   2.722
 4062SOL    HW113085   3.920   1.373   2.777
 4062SOL    HW213086   4.075   1.412   2.745
 4063SOL     OW13087   4.031   6.788   5.989
 4063SOL    HW113088   3.935   6.763   5.977
 4063SOL    HW213089   4.071   6.735   6.064
 4064SOL     OW13090   1.613   0.581   2.670
 4064SOL    HW113091   1.639   0.678   2.663
 4064SOL    HW213092   1.674   0.527   2.612
 4065SOL     OW13093   0.221   6.906   1.225
 4065SOL    HW113094   0.260   6.868   1.310
 4065SOL    HW213095   0.147   6.970   1.248
 4066SOL     OW13096   5.460   4.385   1.504
 4066SOL    HW113097   5.447   4.393   1.405
 4066SOL    HW213098   5.497   4.295   1.525
 4067SOL     OW13099   5.118   1.390   3.328
 4067SOL    HW113100   5.088   1.400   3.233
 4067SOL    HW213101   5.191   1.322   3.333
 4068SOL     OW13102   4.998   0.246   4.898
 4068SOL    HW113103   4.908   0.238   4.856
 4068SOL    HW213104   5.036   0.155   4.914
 4069SOL     OW13105   4.881   4.387   1.117
 4069SOL    HW113106   4.883   4.471   1.063
 4069SOL    HW213107   4.811   4.326   1.080
 4070SOL     OW13108   1.839   3.813   2.628
 4070SOL    HW113109   1.934   3.843   2.638
 4070SOL    HW213110   1.827   3.772   2.538
 4071SOL     OW13111   1.279   0.733   5.008
 4071SOL    HW113112   1.268   0.705   5.104
 4071SOL    HW213113   1.193   0.720   4.960
 4072SOL     OW13114   1.958   6.363   4.366
 4072SOL    HW113115   1.879   6.395   4.418
 4072SOL    HW213116   2.041   6.406   4.403
 4073SOL     OW13117   2.083   5.842   6.258
 4073SOL    HW113118   2.017   5.823   6.331
 4073SOL    HW213119   2.090   5.941   6.246
 4074SOL     OW13120   0.417   1.913   1.789
 4074SOL    HW113121   0.461   1.823   1.778
 4074SOL    HW213122   0.326   1.911   1.748
 4075SOL     OW13123   4.313   1.915   2.234
 4075SOL    HW113124   4.364   1.917   2.320
 4075SOL    HW213125   4.377   1.923   2.158
 4076SOL     OW13126   2.292   3.748   5.245
 4076SOL    HW113127   2.244   3.694   5.176
 4076SOL    HW213128   2.327   3.832   5.204
 4077SOL     OW13129   2.670   6.745   0.534
 4077SOL    HW113130   2.687   6.755   0.436
 4077SOL    HW213131   2.581   6.701   0.548
 4078SOL     OW13132   6.421   4.527   1.895
 4078SOL    HW113133   6.332   4.566   1.915
 4078SOL    HW213134   6.493   4.587   1.929
 4079SOL     OW13135   0.927   1.290   3.400
 4079SOL    HW113136   0.979   1.255   3.322
 4079SOL    HW213137   0.942   1.388   3.410
 4080SOL     OW13138   2.921   4.064   0.530
 4080SOL    HW113139   2.979   4.124   0.584
 4080SOL    HW213140   2.938   3.969   0.557
 4081SOL     OW13141   2.462   1.269   4.809
 4081SOL    HW113142   2.473   1.215   4.893
 4081SOL    HW213143   2.550   1.276   4.763
 4082SOL     OW13144   1.023   2.218   5.969
 4082SOL    HW113145   1.123   2.215   5.978
 4082SOL    HW213146   0.981   2.161   6.039
 4083SOL     OW13147   6.197   4.513   3.070
 4083SOL    HW113148   6.275   4.451   3.069
 4083SOL    HW213149   6.129   4.481   3.137
 4084SOL     OW13150   4.676   2.638   2.802
 4084SOL    HW113151   4.726   2.724   2.797
 4084SOL    HW213152   4.592   2.651   2.855
 4085SOL     OW13153   2.580   5.494   1.306
 4085SOL    HW113154   2.643   5.426   1.268
 4085SOL    HW213155   2.521   5.451   1.374
 4086SOL     OW13156   6.771   5.742   6.627
 4086SOL    HW113157   6.717   5.801   6.567
 4086SOL    HW213158   6.780   5.652   6.586
 4087SOL     OW13159   2.756   0.137   2.737
 4087SOL    HW113160   2.843   0.180   2.713
 4087SOL    HW213161   2.687   0.207   2.753
 4088SOL     OW13162   6.687   0.946   5.408
 4088SOL    HW113163   6.740   0.863   5.427
 4088SOL    HW213164   6.631   0.969   5.487
 4089SOL     OW13165   0.090   5.952   4.271
 4089SOL    HW113166   0.141   5.947   4.185
 4089SOL    HW213167   0.155   5.962   4.347
 4090SOL     OW13168   2.209   6.596   4.570
 4090SOL    HW113169   2.158   6.624   4.651
 4090SOL    HW213170   2.305   6.621   4.581
 4091SOL     OW13171   1.193   4.942   0.904
 4091SOL    HW113172   1.276   4.998   0.898
 4091SOL    HW213173   1.131   4.966   0.829
 4092SOL     OW13174   4.769   2.932   4.609
 4092SOL    HW113175   4.801   3.013   4.559
 4092SOL    HW213176   4.724   2.870   4.546
 4093SOL     OW13177   6.038   5.508   2.434
 4093SOL    HW113178   5.979   5.427   2.446
 4093SOL    HW213179   6.103   5.513   2.509
 4094SOL     OW13180   0.249   4.910   0.017
 4094SOL    HW113181   0.314   4.855   0.071
 4094SOL    HW213182   0.264   4.893   6.946
 4095SOL     OW13183   0.439   3.680   0.059
 4095SOL    HW113184   0.376   3.654   7.011
 4095SOL    HW213185   0.458   3.600   0.115
 4096SOL     OW13186   2.111   1.378   6.574
 4096SOL    HW113187   2.180   1.350   6.507
 4096SOL    HW213188   2.032   1.318   6.568
 4097SOL     OW13189   6.995   4.356   5.158
 4097SOL    HW113190   7.012   4.259   5.140
 4097SOL    HW213191   6.928   4.391   5.093
 4098SOL     OW13192   1.897   3.792   1.930
 4098SOL    HW113193   1.997   3.785   1.936
 4098SOL    HW213194   1.872   3.831   1.841
 4099SOL     OW13195   4.577   4.790   6.456
 4099SOL    HW113196   4.538   4.875   6.491
 4099SOL    HW213197   4.625   4.743   6.529
 4100SOL     OW13198   1.151   1.590   3.618
 4100SOL    HW113199   1.128   1.639   3.702
 4100SOL    HW213200   1.204   1.509   3.640
 4101SOL     OW13201   6.553   0.853   6.623
 4101SOL    HW113202   6.560   0.761   6.583
 4101SOL    HW213203   6.611   0.916   6.572
 4102SOL     OW13204   1.940   0.749   0.116
 4102SOL    HW113205   1.955   0.839   0.076
 4102SOL    HW213206   1.859   0.707   0.075
 4103SOL     OW13207   0.219   6.514   2.393
 4103SOL    HW113208   0.177   6.425   2.407
 4103SOL    HW213209   0.288   6.508   2.321
 4104SOL     OW13210   0.292   5.694   3.050
 4104SOL    HW113211   0.278   5.612   2.995
 4104SOL    HW213212   0.204   5.726   3.085
 4105SOL     OW13213   4.557   1.227   1.584
 4105SOL    HW113214   4.516   1.178   1.661
 4105SOL    HW213215   4.623   1.294   1.618
 4106SOL     OW13216   0.336   2.130   3.772
 4106SOL    HW113217   0.350   2.033   3.794
 4106SOL    HW213218   0.243   2.156   3.796
 4107SOL     OW13219   0.547   6.218   6.331
 4107SOL    HW113220   0.564   6.315   6.314
 4107SOL    HW213221   0.458   6.193   6.293
 4108SOL     OW13222   0.541   4.873   4.130
 4108SOL    HW113223   0.479   4.835   4.198
 4108SOL    HW213224   0.496   4.950   4.084
 4109SOL     OW13225   5.985   5.926   3.183
 4109SOL    HW113226   6.011   5.855   3.248
 4109SOL    HW213227   5.907   5.894   3.129
 4110SOL     OW13228   4.524   3.091   6.960
 4110SOL    HW113229   4.586   3.117   6.886
 4110SOL    HW213230   4.563   3.118   0.022
 4111SOL     OW13231   6.848   5.304   6.239
 4111SOL    HW113232   6.817   5.209   6.237
 4111SOL    HW213233   6.841   5.343   6.147
 4112SOL     OW13234   4.791   6.427   4.972
 4112SOL    HW113235   4.768   6.345   4.919
 4112SOL    HW213236   4.802   6.403   5.068
 4113SOL     OW13237   4.235   4.761   4.754
 4113SOL    HW113238   4.199   4.719   4.837
 4113SOL    HW213239   4.328   4.794   4.770
 4114SOL     OW13240   6.144   1.533   3.442
 4114SOL    HW113241   6.160   1.631   3.445
 4114SOL    HW213242   6.087   1.511   3.362
 4115SOL     OW13243   2.712   5.012   3.192
 4115SOL    HW113244   2.672   4.977   3.107
 4115SOL    HW213245   2.658   5.089   3.226
 4116SOL     OW13246   5.621   2.467   3.257
 4116SOL    HW113247   5.584   2.530   3.325
 4116SOL    HW213248   5.562   2.466   3.176
 4117SOL     OW13249   1.522   2.083   2.411
 4117SOL    HW113250   1.463   2.162   2.426
 4117SOL    HW213251   1.487   2.005   2.464
 4118SOL     OW13252   6.623   6.489   6.708
 4118SOL    HW113253   6.525   6.509   6.715
 4118SOL    HW213254   6.642   6.400   6.748
 4119SOL     OW13255   2.744   0.947   3.399
 4119SOL    HW113256   2.757   0.856   3.358
 4119SOL    HW213257   2.724   0.937   3.497
 4120SOL     OW13258   3.295   1.459   6.643
 4120SOL    HW113259   3.331   1.399   6.572
 4120SOL    HW213260   3.264   1.545   6.603
 4121SOL     OW13261   6.871   6.730   2.479
 4121SOL    HW113262   6.848   6.802   2.544
 4121SOL    HW213263   6.809   6.653   2.491
 4122SOL     OW13264   0.374   5.498   4.516
 4122SOL    HW113265   0.416   5.429   4.457
 4122SOL    HW213266   0.385   5.588   4.476
 4123SOL     OW13267   4.021   4.897   3.841
 4123SOL    HW113268   4.120   4.884   3.837
 4123SOL    HW213269   4.001   4.982   3.889
 4124SOL     OW13270   6.740   6.315   0.853
 4124SOL    HW113271   6.670   6.381   0.826
 4124SOL    HW213272   6.819   6.363   0.890
 4125SOL     OW13273   4.960   2.480   2.507
 4125SOL    HW113274   4.912   2.464   2.421
 4125SOL    HW213275   4.911   2.434   2.581
 4126SOL     OW13276   1.001   2.925   2.061
 4126SOL    HW113277   1.093   2.898   2.091
 4126SOL    HW213278   0.952   2.965   2.138
 4127SOL     OW13279   3.971   2.199   3.999
 4127SOL    HW113280   4.044   2.141   4.036
 4127SOL    HW213281   3.986   2.294   4.026
 4128SOL     OW13282   0.440   2.980   1.875
 4128SOL    HW113283   0.531   3.011   1.899
 4128SOL    HW213284   0.391   2.953   1.958
 4129SOL     OW13285   3.597   2.472   0.622
 4129SOL    HW113286   3.527   2.488   0.552
 4129SOL    HW213287   3.604   2.552   0.681
 4130SOL     OW13288   6.490   2.578   1.265
 4130SOL    HW113289   6.452   2.598   1.355
 4130SOL    HW213290   6.429   2.614   1.195
 4131SOL     OW13291   5.614   0.632   2.487
 4131SOL    HW113292   5.604   0.561   2.417
 4131SOL    HW213293   5.616   0.589   2.578
 4132SOL     OW13294   6.542   3.993   4.614
 4132SOL    HW113295   6.475   3.978   4.686
 4132SOL    HW213296   6.532   3.922   4.544
 4133SOL     OW13297   5.371   6.309   1.351
 4133SOL    HW113298   5.320   6.223   1.352
 4133SOL    HW213299   5.448   6.302   1.288
 4134SOL     OW13300   2.622   3.753   1.453
 4134SOL    HW113301   2.649   3.658   1.438
 4134SOL    HW213302   2.563   3.783   1.377
 4135SOL     OW13303   0.396   2.144   2.282
 4135SOL    HW113304   0.447   2.212   2.334
 4135SOL    HW213305   0.406   2.162   2.184
 4136SOL     OW13306   0.418   3.848   1.123
 4136SOL    HW113307   0.384   3.942   1.127
 4136SOL    HW213308   0.514   3.848   1.093
 4137SOL     OW13309   1.891   2.789   0.506
 4137SOL    HW113310   1.880   2.822   0.412
 4137SOL    HW213311   1.812   2.734   0.531
 4138SOL     OW13312   4.274   5.468   0.773
 4138SOL    HW113313   4.346   5.479   0.705
 4138SOL    HW213314   4.188   5.446   0.728
 4139SOL     OW13315   1.570   2.055   3.008
 4139SOL    HW113316   1.626   2.022   3.084
 4139SOL    HW213317   1.610   2.139   2.972
 4140SOL     OW13318   2.771   2.317   4.101
 4140SOL    HW113319   2.773   2.330   4.002
 4140SOL    HW213320   2.769   2.220   4.122
 4141SOL     OW13321   4.436   0.070   6.560
 4141SOL    HW113322   4.367   0.036   6.496
 4141SOL    HW213323   4.401   0.151   6.607
 4142SOL     OW13324   6.434   3.948   1.879
 4142SOL    HW113325   6.516   4.001   1.857
 4142SOL    HW213326   6.366   4.009   1.920
 4143SOL     OW13327   6.083   3.426   0.706
 4143SOL    HW113328   6.176   3.452   0.733
 4143SOL    HW213329   6.087   3.367   0.625
 4144SOL     OW13330   5.301   1.643   0.958
 4144SOL    HW113331   5.222   1.624   1.016
 4144SOL    HW213332   5.318   1.564   0.899
 4145SOL     OW13333   0.970   6.226   0.897
 4145SOL    HW113334   0.904   6.301   0.890
 4145SOL    HW213335   0.998   6.214   0.992
 4146SOL     OW13336   5.914   6.759   4.008
 4146SOL    HW113337   6.013   6.757   3.990
 4146SOL    HW213338   5.865   6.768   3.922
 4147SOL     OW13339   5.602   4.521   5.924
 4147SOL    HW113340   5.585   4.555   6.016
 4147SOL    HW213341   5.663   4.584   5.875
 4148SOL     OW13342   3.214   0.067   5.560
 4148SOL    HW113343   3.218   0.110   5.651
 4148SOL    HW213344   3.176   7.001   5.568
 4149SOL     OW13345   1.720   2.800   1.175
 4149SOL    HW113346   1.759   2.841   1.093
 4149SOL    HW213347   1.655   2.728   1.149
 4150SOL     OW13348   6.266   2.998   5.804
 4150SOL    HW113349   6.259   2.955   5.894
 4150SOL    HW213350   6.350   3.053   5.801
 4151SOL     OW13351   2.458   6.988   4.677
 4151SOL    HW113352   2.372   0.011   4.659
 4151SOL    HW213353   2.535   0.024   4.662
 4152SOL     OW13354   3.561   5.386   2.221
 4152SOL    HW113355   3.622   5.405   2.144
 4152SOL    HW213356   3.510   5.302   2.204
 4153SOL     OW13357   6.507   4.763   1.324
 4153SOL    HW113358   6.419   4.754   1.277
 4153SOL    HW213359   6.576   4.792   1.259
 4154SOL     OW13360   7.006   5.668   3.575
 4154SOL    HW113361   6.933   5.639   3.513
 4154SOL    HW213362   0.034   5.588   3.602
 4155SOL     OW13363   6.861   1.928   1.790
 4155SOL    HW113364   6.930   1.867   1.828
 4155SOL    HW213365   6.859   1.917   1.690
 4156SOL     OW13366   7.016   4.951   5.062
 4156SOL    HW113367   0.038   5.012   5.000
 4156SOL    HW213368   6.962   5.005   5.127
 4157SOL     OW13369   6.562   6.505   2.305
 4157SOL    HW113370   6.603   6.508   2.396
 4157SOL    HW213371   6.462   6.498   2.314
 4158SOL     OW13372   2.172   2.139   1.365
 4158SOL    HW113373   2.247   2.183   1.414
 4158SOL    HW213374   2.087   2.153   1.416
 4159SOL     OW13375   2.868   2.123   2.679
 4159SOL    HW113376   2.786   2.066   2.677
 4159SOL    HW213377   2.841   2.219   2.693
 4160SOL     OW13378   6.532   0.217   6.824
 4160SOL    HW113379   6.495   0.219   6.732
 4160SOL    HW213380   6.489   0.288   6.879
 4161SOL     OW13381   1.914   2.323   0.807
 4161SOL    HW113382   1.951   2.412   0.835
 4161SOL    HW213383   1.986   2.255   0.809
 4162SOL     OW13384   6.621   5.860   0.743
 4162SOL    HW113385   6.600   5.840   0.839
 4162SOL    HW213386   6.669   5.782   0.703
 4163SOL     OW13387   4.920   0.997   2.408
 4163SOL    HW113388   4.916   0.914   2.352
 4163SOL    HW213389   4.855   1.064   2.373
 4164SOL     OW13390   0.034   6.924   5.509
 4164SOL    HW113391   0.075   6.867   5.580
 4164SOL    HW213392   0.020   7.016   5.544
 4165SOL     OW13393   4.343   0.157   5.828
 4165SOL    HW113394   4.349   0.182   5.925
 4165SOL    HW213395   4.374   0.233   5.772
 4166SOL     OW13396   6.020   1.037   1.846
 4166SOL    HW113397   5.925   1.048   1.818
 4166SOL    HW213398   6.040   1.099   1.922
 4167SOL     OW13399   2.316   4.560   5.781
 4167SOL    HW113400   2.391   4.585   5.843
 4167SOL    HW213401   2.313   4.461   5.771
 4168SOL     OW13402   0.128   4.321   0.435
 4168SOL    HW113403   0.107   4.400   0.378
 4168SOL    HW213404   0.054   4.254   0.427
 4169SOL     OW13405   5.977   4.311   5.439
 4169SOL    HW113406   5.883   4.278   5.433
 4169SOL    HW213407   5.979   4.396   5.492
 4170SOL     OW13408   4.881   3.178   4.486
 4170SOL    HW113409   4.888   3.234   4.404
 4170SOL    HW213410   4.955   3.200   4.549
 4171SOL     OW13411   1.006   4.769   1.411
 4171SOL    HW113412   0.938   4.843   1.403
 4171SOL    HW213413   1.077   4.797   1.476
 4172SOL     OW13414   2.831   3.148   0.397
 4172SOL    HW113415   2.769   3.221   0.425
 4172SOL    HW213416   2.781   3.078   0.347
 4173SOL     OW13417   4.271   2.866   5.585
 4173SOL    HW113418   4.334   2.792   5.607
 4173SOL    HW213419   4.239   2.908   5.670
 4174SOL     OW13420   4.445   0.508   3.275
 4174SOL    HW113421   4.360   0.464   3.246
 4174SOL    HW213422   4.428   0.559   3.360
 4175SOL     OW13423   1.679   4.723   5.886
 4175SOL    HW113424   1.647   4.788   5.817
 4175SOL    HW213425   1.731   4.650   5.841
 4176SOL     OW13426   4.787   6.159   0.776
 4176SOL    HW113427   4.759   6.247   0.814
 4176SOL    HW213428   4.874   6.169   0.728
 4177SOL     OW13429   5.187   4.860   4.661
 4177SOL    HW113430   5.175   4.909   4.747
 4177SOL    HW213431   5.284   4.843   4.645
 4178SOL     OW13432   4.674   6.628   2.871
 4178SOL    HW113433   4.733   6.705   2.847
 4178SOL    HW213434   4.581   6.662   2.886
 4179SOL     OW13435   5.501   4.122   3.708
 4179SOL    HW113436   5.481   4.208   3.755
 4179SOL    HW213437   5.428   4.102   3.643
 4180SOL     OW13438   5.260   3.493   0.935
 4180SOL    HW113439   5.220   3.583   0.926
 4180SOL    HW213440   5.271   3.452   0.844
 4181SOL     OW13441   5.115   0.555   6.229
 4181SOL    HW113442   5.092   0.539   6.325
 4181SOL    HW213443   5.160   0.644   6.219
 4182SOL     OW13444   0.296   5.185   3.761
 4182SOL    HW113445   0.344   5.207   3.677
 4182SOL    HW213446   0.238   5.262   3.788
 4183SOL     OW13447   2.425   0.649   0.983
 4183SOL    HW113448   2.447   0.601   0.899
 4183SOL    HW213449   2.505   0.701   1.014
 4184SOL     OW13450   3.775   6.984   2.063
 4184SOL    HW113451   3.869   7.016   2.057
 4184SOL    HW213452   3.713   0.037   2.067
 4185SOL     OW13453   0.448   4.225   3.154
 4185SOL    HW113454   0.506   4.152   3.118
 4185SOL    HW213455   0.498   4.275   3.225
 4186SOL     OW13456   2.623   5.919   6.584
 4186SOL    HW113457   2.723   5.909   6.588
 4186SOL    HW213458   2.580   5.830   6.598
 4187SOL     OW13459   2.709   3.441   0.272
 4187SOL    HW113460   2.730   3.534   0.242
 4187SOL    HW213461   2.701   3.440   0.371
 4188SOL     OW13462   5.340   0.385   5.288
 4188SOL    HW113463   5.260   0.426   5.245
 4188SOL    HW213464   5.421   0.439   5.266
 4189SOL     OW13465   3.771   5.314   3.874
 4189SOL    HW113466   3.726   5.378   3.936
 4189SOL    HW213467   3.868   5.339   3.865
 4190SOL     OW13468   0.350   6.596   0.971
 4190SOL    HW113469   0.285   6.644   0.911
 4190SOL    HW213470   0.303   6.564   1.052
 4191SOL     OW13471   5.418   4.140   5.957
 4191SOL    HW113472   5.471   4.208   6.007
 4191SOL    HW213473   5.471   4.056   5.948
 4192SOL     OW13474   1.386   1.238   1.703
 4192SOL    HW113475   1.478   1.207   1.729
 4192SOL    HW213476   1.358   1.191   1.619
 4193SOL     OW13477   5.461   0.511   0.358
 4193SOL    HW113478   5.446   0.576   0.433
 4193SOL    HW213479   5.559   0.490   0.351
 4194SOL     OW13480   4.729   6.682   4.239
 4194SOL    HW113481   4.637   6.703   4.205
 4194SOL    HW213482   4.725   6.665   4.337
 4195SOL     OW13483   4.344   5.980   1.482
 4195SOL    HW113484   4.294   5.992   1.396
 4195SOL    HW213485   4.279   5.976   1.558
 4196SOL     OW13486   0.393   2.592   3.319
 4196SOL    HW113487   0.386   2.492   3.318
 4196SOL    HW213488   0.484   2.619   3.352
 4197SOL     OW13489   4.419   5.741   5.479
 4197SOL    HW113490   4.407   5.785   5.390
 4197SOL    HW213491   4.435   5.811   5.549
 4198SOL     OW13492   6.897   1.375   2.445
 4198SOL    HW113493   6.799   1.359   2.458
 4198SOL    HW213494   6.920   1.366   2.349
 4199SOL     OW13495   1.162   2.489   5.681
 4199SOL    HW113496   1.235   2.557   5.668
 4199SOL    HW213497   1.087   2.509   5.618
 4200SOL     OW13498   3.189   0.450   5.639
 4200SOL    HW113499   3.110   0.506   5.613
 4200SOL    HW213500   3.214   0.390   5.563
 4201SOL     OW13501   6.255   6.728   2.865
 4201SOL    HW113502   6.233   6.822   2.891
 4201SOL    HW213503   6.170   6.676   2.853
 4202SOL     OW13504   3.107   5.827   6.356
 4202SOL    HW113505   3.048   5.772   6.297
 4202SOL    HW213506   3.203   5.809   6.335
 4203SOL     OW13507   4.966   4.585   0.352
 4203SOL    HW113508   4.968   4.648   0.430
 4203SOL    HW213509   4.873   4.554   0.336
 4204SOL     OW13510   4.011   3.436   5.448
 4204SOL    HW113511   4.035   3.507   5.383
 4204SOL    HW213512   4.030   3.468   5.541
 4205SOL     OW13513   3.963   5.641   4.473
 4205SOL    HW113514   3.882   5.679   4.519
 4205SOL    HW213515   3.966   5.673   4.379
 4206SOL     OW13516   6.571   1.741   4.868
 4206SOL    HW113517   6.650   1.792   4.903
 4206SOL    HW213518   6.602   1.675   4.799
 4207SOL     OW13519   2.169   2.652   1.511
 4207SOL    HW113520   2.170   2.594   1.592
 4207SOL    HW213521   2.137   2.600   1.432
 4208SOL     OW13522   0.714   3.842   6.042
 4208SOL    HW113523   0.686   3.769   5.980
 4208SOL    HW213524   0.776   3.904   5.995
 4209SOL     OW13525   6.746   6.385   2.811
 4209SOL    HW113526   6.656   6.353   2.781
 4209SOL    HW213527   6.748   6.485   2.807
 4210SOL     OW13528   4.150   3.538   3.048
 4210SOL    HW113529   4.132   3.505   3.141
 4210SOL    HW213530   4.088   3.614   3.027
 4211SOL     OW13531   3.441   1.591   5.388
 4211SOL    HW113532   3.446   1.615   5.485
 4211SOL    HW213533   3.398   1.667   5.338
 4212SOL     OW13534   6.644   1.831   3.735
 4212SOL    HW113535   6.703   1.909   3.755
 4212SOL    HW213536   6.667   1.755   3.797
 4213SOL     OW13537   2.623   7.011   3.123
 4213SOL    HW113538   2.588   6.947   3.191
 4213SOL    HW213539   2.583   6.990   3.034
 4214SOL     OW13540   0.196   6.065   4.734
 4214SOL    HW113541   0.149   5.998   4.676
 4214SOL    HW213542   0.259   6.017   4.795
 4215SOL     OW13543   5.087   6.819   5.391
 4215SOL    HW113544   5.030   6.743   5.360
 4215SOL    HW213545   5.176   6.814   5.345
 4216SOL     OW13546   1.575   0.723   2.311
 4216SOL    HW113547   1.564   0.822   2.311
 4216SOL    HW213548   1.643   0.697   2.242
 4217SOL     OW13549   1.325   0.857   2.117
 4217SOL    HW113550   1.303   0.893   2.026
 4217SOL    HW213551   1.391   0.917   2.162
 4218SOL     OW13552   3.586   0.367   1.312
 4218SOL    HW113553   3.627   0.278   1.296
 4218SOL    HW213554   3.518   0.386   1.242
 4219SOL     OW13555   4.705   6.262   4.380
 4219SOL    HW113556   4.746   6.258   4.289
 4219SOL    HW213557   4.714   6.354   4.417
 4220SOL     OW13558   5.760   3.402   2.623
 4220SOL    HW113559   5.807   3.438   2.704
 4220SOL    HW213560   5.819   3.411   2.543
 4221SOL     OW13561   6.199   4.474   6.028
 4221SOL    HW113562   6.241   4.469   5.937
 4221SOL    HW213563   6.156   4.387   6.051
 4222SOL     OW13564   6.562   0.998   3.226
 4222SOL    HW113565   6.492   0.994   3.297
 4222SOL    HW213566   6.616   0.914   3.229
 4223SOL     OW13567   4.348   3.555   0.758
 4223SOL    HW113568   4.345   3.480   0.824
 4223SOL    HW213569   4.430   3.545   0.701
 4224SOL     OW13570   5.216   4.995   4.905
 4224SOL    HW113571   5.181   5.010   4.998
 4224SOL    HW213572   5.316   4.995   4.907
 4225SOL     OW13573   1.868   2.271   5.278
 4225SOL    HW113574   1.856   2.369   5.290
 4225SOL    HW213575   1.788   2.223   5.315
 4226SOL     OW13576   1.153   5.641   3.682
 4226SOL    HW113577   1.123   5.561   3.733
 4226SOL    HW213578   1.192   5.708   3.744
 4227SOL     OW13579   4.816   6.199   1.850
 4227SOL    HW113580   4.778   6.278   1.802
 4227SOL    HW213581   4.871   6.231   1.928
 4228SOL     OW13582   0.143   6.507   5.450
 4228SOL    HW113583   0.120   6.543   5.541
 4228SOL    HW213584   0.094   6.421   5.435
 4229SOL     OW13585   4.458   5.417   5.417
 4229SOL    HW113586   4.523   5.361   5.469
 4229SOL    HW213587   4.489   5.512   5.419
 4230SOL     OW13588   1.418   6.482   3.527
 4230SOL    HW113589   1.324   6.516   3.531
 4230SOL    HW213590   1.479   6.559   3.507
 4231SOL     OW13591   5.025   0.271   5.736
 4231SOL    HW113592   5.064   0.296   5.824
 4231SOL    HW213593   5.085   0.204   5.692
 4232SOL     OW13594   1.593   4.603   3.897
 4232SOL    HW113595   1.663   4.541   3.860
 4232SOL    HW213596   1.635   4.692   3.917
 4233SOL     OW13597   6.886   1.072   4.776
 4233SOL    HW113598   6.966   1.013   4.790
 4233SOL    HW213599   6.803   1.020   4.796
 4234SOL     OW13600   2.421   5.397   5.173
 4234SOL    HW113601   2.385   5.487   5.150
 4234SOL    HW213602   2.435   5.343   5.090
 4235SOL     OW13603   0.183   4.619   5.945
 4235SOL    HW113604   0.158   4.563   6.024
 4235SOL    HW213605   0.191   4.715   5.974
 4236SOL     OW13606   6.491   4.271   1.982
 4236SOL    HW113607   6.471   4.364   1.952
 4236SOL    HW213608   6.407   4.217   1.979
 4237SOL     OW13609   6.892   4.183   3.808
 4237SOL    HW113610   6.980   4.188   3.854
 4237SOL    HW213611   6.896   4.232   3.721
 4238SOL     OW13612   1.380   6.947   2.852
 4238SOL    HW113613   1.362   6.849   2.863
 4238SOL    HW213614   1.372   6.972   2.756
 4239SOL     OW13615   4.244   1.460   2.780
 4239SOL    HW113616   4.256   1.560   2.780
 4239SOL    HW213617   4.321   1.418   2.731
 4240SOL     OW13618   2.153   5.541   0.273
 4240SOL    HW113619   2.241   5.509   0.240
 4240SOL    HW213620   2.166   5.614   0.340
 4241SOL     OW13621   5.472   0.709   0.584
 4241SOL    HW113622   5.517   0.798   0.577
 4241SOL    HW213623   5.374   0.722   0.599
 4242SOL     OW13624   3.324   2.130   4.244
 4242SOL    HW113625   3.252   2.074   4.204
 4242SOL    HW213626   3.360   2.192   4.174
 4243SOL     OW13627   5.511   1.761   2.819
 4243SOL    HW113628   5.457   1.710   2.751
 4243SOL    HW213629   5.547   1.844   2.777
 4244SOL     OW13630   4.098   4.447   1.409
 4244SOL    HW113631   4.159   4.491   1.475
 4244SOL    HW213632   4.113   4.348   1.410
 4245SOL     OW13633   6.331   2.313   6.166
 4245SOL    HW113634   6.269   2.330   6.242
 4245SOL    HW213635   6.424   2.298   6.202
 4246SOL     OW13636   6.186   4.075   3.361
 4246SOL    HW113637   6.219   4.125   3.441
 4246SOL    HW213638   6.086   4.075   3.361
 4247SOL     OW13639   1.714   6.916   3.584
 4247SOL    HW113640   1.786   6.846   3.589
 4247SOL    HW213641   1.668   6.909   3.495
 4248SOL     OW13642   2.656   1.694   4.468
 4248SOL    HW113643   2.586   1.766   4.467
 4248SOL    HW213644   2.747   1.736   4.464
 4249SOL     OW13645   6.401   2.952   5.208
 4249SOL    HW113646   6.391   2.981   5.112
 4249SOL    HW213647   6.488   2.904   5.219
 4250SOL     OW13648   0.036   4.460   3.231
 4250SOL    HW113649   0.103   4.441   3.159
 4250SOL    HW213650   0.030   4.382   3.293
 4251SOL     OW13651   5.449   4.571   0.817
 4251SOL    HW113652   5.387   4.536   0.888
 4251SOL    HW213653   5.456   4.670   0.824
 4252SOL     OW13654   6.339   6.536   5.631
 4252SOL    HW113655   6.291   6.545   5.718
 4252SOL    HW213656   6.364   6.627   5.597
 4253SOL     OW13657   2.738   0.229   1.481
 4253SOL    HW113658   2.753   0.192   1.389
 4253SOL    HW213659   2.653   0.193   1.518
 4254SOL     OW13660   1.067   2.480   2.530
 4254SOL    HW113661   1.075   2.386   2.498
 4254SOL    HW213662   1.109   2.488   2.621
 4255SOL     OW13663   5.556   3.102   3.534
 4255SOL    HW113664   5.499   3.035   3.581
 4255SOL    HW213665   5.530   3.106   3.438
 4256SOL     OW13666   1.488   6.763   0.933
 4256SOL    HW113667   1.467   6.666   0.939
 4256SOL    HW213668   1.415   6.811   0.884
 4257SOL     OW13669   3.666   0.500   4.746
 4257SOL    HW113670   3.666   0.600   4.743
 4257SOL    HW213671   3.592   0.468   4.806
 4258SOL     OW13672   6.089   6.342   1.409
 4258SOL    HW113673   6.109   6.440   1.420
 4258SOL    HW213674   6.163   6.289   1.449
 4259SOL     OW13675   2.732   0.301   6.578
 4259SOL    HW113676   2.829   0.296   6.599
 4259SOL    HW213677   2.689   0.213   6.596
 4260SOL     OW13678   5.084   6.798   5.647
 4260SOL    HW113679   5.001   6.752   5.680
 4260SOL    HW213680   5.077   6.813   5.549
 4261SOL     OW13681   1.809   0.743   1.710
 4261SOL    HW113682   1.810   0.843   1.702
 4261SOL    HW213683   1.729   0.714   1.761
 4262SOL     OW13684   0.798   4.780   6.140
 4262SOL    HW113685   0.733   4.777   6.065
 4262SOL    HW213686   0.889   4.754   6.106
 4263SOL     OW13687   2.748   6.540   3.167
 4263SOL    HW113688   2.692   6.616   3.132
 4263SOL    HW213689   2.706   6.503   3.249
 4264SOL     OW13690   0.001   2.348   2.684
 4264SOL    HW113691   6.961   2.362   2.758
 4264SOL    HW213692   7.000   2.266   2.632
 4265SOL     OW13693   5.651   1.444   0.404
 4265SOL    HW113694   5.728   1.389   0.436
 4265SOL    HW213695   5.613   1.496   0.480
 4266SOL     OW13696   2.106   5.533   0.783
 4266SOL    HW113697   2.112   5.495   0.875
 4266SOL    HW213698   2.135   5.464   0.716
 4267SOL     OW13699   1.727   3.595   5.415
 4267SOL    HW113700   1.736   3.643   5.502
 4267SOL    HW213701   1.648   3.633   5.365
 4268SOL     OW13702   1.467   6.462   6.008
 4268SOL    HW113703   1.483   6.394   5.935
 4268SOL    HW213704   1.387   6.517   5.985
 4269SOL     OW13705   2.478   1.098   0.867
 4269SOL    HW113706   2.533   1.113   0.785
 4269SOL    HW213707   2.529   1.128   0.947
 4270SOL     OW13708   3.193   3.090   4.335
 4270SOL    HW113709   3.165   3.185   4.349
 4270SOL    HW213710   3.235   3.054   4.419
 4271SOL     OW13711   0.628   1.324   6.527
 4271SOL    HW113712   0.660   1.418   6.514
 4271SOL    HW213713   0.561   1.301   6.456
 4272SOL     OW13714   0.772   4.616   4.942
 4272SOL    HW113715   0.856   4.579   4.901
 4272SOL    HW213716   0.790   4.710   4.973
 4273SOL     OW13717   4.901   5.882   5.104
 4273SOL    HW113718   4.954   5.966   5.105
 4273SOL    HW213719   4.841   5.880   5.024
 4274SOL     OW13720   1.577   6.829   2.545
 4274SOL    HW113721   1.644   6.816   2.618
 4274SOL    HW213722   1.509   6.756   2.549
 4275SOL     OW13723   6.685   1.913   5.157
 4275SOL    HW113724   6.747   1.900   5.079
 4275SOL    HW213725   6.697   2.005   5.194
 4276SOL     OW13726   1.031   4.565   3.903
 4276SOL    HW113727   1.112   4.622   3.888
 4276SOL    HW213728   1.059   4.469   3.911
 4277SOL     OW13729   6.180   4.535   4.193
 4277SOL    HW113730   6.277   4.552   4.210
 4277SOL    HW213731   6.141   4.487   4.272
 4278SOL     OW13732   6.849   0.728   4.371
 4278SOL    HW113733   6.774   0.736   4.306
 4278SOL    HW213734   6.835   0.647   4.429
 4279SOL     OW13735   3.598   6.841   5.694
 4279SOL    HW113736   3.527   6.828   5.624
 4279SOL    HW213737   3.621   6.938   5.701
 4280SOL     OW13738   5.099   1.294   5.260
 4280SOL    HW113739   5.096   1.324   5.355
 4280SOL    HW213740   5.082   1.195   5.255
 4281SOL     OW13741   2.297   4.761   4.501
 4281SOL    HW113742   2.332   4.668   4.490
 4281SOL    HW213743   2.363   4.816   4.552
 4282SOL     OW13744   3.131   2.332   0.680
 4282SOL    HW113745   3.067   2.375   0.615
 4282SOL    HW213746   3.081   2.267   0.738
 4283SOL     OW13747   2.027   1.088   3.700
 4283SOL    HW113748   2.006   1.175   3.656
 4283SOL    HW213749   1.944   1.032   3.704
 4284SOL     OW13750   5.024   5.747   1.795
 4284SOL    HW113751   5.086   5.674   1.825
 4284SOL    HW213752   5.077   5.829   1.775
 4285SOL     OW13753   0.652   0.565   5.892
 4285SOL    HW113754   0.564   0.521   5.878
 4285SOL    HW213755   0.643   0.664   5.877
 4286SOL     OW13756   5.252   5.814   6.819
 4286SOL    HW113757   5.346   5.803   6.850
 4286SOL    HW213758   5.192   5.827   6.898
 4287SOL     OW13759   5.470   1.234   6.194
 4287SOL    HW113760   5.419   1.204   6.114
 4287SOL    HW213761   5.546   1.293   6.165
 4288SOL     OW13762   0.987   5.740   3.500
 4288SOL    HW113763   0.914   5.682   3.465
 4288SOL    HW213764   1.031   5.694   3.577
 4289SOL     OW13765   6.137   3.147   1.026
 4289SOL    HW113766   6.164   3.097   1.109
 4289SOL    HW213767   6.093   3.233   1.053
 4290SOL     OW13768   2.833   6.549   2.126
 4290SOL    HW113769   2.893   6.507   2.058
 4290SOL    HW213770   2.836   6.494   2.210
 4291SOL     OW13771   4.452   3.723   1.682
 4291SOL    HW113772   4.443   3.819   1.707
 4291SOL    HW213773   4.367   3.674   1.702
 4292SOL     OW13774   6.650   4.682   6.055
 4292SOL    HW113775   6.715   4.627   6.107
 4292SOL    HW213776   6.681   4.777   6.053
 4293SOL     OW13777   0.320   2.982   0.672
 4293SOL    HW113778   0.318   3.082   0.679
 4293SOL    HW213779   0.346   2.955   0.580
 4294SOL     OW13780   3.545   2.940   0.163
 4294SOL    HW113781   3.556   2.948   0.262
 4294SOL    HW213782   3.622   2.984   0.118
 4295SOL     OW13783   3.936   6.020   4.924
 4295SOL    HW113784   4.004   5.947   4.919
 4295SOL    HW213785   3.874   6.003   5.001
 4296SOL     OW13786   3.508   1.086   0.166
 4296SOL    HW113787   3.413   1.117   0.167
 4296SOL    HW213788   3.524   1.031   0.084
 4297SOL     OW13789   5.444   0.744   5.943
 4297SOL    HW113790   5.462   0.744   6.041
 4297SOL    HW213791   5.345   0.746   5.927
 4298SOL     OW13792   2.839   5.269   6.506
 4298SOL    HW113793   2.915   5.204   6.504
 4298SOL    HW213794   2.757   5.225   6.468
 4299SOL     OW13795   0.399   2.882   0.419
 4299SOL    HW113796   0.438   2.910   0.332
 4299SOL    HW213797   0.307   2.846   0.405
 4300SOL     OW13798   3.977   1.274   6.983
 4300SOL    HW113799   3.948   1.256   6.889
 4300SOL    HW213800   3.896   1.282   0.016
 4301SOL     OW13801   3.020   1.256   0.677
 4301SOL    HW113802   2.973   1.340   0.649
 4301SOL    HW213803   3.006   1.185   0.608
 4302SOL     OW13804   0.772   6.611   5.350
 4302SOL    HW113805   0.711   6.658   5.413
 4302SOL    HW213806   0.719   6.550   5.291
 4303SOL     OW13807   5.968   5.023   3.844
 4303SOL    HW113808   5.948   4.981   3.932
 4303SOL    HW213809   6.053   5.076   3.850
 4304SOL     OW13810   2.984   3.529   4.111
 4304SOL    HW113811   2.984   3.601   4.041
 4304SOL    HW213812   2.967   3.570   4.201
 4305SOL     OW13813   5.925   1.147   4.179
 4305SOL    HW113814   5.927   1.051   4.154
 4305SOL    HW213815   5.952   1.157   4.275
 4306SOL     OW13816   6.775   3.496   6.687
 4306SOL    HW113817   6.691   3.494   6.633
 4306SOL    HW213818   6.832   3.417   6.664
 4307SOL     OW13819   5.051   4.078   6.474
 4307SOL    HW113820   5.124   4.009   6.470
 4307SOL    HW213821   4.977   4.045   6.533
 4308SOL     OW13822   5.535   5.051   6.266
 4308SOL    HW113823   5.531   5.150   6.254
 4308SOL    HW213824   5.442   5.015   6.278
 4309SOL     OW13825   1.362   0.987   0.546
 4309SOL    HW113826   1.382   0.964   0.642
 4309SOL    HW213827   1.285   0.932   0.515
 4310SOL     OW13828   2.098   2.490   3.238
 4310SOL    HW113829   1.998   2.490   3.246
 4310SOL    HW213830   2.126   2.540   3.157
 4311SOL     OW13831   1.371   5.674   3.327
 4311SOL    HW113832   1.400   5.613   3.401
 4311SOL    HW213833   1.443   5.679   3.258
 4312SOL     OW13834   1.606   5.607   1.223
 4312SOL    HW113835   1.554   5.570   1.146
 4312SOL    HW213836   1.702   5.579   1.215
 4313SOL     OW13837   4.914   1.447   1.676
 4313SOL    HW113838   4.924   1.351   1.701
 4313SOL    HW213839   5.003   1.493   1.683
 4314SOL     OW13840   6.032   1.777   4.124
 4314SOL    HW113841   6.026   1.761   4.025
 4314SOL    HW213842   5.944   1.812   4.157
 4315SOL     OW13843   2.378   0.665   2.021
 4315SOL    HW113844   2.303   0.717   2.062
 4315SOL    HW213845   2.461   0.680   2.075
 4316SOL     OW13846   5.237   0.107   0.964
 4316SOL    HW113847   5.243   0.071   0.870
 4316SOL    HW213848   5.149   0.154   0.975
 4317SOL     OW13849   3.984   1.196   4.613
 4317SOL    HW113850   4.021   1.255   4.541
 4317SOL    HW213851   4.060   1.158   4.666
 4318SOL     OW13852   1.453   3.193   3.204
 4318SOL    HW113853   1.466   3.194   3.303
 4318SOL    HW213854   1.480   3.281   3.165
 4319SOL     OW13855   2.032   2.983   0.647
 4319SOL    HW113856   1.985   3.067   0.618
 4319SOL    HW213857   1.987   2.904   0.606
 4320SOL     OW13858   0.330   5.933   1.934
 4320SOL    HW113859   0.260   5.988   1.887
 4320SOL    HW213860   0.408   5.991   1.956
 4321SOL     OW13861   6.828   0.021   4.167
 4321SOL    HW113862   6.857   0.002   4.261
 4321SOL    HW213863   6.886   0.094   4.129
 4322SOL     OW13864   5.990   1.876   6.434
 4322SOL    HW113865   6.052   1.927   6.374
 4322SOL    HW213866   6.041   1.843   6.513
 4323SOL     OW13867   5.254   4.014   1.458
 4323SOL    HW113868   5.172   3.994   1.403
 4323SOL    HW213869   5.335   4.004   1.401
 4324SOL     OW13870   6.146   4.384   6.598
 4324SOL    HW113871   6.086   4.370   6.677
 4324SOL    HW213872   6.092   4.417   6.521
 4325SOL     OW13873   1.875   0.653   0.362
 4325SOL    HW113874   1.797   0.594   0.383
 4325SOL    HW213875   1.874   0.677   0.265
 4326SOL     OW13876   5.737   2.823   4.657
 4326SOL    HW113877   5.747   2.781   4.567
 4326SOL    HW213878   5.752   2.922   4.649
 4327SOL     OW13879   5.865   5.149   2.387
 4327SOL    HW113880   5.862   5.087   2.465
 4327SOL    HW213881   5.822   5.236   2.412
 4328SOL     OW13882   4.485   4.015   5.776
 4328SOL    HW113883   4.460   4.077   5.702
 4328SOL    HW213884   4.536   3.937   5.738
 4329SOL     OW13885   3.763   1.726   6.184
 4329SOL    HW113886   3.784   1.723   6.282
 4329SOL    HW213887   3.840   1.765   6.134
 4330SOL     OW13888   2.854   0.463   4.851
 4330SOL    HW113889   2.884   0.368   4.864
 4330SOL    HW213890   2.906   0.523   4.912
 4331SOL     OW13891   4.386   2.982   0.838
 4331SOL    HW113892   4.334   2.915   0.785
 4331SOL    HW213893   4.340   2.999   0.925
 4332SOL     OW13894   5.411   4.629   2.364
 4332SOL    HW113895   5.405   4.542   2.314
 4332SOL    HW213896   5.321   4.652   2.401
 4333SOL     OW13897   4.550   0.898   5.623
 4333SOL    HW113898   4.635   0.845   5.623
 4333SOL    HW213899   4.572   0.995   5.612
 4334SOL     OW13900   1.978   2.317   2.337
 4334SOL    HW113901   1.894   2.273   2.367
 4334SOL    HW213902   1.964   2.416   2.333
 4335SOL     OW13903   3.261   3.935   3.394
 4335SOL    HW113904   3.171   3.892   3.389
 4335SOL    HW213905   3.306   3.908   3.479
 4336SOL     OW13906   1.223   6.750   5.460
 4336SOL    HW113907   1.132   6.708   5.466
 4336SOL    HW213908   1.292   6.678   5.457
 4337SOL     OW13909   1.231   4.418   0.412
 4337SOL    HW113910   1.199   4.432   0.505
 4337SOL    HW213911   1.262   4.505   0.373
 4338SOL     OW13912   5.089   5.657   4.129
 4338SOL    HW113913   5.034   5.716   4.070
 4338SOL    HW213914   5.186   5.669   4.107
 4339SOL     OW13915   6.102   4.119   5.303
 4339SOL    HW113916   6.080   4.210   5.337
 4339SOL    HW213917   6.021   4.077   5.263
 4340SOL     OW13918   5.967   4.236   2.394
 4340SOL    HW113919   6.017   4.149   2.405
 4340SOL    HW213920   6.024   4.311   2.427
 4341SOL     OW13921   0.860   5.572   2.131
 4341SOL    HW113922   0.813   5.549   2.046
 4341SOL    HW213923   0.956   5.544   2.124
 4342SOL     OW13924   6.867   3.740   3.906
 4342SOL    HW113925   6.863   3.803   3.828
 4342SOL    HW213926   6.802   3.665   3.892
 4343SOL     OW13927   2.466   6.783   6.015
 4343SOL    HW113928   2.417   6.803   6.099
 4343SOL    HW213929   2.435   6.695   5.978
 4344SOL     OW13930   1.712   5.193   2.979
 4344SOL    HW113931   1.678   5.157   3.066
 4344SOL    HW213932   1.808   5.168   2.968
 4345SOL     OW13933   1.893   2.806   5.565
 4345SOL    HW113934   1.826   2.832   5.635
 4345SOL    HW213935   1.929   2.889   5.522
 4346SOL     OW13936   2.059   3.086   1.751
 4346SOL    HW113937   2.096   3.116   1.839
 4346SOL    HW213938   2.126   3.028   1.705
 4347SOL     OW13939   5.980   6.971   2.616
 4347SOL    HW113940   5.979   6.924   2.528
 4347SOL    HW213941   5.907   0.013   2.619
 4348SOL     OW13942   0.382   3.433   2.426
 4348SOL    HW113943   0.425   3.350   2.463
 4348SOL    HW213944   0.348   3.414   2.334
 4349SOL     OW13945   6.787   1.839   2.972
 4349SOL    HW113946   6.754   1.890   2.893
 4349SOL    HW213947   6.784   1.741   2.952
 4350SOL     OW13948   5.109   2.316   4.102
 4350SOL    HW113949   5.207   2.329   4.120
 4350SOL    HW213950   5.059   2.398   4.131
 4351SOL     OW13951   1.964   6.444   1.005
 4351SOL    HW113952   1.958   6.496   0.919
 4351SOL    HW213953   1.889   6.471   1.065
 4352SOL     OW13954   1.265   2.162   2.185
 4352SOL    HW113955   1.196   2.103   2.227
 4352SOL    HW213956   1.286   2.238   2.246
 4353SOL     OW13957   3.469   4.511   0.259
 4353SOL    HW113958   3.511   4.541   0.345
 4353SOL    HW213959   3.507   4.422   0.233
 4354SOL     OW13960   2.413   6.798   5.208
 4354SOL    HW113961   2.453   6.808   5.300
 4354SOL    HW213962   2.396   6.701   5.191
 4355SOL     OW13963   3.278   0.427   2.320
 4355SOL    HW113964   3.346   0.478   2.373
 4355SOL    HW213965   3.229   0.491   2.261
 4356SOL     OW13966   4.606   4.303   1.644
 4356SOL    HW113967   4.550   4.283   1.724
 4356SOL    HW213968   4.702   4.310   1.671
 4357SOL     OW13969   5.962   0.448   6.760
 4357SOL    HW113970   6.010   0.361   6.768
 4357SOL    HW213971   5.901   0.446   6.681
 4358SOL     OW13972   6.791   5.628   0.314
 4358SOL    HW113973   6.840   5.698   0.262
 4358SOL    HW213974   6.831   5.539   0.294
 4359SOL     OW13975   1.696   2.002   5.735
 4359SOL    HW113976   1.627   2.052   5.683
 4359SOL    HW213977   1.762   1.961   5.672
 4360SOL     OW13978   1.514   2.885   2.820
 4360SOL    HW113979   1.442   2.851   2.759
 4360SOL    HW213980   1.603   2.858   2.784
 4361SOL     OW13981   2.913   2.911   1.770
 4361SOL    HW113982   2.919   3.010   1.760
 4361SOL    HW213983   2.993   2.877   1.820
 4362SOL     OW13984   6.156   4.025   3.812
 4362SOL    HW113985   6.058   4.034   3.831
 4362SOL    HW213986   6.208   4.081   3.876
 4363SOL     OW13987   5.622   2.649   6.734
 4363SOL    HW113988   5.644   2.744   6.754
 4363SOL    HW213989   5.586   2.642   6.641
 4364SOL     OW13990   3.313   3.723   5.262
 4364SOL    HW113991   3.215   3.715   5.282
 4364SOL    HW213992   3.331   3.811   5.218
 4365SOL     OW13993   2.136   2.598   2.006
 4365SOL    HW113994   2.145   2.500   1.989
 4365SOL    HW213995   2.041   2.626   1.992
 4366SOL     OW13996   5.592   6.462   0.251
 4366SOL    HW113997   5.640   6.501   0.173
 4366SOL    HW213998   5.519   6.401   0.219
 4367SOL     OW13999   2.251   5.003   5.172
 4367SOL    HW114000   2.341   5.002   5.216
 4367SOL    HW214001   2.184   4.963   5.233
 4368SOL     OW14002   3.756   5.397   1.415
 4368SOL    HW114003   3.751   5.297   1.411
 4368SOL    HW214004   3.787   5.425   1.506
 4369SOL     OW14005   4.378   5.836   3.443
 4369SOL    HW114006   4.370   5.930   3.412
 4369SOL    HW214007   4.326   5.824   3.528
 4370SOL     OW14008   4.766   4.625   3.040
 4370SOL    HW114009   4.720   4.570   3.110
 4370SOL    HW214010   4.834   4.569   2.992
 4371SOL     OW14011   6.690   0.798   1.165
 4371SOL    HW114012   6.765   0.736   1.143
 4371SOL    HW214013   6.718   0.892   1.148
 4372SOL     OW14014   4.489   1.180   3.390
 4372SOL    HW114015   4.429   1.102   3.374
 4372SOL    HW214016   4.576   1.148   3.427
 4373SOL     OW14017   0.280   2.321   6.449
 4373SOL    HW114018   0.361   2.334   6.393
 4373SOL    HW214019   0.292   2.240   6.507
 4374SOL     OW14020   0.970   1.924   1.983
 4374SOL    HW114021   0.872   1.942   1.991
 4374SOL    HW214022   0.999   1.939   1.888
 4375SOL     OW14023   3.236   0.369   3.764
 4375SOL    HW114024   3.289   0.425   3.828
 4375SOL    HW214025   3.284   0.283   3.747
 4376SOL     OW14026   6.837   6.766   3.076
 4376SOL    HW114027   6.887   6.680   3.074
 4376SOL    HW214028   6.863   6.818   3.158
 4377SOL     OW14029   5.994   4.191   0.229
 4377SOL    HW114030   6.061   4.217   0.160
 4377SOL    HW214031   5.912   4.155   0.184
 4378SOL     OW14032   1.786   1.465   2.831
 4378SOL    HW114033   1.831   1.553   2.818
 4378SOL    HW214034   1.852   1.391   2.818
 4379SOL     OW14035   2.249   1.178   3.422
 4379SOL    HW114036   2.315   1.246   3.390
 4379SOL    HW214037   2.262   1.163   3.520
 4380SOL     OW14038   1.333   0.358   2.033
 4380SOL    HW114039   1.314   0.453   2.057
 4380SOL    HW214040   1.417   0.328   2.078
 4381SOL     OW14041   0.829   6.196   4.857
 4381SOL    HW114042   0.913   6.240   4.890
 4381SOL    HW214043   0.753   6.262   4.862
 4382SOL     OW14044   0.617   3.664   5.628
 4382SOL    HW114045   0.586   3.570   5.615
 4382SOL    HW214046   0.614   3.687   5.725
 4383SOL     OW14047   0.216   3.856   6.049
 4383SOL    HW114048   0.128   3.849   6.002
 4383SOL    HW214049   0.212   3.931   6.116
 4384SOL     OW14050   6.045   0.355   4.159
 4384SOL    HW114051   6.005   0.447   4.149
 4384SOL    HW214052   6.098   0.334   4.077
 4385SOL     OW14053   4.660   2.500   5.009
 4385SOL    HW114054   4.752   2.462   5.008
 4385SOL    HW214055   4.609   2.465   5.088
 4386SOL     OW14056   1.688   4.029   5.200
 4386SOL    HW114057   1.627   4.106   5.181
 4386SOL    HW214058   1.648   3.945   5.165
 4387SOL     OW14059   6.732   2.081   1.967
 4387SOL    HW114060   6.689   2.014   2.028
 4387SOL    HW214061   6.776   2.032   1.891
 4388SOL     OW14062   3.816   2.353   6.209
 4388SOL    HW114063   3.827   2.307   6.297
 4388SOL    HW214064   3.856   2.297   6.137
 4389SOL     OW14065   6.898   3.879   0.624
 4389SOL    HW114066   6.954   3.895   0.705
 4389SOL    HW214067   6.945   3.913   0.543
 4390SOL     OW14068   4.477   0.023   1.678
 4390SOL    HW114069   4.431   0.112   1.679
 4390SOL    HW214070   4.575   0.036   1.662
 4391SOL     OW14071   3.119   4.953   6.981
 4391SOL    HW114072   3.196   5.003   6.941
 4391SOL    HW214073   3.106   4.867   6.931
 4392SOL     OW14074   1.112   2.358   4.902
 4392SOL    HW114075   1.017   2.388   4.917
 4392SOL    HW214076   1.172   2.402   4.969
 4393SOL     OW14077   6.356   0.720   1.624
 4393SOL    HW114078   6.309   0.670   1.697
 4393SOL    HW214079   6.417   0.788   1.665
 4394SOL     OW14080   0.272   5.876   2.487
 4394SOL    HW114081   0.270   5.824   2.572
 4394SOL    HW214082   0.179   5.884   2.450
 4395SOL     OW14083   1.710   0.636   2.090
 4395SOL    HW114084   1.663   0.642   2.002
 4395SOL    HW214085   1.719   0.540   2.117
 4396SOL     OW14086   1.699   1.429   3.841
 4396SOL    HW114087   1.703   1.528   3.835
 4396SOL    HW214088   1.696   1.390   3.749
 4397SOL     OW14089   1.879   2.621   4.548
 4397SOL    HW114090   1.811   2.585   4.611
 4397SOL    HW214091   1.970   2.595   4.578
 4398SOL     OW14092   1.634   3.472   6.228
 4398SOL    HW114093   1.552   3.507   6.274
 4398SOL    HW214094   1.608   3.421   6.146
 4399SOL     OW14095   3.279   6.486   2.360
 4399SOL    HW114096   3.288   6.576   2.318
 4399SOL    HW214097   3.183   6.468   2.381
 4400SOL     OW14098   1.902   6.943   3.891
 4400SOL    HW114099   1.906   6.933   3.791
 4400SOL    HW214100   1.838   7.016   3.914
 4401SOL     OW14101   3.712   6.638   5.227
 4401SOL    HW114102   3.677   6.684   5.308
 4401SOL    HW214103   3.639   6.626   5.160
 4402SOL     OW14104   0.983   6.701   2.723
 4402SOL    HW114105   0.944   6.625   2.670
 4402SOL    HW214106   1.007   6.776   2.661
 4403SOL     OW14107   1.355   7.010   0.582
 4403SOL    HW114108   1.450   6.977   0.588
 4403SOL    HW214109   1.328   7.016   0.486
 4404SOL     OW14110   0.752   6.293   5.155
 4404SOL    HW114111   0.817   6.333   5.090
 4404SOL    HW214112   0.681   6.360   5.177
 4405SOL     OW14113   2.032   5.189   2.344
 4405SOL    HW114114   1.948   5.156   2.386
 4405SOL    HW214115   2.068   5.120   2.281
 4406SOL     OW14116   6.645   2.833   0.350
 4406SOL    HW114117   6.677   2.897   0.420
 4406SOL    HW214118   6.545   2.835   0.346
 4407SOL     OW14119   0.098   5.130   1.716
 4407SOL    HW114120   0.085   5.050   1.773
 4407SOL    HW214121   0.151   5.105   1.634
 4408SOL     OW14122   1.838   6.744   7.012
 4408SOL    HW114123   1.906   6.695   0.042
 4408SOL    HW214124   1.803   6.682   6.941
 4409SOL     OW14125   4.369   1.293   1.275
 4409SOL    HW114126   4.332   1.202   1.255
 4409SOL    HW214127   4.399   1.296   1.371
 4410SOL     OW14128   6.989   5.633   0.063
 4410SOL    HW114129   0.022   5.555   0.043
 4410SOL    HW214130   7.022   5.680   0.145
 4411SOL     OW14131   3.363   4.714   5.457
 4411SOL    HW114132   3.436   4.780   5.478
 4411SOL    HW214133   3.275   4.760   5.460
 4412SOL     OW14134   4.444   6.406   4.062
 4412SOL    HW114135   4.438   6.315   4.103
 4412SOL    HW214136   4.540   6.432   4.054
 4413SOL     OW14137   5.631   5.576   3.601
 4413SOL    HW114138   5.567   5.542   3.532
 4413SOL    HW214139   5.594   5.557   3.692
 4414SOL     OW14140   3.901   6.054   1.071
 4414SOL    HW114141   3.825   5.995   1.043
 4414SOL    HW214142   3.944   6.093   0.989
 4415SOL     OW14143   4.204   3.266   0.326
 4415SOL    HW114144   4.247   3.342   0.277
 4415SOL    HW214145   4.138   3.303   0.392
 4416SOL     OW14146   4.291   1.599   3.750
 4416SOL    HW114147   4.351   1.551   3.815
 4416SOL    HW214148   4.331   1.593   3.658
 4417SOL     OW14149   5.619   3.443   3.911
 4417SOL    HW114150   5.592   3.539   3.912
 4417SOL    HW214151   5.583   3.398   3.829
 4418SOL     OW14152   6.554   2.233   2.599
 4418SOL    HW114153   6.563   2.333   2.604
 4418SOL    HW214154   6.615   2.198   2.528
 4419SOL     OW14155   6.707   0.141   6.011
 4419SOL    HW114156   6.769   0.119   6.086
 4419SOL    HW214157   6.663   0.058   5.978
 4420SOL     OW14158   3.863   1.646   1.189
 4420SOL    HW114159   3.794   1.699   1.238
 4420SOL    HW214160   3.885   1.563   1.241
 4421SOL     OW14161   2.527   1.924   5.231
 4421SOL    HW114162   2.456   1.950   5.166
 4421SOL    HW214163   2.505   1.835   5.270
 4422SOL     OW14164   1.379   4.460   7.018
 4422SOL    HW114165   1.439   4.537   6.993
 4422SOL    HW214166   1.366   4.402   6.938
 4423SOL     OW14167   0.446   4.293   5.797
 4423SOL    HW114168   0.513   4.364   5.821
 4423SOL    HW214169   0.462   4.212   5.854
 4424SOL     OW14170   5.580   6.196   4.591
 4424SOL    HW114171   5.656   6.246   4.633
 4424SOL    HW214172   5.512   6.174   4.661
 4425SOL     OW14173   1.680   5.364   0.927
 4425SOL    HW114174   1.725   5.274   0.927
 4425SOL    HW214175   1.726   5.423   0.860
 4426SOL     OW14176   0.544   1.414   4.023
 4426SOL    HW114177   0.633   1.408   3.978
 4426SOL    HW214178   0.545   1.488   4.090
 4427SOL     OW14179   4.522   5.957   2.612
 4427SOL    HW114180   4.430   5.955   2.651
 4427SOL    HW214181   4.534   5.879   2.550
 4428SOL     OW14182   4.067   0.512   4.350
 4428SOL    HW114183   3.972   0.505   4.379
 4428SOL    HW214184   4.086   0.605   4.321
 4429SOL     OW14185   2.735   6.248   2.585
 4429SOL    HW114186   2.762   6.341   2.612
 4429SOL    HW214187   2.739   6.240   2.486
 4430SOL     OW14188   4.780   4.771   5.021
 4430SOL    HW114189   4.814   4.742   5.110
 4430SOL    HW214190   4.847   4.749   4.950
 4431SOL     OW14191   2.618   1.186   2.953
 4431SOL    HW114192   2.638   1.176   3.050
 4431SOL    HW214193   2.659   1.270   2.919
 4432SOL     OW14194   2.330   3.566   6.627
 4432SOL    HW114195   2.378   3.608   6.550
 4432SOL    HW214196   2.393   3.506   6.676
 4433SOL     OW14197   6.840   2.772   4.466
 4433SOL    HW114198   6.883   2.686   4.493
 4433SOL    HW214199   6.907   2.846   4.471
 4434SOL     OW14200   5.467   1.866   3.264
 4434SOL    HW114201   5.504   1.826   3.180
 4434SOL    HW214202   5.368   1.874   3.257
 4435SOL     OW14203   4.110   3.748   1.429
 4435SOL    HW114204   4.124   3.846   1.422
 4435SOL    HW214205   4.040   3.729   1.498
 4436SOL     OW14206   3.980   1.467   1.379
 4436SOL    HW114207   4.037   1.492   1.458
 4436SOL    HW214208   3.971   1.367   1.375
 4437SOL     OW14209   0.729   3.310   2.686
 4437SOL    HW114210   0.735   3.394   2.631
 4437SOL    HW214211   0.672   3.243   2.638
 4438SOL     OW14212   5.046   6.772   6.163
 4438SOL    HW114213   5.024   6.757   6.260
 4438SOL    HW214214   5.114   6.706   6.134
 4439SOL     OW14215   0.511   5.029   2.446
 4439SOL    HW114216   0.591   5.028   2.386
 4439SOL    HW214217   0.481   4.936   2.464
 4440SOL     OW14218   2.292   5.226   0.227
 4440SOL    HW114219   2.304   5.323   0.207
 4440SOL    HW214220   2.308   5.209   0.324
 4441SOL     OW14221   6.920   0.969   1.089
 4441SOL    HW114222   7.010   0.946   1.053
 4441SOL    HW214223   6.902   1.066   1.078
 4442SOL     OW14224   1.756   5.779   4.899
 4442SOL    HW114225   1.751   5.821   4.989
 4442SOL    HW214226   1.819   5.701   4.901
 4443SOL     OW14227   0.848   4.082   5.927
 4443SOL    HW114228   0.769   4.125   5.882
 4443SOL    HW214229   0.908   4.153   5.964
 4444SOL     OW14230   4.335   3.481   0.230
 4444SOL    HW114231   4.405   3.552   0.239
 4444SOL    HW214232   4.284   3.496   0.145
 4445SOL     OW14233   1.296   6.184   0.012
 4445SOL    HW114234   1.216   6.184   0.071
 4445SOL    HW214235   1.354   6.263   0.033
 4446SOL     OW14236   5.565   1.833   0.301
 4446SOL    HW114237   5.522   1.743   0.308
 4446SOL    HW214238   5.549   1.871   0.210
 4447SOL     OW14239   6.003   3.969   4.753
 4447SOL    HW114240   5.974   3.924   4.838
 4447SOL    HW214241   6.009   4.067   4.767
 4448SOL     OW14242   2.888   6.288   0.866
 4448SOL    HW114243   2.988   6.282   0.859
 4448SOL    HW214244   2.853   6.203   0.905
 4449SOL     OW14245   4.833   0.983   5.768
 4449SOL    HW114246   4.915   1.025   5.727
 4449SOL    HW214247   4.806   0.904   5.712
 4450SOL     OW14248   3.058   1.541   0.041
 4450SOL    HW114249   3.009   1.624   0.068
 4450SOL    HW214250   3.122   1.562   6.992
 4451SOL     OW14251   4.781   5.149   4.814
 4451SOL    HW114252   4.866   5.124   4.768
 4451SOL    HW214253   4.755   5.075   4.876
 4452SOL     OW14254   6.300   5.194   4.495
 4452SOL    HW114255   6.271   5.138   4.418
 4452SOL    HW214256   6.399   5.186   4.506
 4453SOL     OW14257   1.038   2.870   1.654
 4453SOL    HW114258   1.122   2.903   1.697
 4453SOL    HW214259   0.959   2.898   1.709
 4454SOL     OW14260   1.378   1.835   0.070
 4454SOL    HW114261   1.444   1.760   0.073
 4454SOL    HW214262   1.351   1.859   0.164
 4455SOL     OW14263   5.520   5.970   5.811
 4455SOL    HW114264   5.435   6.021   5.804
 4455SOL    HW214265   5.502   5.873   5.792
 4456SOL     OW14266   2.159   5.675   3.249
 4456SOL    HW114267   2.254   5.674   3.217
 4456SOL    HW214268   2.097   5.666   3.171
 4457SOL     OW14269   2.769   1.995   4.105
 4457SOL    HW114270   2.772   1.900   4.135
 4457SOL    HW214271   2.765   1.998   4.005
 4458SOL     OW14272   2.757   3.650   1.745
 4458SOL    HW114273   2.696   3.727   1.727
 4458SOL    HW214274   2.813   3.669   1.825
 4459SOL     OW14275   3.563   1.712   4.138
 4459SOL    HW114276   3.596   1.637   4.195
 4459SOL    HW214277   3.589   1.799   4.179
 4460SOL     OW14278   1.284   2.846   6.581
 4460SOL    HW114279   1.355   2.800   6.634
 4460SOL    HW214280   1.211   2.875   6.643
 4461SOL     OW14281   1.948   0.823   0.581
 4461SOL    HW114282   1.906   0.795   0.667
 4461SOL    HW214283   1.927   0.756   0.510
 4462SOL     OW14284   5.780   4.510   1.826
 4462SOL    HW114285   5.733   4.566   1.757
 4462SOL    HW214286   5.860   4.466   1.785
 4463SOL     OW14287   4.873   0.737   1.158
 4463SOL    HW114288   4.891   0.824   1.205
 4463SOL    HW214289   4.872   0.663   1.225
 4464SOL     OW14290   0.175   6.295   0.324
 4464SOL    HW114291   0.174   6.366   0.253
 4464SOL    HW214292   0.268   6.260   0.333
 4465SOL     OW14293   2.434   5.101   6.810
 4465SOL    HW114294   2.428   5.174   6.741
 4465SOL    HW214295   2.493   5.132   6.885
 4466SOL     OW14296   1.211   2.034   2.584
 4466SOL    HW114297   1.169   1.945   2.571
 4466SOL    HW214298   1.309   2.023   2.599
 4467SOL     OW14299   2.594   5.281   3.644
 4467SOL    HW114300   2.508   5.231   3.652
 4467SOL    HW214301   2.669   5.216   3.630
 4468SOL     OW14302   1.122   4.626   1.165
 4468SOL    HW114303   1.042   4.661   1.214
 4468SOL    HW214304   1.108   4.529   1.143
 4469SOL     OW14305   3.128   0.857   1.497
 4469SOL    HW114306   3.098   0.762   1.485
 4469SOL    HW214307   3.088   0.914   1.425
 4470SOL     OW14308   0.977   1.667   2.078
 4470SOL    HW114309   0.883   1.639   2.058
 4470SOL    HW214310   0.998   1.749   2.024
 4471SOL     OW14311   1.473   2.444   6.937
 4471SOL    HW114312   1.503   2.443   6.842
 4471SOL    HW214313   1.552   2.448   6.997
 4472SOL     OW14314   0.724   1.795   0.728
 4472SOL    HW114315   0.711   1.878   0.781
 4472SOL    HW214316   0.787   1.813   0.653
 4473SOL     OW14317   5.165   2.744   3.918
 4473SOL    HW114318   5.223   2.815   3.879
 4473SOL    HW214319   5.088   2.725   3.856
 4474SOL     OW14320   2.961   6.835   2.243
 4474SOL    HW114321   2.956   6.855   2.146
 4474SOL    HW214322   2.877   6.787   2.271
 4475SOL     OW14323   1.241   3.704   1.657
 4475SOL    HW114324   1.185   3.660   1.727
 4475SOL    HW214325   1.183   3.736   1.583
 4476SOL     OW14326   6.154   0.666   4.185
 4476SOL    HW114327   6.134   0.666   4.283
 4476SOL    HW214328   6.225   0.733   4.164
 4477SOL     OW14329   1.676   0.491   5.085
 4477SOL    HW114330   1.741   0.557   5.125
 4477SOL    HW214331   1.678   0.407   5.138
 4478SOL     OW14332   1.671   0.404   2.197
 4478SOL    HW114333   1.681   0.309   2.227
 4478SOL    HW214334   1.602   0.449   2.254
 4479SOL     OW14335   1.341   2.073   1.303
 4479SOL    HW114336   1.427   2.091   1.255
 4479SOL    HW214337   1.321   1.975   1.300
 4480SOL     OW14338   0.594   4.937   5.219
 4480SOL    HW114339   0.690   4.967   5.217
 4480SOL    HW214340   0.547   4.973   5.138
 4481SOL     OW14341   2.450   5.229   4.954
 4481SOL    HW114342   2.501   5.143   4.955
 4481SOL    HW214343   2.399   5.237   4.868
 4482SOL     OW14344   2.132   2.706   5.608
 4482SOL    HW114345   2.172   2.777   5.550
 4482SOL    HW214346   2.033   2.708   5.601
 4483SOL     OW14347   0.340   2.471   2.121
 4483SOL    HW114348   0.353   2.559   2.075
 4483SOL    HW214349   0.360   2.397   2.057
 4484SOL     OW14350   2.639   2.578   0.229
 4484SOL    HW114351   2.562   2.606   0.172
 4484SOL    HW214352   2.722   2.624   0.197
 4485SOL     OW14353   4.882   2.709   5.068
 4485SOL    HW114354   4.917   2.641   5.003
 4485SOL    HW214355   4.799   2.750   5.031
 4486SOL     OW14356   5.897   5.088   4.950
 4486SOL    HW114357   5.886   5.068   5.047
 4486SOL    HW214358   5.967   5.159   4.938
 4487SOL     OW14359   2.692   2.979   0.232
 4487SOL    HW114360   2.700   2.884   0.261
 4487SOL    HW214361   2.617   3.023   0.281
 4488SOL     OW14362   0.705   3.905   4.684
 4488SOL    HW114363   0.746   3.822   4.647
 4488SOL    HW214364   0.683   3.967   4.609
 4489SOL     OW14365   4.432   5.310   4.977
 4489SOL    HW114366   4.360   5.357   5.028
 4489SOL    HW214367   4.441   5.216   5.010
 4490SOL     OW14368   5.198   1.623   1.651
 4490SOL    HW114369   5.232   1.702   1.701
 4490SOL    HW214370   5.205   1.641   1.553
 4491SOL     OW14371   0.592   3.394   3.408
 4491SOL    HW114372   0.665   3.442   3.457
 4491SOL    HW214373   0.622   3.301   3.386
 4492SOL     OW14374   6.092   3.249   1.731
 4492SOL    HW114375   6.089   3.204   1.821
 4492SOL    HW214376   6.013   3.309   1.722
 4493SOL     OW14377   5.151   6.319   5.324
 4493SOL    HW114378   5.194   6.255   5.388
 4493SOL    HW214379   5.125   6.402   5.373
 4494SOL     OW14380   1.163   0.837   6.087
 4494SOL    HW114381   1.216   0.757   6.056
 4494SOL    HW214382   1.069   0.829   6.054
 4495SOL     OW14383   4.431   0.029   3.079
 4495SOL    HW114384   4.372   0.074   3.146
 4495SOL    HW214385   4.375   7.022   3.003
 4496SOL     OW14386   5.426   6.070   0.592
 4496SOL    HW114387   5.448   6.165   0.570
 4496SOL    HW214388   5.461   6.010   0.520
 4497SOL     OW14389   4.091   2.472   6.715
 4497SOL    HW114390   4.054   2.514   6.633
 4497SOL    HW214391   4.190   2.488   6.720
 4498SOL     OW14392   6.952   4.832   6.224
 4498SOL    HW114393   6.897   4.763   6.270
 4498SOL    HW214394   0.019   4.797   6.209
 4499SOL     OW14395   6.355   2.140   3.623
 4499SOL    HW114396   6.256   2.130   3.612
 4499SOL    HW214397   6.374   2.212   3.690
 4500SOL     OW14398   3.867   4.459   6.594
 4500SOL    HW114399   3.825   4.496   6.677
 4500SOL    HW214400   3.905   4.369   6.614
 4501SOL     OW14401   6.514   2.928   3.055
 4501SOL    HW114402   6.595   2.947   3.110
 4501SOL    HW214403   6.532   2.851   2.994
 4502SOL     OW14404   1.346   3.589   0.088
 4502SOL    HW114405   1.439   3.620   0.065
 4502SOL    HW214406   1.346   3.491   0.104
 4503SOL     OW14407   2.998   0.084   2.226
 4503SOL    HW114408   2.945   0.060   2.145
 4503SOL    HW214409   3.016   0.001   2.280
 4504SOL     OW14410   6.171   2.210   4.380
 4504SOL    HW114411   6.101   2.194   4.450
 4504SOL    HW214412   6.197   2.306   4.380
 4505SOL     OW14413   6.342   4.742   1.678
 4505SOL    HW114414   6.403   4.705   1.747
 4505SOL    HW214415   6.383   4.824   1.638
 4506SOL     OW14416   5.188   2.346   3.074
 4506SOL    HW114417   5.237   2.428   3.043
 4506SOL    HW214418   5.251   2.287   3.124
 4507SOL     OW14419   0.073   3.170   3.524
 4507SOL    HW114420   0.145   3.161   3.593
 4507SOL    HW214421   0.102   3.235   3.454
 4508SOL     OW14422   1.309   4.987   0.041
 4508SOL    HW114423   1.346   4.922   0.107
 4508SOL    HW214424   1.263   4.937   6.993
 4509SOL     OW14425   4.575   1.893   3.138
 4509SOL    HW114426   4.596   1.801   3.105
 4509SOL    HW214427   4.586   1.959   3.063
 4510SOL     OW14428   4.480   0.928   4.630
 4510SOL    HW114429   4.432   0.904   4.715
 4510SOL    HW214430   4.576   0.947   4.652
 4511SOL     OW14431   5.862   3.528   0.379
 4511SOL    HW114432   5.940   3.512   0.319
 4511SOL    HW214433   5.841   3.445   0.431
 4512SOL     OW14434   3.522   1.974   5.985
 4512SOL    HW114435   3.508   1.913   6.063
 4512SOL    HW214436   3.543   1.920   5.903
 4513SOL     OW14437   0.937   6.220   6.407
 4513SOL    HW114438   0.915   6.135   6.454
 4513SOL    HW214439   1.030   6.250   6.433
 4514SOL     OW14440   3.717   2.710   6.473
 4514SOL    HW114441   3.625   2.743   6.451
 4514SOL    HW214442   3.713   2.612   6.493
 4515SOL     OW14443   5.474   2.086   5.235
 4515SOL    HW114444   5.453   2.169   5.286
 4515SOL    HW214445   5.572   2.066   5.242
 4516SOL     OW14446   2.486   0.387   5.560
 4516SOL    HW114447   2.463   0.456   5.490
 4516SOL    HW214448   2.402   0.344   5.593
 4517SOL     OW14449   4.561   6.904   6.720
 4517SOL    HW114450   4.609   6.976   6.770
 4517SOL    HW214451   4.516   6.943   6.640
 4518SOL     OW14452   0.578   6.726   1.679
 4518SOL    HW114453   0.506   6.794   1.674
 4518SOL    HW214454   0.538   6.636   1.698
 4519SOL     OW14455   5.067   6.577   0.055
 4519SOL    HW114456   5.040   6.505   7.018
 4519SOL    HW214457   4.987   6.633   0.078
 4520SOL     OW14458   4.463   5.865   5.805
 4520SOL    HW114459   4.386   5.842   5.865
 4520SOL    HW214460   4.523   5.785   5.796
 4521SOL     OW14461   4.776   2.098   4.467
 4521SOL    HW114462   4.698   2.035   4.461
 4521SOL    HW214463   4.743   2.192   4.458
 4522SOL     OW14464   5.714   4.117   2.395
 4522SOL    HW114465   5.654   4.196   2.405
 4522SOL    HW214466   5.809   4.147   2.405
 4523SOL     OW14467   1.615   3.825   6.868
 4523SOL    HW114468   1.588   3.729   6.861
 4523SOL    HW214469   1.540   3.878   6.907
 4524SOL     OW14470   6.166   3.333   2.455
 4524SOL    HW114471   6.258   3.372   2.446
 4524SOL    HW214472   6.156   3.257   2.391
 4525SOL     OW14473   3.223   2.033   5.671
 4525SOL    HW114474   3.143   2.038   5.610
 4525SOL    HW214475   3.202   1.975   5.749
 4526SOL     OW14476   6.895   0.580   6.714
 4526SOL    HW114477   6.934   0.489   6.706
 4526SOL    HW214478   6.942   0.642   6.651
 4527SOL     OW14479   6.707   7.008   2.926
 4527SOL    HW114480   6.653   6.981   2.847
 4527SOL    HW214481   6.741   6.927   2.973
 4528SOL     OW14482   4.405   0.977   6.598
 4528SOL    HW114483   4.353   0.891   6.601
 4528SOL    HW214484   4.499   0.959   6.626
 4529SOL     OW14485   2.841   1.232   5.873
 4529SOL    HW114486   2.886   1.321   5.882
 4529SOL    HW214487   2.866   1.174   5.950
 4530SOL     OW14488   2.269   5.658   3.648
 4530SOL    HW114489   2.330   5.590   3.689
 4530SOL    HW214490   2.198   5.612   3.596
 4531SOL     OW14491   1.247   3.835   6.074
 4531SOL    HW114492   1.213   3.910   6.018
 4531SOL    HW214493   1.253   3.751   6.019
 4532SOL     OW14494   5.770   0.222   2.953
 4532SOL    HW114495   5.809   0.284   3.021
 4532SOL    HW214496   5.671   0.236   2.948
 4533SOL     OW14497   1.534   1.407   2.758
 4533SOL    HW114498   1.629   1.432   2.774
 4533SOL    HW214499   1.531   1.331   2.692
 4534SOL     OW14500   4.488   2.335   5.259
 4534SOL    HW114501   4.484   2.260   5.193
 4534SOL    HW214502   4.576   2.333   5.306
 4535SOL     OW14503   3.323   0.903   1.211
 4535SOL    HW114504   3.276   0.848   1.280
 4535SOL    HW214505   3.400   0.951   1.252
 4536SOL     OW14506   3.237   1.484   4.763
 4536SOL    HW114507   3.138   1.493   4.774
 4536SOL    HW214508   3.283   1.552   4.821
 4537SOL     OW14509   4.165   3.286   2.002
 4537SOL    HW114510   4.185   3.290   1.904
 4537SOL    HW214511   4.251   3.272   2.052
 4538SOL     OW14512   2.356   1.295   1.994
 4538SOL    HW114513   2.365   1.361   2.069
 4538SOL    HW214514   2.404   1.329   1.913
 4539SOL     OW14515   2.348   5.455   4.034
 4539SOL    HW114516   2.272   5.514   4.062
 4539SOL    HW214517   2.378   5.480   3.942
 4540SOL     OW14518   2.179   1.571   0.651
 4540SOL    HW114519   2.225   1.487   0.622
 4540SOL    HW214520   2.136   1.557   0.740
 4541SOL     OW14521   4.948   1.023   0.008
 4541SOL    HW114522   4.994   1.103   0.048
 4541SOL    HW214523   4.988   0.939   0.046
 4542SOL     OW14524   6.734   1.473   1.693
 4542SOL    HW114525   6.818   1.462   1.641
 4542SOL    HW214526   6.756   1.493   1.789
 4543SOL     OW14527   4.694   2.179   0.751
 4543SOL    HW114528   4.764   2.110   0.769
 4543SOL    HW214529   4.717   2.264   0.798
 4544SOL     OW14530   4.131   4.836   0.724
 4544SOL    HW114531   4.068   4.910   0.701
 4544SOL    HW214532   4.225   4.866   0.710
 4545SOL     OW14533   0.317   3.539   5.327
 4545SOL    HW114534   0.246   3.556   5.258
 4545SOL    HW214535   0.388   3.609   5.320
 4546SOL     OW14536   3.025   0.279   4.931
 4546SOL    HW114537   3.081   0.309   4.854
 4546SOL    HW214538   3.064   0.314   5.016
 4547SOL     OW14539   6.141   1.032   0.140
 4547SOL    HW114540   6.074   1.062   0.208
 4547SOL    HW214541   6.160   1.107   0.076
 4548SOL     OW14542   2.759   2.204   3.174
 4548SOL    HW114543   2.825   2.185   3.247
 4548SOL    HW214544   2.714   2.291   3.192
 4549SOL     OW14545   5.108   4.168   2.199
 4549SOL    HW114546   5.027   4.125   2.240
 4549SOL    HW214547   5.099   4.168   2.099
 4550SOL     OW14548   1.394   4.148   3.580
 4550SOL    HW114549   1.410   4.159   3.482
 4550SOL    HW214550   1.464   4.089   3.620
 4551SOL     OW14551   0.660   4.233   5.171
 4551SOL    HW114552   0.698   4.155   5.222
 4551SOL    HW214553   0.734   4.282   5.125
 4552SOL     OW14554   5.876   2.212   1.162
 4552SOL    HW114555   5.945   2.168   1.104
 4552SOL    HW214556   5.823   2.141   1.209
 4553SOL     OW14557   5.370   4.530   6.572
 4553SOL    HW114558   5.415   4.613   6.540
 4553SOL    HW214559   5.424   4.450   6.545
 4554SOL     OW14560   0.351   6.903   1.678
 4554SOL    HW114561   0.292   6.875   1.754
 4554SOL    HW214562   0.329   6.849   1.597
 4555SOL     OW14563   1.484   1.270   6.584
 4555SOL    HW114564   1.425   1.282   6.663
 4555SOL    HW214565   1.522   1.359   6.557
 4556SOL     OW14566   5.979   3.393   5.385
 4556SOL    HW114567   5.931   3.371   5.300
 4556SOL    HW214568   5.918   3.446   5.445
 4557SOL     OW14569   5.890   4.888   4.523
 4557SOL    HW114570   5.922   4.881   4.617
 4557SOL    HW214571   5.841   4.975   4.511
 4558SOL     OW14572   6.936   3.379   5.250
 4558SOL    HW114573   6.927   3.387   5.151
 4558SOL    HW214574   6.962   3.285   5.274
 4559SOL     OW14575   0.450   3.757   2.677
 4559SOL    HW114576   0.418   3.750   2.582
 4559SOL    HW214577   0.452   3.666   2.718
 4560SOL     OW14578   6.136   4.466   2.489
 4560SOL    HW114579   6.158   4.546   2.434
 4560SOL    HW214580   6.162   4.483   2.584
 4561SOL     OW14581   3.629   1.433   3.692
 4561SOL    HW114582   3.649   1.451   3.789
 4561SOL    HW214583   3.702   1.472   3.636
 4562SOL     OW14584   1.559   0.178   0.305
 4562SOL    HW114585   1.606   0.122   0.374
 4562SOL    HW214586   1.594   0.156   0.214
 4563SOL     OW14587   6.400   3.376   1.100
 4563SOL    HW114588   6.387   3.305   1.169
 4563SOL    HW214589   6.315   3.426   1.087
 4564SOL     OW14590   0.324   5.078   2.210
 4564SOL    HW114591   0.385   5.104   2.285
 4564SOL    HW214592   0.324   4.979   2.199
 4565SOL     OW14593   1.527   1.427   4.642
 4565SOL    HW114594   1.531   1.523   4.668
 4565SOL    HW214595   1.435   1.391   4.659
 4566SOL     OW14596   0.662   3.042   1.049
 4566SOL    HW114597   0.721   2.980   1.101
 4566SOL    HW214598   0.610   2.989   0.982
 4567SOL     OW14599   0.229   0.685   6.756
 4567SOL    HW114600   0.226   0.743   6.837
 4567SOL    HW214601   0.150   0.705   6.698
 4568SOL     OW14602   1.048   4.438   5.184
 4568SOL    HW114603   1.123   4.380   5.217
 4568SOL    HW214604   0.998   4.389   5.112
 4569SOL     OW14605   2.903   0.413   2.912
 4569SOL    HW114606   2.892   0.337   2.975
 4569SOL    HW214607   2.821   0.420   2.854
 4570SOL     OW14608   6.170   6.526   2.008
 4570SOL    HW114609   6.079   6.568   1.999
 4570SOL    HW214610   6.202   6.538   2.102
 4571SOL     OW14611   4.302   3.098   6.612
 4571SOL    HW114612   4.273   3.012   6.655
 4571SOL    HW214613   4.345   3.157   6.681
 4572SOL     OW14614   1.775   1.374   6.360
 4572SOL    HW114615   1.855   1.427   6.331
 4572SOL    HW214616   1.728   1.338   6.279
 4573SOL     OW14617   0.595   6.920   0.592
 4573SOL    HW114618   0.554   6.839   0.549
 4573SOL    HW214619   0.525   6.967   0.646
 4574SOL     OW14620   5.777   4.067   6.866
 4574SOL    HW114621   5.788   4.033   6.960
 4574SOL    HW214622   5.863   4.107   6.835
 4575SOL     OW14623   5.912   0.834   4.770
 4575SOL    HW114624   5.910   0.739   4.738
 4575SOL    HW214625   5.825   0.878   4.748
 4576SOL     OW14626   2.439   4.554   5.438
 4576SOL    HW114627   2.501   4.522   5.367
 4576SOL    HW214628   2.415   4.477   5.498
 4577SOL     OW14629   1.821   2.630   3.219
 4577SOL    HW114630   1.814   2.729   3.206
 4577SOL    HW214631   1.841   2.610   3.315
 4578SOL     OW14632   1.074   1.269   4.504
 4578SOL    HW114633   0.980   1.300   4.487
 4578SOL    HW214634   1.089   1.182   4.457
 4579SOL     OW14635   4.397   1.167   1.990
 4579SOL    HW114636   4.422   1.072   2.004
 4579SOL    HW214637   4.301   1.173   1.963
 4580SOL     OW14638   5.540   3.903   0.963
 4580SOL    HW114639   5.556   3.869   0.870
 4580SOL    HW214640   5.460   3.964   0.962
 4581SOL     OW14641   2.444   6.056   2.292
 4581SOL    HW114642   2.364   6.117   2.295
 4581SOL    HW214643   2.492   6.068   2.205
 4582SOL     OW14644   4.679   0.942   3.367
 4582SOL    HW114645   4.706   0.892   3.449
 4582SOL    HW214646   4.634   0.881   3.303
 4583SOL     OW14647   3.101   1.260   6.709
 4583SOL    HW114648   3.065   1.224   6.623
 4583SOL    HW214649   3.175   1.324   6.689
 4584SOL     OW14650   1.980   6.381   5.532
 4584SOL    HW114651   2.023   6.292   5.516
 4584SOL    HW214652   2.039   6.436   5.592
 4585SOL     OW14653   1.714   4.368   3.578
 4585SOL    HW114654   1.630   4.369   3.633
 4585SOL    HW214655   1.699   4.313   3.496
 4586SOL     OW14656   4.882   4.237   0.065
 4586SOL    HW114657   4.858   4.162   0.003
 4586SOL    HW214658   4.963   4.212   0.118
 4587SOL     OW14659   3.819   3.261   4.168
 4587SOL    HW114660   3.804   3.172   4.125
 4587SOL    HW214661   3.901   3.256   4.225
 4588SOL     OW14662   3.663   3.155   5.949
 4588SOL    HW114663   3.670   3.072   6.005
 4588SOL    HW214664   3.594   3.141   5.878
 4589SOL     OW14665   5.299   6.564   1.736
 4589SOL    HW114666   5.249   6.485   1.771
 4589SOL    HW214667   5.363   6.596   1.806
 4590SOL     OW14668   3.846   5.779   1.640
 4590SOL    HW114669   3.929   5.787   1.586
 4590SOL    HW214670   3.866   5.801   1.736
 4591SOL     OW14671   1.438   0.517   4.955
 4591SOL    HW114672   1.390   0.605   4.955
 4591SOL    HW214673   1.520   0.523   5.012
 4592SOL     OW14674   2.883   1.724   3.883
 4592SOL    HW114675   2.904   1.659   3.811
 4592SOL    HW214676   2.918   1.814   3.858
 4593SOL     OW14677   6.179   6.069   2.231
 4593SOL    HW114678   6.238   6.134   2.183
 4593SOL    HW214679   6.208   6.062   2.327
 4594SOL     OW14680   3.432   0.315   3.159
 4594SOL    HW114681   3.359   0.246   3.163
 4594SOL    HW214682   3.392   0.406   3.150
 4595SOL     OW14683   4.626   2.806   5.753
 4595SOL    HW114684   4.560   2.736   5.724
 4595SOL    HW214685   4.718   2.780   5.724
 4596SOL     OW14686   6.668   0.427   2.650
 4596SOL    HW114687   6.592   0.399   2.708
 4596SOL    HW214688   6.633   0.457   2.561
 4597SOL     OW14689   2.803   5.549   6.566
 4597SOL    HW114690   2.801   5.452   6.542
 4597SOL    HW214691   2.897   5.576   6.588
 4598SOL     OW14692   2.040   5.676   1.438
 4598SOL    HW114693   2.020   5.774   1.442
 4598SOL    HW214694   1.989   5.628   1.510
 4599SOL     OW14695   1.457   4.201   2.114
 4599SOL    HW114696   1.462   4.119   2.058
 4599SOL    HW214697   1.546   4.247   2.114
 4600SOL     OW14698   0.378   0.342   5.079
 4600SOL    HW114699   0.383   0.265   5.015
 4600SOL    HW214700   0.463   0.394   5.074
 4601SOL     OW14701   1.107   2.029   5.333
 4601SOL    HW114702   1.058   1.950   5.371
 4601SOL    HW214703   1.185   2.051   5.391
 4602SOL     OW14704   3.043   6.995   6.182
 4602SOL    HW114705   2.989   6.926   6.230
 4602SOL    HW214706   3.084   6.954   6.101
 4603SOL     OW14707   3.069   5.872   0.804
 4603SOL    HW114708   3.148   5.890   0.863
 4603SOL    HW214709   3.033   5.959   0.770
 4604SOL     OW14710   5.101   6.940   6.440
 4604SOL    HW114711   5.025   6.983   6.391
 4604SOL    HW214712   5.086   6.948   6.539
 4605SOL     OW14713   2.484   0.124   1.928
 4605SOL    HW114714   2.517   0.152   2.018
 4605SOL    HW214715   2.433   0.200   1.886
 4606SOL     OW14716   6.330   0.107   2.427
 4606SOL    HW114717   6.311   0.100   2.525
 4606SOL    HW214718   6.340   0.015   2.389
 4607SOL     OW14719   2.045   3.648   3.172
 4607SOL    HW114720   2.055   3.594   3.089
 4607SOL    HW214721   2.049   3.745   3.150
 4608SOL     OW14722   0.258   3.817   3.340
 4608SOL    HW114723   0.280   3.826   3.243
 4608SOL    HW214724   0.183   3.752   3.352
 4609SOL     OW14725   4.940   5.024   7.025
 4609SOL    HW114726   4.996   5.087   0.053
 4609SOL    HW214727   4.962   4.930   0.025
 4610SOL     OW14728   4.803   1.856   0.073
 4610SOL    HW114729   4.706   1.848   0.049
 4610SOL    HW214730   4.858   1.842   7.016
 4611SOL     OW14731   0.617   0.821   5.991
 4611SOL    HW114732   0.633   0.917   6.014
 4611SOL    HW214733   0.527   0.793   6.024
 4612SOL     OW14734   2.635   6.919   2.121
 4612SOL    HW114735   2.711   6.918   2.056
 4612SOL    HW214736   2.665   6.962   2.206
 4613SOL     OW14737   1.274   5.613   3.063
 4613SOL    HW114738   1.276   5.628   3.162
 4613SOL    HW214739   1.356   5.564   3.035
 4614SOL     OW14740   6.203   3.341   3.818
 4614SOL    HW114741   6.177   3.428   3.777
 4614SOL    HW214742   6.205   3.350   3.918
 4615SOL     OW14743   1.246   0.657   1.392
 4615SOL    HW114744   1.188   0.597   1.337
 4615SOL    HW214745   1.323   0.605   1.428
 4616SOL     OW14746   5.889   2.683   4.090
 4616SOL    HW114747   5.840   2.708   4.007
 4616SOL    HW214748   5.981   2.723   4.087
 4617SOL     OW14749   1.944   2.251   2.043
 4617SOL    HW114750   1.859   2.281   2.001
 4617SOL    HW214751   1.948   2.283   2.138
 4618SOL     OW14752   2.294   3.176   5.834
 4618SOL    HW114753   2.251   3.195   5.746
 4618SOL    HW214754   2.342   3.258   5.866
 4619SOL     OW14755   3.501   6.659   4.369
 4619SOL    HW114756   3.524   6.717   4.447
 4619SOL    HW214757   3.402   6.655   4.358
 4620SOL     OW14758   0.728   4.835   1.382
 4620SOL    HW114759   0.629   4.824   1.396
 4620SOL    HW214760   0.772   4.745   1.385
 4621SOL     OW14761   5.126   1.151   2.570
 4621SOL    HW114762   5.203   1.173   2.509
 4621SOL    HW214763   5.052   1.112   2.516
 4622SOL     OW14764   3.991   5.036   1.258
 4622SOL    HW114765   3.989   5.014   1.161
 4622SOL    HW214766   4.023   5.130   1.270
 4623SOL     OW14767   3.389   5.408   0.752
 4623SOL    HW114768   3.469   5.377   0.703
 4623SOL    HW214769   3.393   5.508   0.762
 4624SOL     OW14770   3.073   1.254   3.474
 4624SOL    HW114771   3.103   1.329   3.416
 4624SOL    HW214772   3.039   1.179   3.417
 4625SOL     OW14773   2.160   5.566   1.977
 4625SOL    HW114774   2.175   5.553   2.075
 4625SOL    HW214775   2.186   5.659   1.950
 4626SOL     OW14776   4.398   4.842   1.620
 4626SOL    HW114777   4.489   4.882   1.626
 4626SOL    HW214778   4.354   4.844   1.710
 4627SOL     OW14779   0.845   5.907   4.864
 4627SOL    HW114780   0.847   6.006   4.873
 4627SOL    HW214781   0.919   5.867   4.917
 4628SOL     OW14782   4.895   4.509   4.296
 4628SOL    HW114783   4.858   4.513   4.389
 4628SOL    HW214784   4.821   4.513   4.230
 4629SOL     OW14785   2.225   4.964   6.031
 4629SOL    HW114786   2.304   4.962   6.092
 4629SOL    HW214787   2.168   4.884   6.048
 4630SOL     OW14788   2.566   5.183   2.460
 4630SOL    HW114789   2.533   5.268   2.499
 4630SOL    HW214790   2.495   5.142   2.402
 4631SOL     OW14791   0.737   6.572   3.694
 4631SOL    HW114792   0.756   6.475   3.703
 4631SOL    HW214793   0.782   6.608   3.612
 4632SOL     OW14794   2.446   4.926   3.299
 4632SOL    HW114795   2.376   4.895   3.235
 4632SOL    HW214796   2.423   5.018   3.330
 4633SOL     OW14797   5.157   1.167   4.934
 4633SOL    HW114798   5.115   1.246   4.979
 4633SOL    HW214799   5.254   1.164   4.956
 4634SOL     OW14800   2.771   3.906   5.304
 4634SOL    HW114801   2.722   3.842   5.364
 4634SOL    HW214802   2.706   3.952   5.244
 4635SOL     OW14803   4.465   4.566   1.434
 4635SOL    HW114804   4.382   4.622   1.444
 4635SOL    HW214805   4.463   4.491   1.500
 4636SOL     OW14806   1.692   4.841   0.771
 4636SOL    HW114807   1.733   4.776   0.835
 4636SOL    HW214808   1.616   4.797   0.722
 4637SOL     OW14809   0.889   6.725   0.374
 4637SOL    HW114810   0.974   6.739   0.322
 4637SOL    HW214811   0.880   6.629   0.399
 4638SOL     OW14812   3.667   5.821   6.631
 4638SOL    HW114813   3.599   5.880   6.588
 4638SOL    HW214814   3.649   5.726   6.606
 4639SOL     OW14815   2.541   2.600   6.230
 4639SOL    HW114816   2.517   2.545   6.310
 4639SOL    HW214817   2.617   2.557   6.182
 4640SOL     OW14818   6.398   3.114   4.366
 4640SOL    HW114819   6.338   3.162   4.429
 4640SOL    HW214820   6.354   3.029   4.336
 4641SOL     OW14821   2.091   0.256   3.872
 4641SOL    HW114822   2.014   0.318   3.862
 4641SOL    HW214823   2.176   0.306   3.855
 4642SOL     OW14824   1.296   6.998   3.208
 4642SOL    HW114825   1.354   0.046   3.243
 4642SOL    HW214826   1.220   0.012   3.156
 4643SOL     OW14827   6.600   2.618   0.765
 4643SOL    HW114828   6.550   2.532   0.774
 4643SOL    HW214829   6.537   2.689   0.732
 4644SOL     OW14830   0.194   0.982   5.433
 4644SOL    HW114831   0.163   0.904   5.486
 4644SOL    HW214832   0.194   0.959   5.336
 4645SOL     OW14833   1.376   0.902   4.246
 4645SOL    HW114834   1.320   0.951   4.179
 4645SOL    HW214835   1.324   0.890   4.330
 4646SOL     OW14836   2.280   4.707   4.099
 4646SOL    HW114837   2.216   4.657   4.040
 4646SOL    HW214838   2.331   4.643   4.155
 4647SOL     OW14839   1.107   0.210   3.194
 4647SOL    HW114840   1.127   0.183   3.288
 4647SOL    HW214841   1.173   0.278   3.164
 4648SOL     OW14842   2.607   0.655   4.309
 4648SOL    HW114843   2.548   0.657   4.228
 4648SOL    HW214844   2.577   0.582   4.370
 4649SOL     OW14845   5.831   0.446   1.157
 4649SOL    HW114846   5.814   0.544   1.160
 4649SOL    HW214847   5.768   0.399   1.218
 4650SOL     OW14848   4.295   5.698   1.829
 4650SOL    HW114849   4.383   5.653   1.813
 4650SOL    HW214850   4.267   5.683   1.923
 4651SOL     OW14851   5.955   3.862   6.811
 4651SOL    HW114852   5.871   3.908   6.840
 4651SOL    HW214853   5.990   3.807   6.887
 4652SOL     OW14854   6.163   6.556   5.261
 4652SOL    HW114855   6.250   6.603   5.242
 4652SOL    HW214856   6.147   6.555   5.360
 4653SOL     OW14857   5.137   5.796   0.722
 4653SOL    HW114858   5.058   5.803   0.661
 4653SOL    HW214859   5.172   5.702   0.722
 4654SOL     OW14860   0.390   6.557   5.670
 4654SOL    HW114861   0.329   6.505   5.730
 4654SOL    HW214862   0.434   6.495   5.605
 4655SOL     OW14863   4.839   4.040   2.205
 4655SOL    HW114864   4.813   4.042   2.109
 4655SOL    HW214865   4.853   3.945   2.233
 4656SOL     OW14866   0.887   0.643   1.556
 4656SOL    HW114867   0.936   0.560   1.529
 4656SOL    HW214868   0.945   0.696   1.619
 4657SOL     OW14869   4.960   5.752   2.290
 4657SOL    HW114870   4.962   5.782   2.194
 4657SOL    HW214871   4.907   5.818   2.343
 4658SOL     OW14872   2.664   2.395   5.799
 4658SOL    HW114873   2.623   2.484   5.779
 4658SOL    HW214874   2.691   2.351   5.713
 4659SOL     OW14875   2.961   4.365   0.439
 4659SOL    HW114876   3.020   4.334   0.513
 4659SOL    HW214877   2.871   4.389   0.475
 4660SOL     OW14878   1.320   6.320   4.211
 4660SOL    HW114879   1.386   6.366   4.151
 4660SOL    HW214880   1.227   6.335   4.176
 4661SOL     OW14881   2.284   4.277   5.503
 4661SOL    HW114882   2.208   4.309   5.559
 4661SOL    HW214883   2.248   4.228   5.424
 4662SOL     OW14884   3.212   0.256   5.368
 4662SOL    HW114885   3.268   0.218   5.294
 4662SOL    HW214886   3.195   0.186   5.437
 4663SOL     OW14887   0.295   0.049   0.293
 4663SOL    HW114888   0.389   0.018   0.278
 4663SOL    HW214889   0.292   0.108   0.374
 4664SOL     OW14890   0.071   0.427   0.448
 4664SOL    HW114891   0.042   0.470   0.362
 4664SOL    HW214892   7.016   0.396   0.498
 4665SOL     OW14893   2.596   0.166   5.806
 4665SOL    HW114894   2.667   0.233   5.827
 4665SOL    HW214895   2.608   0.134   5.712
 4666SOL     OW14896   2.142   2.473   6.738
 4666SOL    HW114897   2.098   2.508   6.655
 4666SOL    HW214898   2.215   2.534   6.766
 4667SOL     OW14899   6.811   4.310   2.012
 4667SOL    HW114900   6.733   4.259   2.050
 4667SOL    HW214901   6.784   4.352   1.925
 4668SOL     OW14902   4.597   1.544   4.995
 4668SOL    HW114903   4.523   1.570   4.933
 4668SOL    HW214904   4.568   1.562   5.089
 4669SOL     OW14905   5.576   0.128   6.521
 4669SOL    HW114906   5.565   0.161   6.614
 4669SOL    HW214907   5.487   0.121   6.477
 4670SOL     OW14908   0.955   2.915   0.087
 4670SOL    HW114909   0.939   2.925   0.185
 4670SOL    HW214910   0.905   2.835   0.053
 4671SOL     OW14911   0.919   3.213   6.985
 4671SOL    HW114912   0.972   3.140   0.004
 4671SOL    HW214913   0.977   3.259   6.918
 4672SOL     OW14914   3.966   4.718   5.957
 4672SOL    HW114915   3.918   4.631   5.946
 4672SOL    HW214916   4.060   4.701   5.988
 4673SOL     OW14917   5.166   0.153   0.150
 4673SOL    HW114918   5.080   0.200   0.129
 4673SOL    HW214919   5.230   0.217   0.191
 4674SOL     OW14920   5.532   1.572   0.619
 4674SOL    HW114921   5.571   1.629   0.691
 4674SOL    HW214922   5.437   1.600   0.602
 4675SOL     OW14923   3.419   0.394   6.884
 4675SOL    HW114924   3.410   0.397   6.784
 4675SOL    HW214925   3.473   0.474   6.914
 4676SOL     OW14926   7.015   6.477   4.319
 4676SOL    HW114927   6.986   6.551   4.380
 4676SOL    HW214928   0.089   6.466   4.327
 4677SOL     OW14929   2.941   0.284   6.777
 4677SOL    HW114930   3.001   0.206   6.760
 4677SOL    HW214931   2.912   0.284   6.873
 4678SOL     OW14932   2.351   5.345   2.158
 4678SOL    HW114933   2.299   5.422   2.194
 4678SOL    HW214934   2.430   5.379   2.107
 4679SOL     OW14935   3.779   1.250   6.552
 4679SOL    HW114936   3.750   1.317   6.483
 4679SOL    HW214937   3.870   1.216   6.529
 4680SOL     OW14938   2.406   6.413   1.349
 4680SOL    HW114939   2.432   6.502   1.313
 4680SOL    HW214940   2.357   6.425   1.436
 4681SOL     OW14941   6.332   6.002   4.417
 4681SOL    HW114942   6.285   5.956   4.493
 4681SOL    HW214943   6.423   5.962   4.405
 4682SOL     OW14944   4.793   5.164   6.569
 4682SOL    HW114945   4.845   5.246   6.592
 4682SOL    HW214946   4.816   5.091   6.633
 4683SOL     OW14947   5.023   4.471   2.321
 4683SOL    HW114948   5.000   4.398   2.386
 4683SOL    HW214949   5.043   4.555   2.371
 4684SOL     OW14950   0.174   2.460   4.388
 4684SOL    HW114951   0.267   2.429   4.409
 4684SOL    HW214952   0.177   2.552   4.351
 4685SOL     OW14953   0.204   5.022   4.173
 4685SOL    HW114954   0.242   4.943   4.126
 4685SOL    HW214955   0.121   5.053   4.125
 4686SOL     OW14956   5.184   6.077   0.391
 4686SOL    HW114957   5.249   6.045   0.460
 4686SOL    HW214958   5.212   6.166   0.356
 4687SOL     OW14959   6.655   4.641   5.200
 4687SOL    HW114960   6.602   4.605   5.277
 4687SOL    HW214961   6.713   4.716   5.230
 4688SOL     OW14962   0.132   2.505   6.298
 4688SOL    HW114963   0.064   2.565   6.341
 4688SOL    HW214964   0.194   2.470   6.369
 4689SOL     OW14965   5.415   0.490   6.153
 4689SOL    HW114966   5.372   0.532   6.233
 4689SOL    HW214967   5.364   0.407   6.127
 4690SOL     OW14968   0.840   1.175   6.917
 4690SOL    HW114969   0.924   1.194   6.967
 4690SOL    HW214970   0.810   1.259   6.870
 4691SOL     OW14971   3.211   4.113   1.855
 4691SOL    HW114972   3.155   4.048   1.908
 4691SOL    HW214973   3.152   4.163   1.792
 4692SOL     OW14974   6.775   4.985   2.355
 4692SOL    HW114975   6.853   4.987   2.292
 4692SOL    HW214976   6.808   4.967   2.447
 4693SOL     OW14977   0.816   1.005   4.062
 4693SOL    HW114978   0.784   0.937   4.128
 4693SOL    HW214979   0.757   1.086   4.066
 4694SOL     OW14980   2.933   0.495   0.004
 4694SOL    HW114981   2.939   0.399   7.001
 4694SOL    HW214982   3.018   0.542   7.006
 4695SOL     OW14983   3.283   3.357   1.868
 4695SOL    HW114984   3.279   3.369   1.968
 4695SOL    HW214985   3.259   3.262   1.845
 4696SOL     OW14986   1.141   5.007   6.120
 4696SOL    HW114987   1.214   5.030   6.056
 4696SOL    HW214988   1.180   4.990   6.210
 4697SOL     OW14989   1.759   3.379   0.963
 4697SOL    HW114990   1.692   3.416   1.028
 4697SOL    HW214991   1.711   3.336   0.887
 4698SOL     OW14992   4.533   5.077   2.455
 4698SOL    HW114993   4.543   4.990   2.407
 4698SOL    HW214994   4.604   5.140   2.426
 4699SOL     OW14995   1.018   0.119   2.734
 4699SOL    HW114996   0.920   0.116   2.756
 4699SOL    HW214997   1.038   0.048   2.666
 4700SOL     OW14998   5.361   1.472   1.842
 4700SOL    HW114999   5.310   1.542   1.793
 4700SOL    HW215000   5.448   1.455   1.795
 4701SOL     OW15001   1.176   1.879   0.314
 4701SOL    HW115002   1.214   1.926   0.393
 4701SOL    HW215003   1.105   1.815   0.344
 4702SOL     OW15004   4.899   4.684   6.519
 4702SOL    HW115005   4.961   4.761   6.505
 4702SOL    HW215006   4.869   4.682   6.614
 4703SOL     OW15007   0.551   2.322   2.425
 4703SOL    HW115008   0.623   2.273   2.474
 4703SOL    HW215009   0.589   2.367   2.344
 4704SOL     OW15010   6.897   6.415   1.150
 4704SOL    HW115011   6.805   6.434   1.184
 4704SOL    HW215012   6.907   6.452   1.058
 4705SOL     OW15013   3.197   3.443   3.072
 4705SOL    HW115014   3.206   3.372   3.141
 4705SOL    HW215015   3.210   3.533   3.114
 4706SOL     OW15016   4.115   6.518   6.451
 4706SOL    HW115017   4.172   6.494   6.529
 4706SOL    HW215018   4.037   6.572   6.482
 4707SOL     OW15019   2.100   6.064   0.777
 4707SOL    HW115020   2.100   5.969   0.807
 4707SOL    HW215021   2.180   6.081   0.720
 4708SOL     OW15022   1.809   2.909   0.946
 4708SOL    HW115023   1.791   2.971   0.870
 4708SOL    HW215024   1.860   2.957   1.018
 4709SOL     OW15025   3.932   5.427   5.072
 4709SOL    HW115026   3.849   5.400   5.023
 4709SOL    HW215027   3.934   5.382   5.161
 4710SOL     OW15028   3.955   1.412   5.958
 4710SOL    HW115029   3.880   1.352   5.930
 4710SOL    HW215030   4.042   1.372   5.931
 4711SOL     OW15031   4.441   0.595   2.816
 4711SOL    HW115032   4.443   0.622   2.720
 4711SOL    HW215033   4.532   0.565   2.845
 4712SOL     OW15034   2.395   4.815   0.435
 4712SOL    HW115035   2.476   4.802   0.492
 4712SOL    HW215036   2.317   4.836   0.493
 4713SOL     OW15037   2.507   4.127   0.886
 4713SOL    HW115038   2.478   4.088   0.974
 4713SOL    HW215039   2.605   4.115   0.875
 4714SOL     OW15040   2.519   2.053   0.120
 4714SOL    HW115041   2.589   2.118   0.150
 4714SOL    HW215042   2.563   1.967   0.094
 4715SOL     OW15043   6.295   3.611   1.858
 4715SOL    HW115044   6.376   3.661   1.828
 4715SOL    HW215045   6.225   3.615   1.786
 4716SOL     OW15046   3.679   5.300   6.238
 4716SOL    HW115047   3.766   5.292   6.288
 4716SOL    HW215048   3.622   5.221   6.260
 4717SOL     OW15049   1.171   5.850   3.361
 4717SOL    HW115050   1.257   5.806   3.337
 4717SOL    HW215051   1.115   5.787   3.414
 4718SOL     OW15052   5.384   1.337   6.819
 4718SOL    HW115053   5.368   1.412   6.884
 4718SOL    HW215054   5.331   1.354   6.736
 4719SOL     OW15055   5.027   2.976   2.591
 4719SOL    HW115056   5.077   3.046   2.643
 4719SOL    HW215057   4.987   3.018   2.509
 4720SOL     OW15058   2.979   6.661   5.470
 4720SOL    HW115059   2.945   6.635   5.560
 4720SOL    HW215060   3.001   6.579   5.417
 4721SOL     OW15061   6.749   2.338   1.728
 4721SOL    HW115062   6.730   2.278   1.806
 4721SOL    HW215063   6.681   2.323   1.657
 4722SOL     OW15064   1.193   5.827   6.799
 4722SOL    HW115065   1.198   5.849   6.897
 4722SOL    HW215066   1.274   5.862   6.753
 4723SOL     OW15067   1.904   5.270   5.396
 4723SOL    HW115068   1.998   5.236   5.394
 4723SOL    HW215069   1.889   5.321   5.481
 4724SOL     OW15070   4.538   6.532   2.437
 4724SOL    HW115071   4.481   6.482   2.371
 4724SOL    HW215072   4.557   6.473   2.516
 4725SOL     OW15073   5.111   6.258   2.864
 4725SOL    HW115074   5.197   6.310   2.863
 4725SOL    HW215075   5.059   6.279   2.782
 4726SOL     OW15076   1.588   3.289   6.771
 4726SOL    HW115077   1.687   3.305   6.768
 4726SOL    HW215078   1.565   3.213   6.710
 4727SOL     OW15079   6.976   6.144   6.580
 4727SOL    HW115080   6.968   6.106   6.672
 4727SOL    HW215081   6.892   6.125   6.529
 4728SOL     OW15082   5.044   1.652   1.053
 4728SOL    HW115083   4.944   1.657   1.057
 4728SOL    HW215084   5.079   1.733   1.007
 4729SOL     OW15085   2.367   1.186   2.848
 4729SOL    HW115086   2.463   1.176   2.872
 4729SOL    HW215087   2.346   1.282   2.831
 4730SOL     OW15088   2.353   6.133   5.412
 4730SOL    HW115089   2.391   6.134   5.505
 4730SOL    HW215090   2.428   6.133   5.346
 4731SOL     OW15091   5.084   0.318   6.505
 4731SOL    HW115092   5.086   0.407   6.551
 4731SOL    HW215093   4.995   0.305   6.462
 4732SOL     OW15094   6.833   3.045   6.497
 4732SOL    HW115095   6.776   3.043   6.578
 4732SOL    HW215096   6.779   3.018   6.417
 4733SOL     OW15097   0.855   3.989   3.584
 4733SOL    HW115098   0.819   3.903   3.621
 4733SOL    HW215099   0.937   4.016   3.636
 4734SOL     OW15100   5.217   3.407   6.908
 4734SOL    HW115101   5.154   3.391   6.985
 4734SOL    HW215102   5.165   3.414   6.823
 4735SOL     OW15103   0.543   4.918   3.700
 4735SOL    HW115104   0.531   4.952   3.607
 4735SOL    HW215105   0.473   4.848   3.719
 4736SOL     OW15106   0.377   1.810   6.667
 4736SOL    HW115107   0.418   1.826   6.756
 4736SOL    HW215108   0.449   1.786   6.601
 4737SOL     OW15109   1.612   5.044   2.444
 4737SOL    HW115110   1.609   5.122   2.507
 4737SOL    HW215111   1.678   5.063   2.371
 4738SOL     OW15112   0.420   6.037   2.793
 4738SOL    HW115113   0.452   6.044   2.699
 4738SOL    HW215114   0.434   5.943   2.827
 4739SOL     OW15115   4.131   0.039   2.278
 4739SOL    HW115116   4.036   0.030   2.306
 4739SOL    HW215117   4.181   0.093   2.346
 4740SOL     OW15118   6.993   1.327   2.180
 4740SOL    HW115119   7.018   1.422   2.162
 4740SOL    HW215120   0.046   1.279   2.219
 4741SOL     OW15121   3.335   2.240   1.732
 4741SOL    HW115122   3.388   2.255   1.816
 4741SOL    HW215123   3.396   2.204   1.661
 4742SOL     OW15124   1.829   6.938   6.600
 4742SOL    HW115125   1.866   7.020   6.558
 4742SOL    HW215126   1.826   6.864   6.532
 4743SOL     OW15127   2.149   3.780   2.859
 4743SOL    HW115128   2.142   3.810   2.764
 4743SOL    HW215129   2.163   3.860   2.918
 4744SOL     OW15130   1.875   5.116   0.400
 4744SOL    HW115131   1.871   5.089   0.303
 4744SOL    HW215132   1.912   5.209   0.407
 4745SOL     OW15133   3.089   4.044   0.119
 4745SOL    HW115134   3.158   3.972   0.128
 4745SOL    HW215135   3.115   4.123   0.175
 4746SOL     OW15136   4.085   6.028   3.992
 4746SOL    HW115137   4.004   5.973   4.010
 4746SOL    HW215138   4.106   6.084   4.072
 4747SOL     OW15139   1.140   3.426   0.882
 4747SOL    HW115140   1.186   3.429   0.971
 4747SOL    HW215141   1.198   3.468   0.813
 4748SOL     OW15142   1.620   6.982   1.833
 4748SOL    HW115143   1.657   6.944   1.749
 4748SOL    HW215144   1.549   0.024   1.811
 4749SOL     OW15145   2.190   6.879   6.140
 4749SOL    HW115146   2.121   6.936   6.096
 4749SOL    HW215147   2.146   6.796   6.176
 4750SOL     OW15148   6.519   4.130   5.341
 4750SOL    HW115149   6.601   4.093   5.385
 4750SOL    HW215150   6.514   4.229   5.357
 4751SOL     OW15151   4.635   2.347   2.910
 4751SOL    HW115152   4.619   2.350   2.811
 4751SOL    HW215153   4.563   2.399   2.956
 4752SOL     OW15154   4.323   0.768   0.388
 4752SOL    HW115155   4.356   0.677   0.364
 4752SOL    HW215156   4.374   0.837   0.336
 4753SOL     OW15157   1.234   6.879   4.655
 4753SOL    HW115158   1.147   6.876   4.706
 4753SOL    HW215159   1.310   6.874   4.720
 4754SOL     OW15160   4.608   3.968   5.469
 4754SOL    HW115161   4.651   3.891   5.422
 4754SOL    HW215162   4.677   4.037   5.490
 4755SOL     OW15163   2.276   0.500   1.392
 4755SOL    HW115164   2.290   0.599   1.403
 4755SOL    HW215165   2.226   0.483   1.307
 4756SOL     OW15166   0.032   4.101   6.332
 4756SOL    HW115167   0.088   4.158   6.273
 4756SOL    HW215168   0.088   4.027   6.371
 4757SOL     OW15169   1.587   2.979   1.437
 4757SOL    HW115170   1.608   3.077   1.431
 4757SOL    HW215171   1.519   2.955   1.368
 4758SOL     OW15172   1.383   6.774   3.435
 4758SOL    HW115173   1.330   6.835   3.376
 4758SOL    HW215174   1.334   6.760   3.521
 4759SOL     OW15175   0.526   6.045   0.052
 4759SOL    HW115176   0.428   6.052   0.073
 4759SOL    HW215177   0.553   6.123   7.021
 4760SOL     OW15178   1.125   0.173   0.551
 4760SOL    HW115179   1.060   0.192   0.625
 4760SOL    HW215180   1.196   0.111   0.585
 4761SOL     OW15181   0.902   0.435   0.344
 4761SOL    HW115182   0.991   0.391   0.330
 4761SOL    HW215183   0.893   0.514   0.284
 4762SOL     OW15184   1.728   5.853   1.972
 4762SOL    HW115185   1.698   5.945   1.948
 4762SOL    HW215186   1.648   5.795   1.986
 4763SOL     OW15187   4.739   6.741   2.054
 4763SOL    HW115188   4.761   6.654   2.097
 4763SOL    HW215189   4.671   6.727   1.982
 4764SOL     OW15190   4.699   3.357   5.321
 4764SOL    HW115191   4.702   3.421   5.244
 4764SOL    HW215192   4.604   3.348   5.353
 4765SOL     OW15193   3.693   0.750   6.477
 4765SOL    HW115194   3.690   0.850   6.473
 4765SOL    HW215195   3.630   0.719   6.548
 4766SOL     OW15196   6.356   6.278   4.350
 4766SOL    HW115197   6.302   6.200   4.381
 4766SOL    HW215198   6.300   6.334   4.289
 4767SOL     OW15199   2.498   5.639   5.305
 4767SOL    HW115200   2.520   5.702   5.231
 4767SOL    HW215201   2.480   5.548   5.269
 4768SOL     OW15202   4.705   3.470   6.411
 4768SOL    HW115203   4.676   3.376   6.390
 4768SOL    HW215204   4.639   3.535   6.373
 4769SOL     OW15205   3.014   6.086   0.608
 4769SOL    HW115206   3.049   6.173   0.641
 4769SOL    HW215207   2.979   6.096   0.514
 4770SOL     OW15208   0.050   2.504   4.901
 4770SOL    HW115209   0.070   2.596   4.866
 4770SOL    HW215210   6.988   2.473   4.865
 4771SOL     OW15211   2.595   6.889   4.964
 4771SOL    HW115212   2.646   6.830   5.026
 4771SOL    HW215213   2.656   6.925   4.893
 4772SOL     OW15214   3.129   5.325   0.778
 4772SOL    HW115215   3.224   5.356   0.770
 4772SOL    HW215216   3.127   5.237   0.827
 4773SOL     OW15217   1.178   6.036   4.589
 4773SOL    HW115218   1.268   6.049   4.547
 4773SOL    HW215219   1.187   6.036   4.688
 4774SOL     OW15220   1.586   4.199   0.529
 4774SOL    HW115221   1.588   4.136   0.451
 4774SOL    HW215222   1.626   4.287   0.501
 4775SOL     OW15223   4.822   6.956   4.888
 4775SOL    HW115224   4.807   0.006   4.825
 4775SOL    HW215225   4.919   6.952   4.914
 4776SOL     OW15226   1.503   0.890   4.958
 4776SOL    HW115227   1.432   0.821   4.972
 4776SOL    HW215228   1.470   0.960   4.896
 4777SOL     OW15229   1.666   5.722   0.616
 4777SOL    HW115230   1.690   5.735   0.520
 4777SOL    HW215231   1.569   5.740   0.629
 4778SOL     OW15232   0.796   2.763   4.449
 4778SOL    HW115233   0.724   2.696   4.427
 4778SOL    HW215234   0.868   2.757   4.381
 4779SOL     OW15235   5.855   6.376   4.369
 4779SOL    HW115236   5.810   6.418   4.290
 4779SOL    HW215237   5.947   6.346   4.343
 4780SOL     OW15238   5.782   2.540   5.732
 4780SOL    HW115239   5.802   2.505   5.824
 4780SOL    HW215240   5.695   2.588   5.732
 4781SOL     OW15241   2.742   5.835   2.634
 4781SOL    HW115242   2.734   5.780   2.717
 4781SOL    HW215243   2.669   5.902   2.631
 4782SOL     OW15244   6.235   5.712   5.911
 4782SOL    HW115245   6.213   5.621   5.948
 4782SOL    HW215246   6.157   5.773   5.925
 4783SOL     OW15247   6.258   3.736   0.225
 4783SOL    HW115248   6.263   3.753   0.323
 4783SOL    HW215249   6.288   3.643   0.206
 4784SOL     OW15250   6.135   1.750   5.988
 4784SOL    HW115251   6.194   1.693   5.931
 4784SOL    HW215252   6.081   1.691   6.049
 4785SOL     OW15253   0.098   6.639   2.847
 4785SOL    HW115254   0.171   6.686   2.797
 4785SOL    HW215255   0.114   6.646   2.945
 4786SOL     OW15256   2.615   0.213   0.195
 4786SOL    HW115257   2.516   0.212   0.209
 4786SOL    HW215258   2.656   0.135   0.242
 4787SOL     OW15259   4.083   1.894   4.524
 4787SOL    HW115260   4.104   1.992   4.520
 4787SOL    HW215261   3.994   1.877   4.481
 4788SOL     OW15262   5.984   5.697   0.663
 4788SOL    HW115263   5.894   5.718   0.625
 4788SOL    HW215264   5.979   5.702   0.763
 4789SOL     OW15265   4.946   1.562   2.064
 4789SOL    HW115266   4.892   1.518   2.136
 4789SOL    HW215267   4.893   1.566   1.980
 4790SOL     OW15268   5.248   1.625   5.297
 4790SOL    HW115269   5.300   1.651   5.215
 4790SOL    HW215270   5.307   1.571   5.358
 4791SOL     OW15271   0.767   2.618   0.999
 4791SOL    HW115272   0.820   2.539   1.029
 4791SOL    HW215273   0.682   2.623   1.051
 4792SOL     OW15274   1.724   4.802   4.427
 4792SOL    HW115275   1.788   4.729   4.405
 4792SOL    HW215276   1.696   4.794   4.522
 4793SOL     OW15277   1.020   3.745   5.855
 4793SOL    HW115278   1.058   3.836   5.867
 4793SOL    HW215279   1.077   3.692   5.792
 4794SOL     OW15280   4.816   0.401   4.002
 4794SOL    HW115281   4.871   0.473   4.043
 4794SOL    HW215282   4.769   0.436   3.921
 4795SOL     OW15283   0.016   1.803   4.486
 4795SOL    HW115284   0.115   1.793   4.496
 4795SOL    HW215285   7.018   1.812   4.390
 4796SOL     OW15286   3.790   0.674   5.992
 4796SOL    HW115287   3.803   0.576   6.008
 4796SOL    HW215288   3.867   0.725   6.031
 4797SOL     OW15289   0.271   5.233   4.331
 4797SOL    HW115290   0.252   5.141   4.296
 4797SOL    HW215291   0.216   5.250   4.412
 4798SOL     OW15292   5.972   5.003   6.082
 4798SOL    HW115293   5.986   5.089   6.033
 4798SOL    HW215294   6.057   4.951   6.083
 4799SOL     OW15295   3.752   1.838   0.149
 4799SOL    HW115296   3.738   1.822   0.247
 4799SOL    HW215297   3.834   1.789   0.119
 4800SOL     OW15298   1.855   4.614   6.889
 4800SOL    HW115299   1.806   4.549   6.831
 4800SOL    HW215300   1.902   4.564   6.962
 4801SOL     OW15301   3.900   2.735   0.644
 4801SOL    HW115302   3.894   2.828   0.606
 4801SOL    HW215303   3.906   2.669   0.569
 4802SOL     OW15304   0.101   6.389   1.754
 4802SOL    HW115305   0.040   6.410   1.678
 4802SOL    HW215306   0.047   6.365   1.835
 4803SOL     OW15307   5.400   4.909   0.845
 4803SOL    HW115308   5.302   4.890   0.838
 4803SOL    HW215309   5.434   4.938   0.755
 4804SOL     OW15310   5.651   1.266   0.646
 4804SOL    HW115311   5.740   1.308   0.666
 4804SOL    HW215312   5.630   1.198   0.716
 4805SOL     OW15313   6.306   1.280   2.075
 4805SOL    HW115314   6.342   1.187   2.067
 4805SOL    HW215315   6.261   1.290   2.164
 4806SOL     OW15316   1.415   3.993   3.131
 4806SOL    HW115317   1.335   4.045   3.104
 4806SOL    HW215318   1.495   4.026   3.081
 4807SOL     OW15319   1.768   3.069   6.564
 4807SOL    HW115320   1.786   3.103   6.656
 4807SOL    HW215321   1.744   3.145   6.503
 4808SOL     OW15322   3.831   5.613   0.635
 4808SOL    HW115323   3.798   5.678   0.704
 4808SOL    HW215324   3.757   5.551   0.609
 4809SOL     OW15325   3.638   4.698   1.592
 4809SOL    HW115326   3.735   4.691   1.616
 4809SOL    HW215327   3.582   4.662   1.667
 4810SOL     OW15328   0.951   3.985   4.406
 4810SOL    HW115329   1.040   3.950   4.434
 4810SOL    HW215330   0.963   4.063   4.345
 4811SOL     OW15331   3.896   4.106   4.530
 4811SOL    HW115332   3.910   4.203   4.514
 4811SOL    HW215333   3.963   4.072   4.596
 4812SOL     OW15334   0.757   0.056   1.864
 4812SOL    HW115335   0.824   7.017   1.901
 4812SOL    HW215336   0.732   0.122   1.935
 4813SOL     OW15337   5.550   1.984   6.598
 4813SOL    HW115338   5.505   2.017   6.516
 4813SOL    HW215339   5.639   2.029   6.607
 4814SOL     OW15340   0.130   3.815   2.705
 4814SOL    HW115341   0.217   3.777   2.735
 4814SOL    HW215342   0.067   3.741   2.683
 4815SOL     OW15343   5.273   4.980   2.911
 4815SOL    HW115344   5.337   4.906   2.891
 4815SOL    HW215345   5.321   5.055   2.955
 4816SOL     OW15346   2.430   6.882   1.501
 4816SOL    HW115347   2.388   6.878   1.592
 4816SOL    HW215348   2.408   6.799   1.451
 4817SOL     OW15349   3.757   1.336   1.806
 4817SOL    HW115350   3.798   1.245   1.804
 4817SOL    HW215351   3.830   1.405   1.807
 4818SOL     OW15352   1.964   0.670   4.116
 4818SOL    HW115353   1.969   0.571   4.122
 4818SOL    HW215354   1.885   0.696   4.060
 4819SOL     OW15355   3.016   2.006   1.434
 4819SOL    HW115356   3.110   2.026   1.407
 4819SOL    HW215357   3.015   1.932   1.501
 4820SOL     OW15358   6.505   2.993   1.101
 4820SOL    HW115359   6.524   3.066   1.167
 4820SOL    HW215360   6.567   3.003   1.023
 4821SOL     OW15361   6.452   5.561   1.607
 4821SOL    HW115362   6.374   5.612   1.574
 4821SOL    HW215363   6.422   5.494   1.675
 4822SOL     OW15364   1.797   3.184   3.600
 4822SOL    HW115365   1.742   3.153   3.522
 4822SOL    HW215366   1.748   3.167   3.685
 4823SOL     OW15367   0.070   0.248   3.642
 4823SOL    HW115368   0.132   0.326   3.656
 4823SOL    HW215369   0.081   0.214   3.548
 4824SOL     OW15370   5.605   2.182   3.739
 4824SOL    HW115371   5.601   2.083   3.745
 4824SOL    HW215372   5.556   2.212   3.656
 4825SOL     OW15373   2.012   2.765   4.223
 4825SOL    HW115374   2.042   2.676   4.258
 4825SOL    HW215375   2.055   2.838   4.276
 4826SOL     OW15376   7.015   6.786   1.077
 4826SOL    HW115377   7.022   6.805   1.175
 4826SOL    HW215378   0.073   6.814   1.031
 4827SOL     OW15379   5.584   1.011   2.211
 4827SOL    HW115380   5.678   1.041   2.228
 4827SOL    HW215381   5.542   1.071   2.142
 4828SOL     OW15382   5.822   3.890   1.470
 4828SOL    HW115383   5.779   3.875   1.559
 4828SOL    HW215384   5.755   3.872   1.398
 4829SOL     OW15385   3.558   6.881   6.071
 4829SOL    HW115386   3.614   6.962   6.086
 4829SOL    HW215387   3.479   6.882   6.132
 4830SOL     OW15388   5.208   5.461   3.911
 4830SOL    HW115389   5.118   5.421   3.928
 4830SOL    HW215390   5.259   5.465   3.997
 4831SOL     OW15391   6.797   4.827   5.659
 4831SOL    HW115392   6.848   4.775   5.591
 4831SOL    HW215393   6.720   4.771   5.692
 4832SOL     OW15394   3.079   2.372   6.219
 4832SOL    HW115395   3.177   2.372   6.239
 4832SOL    HW215396   3.051   2.462   6.188
 4833SOL     OW15397   4.783   1.822   2.940
 4833SOL    HW115398   4.776   1.920   2.920
 4833SOL    HW215399   4.870   1.804   2.985
 4834SOL     OW15400   3.826   0.071   0.595
 4834SOL    HW115401   3.860   0.098   0.686
 4834SOL    HW215402   3.735   0.029   0.605
 4835SOL     OW15403   1.695   0.208   6.801
 4835SOL    HW115404   1.599   0.181   6.797
 4835SOL    HW215405   1.752   0.126   6.806
 4836SOL     OW15406   4.270   2.287   3.599
 4836SOL    HW115407   4.193   2.253   3.545
 4836SOL    HW215408   4.269   2.244   3.689
 4837SOL     OW15409   3.586   2.837   1.798
 4837SOL    HW115410   3.605   2.753   1.747
 4837SOL    HW215411   3.590   2.818   1.896
 4838SOL     OW15412   2.803   5.025   2.552
 4838SOL    HW115413   2.732   5.062   2.492
 4838SOL    HW215414   2.826   4.932   2.523
 4839SOL     OW15415   0.850   3.829   5.631
 4839SOL    HW115416   0.874   3.847   5.727
 4839SOL    HW215417   0.801   3.742   5.625
 4840SOL     OW15418   6.870   0.423   6.107
 4840SOL    HW115419   6.935   0.364   6.058
 4840SOL    HW215420   6.834   0.492   6.044
 4841SOL     OW15421   3.261   5.530   2.094
 4841SOL    HW115422   3.313   5.599   2.144
 4841SOL    HW215423   3.234   5.457   2.156
 4842SOL     OW15424   3.321   4.857   1.866
 4842SOL    HW115425   3.264   4.870   1.947
 4842SOL    HW215426   3.366   4.768   1.871
 4843SOL     OW15427   5.955   4.115   0.687
 4843SOL    HW115428   5.902   4.172   0.749
 4843SOL    HW215429   5.955   4.156   0.596
 4844SOL     OW15430   0.055   3.637   6.700
 4844SOL    HW115431   7.025   3.598   6.773
 4844SOL    HW215432   0.065   3.570   6.626
 4845SOL     OW15433   6.741   5.406   4.462
 4845SOL    HW115434   6.821   5.346   4.473
 4845SOL    HW215435   6.764   5.498   4.494
 4846SOL     OW15436   6.786   3.539   1.337
 4846SOL    HW115437   6.763   3.467   1.404
 4846SOL    HW215438   6.870   3.514   1.289
 4847SOL     OW15439   3.389   1.587   5.646
 4847SOL    HW115440   3.371   1.506   5.703
 4847SOL    HW215441   3.303   1.623   5.611
 4848SOL     OW15442   1.823   0.943   4.652
 4848SOL    HW115443   1.857   0.862   4.604
 4848SOL    HW215444   1.893   0.975   4.716
 4849SOL     OW15445   1.532   0.458   0.115
 4849SOL    HW115446   1.586   0.533   0.076
 4849SOL    HW215447   1.593   0.381   0.135
 4850SOL     OW15448   3.989   0.688   1.758
 4850SOL    HW115449   3.998   0.727   1.850
 4850SOL    HW215450   3.928   0.746   1.704
 4851SOL     OW15451   3.751   5.894   5.089
 4851SOL    HW115452   3.693   5.887   5.008
 4851SOL    HW215453   3.694   5.895   5.171
 4852SOL     OW15454   1.001   7.000   6.419
 4852SOL    HW115455   1.049   0.020   6.344
 4852SOL    HW215456   1.002   0.034   6.500
 4853SOL     OW15457   3.569   1.386   2.682
 4853SOL    HW115458   3.521   1.468   2.648
 4853SOL    HW215459   3.567   1.315   2.611
 4854SOL     OW15460   4.876   6.150   2.654
 4854SOL    HW115461   4.787   6.122   2.618
 4854SOL    HW215462   4.939   6.072   2.650
 4855SOL     OW15463   5.824   2.749   2.269
 4855SOL    HW115464   5.792   2.659   2.240
 4855SOL    HW215465   5.887   2.739   2.347
 4856SOL     OW15466   1.687   4.166   2.679
 4856SOL    HW115467   1.674   4.085   2.736
 4856SOL    HW215468   1.597   4.200   2.648
 4857SOL     OW15469   1.838   2.412   5.581
 4857SOL    HW115470   1.769   2.466   5.628
 4857SOL    HW215471   1.855   2.449   5.490
 4858SOL     OW15472   1.906   1.076   4.180
 4858SOL    HW115473   1.921   1.172   4.205
 4858SOL    HW215474   1.815   1.066   4.139
 4859SOL     OW15475   0.585   0.164   4.233
 4859SOL    HW115476   0.579   0.141   4.330
 4859SOL    HW215477   0.506   0.126   4.184
 4860SOL     OW15478   3.354   4.913   2.656
 4860SOL    HW115479   3.298   4.893   2.736
 4860SOL    HW215480   3.440   4.955   2.685
 4861SOL     OW15481   4.744   5.304   0.361
 4861SOL    HW115482   4.749   5.397   0.396
 4861SOL    HW215483   4.732   5.240   0.438
 4862SOL     OW15484   2.266   4.986   3.778
 4862SOL    HW115485   2.263   4.969   3.679
 4862SOL    HW215486   2.199   4.927   3.823
 4863SOL     OW15487   5.500   4.976   0.580
 4863SOL    HW115488   5.502   5.076   0.569
 4863SOL    HW215489   5.578   4.936   0.533
 4864SOL     OW15490   3.158   1.158   4.120
 4864SOL    HW115491   3.186   1.247   4.156
 4864SOL    HW215492   3.179   1.087   4.187
 4865SOL     OW15493   1.595   0.439   5.485
 4865SOL    HW115494   1.644   0.524   5.465
 4865SOL    HW215495   1.496   0.457   5.487
 4866SOL     OW15496   6.121   3.730   1.203
 4866SOL    HW115497   6.068   3.785   1.139
 4866SOL    HW215498   6.099   3.756   1.296
 4867SOL     OW15499   4.253   5.950   2.676
 4867SOL    HW115500   4.254   5.911   2.584
 4867SOL    HW215501   4.256   5.876   2.744
 4868SOL     OW15502   6.611   4.675   2.433
 4868SOL    HW115503   6.624   4.619   2.515
 4868SOL    HW215504   6.526   4.728   2.442
 4869SOL     OW15505   1.743   1.584   0.695
 4869SOL    HW115506   1.763   1.635   0.778
 4869SOL    HW215507   1.811   1.608   0.625
 4870SOL     OW15508   0.577   6.080   1.153
 4870SOL    HW115509   0.532   6.032   1.228
 4870SOL    HW215510   0.553   6.177   1.155
 4871SOL     OW15511   0.933   0.259   3.847
 4871SOL    HW115512   0.855   0.196   3.846
 4871SOL    HW215513   0.922   0.323   3.923
 4872SOL     OW15514   6.306   0.195   3.146
 4872SOL    HW115515   6.283   0.293   3.149
 4872SOL    HW215516   6.400   0.183   3.177
 4873SOL     OW15517   6.661   5.682   4.582
 4873SOL    HW115518   6.595   5.624   4.631
 4873SOL    HW215519   6.723   5.725   4.648
 4874SOL     OW15520   4.870   3.063   2.362
 4874SOL    HW115521   4.889   3.080   2.265
 4874SOL    HW215522   4.812   3.136   2.398
 4875SOL     OW15523   5.817   0.994   0.407
 4875SOL    HW115524   5.770   1.023   0.323
 4875SOL    HW215525   5.909   1.033   0.408
 4876SOL     OW15526   6.848   1.266   3.545
 4876SOL    HW115527   6.811   1.267   3.453
 4876SOL    HW215528   6.779   1.298   3.610
 4877SOL     OW15529   0.419   2.081   5.238
 4877SOL    HW115530   0.332   2.038   5.264
 4877SOL    HW215531   0.445   2.147   5.308
 4878SOL     OW15532   6.272   1.531   1.847
 4878SOL    HW115533   6.264   1.531   1.747
 4878SOL    HW215534   6.365   1.507   1.874
 4879SOL     OW15535   4.302   2.182   1.832
 4879SOL    HW115536   4.318   2.086   1.809
 4879SOL    HW215537   4.247   2.225   1.761
 4880SOL     OW15538   6.296   3.479   0.109
 4880SOL    HW115539   6.237   3.445   0.183
 4880SOL    HW215540   6.275   3.430   0.025
 4881SOL     OW15541   1.845   1.173   0.103
 4881SOL    HW115542   1.780   1.187   0.029
 4881SOL    HW215543   1.818   1.228   0.182
 4882SOL     OW15544   4.262   1.537   5.389
 4882SOL    HW115545   4.181   1.527   5.448
 4882SOL    HW215546   4.342   1.554   5.446
 4883SOL     OW15547   4.632   4.091   0.595
 4883SOL    HW115548   4.674   4.177   0.623
 4883SOL    HW215549   4.691   4.015   0.623
 4884SOL     OW15550   3.192   5.379   1.486
 4884SOL    HW115551   3.121   5.444   1.513
 4884SOL    HW215552   3.157   5.286   1.493
 4885SOL     OW15553   1.958   4.973   1.110
 4885SOL    HW115554   1.904   5.002   1.189
 4885SOL    HW215555   1.965   4.873   1.109
 4886SOL     OW15556   3.017   6.470   1.468
 4886SOL    HW115557   3.002   6.561   1.506
 4886SOL    HW215558   3.099   6.470   1.412
 4887SOL     OW15559   0.285   6.222   1.729
 4887SOL    HW115560   0.323   6.226   1.637
 4887SOL    HW215561   0.207   6.283   1.736
 4888SOL     OW15562   3.006   6.871   3.001
 4888SOL    HW115563   2.941   6.946   2.987
 4888SOL    HW215564   3.072   6.870   2.926
 4889SOL     OW15565   6.768   2.170   5.222
 4889SOL    HW115566   6.744   2.202   5.314
 4889SOL    HW215567   6.856   2.208   5.195
 4890SOL     OW15568   7.014   1.723   5.165
 4890SOL    HW115569   7.020   1.637   5.114
 4890SOL    HW215570   6.927   1.768   5.145
 4891SOL     OW15571   2.653   5.485   0.177
 4891SOL    HW115572   2.704   5.403   0.151
 4891SOL    HW215573   2.631   5.481   0.274
 4892SOL     OW15574   4.716   5.690   2.583
 4892SOL    HW115575   4.625   5.672   2.545
 4892SOL    HW215576   4.727   5.640   2.669
 4893SOL     OW15577   6.391   3.318   2.025
 4893SOL    HW115578   6.378   3.389   1.956
 4893SOL    HW215579   6.393   3.359   2.116
 4894SOL     OW15580   3.439   0.375   2.697
 4894SOL    HW115581   3.363   0.309   2.693
 4894SOL    HW215582   3.419   0.451   2.635
 4895SOL     OW15583   0.608   4.599   3.672
 4895SOL    HW115584   0.591   4.626   3.766
 4895SOL    HW215585   0.619   4.499   3.667
 4896SOL     OW15586   2.621   4.655   2.525
 4896SOL    HW115587   2.703   4.606   2.555
 4896SOL    HW215588   2.647   4.732   2.467
 4897SOL     OW15589   2.286   5.875   5.221
 4897SOL    HW115590   2.252   5.962   5.186
 4897SOL    HW215591   2.386   5.877   5.222
 4898SOL     OW15592   3.731   1.238   4.899
 4898SOL    HW115593   3.651   1.284   4.939
 4898SOL    HW215594   3.736   1.258   4.802
 4899SOL     OW15595   6.257   4.795   3.140
 4899SOL    HW115596   6.242   4.698   3.124
 4899SOL    HW215597   6.170   4.844   3.132
 4900SOL     OW15598   3.656   5.884   5.465
 4900SOL    HW115599   3.588   5.880   5.392
 4900SOL    HW215600   3.671   5.979   5.492
 4901SOL     OW15601   2.228   1.555   5.426
 4901SOL    HW115602   2.137   1.517   5.410
 4901SOL    HW215603   2.288   1.484   5.463
 4902SOL     OW15604   0.992   1.438   5.073
 4902SOL    HW115605   1.017   1.532   5.099
 4902SOL    HW215606   0.920   1.406   5.134
 4903SOL     OW15607   4.735   5.534   0.532
 4903SOL    HW115608   4.733   5.600   0.456
 4903SOL    HW215609   4.803   5.563   0.599
 4904SOL     OW15610   1.985   0.381   5.232
 4904SOL    HW115611   2.073   0.346   5.263
 4904SOL    HW215612   1.933   0.307   5.188
 4905SOL     OW15613   2.687   0.992   3.681
 4905SOL    HW115614   2.742   1.073   3.700
 4905SOL    HW215615   2.733   0.910   3.716
 4906SOL     OW15616   4.634   2.573   6.185
 4906SOL    HW115617   4.556   2.628   6.155
 4906SOL    HW215618   4.704   2.573   6.113
 4907SOL     OW15619   4.775   0.524   1.618
 4907SOL    HW115620   4.721   0.482   1.691
 4907SOL    HW215621   4.851   0.463   1.594
 4908SOL     OW15622   5.243   6.722   0.258
 4908SOL    HW115623   5.219   6.819   0.254
 4908SOL    HW215624   5.164   6.667   0.233
 4909SOL     OW15625   6.879   5.285   3.353
 4909SOL    HW115626   6.858   5.188   3.339
 4909SOL    HW215627   6.976   5.301   3.335
 4910SOL     OW15628   5.666   0.540   4.561
 4910SOL    HW115629   5.669   0.634   4.526
 4910SOL    HW215630   5.579   0.498   4.533
 4911SOL     OW15631   1.711   3.777   3.090
 4911SOL    HW115632   1.724   3.686   3.130
 4911SOL    HW215633   1.738   3.847   3.156
 4912SOL     OW15634   5.328   1.955   6.022
 4912SOL    HW115635   5.360   1.864   6.046
 4912SOL    HW215636   5.283   1.997   6.102
 4913SOL     OW15637   4.492   3.643   5.626
 4913SOL    HW115638   4.406   3.685   5.654
 4913SOL    HW215639   4.508   3.661   5.529
 4914SOL     OW15640   4.663   6.741   5.319
 4914SOL    HW115641   4.635   6.734   5.224
 4914SOL    HW215642   4.661   6.837   5.347
 4915SOL     OW15643   2.990   6.722   4.951
 4915SOL    HW115644   2.992   6.822   4.944
 4915SOL    HW215645   3.036   6.682   4.872
 4916SOL     OW15646   0.621   0.776   3.824
 4916SOL    HW115647   0.697   0.738   3.876
 4916SOL    HW215648   0.641   0.871   3.801
 4917SOL     OW15649   3.598   5.551   0.935
 4917SOL    HW115650   3.614   5.476   0.871
 4917SOL    HW215651   3.649   5.535   1.019
 4918SOL     OW15652   5.739   6.466   1.871
 4918SOL    HW115653   5.648   6.430   1.892
 4918SOL    HW215654   5.733   6.527   1.792
 4919SOL     OW15655   3.605   3.010   2.543
 4919SOL    HW115656   3.700   3.028   2.517
 4919SOL    HW215657   3.585   3.052   2.631
 4920SOL     OW15658   5.373   0.244   4.727
 4920SOL    HW115659   5.313   0.312   4.768
 4920SOL    HW215660   5.371   0.160   4.782
 4921SOL     OW15661   1.407   5.231   0.020
 4921SOL    HW115662   1.369   5.139   0.018
 4921SOL    HW215663   1.440   5.257   6.955
 4922SOL     OW15664   3.304   2.031   4.509
 4922SOL    HW115665   3.308   2.052   4.411
 4922SOL    HW215666   3.390   2.059   4.551
 4923SOL     OW15667   2.687   1.050   2.225
 4923SOL    HW115668   2.787   1.042   2.231
 4923SOL    HW215669   2.658   1.033   2.131
 4924SOL     OW15670   2.923   1.704   4.517
 4924SOL    HW115671   2.999   1.658   4.471
 4924SOL    HW215672   2.915   1.669   4.610
 4925SOL     OW15673   5.116   0.614   2.482
 4925SOL    HW115674   5.095   0.667   2.564
 4925SOL    HW215675   5.171   0.669   2.419
 4926SOL     OW15676   5.383   1.792   1.756
 4926SOL    HW115677   5.464   1.733   1.754
 4926SOL    HW215678   5.377   1.836   1.846
 4927SOL     OW15679   2.688   3.083   5.778
 4927SOL    HW115680   2.764   3.041   5.828
 4927SOL    HW215681   2.614   3.016   5.769
 4928SOL     OW15682   1.126   0.432   6.477
 4928SOL    HW115683   1.128   0.409   6.380
 4928SOL    HW215684   1.072   0.515   6.491
 4929SOL     OW15685   6.691   0.109   3.624
 4929SOL    HW115686   6.646   0.199   3.626
 4929SOL    HW215687   6.736   0.092   3.712
 4930SOL     OW15688   5.901   0.256   2.715
 4930SOL    HW115689   5.854   0.227   2.798
 4930SOL    HW215690   5.836   0.259   2.639
 4931SOL     OW15691   6.502   6.168   1.278
 4931SOL    HW115692   6.579   6.153   1.216
 4931SOL    HW215693   6.468   6.081   1.312
 4932SOL     OW15694   3.903   3.507   3.218
 4932SOL    HW115695   3.999   3.498   3.245
 4932SOL    HW215696   3.847   3.525   3.299
 4933SOL     OW15697   2.299   6.697   2.551
 4933SOL    HW115698   2.219   6.642   2.573
 4933SOL    HW215699   2.284   6.792   2.579
 4934SOL     OW15700   3.463   6.127   3.024
 4934SOL    HW115701   3.427   6.218   3.047
 4934SOL    HW215702   3.416   6.092   2.943
 4935SOL     OW15703   1.638   2.030   6.166
 4935SOL    HW115704   1.690   1.991   6.242
 4935SOL    HW215705   1.694   2.095   6.116
 4936SOL     OW15706   2.774   4.778   0.951
 4936SOL    HW115707   2.728   4.706   0.899
 4936SOL    HW215708   2.840   4.737   1.015
 4937SOL     OW15709   5.190   2.749   5.619
 4937SOL    HW115710   5.188   2.843   5.653
 4937SOL    HW215711   5.197   2.686   5.697
 4938SOL     OW15712   3.073   5.907   5.600
 4938SOL    HW115713   2.992   5.954   5.567
 4938SOL    HW215714   3.058   5.808   5.596
 4939SOL     OW15715   5.378   2.244   4.999
 4939SOL    HW115716   5.409   2.203   5.085
 4939SOL    HW215717   5.328   2.176   4.945
 4940SOL     OW15718   1.472   1.117   4.782
 4940SOL    HW115719   1.408   1.187   4.752
 4940SOL    HW215720   1.485   1.049   4.710
 4941SOL     OW15721   3.856   2.143   6.383
 4941SOL    HW115722   3.858   2.179   6.476
 4941SOL    HW215723   3.945   2.156   6.340
 4942SOL     OW15724   4.855   3.307   5.572
 4942SOL    HW115725   4.851   3.377   5.643
 4942SOL    HW215726   4.776   3.315   5.511
 4943SOL     OW15727   3.646   2.847   1.147
 4943SOL    HW115728   3.571   2.820   1.208
 4943SOL    HW215729   3.698   2.766   1.120
 4944SOL     OW15730   2.042   4.150   2.805
 4944SOL    HW115731   2.080   4.167   2.714
 4944SOL    HW215732   1.943   4.140   2.798
 4945SOL     OW15733   1.121   1.353   3.825
 4945SOL    HW115734   1.098   1.262   3.858
 4945SOL    HW215735   1.206   1.349   3.773
 4946SOL     OW15736   0.746   3.177   1.672
 4946SOL    HW115737   0.801   3.107   1.718
 4946SOL    HW215738   0.714   3.142   1.585
 4947SOL     OW15739   1.551   6.988   1.105
 4947SOL    HW115740   1.548   6.908   1.045
 4947SOL    HW215741   1.465   0.013   1.096
 4948SOL     OW15742   2.602   0.435   2.482
 4948SOL    HW115743   2.537   0.494   2.531
 4948SOL    HW215744   2.642   0.486   2.406
 4949SOL     OW15745   4.752   0.452   5.559
 4949SOL    HW115746   4.660   0.457   5.520
 4949SOL    HW215747   4.809   0.393   5.501
 4950SOL     OW15748   3.020   5.427   3.709
 4950SOL    HW115749   2.965   5.506   3.737
 4950SOL    HW215750   3.031   5.428   3.610
 4951SOL     OW15751   5.410   1.249   4.774
 4951SOL    HW115752   5.419   1.179   4.844
 4951SOL    HW215753   5.346   1.320   4.805
 4952SOL     OW15754   0.326   0.750   4.785
 4952SOL    HW115755   0.304   0.707   4.697
 4952SOL    HW215756   0.407   0.808   4.775
 4953SOL     OW15757   2.346   6.223   1.913
 4953SOL    HW115758   2.407   6.300   1.933
 4953SOL    HW215759   2.354   6.198   1.816
 4954SOL     OW15760   4.199   4.270   6.664
 4954SOL    HW115761   4.206   4.366   6.637
 4954SOL    HW215762   4.153   4.264   6.753
 4955SOL     OW15763   1.506   6.129   6.865
 4955SOL    HW115764   1.419   6.152   6.910
 4955SOL    HW215765   1.515   6.030   6.860
 4956SOL     OW15766   3.310   6.992   4.894
 4956SOL    HW115767   3.363   0.032   4.842
 4956SOL    HW215768   3.363   6.908   4.907
 4957SOL     OW15769   7.009   0.872   3.329
 4957SOL    HW115770   0.052   0.944   3.321
 4957SOL    HW215771   6.963   0.881   3.417
 4958SOL     OW15772   0.412   6.653   6.031
 4958SOL    HW115773   0.386   6.744   5.999
 4958SOL    HW215774   0.335   6.590   6.021
 4959SOL     OW15775   0.288   1.399   0.055
 4959SOL    HW115776   0.262   1.303   0.044
 4959SOL    HW215777   0.383   1.411   0.027
 4960SOL     OW15778   3.248   6.236   3.887
 4960SOL    HW115779   3.345   6.250   3.866
 4960SOL    HW215780   3.236   6.146   3.928
 4961SOL     OW15781   5.382   1.254   5.243
 4961SOL    HW115782   5.399   1.179   5.307
 4961SOL    HW215783   5.290   1.291   5.260
 4962SOL     OW15784   5.693   3.109   1.615
 4962SOL    HW115785   5.686   3.140   1.710
 4962SOL    HW215786   5.624   3.039   1.597
 4963SOL     OW15787   5.977   5.934   1.580
 4963SOL    HW115788   5.966   6.031   1.557
 4963SOL    HW215789   6.019   5.925   1.670
 4964SOL     OW15790   3.552   6.588   3.295
 4964SOL    HW115791   3.493   6.510   3.316
 4964SOL    HW215792   3.642   6.574   3.336
 4965SOL     OW15793   0.440   0.162   4.875
 4965SOL    HW115794   0.457   0.067   4.850
 4965SOL    HW215795   0.526   0.214   4.870
 4966SOL     OW15796   2.265   6.448   4.358
 4966SOL    HW115797   2.299   6.356   4.379
 4966SOL    HW215798   2.234   6.493   4.441
 4967SOL     OW15799   3.985   3.296   6.779
 4967SOL    HW115800   4.074   3.342   6.783
 4967SOL    HW215801   3.914   3.362   6.755
 4968SOL     OW15802   5.360   2.567   3.171
 4968SOL    HW115803   5.347   2.593   3.076
 4968SOL    HW215804   5.410   2.639   3.219
 4969SOL     OW15805   1.862   1.203   2.661
 4969SOL    HW115806   1.800   1.132   2.694
 4969SOL    HW215807   1.864   1.202   2.561
 4970SOL     OW15808   1.244   2.539   4.700
 4970SOL    HW115809   1.276   2.628   4.733
 4970SOL    HW215810   1.187   2.496   4.771
 4971SOL     OW15811   6.292   5.691   3.712
 4971SOL    HW115812   6.380   5.716   3.671
 4971SOL    HW215813   6.289   5.592   3.725
 4972SOL     OW15814   2.121   3.358   1.075
 4972SOL    HW115815   2.065   3.276   1.088
 4972SOL    HW215816   2.079   3.417   1.005
 4973SOL     OW15817   6.895   6.815   2.021
 4973SOL    HW115818   6.803   6.778   2.013
 4973SOL    HW215819   6.932   6.832   1.929
 4974SOL     OW15820   6.602   4.849   0.776
 4974SOL    HW115821   6.640   4.764   0.739
 4974SOL    HW215822   6.638   4.927   0.725
 4975SOL     OW15823   6.016   5.819   0.941
 4975SOL    HW115824   6.096   5.856   0.896
 4975SOL    HW215825   6.005   5.862   1.031
 4976SOL     OW15826   3.241   0.562   4.113
 4976SOL    HW115827   3.261   0.657   4.088
 4976SOL    HW215828   3.144   0.543   4.098
 4977SOL     OW15829   4.943   3.801   0.865
 4977SOL    HW115830   4.856   3.848   0.878
 4977SOL    HW215831   4.932   3.727   0.799
 4978SOL     OW15832   6.863   3.552   5.475
 4978SOL    HW115833   6.868   3.476   5.410
 4978SOL    HW215834   6.955   3.582   5.499
 4979SOL     OW15835   6.985   2.305   5.090
 4979SOL    HW115836   0.025   2.233   5.066
 4979SOL    HW215837   6.991   2.380   5.023
 4980SOL     OW15838   4.576   6.826   3.488
 4980SOL    HW115839   4.559   6.757   3.559
 4980SOL    HW215840   4.614   6.782   3.407
 4981SOL     OW15841   4.884   6.097   5.868
 4981SOL    HW115842   4.862   6.106   5.770
 4981SOL    HW215843   4.913   6.186   5.904
 4982SOL     OW15844   2.699   1.434   6.377
 4982SOL    HW115845   2.779   1.432   6.438
 4982SOL    HW215846   2.618   1.457   6.430
 4983SOL     OW15847   4.952   3.362   4.266
 4983SOL    HW115848   5.046   3.384   4.293
 4983SOL    HW215849   4.917   3.436   4.208
 4984SOL     OW15850   5.635   3.343   4.299
 4984SOL    HW115851   5.624   3.443   4.307
 4984SOL    HW215852   5.698   3.323   4.223
 4985SOL     OW15853   6.351   6.233   4.019
 4985SOL    HW115854   6.355   6.134   4.007
 4985SOL    HW215855   6.306   6.275   3.940
 4986SOL     OW15856   6.252   4.590   2.755
 4986SOL    HW115857   6.173   4.596   2.816
 4986SOL    HW215858   6.303   4.507   2.774
 4987SOL     OW15859   0.883   2.320   1.102
 4987SOL    HW115860   0.899   2.338   1.199
 4987SOL    HW215861   0.802   2.261   1.093
 4988SOL     OW15862   6.992   1.420   3.752
 4988SOL    HW115863   0.012   1.332   3.742
 4988SOL    HW215864   6.894   1.409   3.738
 4989SOL     OW15865   5.758   1.179   1.634
 4989SOL    HW115866   5.800   1.122   1.564
 4989SOL    HW215867   5.749   1.127   1.719
 4990SOL     OW15868   1.491   2.147   6.479
 4990SOL    HW115869   1.497   2.053   6.511
 4990SOL    HW215870   1.543   2.157   6.393
 4991SOL     OW15871   0.604   2.966   4.361
 4991SOL    HW115872   0.557   2.920   4.285
 4991SOL    HW215873   0.681   2.910   4.392
 4992SOL     OW15874   4.129   0.751   4.250
 4992SOL    HW115875   4.210   0.750   4.191
 4992SOL    HW215876   4.144   0.812   4.327
 4993SOL     OW15877   2.487   4.479   3.928
 4993SOL    HW115878   2.582   4.496   3.956
 4993SOL    HW215879   2.475   4.508   3.833
 4994SOL     OW15880   1.213   0.322   2.315
 4994SOL    HW115881   1.293   0.382   2.319
 4994SOL    HW215882   1.181   0.317   2.220
 4995SOL     OW15883   6.859   3.549   5.757
 4995SOL    HW115884   6.905   3.467   5.791
 4995SOL    HW215885   6.852   3.544   5.658
 4996SOL     OW15886   0.804   0.617   2.346
 4996SOL    HW115887   0.833   0.543   2.406
 4996SOL    HW215888   0.876   0.636   2.279
 4997SOL     OW15889   6.905   2.455   2.914
 4997SOL    HW115890   6.816   2.477   2.874
 4997SOL    HW215891   6.973   2.520   2.880
 4998SOL     OW15892   1.812   4.350   4.983
 4998SOL    HW115893   1.817   4.254   4.956
 4998SOL    HW215894   1.794   4.407   4.903
 4999SOL     OW15895   5.005   5.548   1.576
 4999SOL    HW115896   4.933   5.486   1.607
 4999SOL    HW215897   4.974   5.643   1.584
 5000SOL     OW15898   1.087   0.730   3.841
 5000SOL    HW115899   1.056   0.808   3.787
 5000SOL    HW215900   1.082   0.647   3.786
 5001SOL     OW15901   1.753   3.801   6.171
 5001SOL    HW115902   1.808   3.874   6.211
 5001SOL    HW215903   1.813   3.733   6.129
 5002SOL     OW15904   1.068   2.809   2.884
 5002SOL    HW115905   1.028   2.887   2.934
 5002SOL    HW215906   1.038   2.724   2.926
 5003SOL     OW15907   1.052   6.540   3.551
 5003SOL    HW115908   0.961   6.568   3.523
 5003SOL    HW215909   1.047   6.483   3.633
 5004SOL     OW15910   2.672   6.063   5.785
 5004SOL    HW115911   2.718   6.152   5.786
 5004SOL    HW215912   2.728   5.996   5.834
 5005SOL     OW15913   4.007   1.989   0.380
 5005SOL    HW115914   4.020   1.922   0.452
 5005SOL    HW215915   3.912   2.020   0.379
 5006SOL     OW15916   5.641   0.148   6.249
 5006SOL    HW115917   5.635   0.171   6.346
 5006SOL    HW215918   5.725   0.188   6.211
 5007SOL     OW15919   2.723   0.385   5.893
 5007SOL    HW115920   2.806   0.386   5.948
 5007SOL    HW215921   2.683   0.477   5.891
 5008SOL     OW15922   6.249   0.595   3.659
 5008SOL    HW115923   6.195   0.515   3.632
 5008SOL    HW215924   6.336   0.564   3.698
 5009SOL     OW15925   1.716   6.001   1.578
 5009SOL    HW115926   1.702   6.042   1.668
 5009SOL    HW215927   1.652   6.043   1.513
 5010SOL     OW15928   3.304   3.727   3.900
 5010SOL    HW115929   3.208   3.750   3.886
 5010SOL    HW215930   3.310   3.653   3.967
 5011SOL     OW15931   2.135   3.239   1.953
 5011SOL    HW115932   2.134   3.193   2.041
 5011SOL    HW215933   2.193   3.321   1.959
 5012SOL     OW15934   6.125   2.764   6.282
 5012SOL    HW115935   6.088   2.846   6.325
 5012SOL    HW215936   6.202   2.730   6.337
 5013SOL     OW15937   4.808   0.823   6.663
 5013SOL    HW115938   4.734   0.794   6.724
 5013SOL    HW215939   4.836   0.916   6.687
 5014SOL     OW15940   6.370   5.472   0.589
 5014SOL    HW115941   6.419   5.560   0.591
 5014SOL    HW215942   6.285   5.482   0.537
 5015SOL     OW15943   4.085   1.519   3.917
 5015SOL    HW115944   4.156   1.541   3.849
 5015SOL    HW215945   4.111   1.556   4.006
 5016SOL     OW15946   2.120   1.132   2.491
 5016SOL    HW115947   2.062   1.135   2.410
 5016SOL    HW215948   2.163   1.222   2.504
 5017SOL     OW15949   2.164   2.554   0.702
 5017SOL    HW115950   2.158   2.499   0.619
 5017SOL    HW215951   2.196   2.646   0.680
 5018SOL     OW15952   0.648   4.461   1.968
 5018SOL    HW115953   0.592   4.541   1.944
 5018SOL    HW215954   0.715   4.488   2.037
 5019SOL     OW15955   2.271   4.535   0.445
 5019SOL    HW115956   2.249   4.628   0.474
 5019SOL    HW215957   2.292   4.535   0.347
 5020SOL     OW15958   5.945   6.362   5.427
 5020SOL    HW115959   6.044   6.353   5.430
 5020SOL    HW215960   5.916   6.438   5.485
 5021SOL     OW15961   0.955   4.296   6.397
 5021SOL    HW115962   0.949   4.222   6.464
 5021SOL    HW215963   0.964   4.383   6.445
 5022SOL     OW15964   1.767   0.198   0.731
 5022SOL    HW115965   1.792   0.196   0.828
 5022SOL    HW215966   1.847   0.175   0.675
 5023SOL     OW15967   6.122   2.848   0.741
 5023SOL    HW115968   6.179   2.927   0.765
 5023SOL    HW215969   6.175   2.764   0.752
 5024SOL     OW15970   6.736   4.146   2.668
 5024SOL    HW115971   6.749   4.242   2.690
 5024SOL    HW215972   6.691   4.137   2.579
 5025SOL     OW15973   4.802   1.930   2.333
 5025SOL    HW115974   4.895   1.959   2.310
 5025SOL    HW215975   4.756   1.897   2.250
 5026SOL     OW15976   6.239   6.021   6.040
 5026SOL    HW115977   6.162   5.984   5.987
 5026SOL    HW215978   6.216   6.018   6.137
 5027SOL     OW15979   1.012   6.690   3.024
 5027SOL    HW115980   0.996   6.688   2.926
 5027SOL    HW215981   1.032   6.783   3.053
 5028SOL     OW15982   0.230   5.675   2.175
 5028SOL    HW115983   0.329   5.667   2.182
 5028SOL    HW215984   0.207   5.760   2.127
 5029SOL     OW15985   0.025   3.037   2.962
 5029SOL    HW115986   0.003   3.064   2.868
 5029SOL    HW215987   0.072   2.949   2.961
 5030SOL     OW15988   0.441   0.705   0.048
 5030SOL    HW115989   0.470   0.677   0.139
 5030SOL    HW215990   0.506   0.670   7.006
 5031SOL     OW15991   6.390   1.279   4.413
 5031SOL    HW115992   6.445   1.361   4.428
 5031SOL    HW215993   6.332   1.263   4.493
 5032SOL     OW15994   0.917   4.383   0.710
 5032SOL    HW115995   1.014   4.405   0.713
 5032SOL    HW215996   0.865   4.462   0.677
 5033SOL     OW15997   2.794   5.193   5.555
 5033SOL    HW115998   2.794   5.101   5.515
 5033SOL    HW215999   2.716   5.202   5.617
 5034SOL     OW16000   6.761   3.388   1.892
 5034SOL    HW116001   6.679   3.422   1.846
 5034SOL    HW216002   6.747   3.293   1.920
 5035SOL     OW16003   5.647   4.883   0.968
 5035SOL    HW116004   5.560   4.908   0.926
 5035SOL    HW216005   5.630   4.846   1.059
 5036SOL     OW16006   0.845   6.242   6.158
 5036SOL    HW116007   0.893   6.224   6.244
 5036SOL    HW216008   0.850   6.340   6.138
 5037SOL     OW16009   4.462   1.950   3.391
 5037SOL    HW116010   4.484   1.957   3.294
 5037SOL    HW216011   4.535   1.992   3.445
 5038SOL     OW16012   1.982   5.953   5.664
 5038SOL    HW116013   1.887   5.981   5.681
 5038SOL    HW216014   1.993   5.856   5.686
 5039SOL     OW16015   2.103   3.640   5.046
 5039SOL    HW116016   2.025   3.641   5.107
 5039SOL    HW216017   2.136   3.546   5.036
 5040SOL     OW16018   2.577   3.502   6.745
 5040SOL    HW116019   2.625   3.416   6.726
 5040SOL    HW216020   2.559   3.509   6.843
 5041SOL     OW16021   0.696   3.750   1.144
 5041SOL    HW116022   0.768   3.729   1.077
 5041SOL    HW216023   0.630   3.675   1.146
 5042SOL     OW16024   6.620   2.956   6.690
 5042SOL    HW116025   6.596   3.045   6.729
 5042SOL    HW216026   6.664   2.900   6.760
 5043SOL     OW16027   3.475   1.282   5.353
 5043SOL    HW116028   3.425   1.367   5.338
 5043SOL    HW216029   3.411   1.208   5.373
 5044SOL     OW16030   6.351   6.316   3.582
 5044SOL    HW116031   6.289   6.238   3.574
 5044SOL    HW216032   6.331   6.366   3.666
 5045SOL     OW16033   4.832   3.582   0.399
 5045SOL    HW116034   4.897   3.655   0.422
 5045SOL    HW216035   4.812   3.584   0.301
 5046SOL     OW16036   3.622   2.922   5.063
 5046SOL    HW116037   3.607   3.018   5.087
 5046SOL    HW216038   3.621   2.867   5.147
 5047SOL     OW16039   6.131   1.464   2.590
 5047SOL    HW116040   6.041   1.431   2.619
 5047SOL    HW216041   6.188   1.481   2.671
 5048SOL     OW16042   6.785   2.367   2.079
 5048SOL    HW116043   6.762   2.276   2.044
 5048SOL    HW216044   6.737   2.382   2.165
 5049SOL     OW16045   6.425   1.161   3.044
 5049SOL    HW116046   6.435   1.257   3.070
 5049SOL    HW216047   6.480   1.104   3.105
 5050SOL     OW16048   0.408   1.459   1.853
 5050SOL    HW116049   0.422   1.537   1.914
 5050SOL    HW216050   0.316   1.421   1.866
 5051SOL     OW16051   3.479   4.035   1.112
 5051SOL    HW116052   3.436   4.068   1.196
 5051SOL    HW216053   3.448   3.942   1.092
 5052SOL     OW16054   3.279   4.653   0.405
 5052SOL    HW116055   3.226   4.710   0.342
 5052SOL    HW216056   3.344   4.598   0.352
 5053SOL     OW16057   2.224   3.894   2.311
 5053SOL    HW116058   2.315   3.867   2.279
 5053SOL    HW216059   2.208   3.990   2.288
 5054SOL     OW16060   3.923   5.702   5.428
 5054SOL    HW116061   3.862   5.777   5.452
 5054SOL    HW216062   3.954   5.713   5.333
 5055SOL     OW16063   0.612   1.838   4.863
 5055SOL    HW116064   0.525   1.816   4.908
 5055SOL    HW216065   0.674   1.880   4.930
 5056SOL     OW16066   0.240   3.934   6.462
 5056SOL    HW116067   0.276   4.025   6.484
 5056SOL    HW216068   0.311   3.865   6.478
 5057SOL     OW16069   0.898   5.216   3.197
 5057SOL    HW116070   0.888   5.311   3.166
 5057SOL    HW216071   0.907   5.156   3.117
 5058SOL     OW16072   3.657   3.899   6.462
 5058SOL    HW116073   3.753   3.885   6.485
 5058SOL    HW216074   3.622   3.819   6.412
 5059SOL     OW16075   4.589   2.775   4.977
 5059SOL    HW116076   4.538   2.784   4.892
 5059SOL    HW216077   4.609   2.678   4.994
 5060SOL     OW16078   6.873   3.323   4.972
 5060SOL    HW116079   6.878   3.228   4.943
 5060SOL    HW216080   6.805   3.371   4.916
 5061SOL     OW16081   2.912   3.284   4.031
 5061SOL    HW116082   2.942   3.368   4.077
 5061SOL    HW216083   2.823   3.256   4.068
 5062SOL     OW16084   5.055   1.805   2.988
 5062SOL    HW116085   5.059   1.788   2.889
 5062SOL    HW216086   5.146   1.830   3.021
 5063SOL     OW16087   1.251   6.643   1.871
 5063SOL    HW116088   1.210   6.576   1.933
 5063SOL    HW216089   1.347   6.657   1.898
 5064SOL     OW16090   4.678   4.996   1.131
 5064SOL    HW116091   4.708   4.966   1.040
 5064SOL    HW216092   4.758   5.019   1.186
 5065SOL     OW16093   1.412   0.656   3.387
 5065SOL    HW116094   1.368   0.694   3.305
 5065SOL    HW216095   1.505   0.627   3.364
 5066SOL     OW16096   2.250   4.079   1.930
 5066SOL    HW116097   2.266   4.068   1.832
 5066SOL    HW216098   2.168   4.028   1.956
 5067SOL     OW16099   4.039   2.174   2.043
 5067SOL    HW116100   4.096   2.216   2.114
 5067SOL    HW216101   4.087   2.095   2.005
 5068SOL     OW16102   3.291   5.694   0.282
 5068SOL    HW116103   3.295   5.776   0.225
 5068SOL    HW216104   3.199   5.655   0.278
 5069SOL     OW16105   2.176   3.171   5.579
 5069SOL    HW116106   2.091   3.157   5.529
 5069SOL    HW216107   2.254   3.155   5.517
 5070SOL     OW16108   5.910   3.979   3.919
 5070SOL    HW116109   5.817   4.013   3.905
 5070SOL    HW216110   5.922   3.956   4.015
 5071SOL     OW16111   3.892   1.829   3.684
 5071SOL    HW116112   3.942   1.915   3.689
 5071SOL    HW216113   3.800   1.842   3.721
 5072SOL     OW16114   1.890   1.142   1.000
 5072SOL    HW116115   1.883   1.241   0.988
 5072SOL    HW216116   1.980   1.111   0.972
 5073SOL     OW16117   2.366   6.402   1.655
 5073SOL    HW116118   2.268   6.405   1.674
 5073SOL    HW216119   2.397   6.307   1.650
 5074SOL     OW16120   3.508   1.442   1.765
 5074SOL    HW116121   3.597   1.404   1.789
 5074SOL    HW216122   3.509   1.468   1.668
 5075SOL     OW16123   1.353   2.699   0.211
 5075SOL    HW116124   1.306   2.783   0.239
 5075SOL    HW216125   1.443   2.722   0.173
 5076SOL     OW16126   5.542   0.374   0.009
 5076SOL    HW116127   5.510   0.307   6.967
 5076SOL    HW216128   5.636   0.353   0.035
 5077SOL     OW16129   1.528   3.618   5.873
 5077SOL    HW116130   1.608   3.561   5.855
 5077SOL    HW216131   1.513   3.680   5.795
 5078SOL     OW16132   0.731   1.089   4.645
 5078SOL    HW116133   0.780   1.161   4.693
 5078SOL    HW216134   0.793   1.014   4.624
 5079SOL     OW16135   1.901   1.867   5.582
 5079SOL    HW116136   1.936   1.775   5.595
 5079SOL    HW216137   1.973   1.933   5.602
 5080SOL     OW16138   6.119   5.614   5.660
 5080SOL    HW116139   6.122   5.700   5.609
 5080SOL    HW216140   6.183   5.619   5.737
 5081SOL     OW16141   2.560   4.989   4.985
 5081SOL    HW116142   2.507   4.907   5.007
 5081SOL    HW216143   2.657   4.969   4.992
 5082SOL     OW16144   4.847   6.740   0.104
 5082SOL    HW116145   4.857   6.837   0.085
 5082SOL    HW216146   4.803   6.695   0.026
 5083SOL     OW16147   3.241   0.333   1.532
 5083SOL    HW116148   3.318   0.272   1.555
 5083SOL    HW216149   3.197   0.364   1.616
 5084SOL     OW16150   0.824   5.201   4.788
 5084SOL    HW116151   0.915   5.162   4.799
 5084SOL    HW216152   0.764   5.167   4.859
 5085SOL     OW16153   1.130   2.419   6.158
 5085SOL    HW116154   1.053   2.459   6.107
 5085SOL    HW216155   1.174   2.349   6.102
 5086SOL     OW16156   0.925   4.277   2.217
 5086SOL    HW116157   0.855   4.226   2.168
 5086SOL    HW216158   0.977   4.333   2.153
 5087SOL     OW16159   6.701   5.167   2.162
 5087SOL    HW116160   6.793   5.206   2.152
 5087SOL    HW216161   6.701   5.101   2.236
 5088SOL     OW16162   4.344   6.373   2.910
 5088SOL    HW116163   4.364   6.336   2.820
 5088SOL    HW216164   4.416   6.347   2.974
 5089SOL     OW16165   5.881   4.226   4.208
 5089SOL    HW116166   5.919   4.135   4.191
 5089SOL    HW216167   5.951   4.282   4.253
 5090SOL     OW16168   2.191   0.616   3.362
 5090SOL    HW116169   2.268   0.639   3.302
 5090SOL    HW216170   2.158   0.699   3.407
 5091SOL     OW16171   6.600   0.426   0.694
 5091SOL    HW116172   6.629   0.371   0.773
 5091SOL    HW216173   6.566   0.514   0.725
 5092SOL     OW16174   4.022   3.366   4.033
 5092SOL    HW116175   3.947   3.352   4.098
 5092SOL    HW216176   4.025   3.289   3.969
 5093SOL     OW16177   2.570   1.637   1.441
 5093SOL    HW116178   2.569   1.643   1.540
 5093SOL    HW216179   2.607   1.722   1.403
 5094SOL     OW16180   2.156   6.264   6.689
 5094SOL    HW116181   2.082   6.223   6.634
 5094SOL    HW216182   2.129   6.356   6.717
 5095SOL     OW16183   0.267   1.516   3.023
 5095SOL    HW116184   0.249   1.561   3.110
 5095SOL    HW216185   0.333   1.442   3.036
 5096SOL     OW16186   5.813   4.643   6.437
 5096SOL    HW116187   5.718   4.613   6.447
 5096SOL    HW216188   5.830   4.669   6.342
 5097SOL     OW16189   6.628   0.535   0.134
 5097SOL    HW116190   6.649   0.602   0.063
 5097SOL    HW216191   6.714   0.498   0.170
 5098SOL     OW16192   3.663   2.324   1.433
 5098SOL    HW116193   3.734   2.382   1.473
 5098SOL    HW216194   3.642   2.250   1.497
 5099SOL     OW16195   0.426   6.257   1.458
 5099SOL    HW116196   0.455   6.166   1.428
 5099SOL    HW216197   0.505   6.318   1.459
 5100SOL     OW16198   3.651   5.267   3.338
 5100SOL    HW116199   3.644   5.265   3.438
 5100SOL    HW216200   3.625   5.178   3.301
 5101SOL     OW16201   3.827   0.833   4.445
 5101SOL    HW116202   3.926   0.841   4.449
 5101SOL    HW216203   3.786   0.923   4.430
 5102SOL     OW16204   5.125   5.654   4.387
 5102SOL    HW116205   5.084   5.661   4.296
 5102SOL    HW216206   5.153   5.560   4.404
 5103SOL     OW16207   0.801   1.375   4.516
 5103SOL    HW116208   0.806   1.380   4.416
 5103SOL    HW216209   0.706   1.359   4.544
 5104SOL     OW16210   3.431   5.942   1.952
 5104SOL    HW116211   3.349   5.947   2.009
 5104SOL    HW216212   3.509   5.975   2.004
 5105SOL     OW16213   3.428   3.402   6.666
 5105SOL    HW116214   3.341   3.354   6.658
 5105SOL    HW216215   3.418   3.496   6.633
 5106SOL     OW16216   4.117   1.734   1.215
 5106SOL    HW116217   4.028   1.690   1.222
 5106SOL    HW216218   4.117   1.818   1.270
 5107SOL     OW16219   4.721   2.461   1.117
 5107SOL    HW116220   4.720   2.543   1.175
 5107SOL    HW216221   4.716   2.380   1.175
 5108SOL     OW16222   3.998   4.055   5.539
 5108SOL    HW116223   3.970   4.122   5.470
 5108SOL    HW216224   4.008   4.099   5.628
 5109SOL     OW16225   1.123   2.490   1.050
 5109SOL    HW116226   1.164   2.530   1.131
 5109SOL    HW216227   1.143   2.393   1.046
 5110SOL     OW16228   0.144   0.461   6.258
 5110SOL    HW116229   0.055   0.507   6.268
 5110SOL    HW216230   0.214   0.512   6.309
 5111SOL     OW16231   1.217   7.021   4.401
 5111SOL    HW116232   1.297   7.003   4.344
 5111SOL    HW216233   1.207   6.948   4.468
 5112SOL     OW16234   0.318   0.226   3.003
 5112SOL    HW116235   0.248   0.297   3.000
 5112SOL    HW216236   0.337   0.202   3.098
 5113SOL     OW16237   1.248   6.020   1.307
 5113SOL    HW116238   1.200   5.953   1.363
 5113SOL    HW216239   1.346   5.999   1.306
 5114SOL     OW16240   3.875   6.700   0.592
 5114SOL    HW116241   3.789   6.672   0.549
 5114SOL    HW216242   3.924   6.618   0.624
 5115SOL     OW16243   1.758   3.960   2.147
 5115SOL    HW116244   1.774   3.934   2.243
 5115SOL    HW216245   1.810   3.898   2.088
 5116SOL     OW16246   1.991   6.533   0.056
 5116SOL    HW116247   1.973   6.439   0.085
 5116SOL    HW216248   2.082   6.561   0.088
 5117SOL     OW16249   1.068   3.433   3.959
 5117SOL    HW116250   1.150   3.469   4.002
 5117SOL    HW216251   1.002   3.407   4.029
 5118SOL     OW16252   6.092   6.649   0.149
 5118SOL    HW116253   6.132   6.637   0.240
 5118SOL    HW216254   5.992   6.654   0.156
 5119SOL     OW16255   4.687   1.555   1.186
 5119SOL    HW116256   4.753   1.514   1.248
 5119SOL    HW216257   4.594   1.531   1.214
 5120SOL     OW16258   5.053   6.711   5.055
 5120SOL    HW116259   5.102   6.793   5.023
 5120SOL    HW216260   4.987   6.737   5.125
 5121SOL     OW16261   3.399   3.592   0.278
 5121SOL    HW116262   3.403   3.618   0.374
 5121SOL    HW216263   3.343   3.510   0.268
 5122SOL     OW16264   3.743   6.292   3.320
 5122SOL    HW116265   3.698   6.320   3.405
 5122SOL    HW216266   3.807   6.218   3.339
 5123SOL     OW16267   5.273   2.462   3.408
 5123SOL    HW116268   5.349   2.456   3.473
 5123SOL    HW216269   5.308   2.491   3.319
 5124SOL     OW16270   1.988   6.782   3.393
 5124SOL    HW116271   1.946   6.719   3.459
 5124SOL    HW216272   1.961   6.755   3.301
 5125SOL     OW16273   0.510   2.130   2.737
 5125SOL    HW116274   0.482   2.119   2.642
 5125SOL    HW216275   0.430   2.150   2.793
 5126SOL     OW16276   1.083   6.453   0.100
 5126SOL    HW116277   1.015   6.503   0.046
 5126SOL    HW216278   1.105   6.506   0.182
 5127SOL     OW16279   0.954   5.564   6.938
 5127SOL    HW116280   1.032   5.502   6.950
 5127SOL    HW216281   0.974   5.652   6.980
 5128SOL     OW16282   6.594   6.861   0.814
 5128SOL    HW116283   6.573   6.893   0.721
 5128SOL    HW216284   6.525   6.794   0.842
 5129SOL     OW16285   5.256   6.429   2.460
 5129SOL    HW116286   5.180   6.399   2.517
 5129SOL    HW216287   5.236   6.519   2.422
 5130SOL     OW16288   6.955   5.068   2.845
 5130SOL    HW116289   6.983   5.070   2.941
 5130SOL    HW216290   6.880   5.133   2.831
 5131SOL     OW16291   1.748   3.542   4.377
 5131SOL    HW116292   1.763   3.570   4.472
 5131SOL    HW216293   1.681   3.468   4.374
 5132SOL     OW16294   4.371   2.679   6.288
 5132SOL    HW116295   4.373   2.777   6.267
 5132SOL    HW216296   4.433   2.661   6.364
 5133SOL     OW16297   3.249   4.860   0.590
 5133SOL    HW116298   3.261   4.773   0.543
 5133SOL    HW216299   3.322   4.923   0.565
 5134SOL     OW16300   0.179   2.694   1.660
 5134SOL    HW116301   0.258   2.736   1.616
 5134SOL    HW216302   0.140   2.625   1.600
 5135SOL     OW16303   6.394   2.416   5.429
 5135SOL    HW116304   6.484   2.372   5.430
 5135SOL    HW216305   6.357   2.420   5.522
 5136SOL     OW16306   5.082   0.117   5.952
 5136SOL    HW116307   5.137   0.042   5.986
 5136SOL    HW216308   4.991   0.083   5.928
 5137SOL     OW16309   6.120   3.251   6.433
 5137SOL    HW116310   6.086   3.275   6.342
 5137SOL    HW216311   6.086   3.316   6.500
 5138SOL     OW16312   3.414   2.639   5.968
 5138SOL    HW116313   3.458   2.719   5.927
 5138SOL    HW216314   3.459   2.617   6.054
 5139SOL     OW16315   0.822   6.707   3.477
 5139SOL    HW116316   0.887   6.779   3.453
 5139SOL    HW216317   0.729   6.743   3.475
 5140SOL     OW16318   3.149   1.356   0.213
 5140SOL    HW116319   3.185   1.408   0.290
 5140SOL    HW216320   3.107   1.419   0.147
 5141SOL     OW16321   6.375   3.532   0.460
 5141SOL    HW116322   6.377   3.500   0.555
 5141SOL    HW216323   6.395   3.630   0.457
 5142SOL     OW16324   6.224   1.707   4.320
 5142SOL    HW116325   6.307   1.755   4.294
 5142SOL    HW216326   6.158   1.710   4.245
 5143SOL     OW16327   0.582   4.043   3.546
 5143SOL    HW116328   0.680   4.036   3.564
 5143SOL    HW216329   0.554   3.971   3.483
 5144SOL     OW16330   0.930   6.556   6.504
 5144SOL    HW116331   0.864   6.516   6.568
 5144SOL    HW216332   0.972   6.483   6.450
 5145SOL     OW16333   2.362   5.329   5.758
 5145SOL    HW116334   2.366   5.370   5.667
 5145SOL    HW216335   2.374   5.400   5.827
 5146SOL     OW16336   4.591   3.693   6.306
 5146SOL    HW116337   4.533   3.769   6.275
 5146SOL    HW216338   4.631   3.717   6.395
 5147SOL     OW16339   0.269   4.127   2.084
 5147SOL    HW116340   0.281   4.219   2.048
 5147SOL    HW216341   0.358   4.091   2.113
 5148SOL     OW16342   0.519   6.382   1.175
 5148SOL    HW116343   0.440   6.408   1.121
 5148SOL    HW216344   0.593   6.448   1.160
 5149SOL     OW16345   5.862   6.343   4.677
 5149SOL    HW116346   5.873   6.380   4.585
 5149SOL    HW216347   5.778   6.379   4.718
 5150SOL     OW16348   2.330   4.713   3.457
 5150SOL    HW116349   2.356   4.650   3.384
 5150SOL    HW216350   2.376   4.801   3.443
 5151SOL     OW16351   5.405   1.127   0.578
 5151SOL    HW116352   5.339   1.121   0.503
 5151SOL    HW216353   5.490   1.082   0.552
 5152SOL     OW16354   1.921   4.795   6.001
 5152SOL    HW116355   1.833   4.786   5.953
 5152SOL    HW216356   1.996   4.795   5.934
 5153SOL     OW16357   2.206   0.841   6.219
 5153SOL    HW116358   2.130   0.818   6.279
 5153SOL    HW216359   2.192   0.932   6.180
 5154SOL     OW16360   1.975   2.908   6.431
 5154SOL    HW116361   2.007   2.953   6.348
 5154SOL    HW216362   1.919   2.971   6.484
 5155SOL     OW16363   3.750   6.563   2.053
 5155SOL    HW116364   3.799   6.495   1.998
 5155SOL    HW216365   3.805   6.587   2.133
 5156SOL     OW16366   6.666   3.243   5.636
 5156SOL    HW116367   6.619   3.235   5.548
 5156SOL    HW216368   6.763   3.263   5.619
 5157SOL     OW16369   4.631   2.608   3.845
 5157SOL    HW116370   4.570   2.540   3.804
 5157SOL    HW216371   4.644   2.684   3.782
 5158SOL     OW16372   3.527   1.739   1.521
 5158SOL    HW116373   3.451   1.793   1.555
 5158SOL    HW216374   3.576   1.791   1.451
 5159SOL     OW16375   0.724   3.085   5.050
 5159SOL    HW116376   0.679   3.000   5.074
 5159SOL    HW216377   0.705   3.154   5.119
 5160SOL     OW16378   0.744   3.593   3.958
 5160SOL    HW116379   0.822   3.650   3.982
 5160SOL    HW216380   0.664   3.651   3.943
 5161SOL     OW16381   1.314   3.840   5.024
 5161SOL    HW116382   1.378   3.828   4.948
 5161SOL    HW216383   1.252   3.916   5.003
 5162SOL     OW16384   0.681   5.194   4.034
 5162SOL    HW116385   0.698   5.265   4.102
 5162SOL    HW216386   0.584   5.172   4.031
 5163SOL     OW16387   3.744   5.083   1.406
 5163SOL    HW116388   3.684   5.024   1.353
 5163SOL    HW216389   3.838   5.071   1.375
 5164SOL     OW16390   6.295   2.374   5.911
 5164SOL    HW116391   6.322   2.375   6.007
 5164SOL    HW216392   6.222   2.306   5.898
 5165SOL     OW16393   5.698   4.123   5.059
 5165SOL    HW116394   5.607   4.111   5.020
 5165SOL    HW216395   5.693   4.187   5.135
 5166SOL     OW16396   1.411   5.219   1.646
 5166SOL    HW116397   1.369   5.248   1.732
 5166SOL    HW216398   1.500   5.264   1.637
 5167SOL     OW16399   6.322   0.422   5.636
 5167SOL    HW116400   6.383   0.500   5.621
 5167SOL    HW216401   6.264   0.410   5.555
 5168SOL     OW16402   4.924   2.277   3.087
 5168SOL    HW116403   4.869   2.359   3.071
 5168SOL    HW216404   5.021   2.300   3.083
 5169SOL     OW16405   3.295   2.954   5.692
 5169SOL    HW116406   3.378   2.920   5.737
 5169SOL    HW216407   3.244   2.876   5.654
 5170SOL     OW16408   0.170   4.180   5.832
 5170SOL    HW116409   0.192   4.082   5.825
 5170SOL    HW216410   0.240   4.233   5.783
 5171SOL     OW16411   2.311   5.136   4.574
 5171SOL    HW116412   2.308   5.039   4.597
 5171SOL    HW216413   2.388   5.153   4.514
 5172SOL     OW16414   0.626   2.992   2.109
 5172SOL    HW116415   0.666   2.919   2.164
 5172SOL    HW216416   0.581   3.058   2.168
 5173SOL     OW16417   5.999   4.403   6.358
 5173SOL    HW116418   5.900   4.390   6.367
 5173SOL    HW216419   6.016   4.481   6.297
 5174SOL     OW16420   1.931   4.647   4.294
 5174SOL    HW116421   2.017   4.698   4.295
 5174SOL    HW216422   1.942   4.566   4.236
 5175SOL     OW16423   2.401   4.020   6.730
 5175SOL    HW116424   2.332   4.093   6.719
 5175SOL    HW216425   2.491   4.057   6.708
 5176SOL     OW16426   4.231   3.010   1.104
 5176SOL    HW116427   4.199   3.105   1.098
 5176SOL    HW216428   4.301   3.003   1.174
 5177SOL     OW16429   4.841   6.992   5.903
 5177SOL    HW116430   4.848   6.895   5.923
 5177SOL    HW216431   4.754   7.010   5.857
 5178SOL     OW16432   2.505   2.694   1.119
 5178SOL    HW116433   2.484   2.792   1.111
 5178SOL    HW216434   2.577   2.681   1.187
 5179SOL     OW16435   4.794   5.899   5.391
 5179SOL    HW116436   4.832   5.884   5.300
 5179SOL    HW216437   4.744   5.818   5.420
 5180SOL     OW16438   2.927   2.634   6.126
 5180SOL    HW116439   2.876   2.689   6.192
 5180SOL    HW216440   3.019   2.671   6.115
 5181SOL     OW16441   4.891   0.996   2.937
 5181SOL    HW116442   4.821   0.992   2.865
 5181SOL    HW216443   4.980   1.011   2.895
 5182SOL     OW16444   5.244   5.071   1.453
 5182SOL    HW116445   5.176   5.011   1.494
 5182SOL    HW216446   5.267   5.144   1.518
 5183SOL     OW16447   4.676   6.998   2.107
 5183SOL    HW116448   4.697   0.019   2.193
 5183SOL    HW216449   4.691   6.900   2.118
 5184SOL     OW16450   0.728   1.425   3.826
 5184SOL    HW116451   0.747   1.520   3.799
 5184SOL    HW216452   0.794   1.364   3.782
 5185SOL     OW16453   4.683   6.941   3.075
 5185SOL    HW116454   4.601   6.987   3.109
 5185SOL    HW216455   4.684   6.943   2.975
 5186SOL     OW16456   6.215   3.853   0.823
 5186SOL    HW116457   6.302   3.831   0.868
 5186SOL    HW216458   6.221   3.828   0.726
 5187SOL     OW16459   6.346   1.338   3.400
 5187SOL    HW116460   6.399   1.327   3.484
 5187SOL    HW216461   6.270   1.402   3.416
 5188SOL     OW16462   0.582   5.062   0.792
 5188SOL    HW116463   0.636   5.050   0.876
 5188SOL    HW216464   0.606   5.148   0.749
 5189SOL     OW16465   4.685   5.199   0.595
 5189SOL    HW116466   4.600   5.237   0.559
 5189SOL    HW216467   4.667   5.154   0.683
 5190SOL     OW16468   0.965   2.312   4.185
 5190SOL    HW116469   0.910   2.245   4.135
 5190SOL    HW216470   0.996   2.272   4.271
 5191SOL     OW16471   3.746   0.785   1.586
 5191SOL    HW116472   3.749   0.718   1.513
 5191SOL    HW216473   3.669   0.764   1.647
 5192SOL     OW16474   4.479   5.782   2.386
 5192SOL    HW116475   4.527   5.783   2.299
 5192SOL    HW216476   4.432   5.695   2.397
 5193SOL     OW16477   4.835   4.500   3.915
 5193SOL    HW116478   4.922   4.542   3.890
 5193SOL    HW216479   4.766   4.571   3.927
 5194SOL     OW16480   4.873   7.006   6.255
 5194SOL    HW116481   4.777   7.008   6.279
 5194SOL    HW216482   4.895   6.921   6.207
 5195SOL     OW16483   6.463   6.330   4.598
 5195SOL    HW116484   6.438   6.321   4.502
 5195SOL    HW216485   6.562   6.324   4.607
 5196SOL     OW16486   0.905   3.685   0.707
 5196SOL    HW116487   0.910   3.586   0.694
 5196SOL    HW216488   0.819   3.719   0.671
 5197SOL     OW16489   2.010   6.115   4.247
 5197SOL    HW116490   1.974   6.187   4.306
 5197SOL    HW216491   1.941   6.089   4.180
 5198SOL     OW16492   3.268   0.296   4.419
 5198SOL    HW116493   3.222   0.250   4.344
 5198SOL    HW216494   3.271   0.395   4.402
 5199SOL     OW16495   2.432   5.918   0.984
 5199SOL    HW116496   2.360   5.895   1.049
 5199SOL    HW216497   2.416   5.870   0.898
 5200SOL     OW16498   0.983   2.102   4.920
 5200SOL    HW116499   1.025   2.192   4.924
 5200SOL    HW216500   0.971   2.075   4.824
 5201SOL     OW16501   5.373   5.585   4.118
 5201SOL    HW116502   5.389   5.678   4.153
 5201SOL    HW216503   5.461   5.543   4.094
 5202SOL     OW16504   5.291   3.598   6.578
 5202SOL    HW116505   5.232   3.517   6.577
 5202SOL    HW216506   5.323   3.614   6.671
 5203SOL     OW16507   1.610   0.428   6.068
 5203SOL    HW116508   1.665   0.435   6.151
 5203SOL    HW216509   1.636   0.346   6.018
 5204SOL     OW16510   3.046   6.799   6.670
 5204SOL    HW116511   2.984   6.855   6.615
 5204SOL    HW216512   2.994   6.723   6.711
 5205SOL     OW16513   0.131   5.589   6.788
 5205SOL    HW116514   0.126   5.680   6.746
 5205SOL    HW216515   0.197   5.590   6.862
 5206SOL     OW16516   0.348   5.324   5.695
 5206SOL    HW116517   0.263   5.336   5.746
 5206SOL    HW216518   0.418   5.284   5.754
 5207SOL     OW16519   0.290   0.355   3.972
 5207SOL    HW116520   0.380   0.371   3.931
 5207SOL    HW216521   0.292   0.271   4.027
 5208SOL     OW16522   4.571   2.328   6.994
 5208SOL    HW116523   4.635   2.326   6.917
 5208SOL    HW216524   4.539   2.421   7.009
 5209SOL     OW16525   4.992   0.146   2.509
 5209SOL    HW116526   4.967   0.071   2.571
 5209SOL    HW216527   5.020   0.225   2.563
 5210SOL     OW16528   5.257   4.047   0.888
 5210SOL    HW116529   5.302   4.107   0.822
 5210SOL    HW216530   5.163   4.030   0.860
 5211SOL     OW16531   5.107   1.890   4.582
 5211SOL    HW116532   5.065   1.939   4.658
 5211SOL    HW216533   5.067   1.920   4.496
 5212SOL     OW16534   1.235   2.538   0.701
 5212SOL    HW116535   1.170   2.462   0.711
 5212SOL    HW216536   1.270   2.539   0.607
 5213SOL     OW16537   4.164   3.793   2.005
 5213SOL    HW116538   4.259   3.808   2.033
 5213SOL    HW216539   4.161   3.736   1.923
 5214SOL     OW16540   5.022   4.473   6.118
 5214SOL    HW116541   5.058   4.382   6.099
 5214SOL    HW216542   5.096   4.533   6.148
 5215SOL     OW16543   0.047   3.554   3.970
 5215SOL    HW116544   0.036   3.462   4.007
 5215SOL    HW216545   6.983   3.597   3.959
 5216SOL     OW16546   4.781   5.542   1.217
 5216SOL    HW116547   4.683   5.562   1.214
 5216SOL    HW216548   4.832   5.626   1.231
 5217SOL     OW16549   3.872   5.544   4.210
 5217SOL    HW116550   3.958   5.590   4.189
 5217SOL    HW216551   3.889   5.448   4.230
 5218SOL     OW16552   0.576   1.334   0.774
 5218SOL    HW116553   0.494   1.390   0.783
 5218SOL    HW216554   0.657   1.392   0.777
 5219SOL     OW16555   3.328   1.453   4.499
 5219SOL    HW116556   3.273   1.480   4.578
 5219SOL    HW216557   3.417   1.498   4.503
 5220SOL     OW16558   1.413   4.888   2.976
 5220SOL    HW116559   1.469   4.964   2.944
 5220SOL    HW216560   1.341   4.923   3.036
 5221SOL     OW16561   0.167   0.148   1.500
 5221SOL    HW116562   0.193   0.235   1.457
 5221SOL    HW216563   0.132   0.165   1.592
 5222SOL     OW16564   3.792   5.569   2.169
 5222SOL    HW116565   3.804   5.665   2.141
 5222SOL    HW216566   3.804   5.510   2.089
 5223SOL     OW16567   0.072   2.404   1.266
 5223SOL    HW116568   0.070   2.315   1.220
 5223SOL    HW216569   7.006   2.441   1.272
 5224SOL     OW16570   0.854   1.986   4.204
 5224SOL    HW116571   0.926   1.982   4.273
 5224SOL    HW216572   0.765   1.972   4.248
 5225SOL     OW16573   6.856   1.338   4.401
 5225SOL    HW116574   6.884   1.260   4.346
 5225SOL    HW216575   6.803   1.401   4.344
 5226SOL     OW16576   0.387   5.540   3.472
 5226SOL    HW116577   0.395   5.498   3.382
 5226SOL    HW216578   0.300   5.514   3.513
 5227SOL     OW16579   0.525   3.685   5.881
 5227SOL    HW116580   0.445   3.734   5.846
 5227SOL    HW216581   0.496   3.628   5.959
 5228SOL     OW16582   0.648   2.506   6.866
 5228SOL    HW116583   0.748   2.507   6.873
 5228SOL    HW216584   0.614   2.416   6.890
 5229SOL     OW16585   3.400   6.124   6.403
 5229SOL    HW116586   3.402   6.184   6.323
 5229SOL    HW216587   3.439   6.035   6.379
 5230SOL     OW16588   6.813   0.156   2.609
 5230SOL    HW116589   6.837   0.183   2.516
 5230SOL    HW216590   6.734   0.209   2.639
 5231SOL     OW16591   5.043   1.636   3.469
 5231SOL    HW116592   5.078   1.545   3.448
 5231SOL    HW216593   5.019   1.683   3.384
 5232SOL     OW16594   1.523   4.127   6.034
 5232SOL    HW116595   1.499   4.055   6.099
 5232SOL    HW216596   1.622   4.143   6.036
 5233SOL     OW16597   3.149   0.633   2.198
 5233SOL    HW116598   3.051   0.632   2.183
 5233SOL    HW216599   3.181   0.727   2.207
 5234SOL     OW16600   2.994   3.562   6.877
 5234SOL    HW116601   3.039   3.492   6.930
 5234SOL    HW216602   2.955   3.521   6.794
 5235SOL     OW16603   2.109   2.322   0.387
 5235SOL    HW116604   2.022   2.345   0.344
 5235SOL    HW216605   2.107   2.226   0.416
 5236SOL     OW16606   3.150   4.902   1.649
 5236SOL    HW116607   3.216   4.907   1.724
 5236SOL    HW216608   3.096   4.818   1.658
 5237SOL     OW16609   2.347   1.464   4.508
 5237SOL    HW116610   2.349   1.366   4.530
 5237SOL    HW216611   2.397   1.514   4.579
 5238SOL     OW16612   1.007   4.699   1.913
 5238SOL    HW116613   0.944   4.693   1.836
 5238SOL    HW216614   1.088   4.644   1.893
 5239SOL     OW16615   3.539   3.649   1.100
 5239SOL    HW116616   3.608   3.687   1.038
 5239SOL    HW216617   3.453   3.698   1.087
 5240SOL     OW16618   2.690   2.473   5.239
 5240SOL    HW116619   2.640   2.560   5.232
 5240SOL    HW216620   2.785   2.488   5.215
 5241SOL     OW16621   1.181   5.834   2.133
 5241SOL    HW116622   1.123   5.832   2.214
 5241SOL    HW216623   1.125   5.818   2.051
 5242SOL     OW16624   4.973   0.378   1.946
 5242SOL    HW116625   4.878   0.353   1.926
 5242SOL    HW216626   5.034   0.328   1.886
 5243SOL     OW16627   2.235   5.973   1.441
 5243SOL    HW116628   2.288   5.964   1.525
 5243SOL    HW216629   2.138   5.981   1.464
 5244SOL     OW16630   4.879   3.160   0.030
 5244SOL    HW116631   4.791   3.148   0.078
 5244SOL    HW216632   4.951   3.116   0.083
 5245SOL     OW16633   4.204   4.054   0.447
 5245SOL    HW116634   4.231   4.109   0.526
 5245SOL    HW216635   4.148   3.977   0.479
 5246SOL     OW16636   6.282   2.310   2.306
 5246SOL    HW116637   6.359   2.371   2.283
 5246SOL    HW216638   6.221   2.303   2.227
 5247SOL     OW16639   3.571   0.956   5.655
 5247SOL    HW116640   3.579   1.054   5.636
 5247SOL    HW216641   3.500   0.917   5.597
 5248SOL     OW16642   0.175   1.989   2.800
 5248SOL    HW116643   0.237   2.011   2.724
 5248SOL    HW216644   0.126   2.072   2.828
 5249SOL     OW16645   1.789   5.303   6.528
 5249SOL    HW116646   1.808   5.246   6.448
 5249SOL    HW216647   1.831   5.263   6.609
 5250SOL     OW16648   1.467   5.855   0.315
 5250SOL    HW116649   1.555   5.829   0.356
 5250SOL    HW216650   1.478   5.942   0.265
 5251SOL     OW16651   0.961   4.706   0.911
 5251SOL    HW116652   1.059   4.698   0.926
 5251SOL    HW216653   0.938   4.665   0.823
 5252SOL     OW16654   2.773   6.741   2.430
 5252SOL    HW116655   2.701   6.807   2.407
 5252SOL    HW216656   2.829   6.778   2.504
 5253SOL     OW16657   6.176   4.493   4.805
 5253SOL    HW116658   6.169   4.419   4.738
 5253SOL    HW216659   6.266   4.536   4.799
 5254SOL     OW16660   5.829   0.486   3.732
 5254SOL    HW116661   5.811   0.433   3.814
 5254SOL    HW216662   5.798   0.580   3.745
 5255SOL     OW16663   5.673   2.262   4.656
 5255SOL    HW116664   5.582   2.228   4.630
 5255SOL    HW216665   5.720   2.193   4.710
 5256SOL     OW16666   5.080   1.709   3.762
 5256SOL    HW116667   5.097   1.652   3.682
 5256SOL    HW216668   5.026   1.657   3.829
 5257SOL     OW16669   4.628   6.937   0.753
 5257SOL    HW116670   4.620   0.011   0.762
 5257SOL    HW216671   4.553   6.893   0.801
 5258SOL     OW16672   5.358   1.910   2.977
 5258SOL    HW116673   5.337   1.995   2.928
 5258SOL    HW216674   5.412   1.851   2.918
 5259SOL     OW16675   4.739   5.197   2.649
 5259SOL    HW116676   4.773   5.206   2.743
 5259SOL    HW216677   4.807   5.150   2.593
 5260SOL     OW16678   3.698   5.415   0.249
 5260SOL    HW116679   3.730   5.444   0.159
 5260SOL    HW216680   3.609   5.457   0.268
 5261SOL     OW16681   0.548   4.452   0.373
 5261SOL    HW116682   0.630   4.510   0.372
 5261SOL    HW216683   0.546   4.393   0.293
 5262SOL     OW16684   2.778   0.675   3.346
 5262SOL    HW116685   2.703   0.610   3.338
 5262SOL    HW216686   2.837   0.670   3.265
 5263SOL     OW16687   2.045   1.237   2.859
 5263SOL    HW116688   1.973   1.201   2.799
 5263SOL    HW216689   2.093   1.312   2.813
 5264SOL     OW16690   6.808   2.074   2.490
 5264SOL    HW116691   6.821   2.043   2.396
 5264SOL    HW216692   6.824   1.998   2.553
 5265SOL     OW16693   6.139   3.070   4.536
 5265SOL    HW116694   6.107   3.004   4.605
 5265SOL    HW216695   6.086   3.058   4.452
 5266SOL     OW16696   2.649   6.683   0.996
 5266SOL    HW116697   2.635   6.590   1.030
 5266SOL    HW216698   2.562   6.732   0.997
 5267SOL     OW16699   4.694   2.357   4.473
 5267SOL    HW116700   4.651   2.357   4.564
 5267SOL    HW216701   4.640   2.414   4.411
 5268SOL     OW16702   4.987   0.692   6.824
 5268SOL    HW116703   4.902   0.719   6.778
 5268SOL    HW216704   5.065   0.717   6.767
 5269SOL     OW16705   0.941   6.369   2.377
 5269SOL    HW116706   0.858   6.378   2.321
 5269SOL    HW216707   0.982   6.279   2.362
 5270SOL     OW16708   5.640   1.864   1.490
 5270SOL    HW116709   5.661   1.825   1.579
 5270SOL    HW216710   5.548   1.902   1.490
 5271SOL     OW16711   6.264   4.538   5.721
 5271SOL    HW116712   6.361   4.542   5.745
 5271SOL    HW216713   6.239   4.443   5.702
 5272SOL     OW16714   3.340   5.763   1.197
 5272SOL    HW116715   3.303   5.802   1.113
 5272SOL    HW216716   3.273   5.775   1.271
 5273SOL     OW16717   0.966   3.493   2.406
 5273SOL    HW116718   1.024   3.551   2.463
 5273SOL    HW216719   0.892   3.547   2.367
 5274SOL     OW16720   5.264   6.542   2.880
 5274SOL    HW116721   5.164   6.539   2.872
 5274SOL    HW216722   5.305   6.478   2.815
 5275SOL     OW16723   3.505   1.246   0.721
 5275SOL    HW116724   3.462   1.191   0.792
 5275SOL    HW216725   3.551   1.324   0.763
 5276SOL     OW16726   2.284   0.592   1.749
 5276SOL    HW116727   2.374   0.564   1.716
 5276SOL    HW216728   2.291   0.624   1.843
 5277SOL     OW16729   2.800   0.993   2.822
 5277SOL    HW116730   2.725   0.961   2.764
 5277SOL    HW216731   2.768   1.067   2.880
 5278SOL     OW16732   4.993   5.065   3.605
 5278SOL    HW116733   5.005   5.023   3.516
 5278SOL    HW216734   4.913   5.025   3.651
 5279SOL     OW16735   2.304   5.601   1.115
 5279SOL    HW116736   2.261   5.691   1.124
 5279SOL    HW216737   2.393   5.611   1.072
 5280SOL     OW16738   2.957   6.350   4.565
 5280SOL    HW116739   3.000   6.259   4.561
 5280SOL    HW216740   2.878   6.351   4.504
 5281SOL     OW16741   6.430   2.093   2.175
 5281SOL    HW116742   6.389   2.130   2.258
 5281SOL    HW216743   6.471   2.168   2.122
 5282SOL     OW16744   2.568   1.508   3.520
 5282SOL    HW116745   2.666   1.491   3.509
 5282SOL    HW216746   2.542   1.589   3.468
 5283SOL     OW16747   5.010   6.324   1.585
 5283SOL    HW116748   4.942   6.391   1.615
 5283SOL    HW216749   5.080   6.314   1.656
 5284SOL     OW16750   5.313   4.044   2.994
 5284SOL    HW116751   5.363   4.084   2.917
 5284SOL    HW216752   5.301   3.946   2.978
 5285SOL     OW16753   3.190   4.856   4.101
 5285SOL    HW116754   3.235   4.768   4.120
 5285SOL    HW216755   3.258   4.929   4.105
 5286SOL     OW16756   2.397   4.315   1.508
 5286SOL    HW116757   2.359   4.388   1.564
 5286SOL    HW216758   2.460   4.353   1.441
 5287SOL     OW16759   2.758   0.991   0.893
 5287SOL    HW116760   2.733   0.941   0.810
 5287SOL    HW216761   2.844   0.955   0.929
 5288SOL     OW16762   4.260   0.173   1.347
 5288SOL    HW116763   4.339   0.232   1.363
 5288SOL    HW216764   4.182   0.228   1.318
 5289SOL     OW16765   0.829   5.340   0.114
 5289SOL    HW116766   0.879   5.328   0.200
 5289SOL    HW216767   0.810   5.437   0.099
 5290SOL     OW16768   3.326   5.919   6.809
 5290SOL    HW116769   3.320   5.843   6.745
 5290SOL    HW216770   3.305   5.887   6.901
 5291SOL     OW16771   2.988   5.645   5.544
 5291SOL    HW116772   3.049   5.639   5.465
 5291SOL    HW216773   2.902   5.598   5.523
 5292SOL     OW16774   5.789   3.162   6.832
 5292SOL    HW116775   5.817   3.170   6.927
 5292SOL    HW216776   5.741   3.245   6.804
 5293SOL     OW16777   0.794   0.733   4.793
 5293SOL    HW116778   0.825   0.787   4.715
 5293SOL    HW216779   0.722   0.783   4.842
 5294SOL     OW16780   5.985   3.079   6.668
 5294SOL    HW116781   5.915   3.116   6.729
 5294SOL    HW216782   6.074   3.118   6.693
 5295SOL     OW16783   5.276   1.136   3.075
 5295SOL    HW116784   5.264   1.074   2.997
 5295SOL    HW216785   5.297   1.228   3.042
 5296SOL     OW16786   1.637   4.712   0.052
 5296SOL    HW116787   1.552   4.712   7.025
 5296SOL    HW216788   1.713   4.685   7.018
 5297SOL     OW16789   2.402   2.246   0.835
 5297SOL    HW116790   2.384   2.340   0.865
 5297SOL    HW216791   2.461   2.248   0.754
 5298SOL     OW16792   6.549   5.393   2.244
 5298SOL    HW116793   6.570   5.301   2.212
 5298SOL    HW216794   6.633   5.443   2.262
 5299SOL     OW16795   2.773   0.712   1.676
 5299SOL    HW116796   2.828   0.655   1.615
 5299SOL    HW216797   2.832   0.754   1.745
 5300SOL     OW16798   0.375   5.455   2.896
 5300SOL    HW116799   0.322   5.386   2.945
 5300SOL    HW216800   0.341   5.465   2.803
 5301SOL     OW16801   4.126   1.957   0.146
 5301SOL    HW116802   4.078   1.971   0.232
 5301SOL    HW216803   4.136   2.045   0.098
 5302SOL     OW16804   6.659   4.112   2.383
 5302SOL    HW116805   6.700   4.203   2.370
 5302SOL    HW216806   6.572   4.107   2.334
 5303SOL     OW16807   6.648   4.721   3.878
 5303SOL    HW116808   6.646   4.791   3.807
 5303SOL    HW216809   6.588   4.645   3.852
 5304SOL     OW16810   5.228   2.058   6.258
 5304SOL    HW116811   5.129   2.056   6.245
 5304SOL    HW216812   5.249   2.082   6.353
 5305SOL     OW16813   1.905   0.912   3.878
 5305SOL    HW116814   1.878   0.925   3.973
 5305SOL    HW216815   2.005   0.914   3.871
 5306SOL     OW16816   2.444   6.048   5.656
 5306SOL    HW116817   2.411   5.956   5.638
 5306SOL    HW216818   2.531   6.044   5.705
 5307SOL     OW16819   4.459   6.807   6.282
 5307SOL    HW116820   4.428   6.861   6.360
 5307SOL    HW216821   4.504   6.868   6.216
 5308SOL     OW16822   0.407   0.585   4.149
 5308SOL    HW116823   0.325   0.542   4.111
 5308SOL    HW216824   0.444   0.651   4.084
 5309SOL     OW16825   3.751   3.801   3.719
 5309SOL    HW116826   3.750   3.885   3.665
 5309SOL    HW216827   3.844   3.765   3.724
 5310SOL     OW16828   5.268   2.689   1.483
 5310SOL    HW116829   5.270   2.629   1.563
 5310SOL    HW216830   5.181   2.739   1.481
 5311SOL     OW16831   1.896   5.752   6.908
 5311SOL    HW116832   1.877   5.668   6.958
 5311SOL    HW216833   1.867   5.831   6.963
 5312SOL     OW16834   0.987   4.800   2.500
 5312SOL    HW116835   1.030   4.764   2.583
 5312SOL    HW216836   0.963   4.896   2.515
 5313SOL     OW16837   0.908   6.335   6.797
 5313SOL    HW116838   0.888   6.427   6.760
 5313SOL    HW216839   0.998   6.336   6.840
 5314SOL     OW16840   4.660   5.077   0.047
 5314SOL    HW116841   4.758   5.057   0.056
 5314SOL    HW216842   4.608   4.992   0.048
 5315SOL     OW16843   5.038   4.188   1.937
 5315SOL    HW116844   4.943   4.158   1.930
 5315SOL    HW216845   5.090   4.153   1.859
 5316SOL     OW16846   6.806   5.236   4.888
 5316SOL    HW116847   6.821   5.189   4.801
 5316SOL    HW216848   6.710   5.261   4.896
 5317SOL     OW16849   5.817   0.798   2.840
 5317SOL    HW116850   5.819   0.897   2.831
 5317SOL    HW216851   5.789   0.757   2.753
 5318SOL     OW16852   6.804   2.774   4.774
 5318SOL    HW116853   6.903   2.784   4.788
 5318SOL    HW216854   6.785   2.763   4.677
 5319SOL     OW16855   5.525   6.961   0.020
 5319SOL    HW116856   5.623   6.983   0.012
 5319SOL    HW216857   5.471   0.008   7.003
 5320SOL     OW16858   6.089   3.765   6.572
 5320SOL    HW116859   6.048   3.793   6.659
 5320SOL    HW216860   6.071   3.835   6.503
 5321SOL     OW16861   1.872   4.970   4.929
 5321SOL    HW116862   1.936   4.895   4.943
 5321SOL    HW216863   1.923   5.055   4.911
 5322SOL     OW16864   4.056   6.134   6.574
 5322SOL    HW116865   4.013   6.120   6.485
 5322SOL    HW216866   4.109   6.219   6.573
 5323SOL     OW16867   4.104   2.286   0.335
 5323SOL    HW116868   4.173   2.344   0.378
 5323SOL    HW216869   4.103   2.196   0.379
 5324SOL     OW16870   3.830   2.812   1.459
 5324SOL    HW116871   3.786   2.902   1.453
 5324SOL    HW216872   3.831   2.782   1.555
 5325SOL     OW16873   4.847   6.276   2.300
 5325SOL    HW116874   4.918   6.209   2.322
 5325SOL    HW216875   4.757   6.237   2.322
 5326SOL     OW16876   6.950   5.604   1.834
 5326SOL    HW116877   6.863   5.556   1.846
 5326SOL    HW216878   7.012   5.546   1.781
 5327SOL     OW16879   6.877   0.029   4.549
 5327SOL    HW116880   6.867   0.065   4.641
 5327SOL    HW216881   6.787   0.007   4.511
 5328SOL     OW16882   3.901   3.722   6.785
 5328SOL    HW116883   3.978   3.785   6.795
 5328SOL    HW216884   3.818   3.764   6.824
 5329SOL     OW16885   0.585   4.765   0.462
 5329SOL    HW116886   0.664   4.714   0.428
 5329SOL    HW216887   0.580   4.757   0.561
 5330SOL     OW16888   3.641   3.522   0.698
 5330SOL    HW116889   3.702   3.575   0.757
 5330SOL    HW216890   3.561   3.577   0.675
 5331SOL     OW16891   4.494   2.152   0.568
 5331SOL    HW116892   4.436   2.234   0.566
 5331SOL    HW216893   4.572   2.168   0.629
 5332SOL     OW16894   6.366   5.010   0.665
 5332SOL    HW116895   6.276   4.974   0.689
 5332SOL    HW216896   6.437   4.958   0.713
 5333SOL     OW16897   1.900   1.074   3.119
 5333SOL    HW116898   1.904   1.169   3.090
 5333SOL    HW216899   1.948   1.062   3.206
 5334SOL     OW16900   4.601   4.723   3.391
 5334SOL    HW116901   4.549   4.797   3.349
 5334SOL    HW216902   4.692   4.720   3.350
 5335SOL     OW16903   0.056   4.399   2.005
 5335SOL    HW116904   6.994   4.351   2.012
 5335SOL    HW216905   0.103   4.371   1.922
 5336SOL     OW16906   1.980   1.911   3.880
 5336SOL    HW116907   1.943   1.883   3.969
 5336SOL    HW216908   2.076   1.936   3.889
 5337SOL     OW16909   6.387   4.138   1.346
 5337SOL    HW116910   6.381   4.050   1.298
 5337SOL    HW216911   6.440   4.202   1.290
 5338SOL     OW16912   6.219   3.311   6.926
 5338SOL    HW116913   6.297   3.289   6.985
 5338SOL    HW216914   6.229   3.264   6.839
 5339SOL     OW16915   6.209   2.350   2.561
 5339SOL    HW116916   6.232   2.332   2.465
 5339SOL    HW216917   6.166   2.269   2.601
 5340SOL     OW16918   5.765   2.949   2.083
 5340SOL    HW116919   5.702   2.896   2.026
 5340SOL    HW216920   5.810   2.889   2.148
 5341SOL     OW16921   4.847   4.712   3.300
 5341SOL    HW116922   4.872   4.689   3.206
 5341SOL    HW216923   4.913   4.778   3.337
 5342SOL     OW16924   5.946   0.156   5.669
 5342SOL    HW116925   5.983   0.151   5.577
 5342SOL    HW216926   5.999   0.095   5.730
 5343SOL     OW16927   3.867   3.751   5.624
 5343SOL    HW116928   3.829   3.809   5.696
 5343SOL    HW216929   3.961   3.779   5.604
 5344SOL     OW16930   0.537   1.493   0.040
 5344SOL    HW116931   0.594   1.413   0.059
 5344SOL    HW216932   0.538   1.555   0.119
 5345SOL     OW16933   4.877   1.376   6.818
 5345SOL    HW116934   4.914   1.284   6.804
 5345SOL    HW216935   4.783   1.370   6.851
 5346SOL     OW16936   3.096   4.942   3.813
 5346SOL    HW116937   3.113   4.954   3.911
 5346SOL    HW216938   3.037   5.015   3.781
 5347SOL     OW16939   6.608   2.669   3.936
 5347SOL    HW116940   6.627   2.767   3.930
 5347SOL    HW216941   6.539   2.644   3.868
 5348SOL     OW16942   5.582   1.899   4.302
 5348SOL    HW116943   5.527   1.904   4.386
 5348SOL    HW216944   5.534   1.947   4.228
 5349SOL     OW16945   0.907   2.598   1.826
 5349SOL    HW116946   0.926   2.696   1.822
 5349SOL    HW216947   0.967   2.550   1.761
 5350SOL     OW16948   1.857   6.901   5.906
 5350SOL    HW116949   1.881   6.842   5.829
 5350SOL    HW216950   1.758   6.910   5.912
 5351SOL     OW16951   0.528   5.442   1.516
 5351SOL    HW116952   0.542   5.357   1.568
 5351SOL    HW216953   0.597   5.448   1.443
 5352SOL     OW16954   1.877   3.750   3.856
 5352SOL    HW116955   1.863   3.831   3.798
 5352SOL    HW216956   1.822   3.674   3.822
 5353SOL     OW16957   4.580   5.379   3.564
 5353SOL    HW116958   4.531   5.409   3.482
 5353SOL    HW216959   4.615   5.459   3.613
 5354SOL     OW16960   3.638   5.401   0.558
 5354SOL    HW116961   3.712   5.337   0.537
 5354SOL    HW216962   3.588   5.424   0.475
 5355SOL     OW16963   5.415   5.375   5.129
 5355SOL    HW116964   5.320   5.349   5.147
 5355SOL    HW216965   5.464   5.298   5.088
 5356SOL     OW16966   0.064   4.273   1.517
 5356SOL    HW116967   0.104   4.209   1.452
 5356SOL    HW216968   7.012   4.231   1.563
 5357SOL     OW16969   4.179   4.899   1.807
 5357SOL    HW116970   4.116   4.835   1.762
 5357SOL    HW216971   4.167   4.990   1.767
 5358SOL     OW16972   4.544   1.747   0.397
 5358SOL    HW116973   4.575   1.841   0.407
 5358SOL    HW216974   4.446   1.740   0.418
 5359SOL     OW16975   1.831   1.792   0.297
 5359SOL    HW116976   1.736   1.782   0.327
 5359SOL    HW216977   1.885   1.717   0.336
 5360SOL     OW16978   5.957   4.935   4.114
 5360SOL    HW116979   6.045   4.888   4.125
 5360SOL    HW216980   5.884   4.866   4.110
 5361SOL     OW16981   3.359   6.366   2.749
 5361SOL    HW116982   3.401   6.282   2.714
 5361SOL    HW216983   3.362   6.365   2.849
 5362SOL     OW16984   5.081   6.851   1.997
 5362SOL    HW116985   5.142   6.809   2.065
 5362SOL    HW216986   5.056   6.783   1.928
 5363SOL     OW16987   5.996   6.027   4.653
 5363SOL    HW116988   5.924   6.080   4.697
 5363SOL    HW216989   6.079   6.082   4.647
 5364SOL     OW16990   4.669   0.458   2.799
 5364SOL    HW116991   4.651   0.391   2.871
 5364SOL    HW216992   4.735   0.526   2.833
 5365SOL     OW16993   3.115   3.090   4.007
 5365SOL    HW116994   3.027   3.138   4.003
 5365SOL    HW216995   3.123   3.029   3.929
 5366SOL     OW16996   6.652   0.253   1.614
 5366SOL    HW116997   6.615   0.168   1.579
 5366SOL    HW216998   6.578   0.315   1.639
 5367SOL     OW16999   6.815   6.694   0.676
 5367SOL    HW117000   6.828   6.775   0.733
 5367SOL    HW217001   6.819   6.720   0.580
 5368SOL     OW17002   6.807   5.511   2.841
 5368SOL    HW117003   6.848   5.596   2.807
 5368SOL    HW217004   6.715   5.531   2.876
 5369SOL     OW17005   2.709   5.084   1.838
 5369SOL    HW117006   2.778   5.012   1.832
 5369SOL    HW217007   2.710   5.139   1.755
 5370SOL     OW17008   3.737   3.806   1.325
 5370SOL    HW117009   3.740   3.905   1.330
 5370SOL    HW217010   3.706   3.769   1.413
 5371SOL     OW17011   6.978   5.384   5.064
 5371SOL    HW117012   6.983   5.389   5.163
 5371SOL    HW217013   6.899   5.329   5.037
 5372SOL     OW17014   1.253   0.273   2.658
 5372SOL    HW117015   1.188   0.198   2.674
 5372SOL    HW217016   1.320   0.244   2.589
 5373SOL     OW17017   4.213   7.008   5.415
 5373SOL    HW117018   4.254   6.918   5.433
 5373SOL    HW217019   4.197   0.030   5.502
 5374SOL     OW17020   2.651   5.268   1.156
 5374SOL    HW117021   2.717   5.258   1.081
 5374SOL    HW217022   2.588   5.190   1.156
 5375SOL     OW17023   1.031   5.754   5.001
 5375SOL    HW117024   1.119   5.776   4.959
 5375SOL    HW217025   1.042   5.675   5.062
 5376SOL     OW17026   1.194   1.462   0.777
 5376SOL    HW117027   1.159   1.375   0.812
 5376SOL    HW217028   1.118   1.525   0.763
 5377SOL     OW17029   2.169   0.805   3.105
 5377SOL    HW117030   2.242   0.869   3.082
 5377SOL    HW217031   2.135   0.825   3.196
 5378SOL     OW17032   5.668   0.633   1.413
 5378SOL    HW117033   5.588   0.617   1.472
 5378SOL    HW217034   5.659   0.723   1.369
 5379SOL     OW17035   1.275   3.072   5.978
 5379SOL    HW117036   1.371   3.059   6.002
 5379SOL    HW217037   1.218   3.010   6.031
 5380SOL     OW17038   4.410   6.834   1.540
 5380SOL    HW117039   4.413   6.858   1.443
 5380SOL    HW217040   4.419   6.916   1.595
 5381SOL     OW17041   4.998   6.542   2.930
 5381SOL    HW117042   5.011   6.507   3.022
 5381SOL    HW217043   4.924   6.492   2.885
 5382SOL     OW17044   4.009   1.569   2.994
 5382SOL    HW117045   4.016   1.657   2.947
 5382SOL    HW217046   3.975   1.499   2.931
 5383SOL     OW17047   1.489   2.976   4.035
 5383SOL    HW117048   1.438   3.029   3.967
 5383SOL    HW217049   1.578   3.020   4.051
 5384SOL     OW17050   4.759   5.633   5.508
 5384SOL    HW117051   4.691   5.658   5.576
 5384SOL    HW217052   4.716   5.630   5.417
 5385SOL     OW17053   6.086   2.303   5.576
 5385SOL    HW117054   6.000   2.298   5.627
 5385SOL    HW217055   6.156   2.251   5.623
 5386SOL     OW17056   6.457   3.376   3.730
 5386SOL    HW117057   6.362   3.380   3.760
 5386SOL    HW217058   6.488   3.467   3.703
 5387SOL     OW17059   2.199   0.631   2.477
 5387SOL    HW117060   2.202   0.711   2.416
 5387SOL    HW217061   2.134   0.648   2.551
 5388SOL     OW17062   0.911   6.443   2.642
 5388SOL    HW117063   0.940   6.364   2.695
 5388SOL    HW217064   0.944   6.434   2.547
 5389SOL     OW17065   4.312   1.636   4.325
 5389SOL    HW117066   4.400   1.642   4.372
 5389SOL    HW217067   4.239   1.627   4.393
 5390SOL     OW17068   6.507   3.649   3.625
 5390SOL    HW117069   6.541   3.591   3.552
 5390SOL    HW217070   6.485   3.740   3.588
 5391SOL     OW17071   2.277   1.962   0.138
 5391SOL    HW117072   2.195   2.009   0.105
 5391SOL    HW217073   2.359   2.012   0.110
 5392SOL     OW17074   4.754   1.794   3.552
 5392SOL    HW117075   4.676   1.731   3.545
 5392SOL    HW217076   4.832   1.756   3.502
 5393SOL     OW17077   3.853   1.015   5.701
 5393SOL    HW117078   3.879   1.076   5.626
 5393SOL    HW217079   3.757   0.987   5.689
 5394SOL     OW17080   2.019   0.492   0.523
 5394SOL    HW117081   2.051   0.519   0.613
 5394SOL    HW217082   1.990   0.573   0.473
 5395SOL     OW17083   4.762   1.810   1.527
 5395SOL    HW117084   4.836   1.836   1.465
 5395SOL    HW217085   4.680   1.861   1.503
 5396SOL     OW17086   6.220   5.558   2.659
 5396SOL    HW117087   6.265   5.647   2.659
 5396SOL    HW217088   6.271   5.494   2.717
 5397SOL     OW17089   6.150   1.281   2.969
 5397SOL    HW117090   6.171   1.227   2.887
 5397SOL    HW217091   6.224   1.269   3.036
 5398SOL     OW17092   4.640   2.016   3.658
 5398SOL    HW117093   4.661   1.919   3.648
 5398SOL    HW217094   4.702   2.070   3.601
 5399SOL     OW17095   1.980   0.052   5.360
 5399SOL    HW117096   1.926   0.034   5.442
 5399SOL    HW217097   2.074   0.073   5.387
 5400SOL     OW17098   3.514   3.073   1.219
 5400SOL    HW117099   3.536   3.157   1.169
 5400SOL    HW217100   3.554   2.994   1.172
 5401SOL     OW17101   5.541   4.351   2.612
 5401SOL    HW117102   5.622   4.404   2.635
 5401SOL    HW217103   5.528   4.351   2.513
 5402SOL     OW17104   2.064   0.115   0.935
 5402SOL    HW117105   2.055   0.214   0.949
 5402SOL    HW217106   2.054   0.068   1.023
 5403SOL     OW17107   4.714   3.219   6.798
 5403SOL    HW117108   4.789   3.159   6.771
 5403SOL    HW217109   4.726   3.309   6.757
 5404SOL     OW17110   6.721   0.676   0.792
 5404SOL    HW117111   6.757   0.767   0.770
 5404SOL    HW217112   6.776   0.606   0.747
 5405SOL     OW17113   5.089   5.778   0.024
 5405SOL    HW117114   5.072   5.683   7.024
 5405SOL    HW217115   5.134   5.780   0.113
 5406SOL     OW17116   2.480   0.476   4.528
 5406SOL    HW117117   2.562   0.419   4.516
 5406SOL    HW217118   2.400   0.425   4.496
 5407SOL     OW17119   2.511   0.753   1.439
 5407SOL    HW117120   2.495   0.849   1.463
 5407SOL    HW217121   2.463   0.732   1.354
 5408SOL     OW17122   2.754   2.355   4.380
 5408SOL    HW117123   2.764   2.356   4.280
 5408SOL    HW217124   2.687   2.425   4.407
 5409SOL     OW17125   0.242   2.574   1.133
 5409SOL    HW117126   0.245   2.673   1.148
 5409SOL    HW217127   0.184   2.532   1.203
 5410SOL     OW17128   0.947   2.045   1.309
 5410SOL    HW117129   0.956   2.141   1.336
 5410SOL    HW217130   0.917   2.040   1.214
 5411SOL     OW17131   4.734   5.525   6.733
 5411SOL    HW117132   4.808   5.495   6.673
 5411SOL    HW217133   4.706   5.450   6.793
 5412SOL     OW17134   0.742   1.987   6.361
 5412SOL    HW117135   0.776   1.915   6.301
 5412SOL    HW217136   0.721   2.069   6.307
 5413SOL     OW17137   6.643   6.900   5.279
 5413SOL    HW117138   6.567   6.936   5.227
 5413SOL    HW217139   6.683   6.822   5.231
 5414SOL     OW17140   6.917   4.151   5.744
 5414SOL    HW117141   6.867   4.237   5.747
 5414SOL    HW217142   7.015   4.169   5.749
 5415SOL     OW17143   3.128   0.086   0.657
 5415SOL    HW117144   3.215   0.135   0.655
 5415SOL    HW217145   3.056   0.144   0.618
 5416SOL     OW17146   3.042   5.163   5.697
 5416SOL    HW117147   3.030   5.067   5.720
 5416SOL    HW217148   2.962   5.195   5.646
 5417SOL     OW17149   4.728   5.819   3.594
 5417SOL    HW117150   4.827   5.822   3.583
 5417SOL    HW217151   4.692   5.912   3.598
 5418SOL     OW17152   6.053   4.399   4.384
 5418SOL    HW117153   6.057   4.315   4.438
 5418SOL    HW217154   5.999   4.468   4.434
 5419SOL     OW17155   3.775   6.869   6.769
 5419SOL    HW117156   3.775   6.839   6.864
 5419SOL    HW217157   3.682   6.865   6.733
 5420SOL     OW17158   1.358   1.651   1.115
 5420SOL    HW117159   1.321   1.719   1.051
 5420SOL    HW217160   1.330   1.559   1.086
 5421SOL     OW17161   3.449   5.129   2.262
 5421SOL    HW117162   3.416   5.162   2.350
 5421SOL    HW217163   3.374   5.124   2.196
 5422SOL     OW17164   2.139   5.639   4.052
 5422SOL    HW117165   2.043   5.620   4.029
 5422SOL    HW217166   2.143   5.719   4.112
 5423SOL     OW17167   6.348   6.304   2.195
 5423SOL    HW117168   6.408   6.243   2.247
 5423SOL    HW217169   6.383   6.314   2.102
 5424SOL     OW17170   4.682   4.430   5.103
 5424SOL    HW117171   4.748   4.361   5.073
 5424SOL    HW217172   4.672   4.501   5.033
 5425SOL     OW17173   0.534   3.608   6.349
 5425SOL    HW117174   0.630   3.619   6.323
 5425SOL    HW217175   0.504   3.689   6.399
 5426SOL     OW17176   5.454   4.774   2.044
 5426SOL    HW117177   5.501   4.759   1.957
 5426SOL    HW217178   5.512   4.744   2.119
 5427SOL     OW17179   4.931   2.765   0.021
 5427SOL    HW117180   5.014   2.815   0.046
 5427SOL    HW217181   4.945   2.667   0.037
 5428SOL     OW17182   6.450   5.251   3.131
 5428SOL    HW117183   6.513   5.206   3.067
 5428SOL    HW217184   6.356   5.223   3.110
 5429SOL     OW17185   2.683   0.575   4.043
 5429SOL    HW117186   2.715   0.495   4.093
 5429SOL    HW217187   2.598   0.553   3.995
 5430SOL     OW17188   2.827   3.904   6.373
 5430SOL    HW117189   2.841   3.865   6.463
 5430SOL    HW217190   2.767   3.844   6.319
 5431SOL     OW17191   3.043   5.102   6.501
 5431SOL    HW117192   3.002   5.048   6.428
 5431SOL    HW217193   3.133   5.065   6.523
 5432SOL     OW17194   5.639   5.727   1.518
 5432SOL    HW117195   5.634   5.821   1.486
 5432SOL    HW217196   5.729   5.711   1.560
 5433SOL     OW17197   1.417   0.501   0.735
 5433SOL    HW117198   1.473   0.419   0.742
 5433SOL    HW217199   1.334   0.490   0.789
 5434SOL     OW17200   4.592   1.392   5.705
 5434SOL    HW117201   4.582   1.322   5.635
 5434SOL    HW217202   4.683   1.432   5.700
 5435SOL     OW17203   6.193   4.126   0.849
 5435SOL    HW117204   6.140   4.148   0.768
 5435SOL    HW217205   6.202   4.026   0.858
 5436SOL     OW17206   1.670   5.346   2.539
 5436SOL    HW117207   1.667   5.396   2.452
 5436SOL    HW217208   1.766   5.334   2.567
 5437SOL     OW17209   3.811   5.537   0.024
 5437SOL    HW117210   3.892   5.523   6.992
 5437SOL    HW217211   3.820   5.625   0.072
 5438SOL     OW17212   4.608   4.397   2.732
 5438SOL    HW117213   4.638   4.312   2.775
 5438SOL    HW217214   4.605   4.386   2.633
 5439SOL     OW17215   0.657   4.319   0.849
 5439SOL    HW117216   0.603   4.235   0.852
 5439SOL    HW217217   0.741   4.303   0.797
 5440SOL     OW17218   5.550   6.169   3.468
 5440SOL    HW117219   5.627   6.215   3.511
 5440SOL    HW217220   5.474   6.163   3.533
 5441SOL     OW17221   4.710   2.668   4.139
 5441SOL    HW117222   4.669   2.624   4.059
 5441SOL    HW217223   4.803   2.697   4.117
 5442SOL     OW17224   5.167   6.735   4.551
 5442SOL    HW117225   5.245   6.747   4.489
 5442SOL    HW217226   5.123   6.648   4.532
 5443SOL     OW17227   4.896   6.583   4.769
 5443SOL    HW117228   4.919   6.669   4.815
 5443SOL    HW217229   4.868   6.515   4.837
 5444SOL     OW17230   0.021   0.684   3.790
 5444SOL    HW117231   0.070   0.701   3.875
 5444SOL    HW217232   0.078   0.630   3.728
 5445SOL     OW17233   5.230   5.710   5.921
 5445SOL    HW117234   5.276   5.652   5.854
 5445SOL    HW217235   5.175   5.779   5.874
 5446SOL     OW17236   0.626   4.428   5.564
 5446SOL    HW117237   0.597   4.414   5.469
 5446SOL    HW217238   0.620   4.526   5.586
 5447SOL     OW17239   1.488   1.611   0.474
 5447SOL    HW117240   1.504   1.691   0.416
 5447SOL    HW217241   1.554   1.610   0.549
 5448SOL     OW17242   4.236   5.846   3.670
 5448SOL    HW117243   4.142   5.813   3.662
 5448SOL    HW217244   4.293   5.776   3.713
 5449SOL     OW17245   2.981   1.632   2.021
 5449SOL    HW117246   3.038   1.619   2.103
 5449SOL    HW217247   2.944   1.725   2.021
 5450SOL     OW17248   4.079   6.121   1.909
 5450SOL    HW117249   4.123   6.172   1.983
 5450SOL    HW217250   4.149   6.080   1.851
 5451SOL     OW17251   1.273   0.401   3.105
 5451SOL    HW117252   1.287   0.437   3.013
 5451SOL    HW217253   1.310   0.465   3.172
 5452SOL     OW17254   1.850   4.842   2.329
 5452SOL    HW117255   1.864   4.794   2.242
 5452SOL    HW217256   1.835   4.775   2.402
 5453SOL     OW17257   5.898   4.113   3.437
 5453SOL    HW117258   5.830   4.101   3.364
 5453SOL    HW217259   5.865   4.069   3.520
 5454SOL     OW17260   6.262   5.666   3.353
 5454SOL    HW117261   6.291   5.699   3.443
 5454SOL    HW217262   6.164   5.683   3.342
 5455SOL     OW17263   6.863   1.943   2.266
 5455SOL    HW117264   6.881   1.845   2.269
 5455SOL    HW217265   6.788   1.962   2.203
 5456SOL     OW17266   4.999   1.142   6.524
 5456SOL    HW117267   5.095   1.114   6.529
 5456SOL    HW217268   4.958   1.136   6.615
 5457SOL     OW17269   6.188   2.460   0.649
 5457SOL    HW117270   6.253   2.474   0.574
 5457SOL    HW217271   6.095   2.477   0.616
 5458SOL     OW17272   5.982   4.458   1.369
 5458SOL    HW117273   6.024   4.371   1.394
 5458SOL    HW217274   6.038   4.533   1.403
 5459SOL     OW17275   1.861   4.527   5.801
 5459SOL    HW117276   1.836   4.454   5.737
 5459SOL    HW217277   1.894   4.606   5.749
 5460SOL     OW17278   1.833   0.999   0.391
 5460SOL    HW117279   1.806   0.937   0.317
 5460SOL    HW217280   1.859   0.946   0.472
 5461SOL     OW17281   0.189   1.492   6.133
 5461SOL    HW117282   0.151   1.423   6.194
 5461SOL    HW217283   0.183   1.582   6.177
 5462SOL     OW17284   5.008   6.071   6.659
 5462SOL    HW117285   5.056   6.013   6.593
 5462SOL    HW217286   5.039   6.049   6.751
 5463SOL     OW17287   0.052   2.420   6.760
 5463SOL    HW117288   7.018   2.479   6.706
 5463SOL    HW217289   0.141   2.463   6.772
 5464SOL     OW17290   6.230   6.326   5.492
 5464SOL    HW117291   6.286   6.244   5.480
 5464SOL    HW217292   6.284   6.398   5.535
 5465SOL     OW17293   6.725   6.492   3.450
 5465SOL    HW117294   6.802   6.555   3.464
 5465SOL    HW217295   6.657   6.535   3.391
 5466SOL     OW17296   5.843   2.664   5.315
 5466SOL    HW117297   5.893   2.750   5.326
 5466SOL    HW217298   5.902   2.587   5.340
 5467SOL     OW17299   5.906   3.556   3.637
 5467SOL    HW117300   5.883   3.522   3.728
 5467SOL    HW217301   5.871   3.649   3.626
 5468SOL     OW17302   6.644   2.466   2.854
 5468SOL    HW117303   6.590   2.542   2.889
 5468SOL    HW217304   6.630   2.386   2.913
 5469SOL     OW17305   1.985   0.648   5.676
 5469SOL    HW117306   1.982   0.550   5.655
 5469SOL    HW217307   1.968   0.700   5.593
 5470SOL     OW17308   4.206   5.177   4.885
 5470SOL    HW117309   4.230   5.105   4.950
 5470SOL    HW217310   4.270   5.253   4.894
 5471SOL     OW17311   4.982   6.566   1.889
 5471SOL    HW117312   4.894   6.520   1.877
 5471SOL    HW217313   5.056   6.504   1.866
 5472SOL     OW17314   3.197   1.623   6.022
 5472SOL    HW117315   3.137   1.609   6.101
 5472SOL    HW217316   3.266   1.550   6.020
 5473SOL     OW17317   1.647   4.835   1.303
 5473SOL    HW117318   1.690   4.748   1.281
 5473SOL    HW217319   1.548   4.828   1.294
 5474SOL     OW17320   0.851   5.617   3.714
 5474SOL    HW117321   0.780   5.588   3.650
 5474SOL    HW217322   0.895   5.700   3.679
 5475SOL     OW17323   1.319   2.086   6.754
 5475SOL    HW117324   1.339   2.132   6.841
 5475SOL    HW217325   1.358   2.140   6.679
 5476SOL     OW17326   2.710   6.526   5.444
 5476SOL    HW117327   2.748   6.616   5.423
 5476SOL    HW217328   2.754   6.490   5.527
 5477SOL     OW17329   2.031   4.848   3.863
 5477SOL    HW117330   2.004   4.850   3.767
 5477SOL    HW217331   2.018   4.755   3.900
 5478SOL     OW17332   6.013   4.638   6.161
 5478SOL    HW117333   6.078   4.566   6.136
 5478SOL    HW217334   6.048   4.727   6.133
 5479SOL     OW17335   4.437   1.653   4.782
 5479SOL    HW117336   4.337   1.660   4.778
 5479SOL    HW217337   4.477   1.744   4.771
 5480SOL     OW17338   6.448   4.544   5.058
 5480SOL    HW117339   6.524   4.599   5.093
 5480SOL    HW217340   6.441   4.459   5.111
 5481SOL     OW17341   3.798   1.434   6.207
 5481SOL    HW117342   3.886   1.482   6.211
 5481SOL    HW217343   3.799   1.369   6.131
 5482SOL     OW17344   3.547   3.707   1.921
 5482SOL    HW117345   3.605   3.627   1.906
 5482SOL    HW217346   3.471   3.706   1.856
 5483SOL     OW17347   6.244   3.386   5.810
 5483SOL    HW117348   6.313   3.375   5.881
 5483SOL    HW217349   6.153   3.376   5.851
 5484SOL     OW17350   6.816   6.739   4.002
 5484SOL    HW117351   6.804   6.643   3.974
 5484SOL    HW217352   6.729   6.774   4.036
 5485SOL     OW17353   3.403   0.178   4.770
 5485SOL    HW117354   3.386   0.125   4.686
 5485SOL    HW217355   3.500   0.203   4.774
 5486SOL     OW17356   1.532   0.562   3.623
 5486SOL    HW117357   1.567   0.638   3.679
 5486SOL    HW217358   1.490   0.599   3.540
 5487SOL     OW17359   6.267   4.342   0.565
 5487SOL    HW117360   6.289   4.417   0.503
 5487SOL    HW217361   6.322   4.350   0.648
 5488SOL     OW17362   4.452   2.141   0.133
 5488SOL    HW117363   4.371   2.187   0.168
 5488SOL    HW217364   4.499   2.201   0.068
 5489SOL     OW17365   1.314   4.140   2.353
 5489SOL    HW117366   1.316   4.042   2.369
 5489SOL    HW217367   1.356   4.160   2.264
 5490SOL     OW17368   3.359   0.237   0.630
 5490SOL    HW117369   3.400   0.285   0.553
 5490SOL    HW217370   3.395   0.273   0.716
 5491SOL     OW17371   1.664   4.468   6.764
 5491SOL    HW117372   1.614   4.555   6.757
 5491SOL    HW217373   1.660   4.420   6.677
 5492SOL     OW17374   0.817   1.270   6.278
 5492SOL    HW117375   0.840   1.269   6.375
 5492SOL    HW217376   0.815   1.364   6.244
 5493SOL     OW17377   3.686   2.879   5.558
 5493SOL    HW117378   3.776   2.918   5.578
 5493SOL    HW217379   3.658   2.820   5.634
 5494SOL     OW17380   6.544   3.068   0.737
 5494SOL    HW117381   6.537   3.162   0.771
 5494SOL    HW217382   6.618   3.021   0.785
 5495SOL     OW17383   3.546   3.360   1.096
 5495SOL    HW117384   3.554   3.319   1.005
 5495SOL    HW217385   3.542   3.459   1.087
 5496SOL     OW17386   3.689   6.023   1.724
 5496SOL    HW117387   3.751   5.952   1.758
 5496SOL    HW217388   3.668   6.004   1.627
 5497SOL     OW17389   0.518   1.756   2.805
 5497SOL    HW117390   0.593   1.789   2.749
 5497SOL    HW217391   0.487   1.829   2.866
 5498SOL     OW17392   4.437   1.496   6.512
 5498SOL    HW117393   4.363   1.545   6.466
 5498SOL    HW217394   4.433   1.513   6.611
 5499SOL     OW17395   0.287   0.646   3.278
 5499SOL    HW117396   0.279   0.726   3.219
 5499SOL    HW217397   0.374   0.600   3.261
 5500SOL     OW17398   2.149   5.414   6.810
 5500SOL    HW117399   2.134   5.375   6.901
 5500SOL    HW217400   2.133   5.344   6.741
 5501SOL     OW17401   2.878   0.418   1.914
 5501SOL    HW117402   2.891   0.330   1.959
 5501SOL    HW217403   2.781   0.434   1.898
 5502SOL     OW17404   6.195   4.258   5.693
 5502SOL    HW117405   6.230   4.193   5.626
 5502SOL    HW217406   6.121   4.215   5.745
 5503SOL     OW17407   0.917   5.087   2.949
 5503SOL    HW117408   0.947   5.000   2.909
 5503SOL    HW217409   0.971   5.162   2.911
 5504SOL     OW17410   2.930   0.819   4.642
 5504SOL    HW117411   2.983   0.868   4.712
 5504SOL    HW217412   2.845   0.869   4.624
 5505SOL     OW17413   2.006   5.938   5.052
 5505SOL    HW117414   1.989   5.864   4.986
 5505SOL    HW217415   2.078   5.998   5.017
 5506SOL     OW17416   6.795   0.475   4.468
 5506SOL    HW117417   6.742   0.430   4.397
 5506SOL    HW217418   6.738   0.486   4.550
 5507SOL     OW17419   2.645   6.316   2.954
 5507SOL    HW117420   2.559   6.293   2.999
 5507SOL    HW217421   2.690   6.390   3.003
 5508SOL     OW17422   2.398   0.937   6.897
 5508SOL    HW117423   2.413   0.877   6.819
 5508SOL    HW217424   2.309   0.982   6.888
 5509SOL     OW17425   6.228   5.731   0.321
 5509SOL    HW117426   6.315   5.717   0.273
 5509SOL    HW217427   6.181   5.810   0.281
 5510SOL     OW17428   4.430   6.705   6.859
 5510SOL    HW117429   4.344   6.726   6.906
 5510SOL    HW217430   4.462   6.787   6.810
 5511SOL     OW17431   1.316   0.758   2.867
 5511SOL    HW117432   1.347   0.672   2.826
 5511SOL    HW217433   1.217   0.755   2.882
 5512SOL     OW17434   6.787   2.261   0.665
 5512SOL    HW117435   6.858   2.329   0.682
 5512SOL    HW217436   6.717   2.300   0.605
 5513SOL     OW17437   4.760   4.344   4.764
 5513SOL    HW117438   4.672   4.389   4.778
 5513SOL    HW217439   4.826   4.410   4.726
 5514SOL     OW17440   5.750   5.104   2.834
 5514SOL    HW117441   5.697   5.050   2.769
 5514SOL    HW217442   5.702   5.107   2.922
 5515SOL     OW17443   6.368   3.028   1.551
 5515SOL    HW117444   6.437   2.998   1.485
 5515SOL    HW217445   6.324   3.112   1.518
 5516SOL     OW17446   1.836   2.897   0.236
 5516SOL    HW117447   1.838   2.996   0.246
 5516SOL    HW217448   1.909   2.868   0.174
 5517SOL     OW17449   3.276   1.971   2.110
 5517SOL    HW117450   3.243   1.884   2.075
 5517SOL    HW217451   3.214   2.005   2.180
 5518SOL     OW17452   6.256   5.387   6.251
 5518SOL    HW117453   6.327   5.431   6.305
 5518SOL    HW217454   6.297   5.328   6.182
 5519SOL     OW17455   5.454   3.524   3.043
 5519SOL    HW117456   5.427   3.562   3.131
 5519SOL    HW217457   5.387   3.456   3.014
 5520SOL     OW17458   1.173   4.113   3.171
 5520SOL    HW117459   1.157   4.015   3.183
 5520SOL    HW217460   1.091   4.163   3.198
 5521SOL     OW17461   4.736   6.005   2.012
 5521SOL    HW117462   4.765   6.082   1.956
 5521SOL    HW217463   4.815   5.948   2.034
 5522SOL     OW17464   2.139   4.132   1.444
 5522SOL    HW117465   2.221   4.190   1.443
 5522SOL    HW217466   2.155   4.049   1.391
 5523SOL     OW17467   3.381   7.006   2.940
 5523SOL    HW117468   3.357   6.970   3.030
 5523SOL    HW217469   3.303   0.032   2.903
 5524SOL     OW17470   0.382   6.275   4.877
 5524SOL    HW117471   0.317   6.234   4.813
 5524SOL    HW217472   0.386   6.220   4.961
 5525SOL     OW17473   0.073   4.534   0.259
 5525SOL    HW117474   0.051   4.631   0.265
 5525SOL    HW217475   0.093   4.511   0.163
 5526SOL     OW17476   5.843   3.665   4.436
 5526SOL    HW117477   5.900   3.612   4.373
 5526SOL    HW217478   5.753   3.679   4.395
 5527SOL     OW17479   0.527   3.204   2.475
 5527SOL    HW117480   0.502   3.110   2.497
 5527SOL    HW217481   0.614   3.204   2.424
 5528SOL     OW17482   0.801   1.875   6.106
 5528SOL    HW117483   0.877   1.896   6.045
 5528SOL    HW217484   0.774   1.779   6.096
 5529SOL     OW17485   1.767   0.173   4.489
 5529SOL    HW117486   1.750   0.075   4.484
 5529SOL    HW217487   1.707   0.214   4.558
 5530SOL     OW17488   7.005   2.064   2.074
 5530SOL    HW117489   6.964   2.023   2.156
 5530SOL    HW217490   6.932   2.089   2.010
 5531SOL     OW17491   4.131   3.406   4.630
 5531SOL    HW117492   4.199   3.421   4.701
 5531SOL    HW217493   4.100   3.311   4.633
 5532SOL     OW17494   1.929   1.177   0.640
 5532SOL    HW117495   1.844   1.228   0.623
 5532SOL    HW217496   1.907   1.081   0.655
 5533SOL     OW17497   2.704   1.308   2.501
 5533SOL    HW117498   2.683   1.228   2.558
 5533SOL    HW217499   2.618   1.352   2.473
 5534SOL     OW17500   0.433   2.903   6.738
 5534SOL    HW117501   0.522   2.883   6.696
 5534SOL    HW217502   0.391   2.980   6.691
 5535SOL     OW17503   6.921   3.410   2.711
 5535SOL    HW117504   6.946   3.474   2.783
 5535SOL    HW217505   6.884   3.461   2.633
 5536SOL     OW17506   2.562   0.847   4.061
 5536SOL    HW117507   2.606   0.921   4.112
 5536SOL    HW217508   2.482   0.816   4.112
 5537SOL     OW17509   3.466   1.002   4.798
 5537SOL    HW117510   3.518   1.023   4.880
 5537SOL    HW217511   3.410   1.081   4.772
 5538SOL     OW17512   4.220   0.012   5.140
 5538SOL    HW117513   4.186   0.099   5.106
 5538SOL    HW217514   4.213   0.010   5.240
 5539SOL     OW17515   0.298   2.091   1.394
 5539SOL    HW117516   0.363   2.059   1.464
 5539SOL    HW217517   0.249   2.012   1.357
 5540SOL     OW17518   5.260   2.890   1.727
 5540SOL    HW117519   5.187   2.897   1.795
 5540SOL    HW217520   5.270   2.795   1.698
 5541SOL     OW17521   5.137   3.231   5.645
 5541SOL    HW117522   5.124   3.303   5.714
 5541SOL    HW217523   5.075   3.247   5.569
 5542SOL     OW17524   5.969   5.756   5.929
 5542SOL    HW117525   5.941   5.660   5.926
 5542SOL    HW217526   5.921   5.808   5.858
 5543SOL     OW17527   2.336   5.515   6.634
 5543SOL    HW117528   2.299   5.607   6.629
 5543SOL    HW217529   2.295   5.466   6.711
 5544SOL     OW17530   5.623   5.682   5.695
 5544SOL    HW117531   5.637   5.658   5.599
 5544SOL    HW217532   5.671   5.617   5.754
 5545SOL     OW17533   4.583   0.918   2.534
 5545SOL    HW117534   4.570   0.821   2.517
 5545SOL    HW217535   4.671   0.933   2.580
 5546SOL     OW17536   0.687   6.456   4.466
 5546SOL    HW117537   0.617   6.512   4.509
 5546SOL    HW217538   0.651   6.365   4.449
 5547SOL     OW17539   3.923   0.999   4.897
 5547SOL    HW117540   3.861   1.066   4.940
 5547SOL    HW217541   3.999   1.048   4.854
 5548SOL     OW17542   6.557   3.976   5.629
 5548SOL    HW117543   6.649   3.955   5.598
 5548SOL    HW217544   6.491   3.918   5.581
 5549SOL     OW17545   4.227   4.006   1.255
 5549SOL    HW117546   4.287   3.960   1.190
 5549SOL    HW217547   4.146   4.041   1.208
 5550SOL     OW17548   2.444   4.480   2.416
 5550SOL    HW117549   2.444   4.456   2.319
 5550SOL    HW217550   2.525   4.535   2.437
 5551SOL     OW17551   1.499   6.400   2.447
 5551SOL    HW117552   1.591   6.360   2.442
 5551SOL    HW217553   1.436   6.333   2.485
 5552SOL     OW17554   5.684   0.788   6.708
 5552SOL    HW117555   5.709   0.872   6.757
 5552SOL    HW217556   5.607   0.744   6.753
 5553SOL     OW17557   4.272   6.456   6.074
 5553SOL    HW117558   4.324   6.479   5.991
 5553SOL    HW217559   4.252   6.539   6.125
 5554SOL     OW17560   4.721   2.684   1.285
 5554SOL    HW117561   4.663   2.681   1.366
 5554SOL    HW217562   4.795   2.750   1.299
 5555SOL     OW17563   1.341   3.593   2.067
 5555SOL    HW117564   1.291   3.520   2.020
 5555SOL    HW217565   1.425   3.556   2.106
 5556SOL     OW17566   6.274   1.048   3.954
 5556SOL    HW117567   6.267   1.111   3.876
 5556SOL    HW217568   6.252   1.096   4.038
 5557SOL     OW17569   3.909   5.884   1.909
 5557SOL    HW117570   3.868   5.892   2.000
 5557SOL    HW217571   3.969   5.962   1.893
 5558SOL     OW17572   2.825   3.542   6.223
 5558SOL    HW117573   2.910   3.546   6.276
 5558SOL    HW217574   2.845   3.520   6.128
 5559SOL     OW17575   1.840   0.428   2.522
 5559SOL    HW117576   1.861   0.442   2.425
 5559SOL    HW217577   1.808   0.334   2.536
 5560SOL     OW17578   7.014   5.454   1.456
 5560SOL    HW117579   0.087   5.443   1.464
 5560SOL    HW217580   6.968   5.394   1.522
 5561SOL     OW17581   2.339   0.767   4.225
 5561SOL    HW117582   2.344   0.709   4.306
 5561SOL    HW217583   2.246   0.804   4.216
 5562SOL     OW17584   4.092   2.999   0.121
 5562SOL    HW117585   4.029   3.077   0.131
 5562SOL    HW217586   4.160   3.001   0.194
 5563SOL     OW17587   3.051   5.126   2.833
 5563SOL    HW117588   3.044   5.181   2.917
 5563SOL    HW217589   3.069   5.031   2.857
 5564SOL     OW17590   4.603   0.224   0.009
 5564SOL    HW117591   4.595   0.147   6.971
 5564SOL    HW217592   4.634   0.305   6.985
 5565SOL     OW17593   3.661   2.568   6.148
 5565SOL    HW117594   3.715   2.488   6.175
 5565SOL    HW217595   3.669   2.582   6.050
 5566SOL     OW17596   1.903   4.479   0.087
 5566SOL    HW117597   1.812   4.464   0.127
 5566SOL    HW217598   1.936   4.570   0.114
 5567SOL     OW17599   0.057   3.828   1.388
 5567SOL    HW117600   6.985   3.830   1.364
 5567SOL    HW217601   0.104   3.761   1.329
 5568SOL     OW17602   5.401   1.509   3.862
 5568SOL    HW117603   5.384   1.544   3.769
 5568SOL    HW217604   5.493   1.535   3.890
 5569SOL     OW17605   1.989   1.962   2.045
 5569SOL    HW117606   1.958   2.055   2.027
 5569SOL    HW217607   1.983   1.908   1.961
 5570SOL     OW17608   5.662   3.807   4.098
 5570SOL    HW117609   5.643   3.791   4.001
 5570SOL    HW217610   5.647   3.903   4.120
 5571SOL     OW17611   6.140   5.883   1.799
 5571SOL    HW117612   6.178   5.810   1.742
 5571SOL    HW217613   6.169   5.869   1.894
 5572SOL     OW17614   1.524   4.190   4.913
 5572SOL    HW117615   1.489   4.196   4.819
 5572SOL    HW217616   1.523   4.280   4.955
 5573SOL     OW17617   1.797   5.830   5.411
 5573SOL    HW117618   1.885   5.783   5.405
 5573SOL    HW217619   1.805   5.921   5.370
 5574SOL     OW17620   0.096   2.150   1.589
 5574SOL    HW117621   0.018   2.205   1.561
 5574SOL    HW217622   0.153   2.130   1.509
 5575SOL     OW17623   6.642   1.266   0.874
 5575SOL    HW117624   6.693   1.340   0.830
 5575SOL    HW217625   6.669   1.179   0.833
 5576SOL     OW17626   1.311   4.507   2.390
 5576SOL    HW117627   1.240   4.482   2.455
 5576SOL    HW217628   1.294   4.464   2.302
 5577SOL     OW17629   2.735   2.582   6.798
 5577SOL    HW117630   2.692   2.570   6.888
 5577SOL    HW217631   2.715   2.503   6.741
 5578SOL     OW17632   3.808   3.924   1.933
 5578SOL    HW117633   3.880   3.879   1.880
 5578SOL    HW217634   3.814   4.023   1.920
 5579SOL     OW17635   0.277   3.295   0.280
 5579SOL    HW117636   0.216   3.238   0.334
 5579SOL    HW217637   0.249   3.292   0.184
 5580SOL     OW17638   4.708   2.345   5.428
 5580SOL    HW117639   4.773   2.419   5.441
 5580SOL    HW217640   4.742   2.282   5.358
 5581SOL     OW17641   1.642   0.173   2.357
 5581SOL    HW117642   1.686   0.180   2.446
 5581SOL    HW217643   1.637   0.077   2.329
 5582SOL     OW17644   3.566   4.110   6.336
 5582SOL    HW117645   3.587   4.029   6.390
 5582SOL    HW217646   3.484   4.154   6.373
 5583SOL     OW17647   4.569   1.130   2.851
 5583SOL    HW117648   4.557   1.111   2.754
 5583SOL    HW217649   4.558   1.045   2.903
 5584SOL     OW17650   0.087   4.068   4.605
 5584SOL    HW117651   0.123   4.045   4.695
 5584SOL    HW217652   7.015   4.044   4.601
 5585SOL     OW17653   5.786   5.478   3.360
 5585SOL    HW117654   5.751   5.475   3.453
 5585SOL    HW217655   5.746   5.555   3.311
 5586SOL     OW17656   0.459   3.516   6.104
 5586SOL    HW117657   0.532   3.449   6.093
 5586SOL    HW217658   0.460   3.552   6.198
 5587SOL     OW17659   4.413   6.521   0.922
 5587SOL    HW117660   4.420   6.585   0.845
 5587SOL    HW217661   4.318   6.516   0.953
 5588SOL     OW17662   2.265   5.306   2.961
 5588SOL    HW117663   2.310   5.256   2.888
 5588SOL    HW217664   2.266   5.404   2.940
 5589SOL     OW17665   6.336   3.652   5.727
 5589SOL    HW117666   6.298   3.560   5.733
 5589SOL    HW217667   6.436   3.646   5.722
 5590SOL     OW17668   0.331   5.855   3.749
 5590SOL    HW117669   0.429   5.871   3.739
 5590SOL    HW217670   0.311   5.827   3.843
 5591SOL     OW17671   5.997   1.942   1.652
 5591SOL    HW117672   6.010   2.014   1.584
 5591SOL    HW217673   6.079   1.884   1.654
 5592SOL     OW17674   1.890   5.949   3.158
 5592SOL    HW117675   1.901   5.920   3.253
 5592SOL    HW217676   1.903   5.870   3.098
 5593SOL     OW17677   0.638   2.979   0.518
 5593SOL    HW117678   0.718   2.930   0.484
 5593SOL    HW217679   0.555   2.929   0.492
 5594SOL     OW17680   5.195   0.827   5.908
 5594SOL    HW117681   5.230   0.826   5.815
 5594SOL    HW217682   5.096   0.810   5.907
 5595SOL     OW17683   0.576   1.549   4.803
 5595SOL    HW117684   0.626   1.624   4.761
 5595SOL    HW217685   0.557   1.478   4.735
 5596SOL     OW17686   4.589   0.302   2.586
 5596SOL    HW117687   4.594   0.356   2.502
 5596SOL    HW217688   4.629   0.355   2.662
 5597SOL     OW17689   4.957   2.731   4.390
 5597SOL    HW117690   5.014   2.725   4.471
 5597SOL    HW217691   4.986   2.809   4.335
 5598SOL     OW17692   5.116   4.019   4.178
 5598SOL    HW117693   5.207   3.987   4.151
 5598SOL    HW217694   5.104   4.005   4.276
 5599SOL     OW17695   1.135   2.157   3.557
 5599SOL    HW117696   1.212   2.211   3.590
 5599SOL    HW217697   1.080   2.127   3.634
 5600SOL     OW17698   1.644   1.135   1.820
 5600SOL    HW117699   1.744   1.125   1.817
 5600SOL    HW217700   1.621   1.216   1.874
 5601SOL     OW17701   2.147   0.607   5.898
 5601SOL    HW117702   2.100   0.523   5.925
 5601SOL    HW217703   2.110   0.639   5.811
 5602SOL     OW17704   6.255   1.607   1.202
 5602SOL    HW117705   6.331   1.582   1.262
 5602SOL    HW217706   6.177   1.547   1.220
 5603SOL     OW17707   5.774   2.243   6.301
 5603SOL    HW117708   5.711   2.258   6.225
 5603SOL    HW217709   5.751   2.307   6.375
 5604SOL     OW17710   6.238   1.798   4.889
 5604SOL    HW117711   6.288   1.858   4.950
 5604SOL    HW217712   6.217   1.846   4.804
 5605SOL     OW17713   0.127   1.708   4.857
 5605SOL    HW117714   0.072   1.666   4.785
 5605SOL    HW217715   0.148   1.640   4.927
 5606SOL     OW17716   4.939   6.757   0.374
 5606SOL    HW117717   5.007   6.826   0.352
 5606SOL    HW217718   4.889   6.732   0.291
 5607SOL     OW17719   5.785   1.076   2.900
 5607SOL    HW117720   5.854   1.135   2.858
 5607SOL    HW217721   5.695   1.099   2.864
 5608SOL     OW17722   5.103   0.087   4.297
 5608SOL    HW117723   5.197   0.111   4.320
 5608SOL    HW217724   5.102   0.022   4.221
 5609SOL     OW17725   3.244   6.476   1.329
 5609SOL    HW117726   3.275   6.564   1.366
 5609SOL    HW217727   3.324   6.418   1.310
 5610SOL     OW17728   3.641   6.129   0.529
 5610SOL    HW117729   3.583   6.074   0.589
 5610SOL    HW217730   3.613   6.225   0.534
 5611SOL     OW17731   0.973   5.832   2.650
 5611SOL    HW117732   0.890   5.888   2.646
 5611SOL    HW217733   0.980   5.789   2.740
 5612SOL     OW17734   3.741   2.485   6.892
 5612SOL    HW117735   3.748   2.579   6.857
 5612SOL    HW217736   3.694   2.486   6.980
 5613SOL     OW17737   5.770   4.098   3.665
 5613SOL    HW117738   5.800   4.188   3.696
 5613SOL    HW217739   5.672   4.100   3.645
 5614SOL     OW17740   4.429   1.799   4.118
 5614SOL    HW117741   4.513   1.825   4.166
 5614SOL    HW217742   4.375   1.739   4.177
 5615SOL     OW17743   0.451   1.708   4.279
 5615SOL    HW117744   0.413   1.646   4.347
 5615SOL    HW217745   0.407   1.798   4.287
 5616SOL     OW17746   2.424   2.020   4.789
 5616SOL    HW117747   2.522   2.040   4.795
 5616SOL    HW217748   2.410   1.923   4.770
 5617SOL     OW17749   2.893   0.093   5.822
 5617SOL    HW117750   2.807   0.093   5.874
 5617SOL    HW217751   2.939   0.181   5.835
 5618SOL     OW17752   0.091   4.376   3.739
 5618SOL    HW117753   0.087   4.412   3.832
 5618SOL    HW217754   0.006   4.398   3.691
 5619SOL     OW17755   2.637   3.667   5.784
 5619SOL    HW117756   2.731   3.689   5.810
 5619SOL    HW217757   2.637   3.580   5.733
 5620SOL     OW17758   4.557   3.717   1.008
 5620SOL    HW117759   4.500   3.639   1.035
 5620SOL    HW217760   4.579   3.711   0.911
 5621SOL     OW17761   2.318   1.564   6.767
 5621SOL    HW117762   2.351   1.615   6.846
 5621SOL    HW217763   2.261   1.488   6.798
 5622SOL     OW17764   4.845   0.367   6.362
 5622SOL    HW117765   4.875   0.330   6.274
 5622SOL    HW217766   4.813   0.461   6.349
 5623SOL     OW17767   2.762   5.733   4.935
 5623SOL    HW117768   2.710   5.648   4.944
 5623SOL    HW217769   2.834   5.734   5.005
 5624SOL     OW17770   1.042   4.277   3.907
 5624SOL    HW117771   0.945   4.266   3.925
 5624SOL    HW217772   1.072   4.209   3.840
 5625SOL     OW17773   6.369   1.535   4.839
 5625SOL    HW117774   6.327   1.625   4.851
 5625SOL    HW217775   6.468   1.543   4.842
 5626SOL     OW17776   2.565   6.273   4.199
 5626SOL    HW117777   2.549   6.289   4.102
 5626SOL    HW217778   2.478   6.254   4.244
 5627SOL     OW17779   0.893   5.897   6.307
 5627SOL    HW117780   0.936   5.872   6.221
 5627SOL    HW217781   0.940   5.851   6.383
 5628SOL     OW17782   1.036   2.584   0.406
 5628SOL    HW117783   1.081   2.511   0.457
 5628SOL    HW217784   0.966   2.543   0.346
 5629SOL     OW17785   3.560   4.080   2.582
 5629SOL    HW117786   3.635   4.021   2.554
 5629SOL    HW217787   3.522   4.126   2.501
 5630SOL     OW17788   1.953   4.182   0.349
 5630SOL    HW117789   2.044   4.191   0.310
 5630SOL    HW217790   1.927   4.086   0.352
 5631SOL     OW17791   4.848   1.751   0.627
 5631SOL    HW117792   4.844   1.712   0.535
 5631SOL    HW217793   4.914   1.699   0.682
 5632SOL     OW17794   3.195   2.540   5.821
 5632SOL    HW117795   3.167   2.445   5.826
 5632SOL    HW217796   3.288   2.550   5.856
 5633SOL     OW17797   6.268   3.616   4.029
 5633SOL    HW117798   6.339   3.546   4.022
 5633SOL    HW217799   6.273   3.677   3.950
 5634SOL     OW17800   2.482   5.200   4.366
 5634SOL    HW117801   2.525   5.213   4.276
 5634SOL    HW217802   2.417   5.274   4.383
 5635SOL     OW17803   2.302   3.947   5.534
 5635SOL    HW117804   2.280   3.985   5.444
 5635SOL    HW217805   2.219   3.911   5.576
 5636SOL     OW17806   4.009   6.493   4.189
 5636SOL    HW117807   4.051   6.450   4.109
 5636SOL    HW217808   3.985   6.587   4.168
 5637SOL     OW17809   5.069   6.687   3.425
 5637SOL    HW117810   5.015   6.703   3.507
 5637SOL    HW217811   5.111   6.773   3.395
 5638SOL     OW17812   6.169   3.485   1.096
 5638SOL    HW117813   6.157   3.584   1.108
 5638SOL    HW217814   6.121   3.437   1.169
 5639SOL     OW17815   0.754   0.960   1.170
 5639SOL    HW117816   0.730   0.994   1.261
 5639SOL    HW217817   0.730   1.029   1.101
 5640SOL     OW17818   2.971   0.433   3.814
 5640SOL    HW117819   3.070   0.421   3.799
 5640SOL    HW217820   2.922   0.358   3.772
 5641SOL     OW17821   1.229   5.480   5.470
 5641SOL    HW117822   1.208   5.382   5.473
 5641SOL    HW217823   1.203   5.522   5.558
 5642SOL     OW17824   1.898   6.807   5.645
 5642SOL    HW117825   1.850   6.739   5.591
 5642SOL    HW217826   1.864   6.898   5.622
 5643SOL     OW17827   4.580   1.909   4.830
 5643SOL    HW117828   4.615   1.994   4.790
 5643SOL    HW217829   4.488   1.925   4.865
 5644SOL     OW17830   3.430   0.435   4.858
 5644SOL    HW117831   3.388   0.344   4.854
 5644SOL    HW217832   3.385   0.489   4.928
 5645SOL     OW17833   6.262   4.180   4.083
 5645SOL    HW117834   6.297   4.182   4.177
 5645SOL    HW217835   6.335   4.204   4.020
 5646SOL     OW17836   1.643   5.441   3.279
 5646SOL    HW117837   1.716   5.507   3.294
 5646SOL    HW217838   1.614   5.444   3.184
 5647SOL     OW17839   5.185   6.452   1.134
 5647SOL    HW117840   5.244   6.391   1.082
 5647SOL    HW217841   5.094   6.455   1.092
 5648SOL     OW17842   2.108   5.529   2.640
 5648SOL    HW117843   2.089   5.610   2.585
 5648SOL    HW217844   2.147   5.458   2.581
 5649SOL     OW17845   0.793   6.652   4.245
 5649SOL    HW117846   0.885   6.658   4.205
 5649SOL    HW217847   0.768   6.556   4.257
 5650SOL     OW17848   1.333   4.351   1.734
 5650SOL    HW117849   1.255   4.305   1.692
 5650SOL    HW217850   1.305   4.440   1.770
 5651SOL     OW17851   2.357   1.482   0.376
 5651SOL    HW117852   2.370   1.472   0.474
 5651SOL    HW217853   2.335   1.577   0.354
 5652SOL     OW17854   6.295   5.836   1.136
 5652SOL    HW117855   6.253   5.876   1.218
 5652SOL    HW217856   6.246   5.753   1.111
 5653SOL     OW17857   6.838   6.521   6.533
 5653SOL    HW117858   6.774   6.506   6.608
 5653SOL    HW217859   6.838   6.441   6.473
 5654SOL     OW17860   0.697   6.207   4.595
 5654SOL    HW117861   0.660   6.139   4.658
 5654SOL    HW217862   0.785   6.241   4.629
 5655SOL     OW17863   0.189   3.005   4.166
 5655SOL    HW117864   0.127   3.083   4.160
 5655SOL    HW217865   0.263   3.017   4.100
 5656SOL     OW17866   6.913   3.855   6.615
 5656SOL    HW117867   6.924   3.875   6.517
 5656SOL    HW217868   6.953   3.766   6.636
 5657SOL     OW17869   5.366   3.224   5.501
 5657SOL    HW117870   5.299   3.233   5.574
 5657SOL    HW217871   5.323   3.248   5.414
 5658SOL     OW17872   2.718   3.327   6.313
 5658SOL    HW117873   2.729   3.265   6.235
 5658SOL    HW217874   2.765   3.414   6.294
 5659SOL     OW17875   4.135   3.479   6.329
 5659SOL    HW117876   4.054   3.521   6.371
 5659SOL    HW217877   4.183   3.548   6.275
 5660SOL     OW17878   4.846   6.658   5.743
 5660SOL    HW117879   4.821   6.598   5.668
 5660SOL    HW217880   4.764   6.705   5.777
 5661SOL     OW17881   1.779   5.977   4.452
 5661SOL    HW117882   1.819   6.053   4.503
 5661SOL    HW217883   1.754   5.904   4.516
 5662SOL     OW17884   2.869   0.112   2.989
 5662SOL    HW117885   2.817   0.118   3.075
 5662SOL    HW217886   2.807   0.087   2.915
 5663SOL     OW17887   2.569   1.910   0.712
 5663SOL    HW117888   2.571   1.843   0.637
 5663SOL    HW217889   2.559   2.002   0.675
 5664SOL     OW17890   6.688   3.505   3.881
 5664SOL    HW117891   6.741   3.465   3.806
 5664SOL    HW217892   6.687   3.442   3.959
 5665SOL     OW17893   1.029   7.010   0.849
 5665SOL    HW117894   1.105   6.945   0.845
 5665SOL    HW217895   0.968   6.995   0.771
 5666SOL     OW17896   6.215   0.387   3.943
 5666SOL    HW117897   6.275   0.467   3.931
 5666SOL    HW217898   6.271   0.305   3.953
 5667SOL     OW17899   1.688   5.174   4.808
 5667SOL    HW117900   1.654   5.181   4.901
 5667SOL    HW217901   1.788   5.186   4.807
 5668SOL     OW17902   6.355   3.063   3.441
 5668SOL    HW117903   6.353   2.997   3.365
 5668SOL    HW217904   6.262   3.097   3.456
 5669SOL     OW17905   6.571   4.590   0.983
 5669SOL    HW117906   6.593   4.548   0.895
 5669SOL    HW217907   6.625   4.674   0.994
 5670SOL     OW17908   1.478   3.302   3.829
 5670SOL    HW117909   1.390   3.258   3.813
 5670SOL    HW217910   1.552   3.235   3.813
 5671SOL     OW17911   6.112   6.170   5.699
 5671SOL    HW117912   6.207   6.172   5.732
 5671SOL    HW217913   6.107   6.219   5.612
 5672SOL     OW17914   5.413   4.375   5.772
 5672SOL    HW117915   5.388   4.283   5.802
 5672SOL    HW217916   5.492   4.407   5.824
 5673SOL     OW17917   1.363   6.519   0.988
 5673SOL    HW117918   1.275   6.564   0.973
 5673SOL    HW217919   1.347   6.427   1.023
 5674SOL     OW17920   1.976   4.660   4.863
 5674SOL    HW117921   2.019   4.591   4.805
 5674SOL    HW217922   2.045   4.728   4.890
 5675SOL     OW17923   4.474   2.828   0.038
 5675SOL    HW117924   4.558   2.854   0.086
 5675SOL    HW217925   4.416   2.909   0.026
 5676SOL     OW17926   2.782   1.801   2.231
 5676SOL    HW117927   2.799   1.840   2.141
 5676SOL    HW217928   2.869   1.779   2.275
 5677SOL     OW17929   0.959   0.900   0.499
 5677SOL    HW117930   0.941   0.992   0.536
 5677SOL    HW217931   0.899   0.883   0.421
 5678SOL     OW17932   4.157   0.905   2.667
 5678SOL    HW117933   4.075   0.961   2.656
 5678SOL    HW217934   4.146   0.844   2.746
 5679SOL     OW17935   5.844   1.484   4.188
 5679SOL    HW117936   5.806   1.395   4.161
 5679SOL    HW217937   5.813   1.554   4.124
 5680SOL     OW17938   1.983   5.527   6.442
 5680SOL    HW117939   2.012   5.591   6.513
 5680SOL    HW217940   1.898   5.483   6.470
 5681SOL     OW17941   0.344   3.732   2.407
 5681SOL    HW117942   0.252   3.694   2.414
 5681SOL    HW217943   0.405   3.666   2.363
 5682SOL     OW17944   2.579   5.485   4.491
 5682SOL    HW117945   2.572   5.524   4.400
 5682SOL    HW217946   2.655   5.420   4.495
 5683SOL     OW17947   3.332   2.161   6.085
 5683SOL    HW117948   3.280   2.179   6.001
 5683SOL    HW217949   3.408   2.100   6.064
 5684SOL     OW17950   1.875   3.609   5.998
 5684SOL    HW117951   1.963   3.565   5.981
 5684SOL    HW217952   1.802   3.543   5.980
 5685SOL     OW17953   2.472   2.054   3.032
 5685SOL    HW117954   2.434   2.023   2.945
 5685SOL    HW217955   2.432   2.142   3.056
 5686SOL     OW17956   2.791   1.419   4.876
 5686SOL    HW117957   2.844   1.503   4.881
 5686SOL    HW217958   2.712   1.425   4.938
 5687SOL     OW17959   0.981   6.110   5.945
 5687SOL    HW117960   0.931   6.157   6.018
 5687SOL    HW217961   0.990   6.171   5.866
 5688SOL     OW17962   1.518   2.742   3.053
 5688SOL    HW117963   1.447   2.707   3.114
 5688SOL    HW217964   1.475   2.789   2.975
 5689SOL     OW17965   2.544   0.836   1.762
 5689SOL    HW117966   2.471   0.776   1.732
 5689SOL    HW217967   2.631   0.787   1.761
 5690SOL     OW17968   1.491   5.841   6.771
 5690SOL    HW117969   1.517   5.830   6.675
 5690SOL    HW217970   1.555   5.790   6.828
 5691SOL     OW17971   3.710   0.529   1.907
 5691SOL    HW117972   3.762   0.612   1.928
 5691SOL    HW217973   3.621   0.555   1.868
 5692SOL     OW17974   4.923   4.844   1.306
 5692SOL    HW117975   4.920   4.791   1.221
 5692SOL    HW217976   4.907   4.940   1.286
 5693SOL     OW17977   4.474   0.579   1.531
 5693SOL    HW117978   4.444   0.565   1.626
 5693SOL    HW217979   4.523   0.666   1.525
 5694SOL     OW17980   0.533   0.529   2.345
 5694SOL    HW117981   0.470   0.541   2.421
 5694SOL    HW217982   0.621   0.570   2.368
 5695SOL     OW17983   1.245   1.083   2.734
 5695SOL    HW117984   1.187   1.015   2.780
 5695SOL    HW217985   1.213   1.097   2.641
 5696SOL     OW17986   1.233   6.505   4.478
 5696SOL    HW117987   1.255   6.415   4.441
 5696SOL    HW217988   1.136   6.525   4.462
 5697SOL     OW17989   5.850   2.474   2.165
 5697SOL    HW117990   5.797   2.432   2.239
 5697SOL    HW217991   5.803   2.461   2.078
 5698SOL     OW17992   1.385   4.572   4.545
 5698SOL    HW117993   1.374   4.544   4.449
 5698SOL    HW217994   1.378   4.671   4.551
 5699SOL     OW17995   1.631   2.298   2.920
 5699SOL    HW117996   1.538   2.333   2.931
 5699SOL    HW217997   1.677   2.349   2.848
 5700SOL     OW17998   6.543   6.610   3.283
 5700SOL    HW117999   6.567   6.617   3.186
 5700SOL    HW218000   6.536   6.702   3.322
 5701SOL     OW18001   0.009   0.568   1.825
 5701SOL    HW118002   6.969   0.500   1.791
 5701SOL    HW218003   0.067   0.525   1.895
 5702SOL     OW18004   2.049   6.171   3.893
 5702SOL    HW118005   2.073   6.183   3.797
 5702SOL    HW218006   2.007   6.081   3.906
 5703SOL     OW18007   7.007   4.377   6.450
 5703SOL    HW118008   6.954   4.416   6.526
 5703SOL    HW218009   6.956   4.302   6.408
 5704SOL     OW18010   5.007   3.984   2.934
 5704SOL    HW118011   5.016   3.994   2.835
 5704SOL    HW218012   5.096   4.000   2.977
 5705SOL     OW18013   5.001   5.651   6.412
 5705SOL    HW118014   5.026   5.712   6.487
 5705SOL    HW218015   5.076   5.647   6.346
 5706SOL     OW18016   5.401   2.156   1.995
 5706SOL    HW118017   5.477   2.158   1.930
 5706SOL    HW218018   5.383   2.062   2.023
 5707SOL     OW18019   6.340   0.616   0.769
 5707SOL    HW118020   6.381   0.573   0.850
 5707SOL    HW218021   6.272   0.683   0.798
 5708SOL     OW18022   5.262   6.154   2.545
 5708SOL    HW118023   5.334   6.111   2.491
 5708SOL    HW218024   5.276   6.254   2.545
 5709SOL     OW18025   0.399   1.315   2.768
 5709SOL    HW118026   0.409   1.265   2.682
 5709SOL    HW218027   0.333   1.389   2.755
 5710SOL     OW18028   3.037   2.058   0.329
 5710SOL    HW118029   3.062   1.963   0.345
 5710SOL    HW218030   2.983   2.092   0.406
 5711SOL     OW18031   4.978   0.709   1.651
 5711SOL    HW118032   5.037   0.704   1.731
 5711SOL    HW218033   4.891   0.665   1.671
 5712SOL     OW18034   6.281   6.675   6.963
 5712SOL    HW118035   6.199   6.661   7.019
 5712SOL    HW218036   6.362   6.667   7.021
 5713SOL     OW18037   3.144   4.365   1.494
 5713SOL    HW118038   3.065   4.374   1.434
 5713SOL    HW218039   3.123   4.303   1.569
 5714SOL     OW18040   6.681   6.162   1.079
 5714SOL    HW118041   6.706   6.201   0.990
 5714SOL    HW218042   6.755   6.175   1.144
 5715SOL     OW18043   0.222   6.895   2.167
 5715SOL    HW118044   0.150   6.843   2.214
 5715SOL    HW218045   0.200   6.901   2.070
 5716SOL     OW18046   1.011   5.796   5.735
 5716SOL    HW118047   1.110   5.813   5.736
 5716SOL    HW218048   0.966   5.862   5.675
 5717SOL     OW18049   1.954   5.044   1.582
 5717SOL    HW118050   1.997   4.954   1.594
 5717SOL    HW218051   1.925   5.055   1.487
 5718SOL     OW18052   1.588   3.351   0.170
 5718SOL    HW118053   1.492   3.324   0.165
 5718SOL    HW218054   1.594   3.449   0.188
 5719SOL     OW18055   2.461   3.410   0.640
 5719SOL    HW118056   2.369   3.376   0.624
 5719SOL    HW218057   2.476   3.420   0.739
 5720SOL     OW18058   1.868   6.914   4.828
 5720SOL    HW118059   1.832   6.990   4.882
 5720SOL    HW218060   1.822   6.829   4.854
 5721SOL     OW18061   5.765   4.260   0.835
 5721SOL    HW118062   5.678   4.282   0.791
 5721SOL    HW218063   5.747   4.220   0.925
 5722SOL     OW18064   6.764   2.749   5.336
 5722SOL    HW118065   6.757   2.832   5.281
 5722SOL    HW218066   6.698   2.681   5.303
 5723SOL     OW18067   4.508   3.931   0.016
 5723SOL    HW118068   4.443   3.857   7.024
 5723SOL    HW218069   4.543   3.922   0.109
 5724SOL     OW18070   5.790   2.844   4.339
 5724SOL    HW118071   5.788   2.748   4.367
 5724SOL    HW218072   5.770   2.851   4.241
 5725SOL     OW18073   6.646   4.411   4.513
 5725SOL    HW118074   6.731   4.463   4.501
 5725SOL    HW218075   6.655   4.350   4.592
 5726SOL     OW18076   6.638   5.155   4.135
 5726SOL    HW118077   6.552   5.154   4.184
 5726SOL    HW218078   6.639   5.229   4.068
 5727SOL     OW18079   6.534   2.459   4.534
 5727SOL    HW118080   6.519   2.457   4.633
 5727SOL    HW218081   6.502   2.547   4.497
 5728SOL     OW18082   5.290   6.164   5.501
 5728SOL    HW118083   5.313   6.221   5.581
 5728SOL    HW218084   5.234   6.087   5.530
 5729SOL     OW18085   1.849   1.727   6.647
 5729SOL    HW118086   1.846   1.755   6.743
 5729SOL    HW218087   1.944   1.730   6.614
 5730SOL     OW18088   6.416   4.456   6.615
 5730SOL    HW118089   6.485   4.412   6.558
 5730SOL    HW218090   6.325   4.420   6.592
 5731SOL     OW18091   6.786   0.006   2.277
 5731SOL    HW118092   6.764   0.096   2.314
 5731SOL    HW218093   6.706   6.993   2.232
 5732SOL     OW18094   0.759   6.322   3.772
 5732SOL    HW118095   0.690   6.259   3.807
 5732SOL    HW218096   0.829   6.271   3.721
 5733SOL     OW18097   3.888   6.427   5.287
 5733SOL    HW118098   3.870   6.339   5.331
 5733SOL    HW218099   3.801   6.475   5.274
 5734SOL     OW18100   0.927   0.399   5.274
 5734SOL    HW118101   0.952   0.318   5.220
 5734SOL    HW218102   0.935   0.480   5.216
 5735SOL     OW18103   3.281   1.394   0.697
 5735SOL    HW118104   3.372   1.358   0.717
 5735SOL    HW218105   3.217   1.318   0.684
 5736SOL     OW18106   0.106   4.499   6.971
 5736SOL    HW118107   0.145   4.476   6.882
 5736SOL    HW218108   0.011   4.468   6.975
 5737SOL     OW18109   5.542   5.904   0.380
 5737SOL    HW118110   5.485   5.883   0.300
 5737SOL    HW218111   5.636   5.919   0.351
 5738SOL     OW18112   1.745   3.318   6.428
 5738SOL    HW118113   1.834   3.327   6.384
 5738SOL    HW218114   1.676   3.365   6.372
 5739SOL     OW18115   1.637   1.300   6.110
 5739SOL    HW118116   1.599   1.387   6.079
 5739SOL    HW218117   1.595   1.225   6.058
 5740SOL     OW18118   4.364   5.443   0.337
 5740SOL    HW118119   4.304   5.518   0.365
 5740SOL    HW218120   4.334   5.408   0.248
 5741SOL     OW18121   0.271   5.672   4.183
 5741SOL    HW118122   0.179   5.652   4.215
 5741SOL    HW218123   0.333   5.681   4.261
 5742SOL     OW18124   5.037   6.354   2.612
 5742SOL    HW118125   4.994   6.265   2.601
 5742SOL    HW218126   4.969   6.420   2.644
 5743SOL     OW18127   3.224   6.442   4.859
 5743SOL    HW118128   3.137   6.444   4.908
 5743SOL    HW218129   3.207   6.448   4.761
 5744SOL     OW18130   4.636   0.188   0.739
 5744SOL    HW118131   4.633   0.262   0.807
 5744SOL    HW218132   4.577   0.211   0.662
 5745SOL     OW18133   3.245   1.392   4.224
 5745SOL    HW118134   3.280   1.430   4.310
 5745SOL    HW218135   3.305   1.420   4.149
 5746SOL     OW18136   5.011   0.918   0.907
 5746SOL    HW118137   4.963   0.872   0.981
 5746SOL    HW218138   4.959   0.997   0.877
 5747SOL     OW18139   0.557   5.153   2.849
 5747SOL    HW118140   0.490   5.165   2.775
 5747SOL    HW218141   0.617   5.076   2.827
 5748SOL     OW18142   1.821   5.063   1.346
 5748SOL    HW118143   1.758   4.985   1.341
 5748SOL    HW218144   1.778   5.143   1.304
 5749SOL     OW18145   2.545   1.293   3.989
 5749SOL    HW118146   2.475   1.351   4.030
 5749SOL    HW218147   2.522   1.197   4.005
 5750SOL     OW18148   5.757   5.278   4.784
 5750SOL    HW118149   5.807   5.358   4.818
 5750SOL    HW218150   5.780   5.198   4.839
 5751SOL     OW18151   2.350   2.587   5.218
 5751SOL    HW118152   2.401   2.514   5.172
 5751SOL    HW218153   2.414   2.656   5.252
 5752SOL     OW18154   6.007   1.062   6.356
 5752SOL    HW118155   6.003   0.992   6.285
 5752SOL    HW218156   6.097   1.106   6.354
 5753SOL     OW18157   3.368   3.420   6.261
 5753SOL    HW118158   3.367   3.324   6.290
 5753SOL    HW218159   3.457   3.442   6.222
 5754SOL     OW18160   5.848   5.509   1.448
 5754SOL    HW118161   5.932   5.458   1.466
 5754SOL    HW218162   5.826   5.566   1.527
 5755SOL     OW18163   2.621   3.712   6.263
 5755SOL    HW118164   2.572   3.752   6.185
 5755SOL    HW218165   2.686   3.643   6.230
 5756SOL     OW18166   6.665   4.909   3.659
 5756SOL    HW118167   6.719   4.863   3.589
 5756SOL    HW218168   6.584   4.950   3.617
 5757SOL     OW18169   6.324   6.431   1.660
 5757SOL    HW118170   6.250   6.381   1.705
 5757SOL    HW218171   6.384   6.365   1.614
 5758SOL     OW18172   2.775   2.229   4.605
 5758SOL    HW118173   2.787   2.303   4.538
 5758SOL    HW218174   2.678   2.213   4.620
 5759SOL     OW18175   4.961   2.238   6.934
 5759SOL    HW118176   5.009   2.219   7.020
 5759SOL    HW218177   5.027   2.235   6.858
 5760SOL     OW18178   1.558   6.069   2.262
 5760SOL    HW118179   1.648   6.093   2.226
 5760SOL    HW218180   1.491   6.069   2.188
 5761SOL     OW18181   5.882   7.013   5.432
 5761SOL    HW118182   5.957   0.053   5.423
 5761SOL    HW218183   5.796   0.030   5.403
 5762SOL     OW18184   5.685   0.224   0.395
 5762SOL    HW118185   5.689   0.317   0.359
 5762SOL    HW218186   5.659   0.227   0.492
 5763SOL     OW18187   0.784   6.457   0.900
 5763SOL    HW118188   0.773   6.472   0.999
 5763SOL    HW218189   0.807   6.544   0.856
 5764SOL     OW18190   6.049   4.657   5.565
 5764SOL    HW118191   6.086   4.738   5.519
 5764SOL    HW218192   6.115   4.625   5.634
 5765SOL     OW18193   6.504   4.548   6.851
 5765SOL    HW118194   6.468   4.508   6.767
 5765SOL    HW218195   6.511   4.479   6.922
 5766SOL     OW18196   3.273   1.073   2.078
 5766SOL    HW118197   3.342   1.053   2.008
 5766SOL    HW218198   3.233   1.164   2.060
 5767SOL     OW18199   1.238   6.483   0.625
 5767SOL    HW118200   1.326   6.512   0.588
 5767SOL    HW218201   1.178   6.455   0.549
 5768SOL     OW18202   0.146   0.436   2.989
 5768SOL    HW118203   0.154   0.520   2.935
 5768SOL    HW218204   0.066   0.385   2.961
 5769SOL     OW18205   3.109   6.723   3.199
 5769SOL    HW118206   3.072   6.792   3.137
 5769SOL    HW218207   3.188   6.679   3.156
 5770SOL     OW18208   6.851   0.042   1.102
 5770SOL    HW118209   6.845   7.017   1.187
 5770SOL    HW218210   6.935   0.097   1.101
 5771SOL     OW18211   1.384   0.310   1.173
 5771SOL    HW118212   1.334   0.228   1.145
 5771SOL    HW218213   1.342   0.390   1.132
 5772SOL     OW18214   5.923   2.529   0.614
 5772SOL    HW118215   5.856   2.572   0.675
 5772SOL    HW218216   5.926   2.578   0.527
 5773SOL     OW18217   5.412   6.575   4.042
 5773SOL    HW118218   5.477   6.648   4.021
 5773SOL    HW218219   5.462   6.492   4.067
 5774SOL     OW18220   2.500   4.645   2.926
 5774SOL    HW118221   2.481   4.707   2.850
 5774SOL    HW218222   2.529   4.697   3.006
 5775SOL     OW18223   0.476   0.382   0.161
 5775SOL    HW118224   0.382   0.408   0.139
 5775SOL    HW218225   0.480   0.284   0.180
 5776SOL     OW18226   5.651   0.914   6.446
 5776SOL    HW118227   5.663   0.849   6.521
 5776SOL    HW218228   5.614   0.867   6.366
 5777SOL     OW18229   5.782   0.649   4.138
 5777SOL    HW118230   5.746   0.742   4.144
 5777SOL    HW218231   5.714   0.585   4.173
 5778SOL     OW18232   2.428   0.573   2.631
 5778SOL    HW118233   2.408   0.640   2.702
 5778SOL    HW218234   2.350   0.566   2.569
 5779SOL     OW18235   3.732   0.699   1.132
 5779SOL    HW118236   3.708   0.648   1.050
 5779SOL    HW218237   3.668   0.774   1.145
 5780SOL     OW18238   6.112   4.836   1.844
 5780SOL    HW118239   6.198   4.808   1.801
 5780SOL    HW218240   6.072   4.912   1.792
 5781SOL     OW18241   1.767   4.090   4.937
 5781SOL    HW118242   1.673   4.119   4.951
 5781SOL    HW218243   1.808   4.065   5.025
 5782SOL     OW18244   1.570   0.808   1.470
 5782SOL    HW118245   1.516   0.881   1.427
 5782SOL    HW218246   1.524   0.720   1.455
 5783SOL     OW18247   2.018   1.230   0.406
 5783SOL    HW118248   2.017   1.232   0.506
 5783SOL    HW218249   1.956   1.159   0.373
 5784SOL     OW18250   0.692   6.038   0.403
 5784SOL    HW118251   0.654   5.946   0.414
 5784SOL    HW218252   0.763   6.053   0.472
 5785SOL     OW18253   1.336   1.053   0.860
 5785SOL    HW118254   1.384   1.067   0.946
 5785SOL    HW218255   1.263   0.986   0.872
 5786SOL     OW18256   1.505   3.665   1.753
 5786SOL    HW118257   1.556   3.736   1.704
 5786SOL    HW218258   1.408   3.686   1.751
 5787SOL     OW18259   5.647   2.378   4.031
 5787SOL    HW118260   5.606   2.337   3.949
 5787SOL    HW218261   5.718   2.317   4.066
 5788SOL     OW18262   3.290   0.227   1.857
 5788SOL    HW118263   3.290   0.235   1.957
 5788SOL    HW218264   3.201   0.254   1.821
 5789SOL     OW18265   3.593   2.948   0.448
 5789SOL    HW118266   3.495   2.944   0.469
 5789SOL    HW218267   3.645   2.963   0.532
 5790SOL     OW18268   6.089   5.594   4.687
 5790SOL    HW118269   6.000   5.639   4.692
 5790SOL    HW218270   6.139   5.611   4.772
 5791SOL     OW18271   2.995   1.897   2.585
 5791SOL    HW118272   2.954   1.987   2.601
 5791SOL    HW218273   2.922   1.828   2.581
 5792SOL     OW18274   4.897   3.242   3.048
 5792SOL    HW118275   4.920   3.309   2.978
 5792SOL    HW218276   4.850   3.164   3.006
 5793SOL     OW18277   6.187   2.447   5.228
 5793SOL    HW118278   6.103   2.417   5.274
 5793SOL    HW218279   6.262   2.447   5.293
 5794SOL     OW18280   2.851   6.780   6.016
 5794SOL    HW118281   2.801   6.739   5.940
 5794SOL    HW218282   2.927   6.835   5.980
 5795SOL     OW18283   1.113   5.429   1.558
 5795SOL    HW118284   1.168   5.389   1.485
 5795SOL    HW218285   1.171   5.448   1.637
 5796SOL     OW18286   4.637   2.102   6.357
 5796SOL    HW118287   4.700   2.132   6.429
 5796SOL    HW218288   4.565   2.045   6.398
 5797SOL     OW18289   5.479   1.922   0.066
 5797SOL    HW118290   5.464   1.875   7.005
 5797SOL    HW218291   5.398   1.977   0.088
 5798SOL     OW18292   0.831   3.942   5.083
 5798SOL    HW118293   0.751   3.945   5.023
 5798SOL    HW218294   0.807   3.977   5.174
 5799SOL     OW18295   1.509   6.305   3.148
 5799SOL    HW118296   1.428   6.271   3.197
 5799SOL    HW218297   1.591   6.265   3.188
 5800SOL     OW18298   0.360   0.042   1.047
 5800SOL    HW118299   0.297   7.007   1.097
 5800SOL    HW218300   0.315   0.130   1.031
 5801SOL     OW18301   2.345   2.742   2.375
 5801SOL    HW118302   2.335   2.646   2.349
 5801SOL    HW218303   2.404   2.749   2.455
 5802SOL     OW18304   6.749   2.018   3.195
 5802SOL    HW118305   6.678   1.991   3.261
 5802SOL    HW218306   6.742   1.959   3.114
 5803SOL     OW18307   1.942   5.220   4.802
 5803SOL    HW118308   1.945   5.261   4.711
 5803SOL    HW218309   2.031   5.230   4.846
 5804SOL     OW18310   5.971   6.275   3.897
 5804SOL    HW118311   5.881   6.231   3.894
 5804SOL    HW218312   5.961   6.371   3.871
 5805SOL     OW18313   2.050   3.804   1.552
 5805SOL    HW118314   1.994   3.814   1.635
 5805SOL    HW218315   2.009   3.736   1.492
 5806SOL     OW18316   0.245   3.085   3.717
 5806SOL    HW118317   0.208   3.016   3.778
 5806SOL    HW218318   0.345   3.079   3.716
 5807SOL     OW18319   1.258   5.679   0.299
 5807SOL    HW118320   1.318   5.759   0.294
 5807SOL    HW218321   1.314   5.596   0.308
 5808SOL     OW18322   6.197   6.658   4.280
 5808SOL    HW118323   6.268   6.633   4.346
 5808SOL    HW218324   6.107   6.656   4.326
 5809SOL     OW18325   0.103   2.325   6.102
 5809SOL    HW118326   0.198   2.329   6.072
 5809SOL    HW218327   0.091   2.383   6.183
 5810SOL     OW18328   4.377   6.817   5.094
 5810SOL    HW118329   4.440   6.805   5.017
 5810SOL    HW218330   4.338   6.909   5.091
 5811SOL     OW18331   2.735   3.175   6.063
 5811SOL    HW118332   2.651   3.172   6.009
 5811SOL    HW218333   2.791   3.095   6.043
 5812SOL     OW18334   5.909   3.039   0.571
 5812SOL    HW118335   5.939   2.999   0.484
 5812SOL    HW218336   5.845   2.976   0.615
 5813SOL     OW18337   4.291   6.068   1.052
 5813SOL    HW118338   4.265   6.096   0.960
 5813SOL    HW218339   4.318   6.148   1.105
 5814SOL     OW18340   6.353   2.003   2.602
 5814SOL    HW118341   6.430   2.066   2.595
 5814SOL    HW218342   6.282   2.042   2.662
 5815SOL     OW18343   6.536   0.968   3.864
 5815SOL    HW118344   6.448   0.967   3.910
 5815SOL    HW218345   6.595   1.038   3.904
 5816SOL     OW18346   0.481   4.791   2.589
 5816SOL    HW118347   0.392   4.759   2.558
 5816SOL    HW218348   0.487   4.783   2.689
 5817SOL     OW18349   5.539   4.029   4.487
 5817SOL    HW118350   5.558   4.043   4.390
 5817SOL    HW218351   5.624   4.009   4.535
 5818SOL     OW18352   1.551   7.000   4.995
 5818SOL    HW118353   1.576   0.051   4.935
 5818SOL    HW218354   1.626   6.982   5.059
 5819SOL     OW18355   3.684   4.757   0.279
 5819SOL    HW118356   3.611   4.702   0.320
 5819SOL    HW218357   3.649   4.848   0.257
 5820SOL     OW18358   5.651   4.700   2.276
 5820SOL    HW118359   5.693   4.781   2.317
 5820SOL    HW218360   5.568   4.676   2.326
 5821SOL     OW18361   6.598   0.867   1.402
 5821SOL    HW118362   6.540   0.790   1.428
 5821SOL    HW218363   6.650   0.842   1.320
 5822SOL     OW18364   1.479   2.098   2.709
 5822SOL    HW118365   1.456   2.167   2.640
 5822SOL    HW218366   1.555   2.131   2.765
 5823SOL     OW18367   1.942   6.703   3.652
 5823SOL    HW118368   2.038   6.729   3.637
 5823SOL    HW218369   1.938   6.627   3.717
 5824SOL     OW18370   0.995   6.819   2.355
 5824SOL    HW118371   0.916   6.875   2.331
 5824SOL    HW218372   1.000   6.740   2.293
 5825SOL     OW18373   6.199   0.201   4.692
 5825SOL    HW118374   6.293   0.174   4.671
 5825SOL    HW218375   6.170   0.272   4.628
 5826SOL     OW18376   0.035   0.184   5.223
 5826SOL    HW118377   0.130   0.162   5.247
 5826SOL    HW218378   0.009   0.270   5.267
 5827SOL     OW18379   1.596   4.205   5.423
 5827SOL    HW118380   1.580   4.227   5.519
 5827SOL    HW218381   1.630   4.286   5.375
 5828SOL     OW18382   5.205   6.698   4.164
 5828SOL    HW118383   5.253   6.699   4.251
 5828SOL    HW218384   5.251   6.635   4.101
 5829SOL     OW18385   2.088   0.883   4.228
 5829SOL    HW118386   2.044   0.795   4.208
 5829SOL    HW218387   2.025   0.957   4.205
 5830SOL     OW18388   3.475   4.928   5.583
 5830SOL    HW118389   3.472   4.935   5.683
 5830SOL    HW218390   3.541   4.995   5.548
 5831SOL     OW18391   1.179   0.953   5.246
 5831SOL    HW118392   1.269   0.921   5.217
 5831SOL    HW218393   1.139   0.887   5.309
 5832SOL     OW18394   3.367   4.715   1.473
 5832SOL    HW118395   3.453   4.767   1.474
 5832SOL    HW218396   3.357   4.666   1.560
 5833SOL     OW18397   4.253   3.735   5.726
 5833SOL    HW118398   4.231   3.808   5.661
 5833SOL    HW218399   4.224   3.762   5.818
 5834SOL     OW18400   6.630   4.310   6.929
 5834SOL    HW118401   6.649   4.278   6.836
 5834SOL    HW218402   6.702   4.374   6.957
 5835SOL     OW18403   5.598   0.449   2.684
 5835SOL    HW118404   5.615   0.360   2.643
 5835SOL    HW218405   5.553   0.437   2.773
 5836SOL     OW18406   4.500   6.421   2.102
 5836SOL    HW118407   4.424   6.469   2.145
 5836SOL    HW218408   4.472   6.390   2.011
 5837SOL     OW18409   3.654   3.872   0.519
 5837SOL    HW118410   3.656   3.943   0.449
 5837SOL    HW218411   3.679   3.784   0.478
 5838SOL     OW18412   2.782   1.888   1.633
 5838SOL    HW118413   2.752   1.939   1.552
 5838SOL    HW218414   2.713   1.895   1.705
 5839SOL     OW18415   1.460   2.322   1.857
 5839SOL    HW118416   1.448   2.229   1.823
 5839SOL    HW218417   1.372   2.360   1.884
 5840SOL     OW18418   0.756   3.719   2.275
 5840SOL    HW118419   0.659   3.695   2.277
 5840SOL    HW218420   0.770   3.806   2.322
 5841SOL     OW18421   4.474   0.932   1.073
 5841SOL    HW118422   4.522   1.016   1.099
 5841SOL    HW218423   4.539   0.868   1.032
 5842SOL     OW18424   3.365   1.906   0.496
 5842SOL    HW118425   3.414   1.851   0.564
 5842SOL    HW218426   3.364   2.002   0.524
 5843SOL     OW18427   1.714   3.500   1.322
 5843SOL    HW118428   1.660   3.511   1.239
 5843SOL    HW218429   1.721   3.403   1.346
 5844SOL     OW18430   0.710   0.241   4.823
 5844SOL    HW118431   0.763   0.320   4.793
 5844SOL    HW218432   0.772   0.166   4.848
 5845SOL     OW18433   0.375   6.641   1.876
 5845SOL    HW118434   0.315   6.605   1.947
 5845SOL    HW218435   0.391   6.738   1.893
 5846SOL     OW18436   6.772   3.802   5.448
 5846SOL    HW118437   6.681   3.789   5.409
 5846SOL    HW218438   6.821   3.715   5.448
 5847SOL     OW18439   2.526   3.262   1.048
 5847SOL    HW118440   2.506   3.359   1.066
 5847SOL    HW218441   2.512   3.209   1.131
 5848SOL     OW18442   2.361   6.074   3.885
 5848SOL    HW118443   2.341   6.120   3.971
 5848SOL    HW218444   2.321   5.982   3.887
 5849SOL     OW18445   2.312   6.520   5.291
 5849SOL    HW118446   2.355   6.504   5.380
 5849SOL    HW218447   2.237   6.455   5.279
 5850SOL     OW18448   1.696   2.336   1.970
 5850SOL    HW118449   1.651   2.305   2.053
 5850SOL    HW218450   1.628   2.348   1.897
 5851SOL     OW18451   5.837   3.364   4.645
 5851SOL    HW118452   5.823   3.427   4.568
 5851SOL    HW218453   5.926   3.381   4.686
 5852SOL     OW18454   4.866   5.477   3.883
 5852SOL    HW118455   4.899   5.480   3.789
 5852SOL    HW218456   4.842   5.383   3.907
 5853SOL     OW18457   3.588   4.977   5.825
 5853SOL    HW118458   3.669   5.026   5.859
 5853SOL    HW218459   3.526   4.959   5.902
 5854SOL     OW18460   3.067   4.661   6.042
 5854SOL    HW118461   3.014   4.596   5.987
 5854SOL    HW218462   3.023   4.673   6.131
 5855SOL     OW18463   2.082   2.567   4.042
 5855SOL    HW118464   2.067   2.535   3.948
 5855SOL    HW218465   1.994   2.576   4.088
 5856SOL     OW18466   1.639   6.471   2.742
 5856SOL    HW118467   1.641   6.451   2.645
 5856SOL    HW218468   1.569   6.414   2.786
 5857SOL     OW18469   0.479   3.162   5.895
 5857SOL    HW118470   0.459   3.223   5.819
 5857SOL    HW218471   0.531   3.211   5.965
 5858SOL     OW18472   2.123   1.246   3.139
 5858SOL    HW118473   2.175   1.165   3.168
 5858SOL    HW218474   2.111   1.244   3.040
 5859SOL     OW18475   5.446   7.011   2.212
 5859SOL    HW118476   5.494   0.061   2.168
 5859SOL    HW218477   5.372   0.022   2.269
 5860SOL     OW18478   6.932   3.434   3.135
 5860SOL    HW118479   6.913   3.336   3.136
 5860SOL    HW218480   6.958   3.462   3.042
 5861SOL     OW18481   6.077   0.872   4.994
 5861SOL    HW118482   6.035   0.869   4.904
 5861SOL    HW218483   6.152   0.939   4.994
 5862SOL     OW18484   6.523   5.764   2.864
 5862SOL    HW118485   6.605   5.780   2.921
 5862SOL    HW218486   6.545   5.784   2.769
 5863SOL     OW18487   3.348   0.551   4.358
 5863SOL    HW118488   3.307   0.562   4.268
 5863SOL    HW218489   3.389   0.637   4.387
 5864SOL     OW18490   3.459   3.649   3.424
 5864SOL    HW118491   3.393   3.597   3.479
 5864SOL    HW218492   3.497   3.723   3.480
 5865SOL     OW18493   6.072   1.155   5.864
 5865SOL    HW118494   6.042   1.249   5.849
 5865SOL    HW218495   6.034   1.097   5.791
 5866SOL     OW18496   3.975   3.383   1.394
 5866SOL    HW118497   3.969   3.328   1.477
 5866SOL    HW218498   3.908   3.351   1.327
 5867SOL     OW18499   2.666   2.212   1.534
 5867SOL    HW118500   2.730   2.281   1.569
 5867SOL    HW218501   2.655   2.224   1.435
 5868SOL     OW18502   0.903   1.353   5.753
 5868SOL    HW118503   0.978   1.420   5.750
 5868SOL    HW218504   0.915   1.294   5.833
 5869SOL     OW18505   0.776   4.494   3.956
 5869SOL    HW118506   0.708   4.564   3.933
 5869SOL    HW218507   0.866   4.524   3.924
 5870SOL     OW18508   4.189   4.782   5.384
 5870SOL    HW118509   4.231   4.862   5.427
 5870SOL    HW218510   4.160   4.805   5.291
 5871SOL     OW18511   2.920   3.455   3.827
 5871SOL    HW118512   2.898   3.377   3.886
 5871SOL    HW218513   2.895   3.433   3.732
 5872SOL     OW18514   4.253   5.970   2.142
 5872SOL    HW118515   4.321   5.962   2.069
 5872SOL    HW218516   4.253   6.064   2.177
 5873SOL     OW18517   3.226   4.863   2.874
 5873SOL    HW118518   3.161   4.796   2.837
 5873SOL    HW218519   3.233   4.851   2.973
 5874SOL     OW18520   2.336   4.320   5.174
 5874SOL    HW118521   2.308   4.238   5.224
 5874SOL    HW218522   2.318   4.306   5.076
 5875SOL     OW18523   3.421   2.132   0.067
 5875SOL    HW118524   3.424   2.138   6.993
 5875SOL    HW218525   3.507   2.165   0.105
 5876SOL     OW18526   3.717   3.721   2.233
 5876SOL    HW118527   3.816   3.716   2.218
 5876SOL    HW218528   3.697   3.706   2.330
 5877SOL     OW18529   5.933   6.098   0.788
 5877SOL    HW118530   5.897   6.033   0.855
 5877SOL    HW218531   6.032   6.088   0.781
 5878SOL     OW18532   1.294   5.287   2.993
 5878SOL    HW118533   1.272   5.350   2.919
 5878SOL    HW218534   1.294   5.336   3.080
 5879SOL     OW18535   6.351   3.630   6.783
 5879SOL    HW118536   6.371   3.713   6.731
 5879SOL    HW218537   6.362   3.550   6.725
 5880SOL     OW18538   2.771   6.114   1.222
 5880SOL    HW118539   2.814   6.039   1.272
 5880SOL    HW218540   2.840   6.185   1.204
 5881SOL     OW18541   0.262   4.423   3.052
 5881SOL    HW118542   0.334   4.365   3.091
 5881SOL    HW218543   0.286   4.447   2.958
 5882SOL     OW18544   5.585   0.673   0.990
 5882SOL    HW118545   5.490   0.676   0.959
 5882SOL    HW218546   5.588   0.662   1.089
 5883SOL     OW18547   0.484   2.555   6.382
 5883SOL    HW118548   0.511   2.555   6.478
 5883SOL    HW218549   0.523   2.474   6.337
 5884SOL     OW18550   1.554   1.208   3.313
 5884SOL    HW118551   1.492   1.285   3.330
 5884SOL    HW218552   1.519   1.154   3.237
 5885SOL     OW18553   6.663   6.562   1.207
 5885SOL    HW118554   6.662   6.607   1.117
 5885SOL    HW218555   6.625   6.623   1.276
 5886SOL     OW18556   0.713   2.498   5.593
 5886SOL    HW118557   0.725   2.568   5.664
 5886SOL    HW218558   0.658   2.535   5.518
 5887SOL     OW18559   3.776   0.991   3.847
 5887SOL    HW118560   3.811   1.013   3.938
 5887SOL    HW218561   3.714   0.913   3.853
 5888SOL     OW18562   2.513   6.001   2.528
 5888SOL    HW118563   2.478   6.077   2.583
 5888SOL    HW218564   2.491   6.017   2.431
 5889SOL     OW18565   2.034   0.086   1.498
 5889SOL    HW118566   1.945   0.120   1.468
 5889SOL    HW218567   2.040   0.091   1.598
 5890SOL     OW18568   1.251   6.972   5.330
 5890SOL    HW118569   1.237   6.880   5.366
 5890SOL    HW218570   1.165   7.024   5.338
 5891SOL     OW18571   3.659   3.760   6.912
 5891SOL    HW118572   3.600   3.681   6.929
 5891SOL    HW218573   3.657   3.821   6.992
 5892SOL     OW18574   0.998   6.287   1.184
 5892SOL    HW118575   1.082   6.237   1.207
 5892SOL    HW218576   0.919   6.236   1.217
 5893SOL     OW18577   1.325   3.020   3.029
 5893SOL    HW118578   1.388   3.000   2.954
 5893SOL    HW218579   1.367   3.084   3.092
 5894SOL     OW18580   1.204   4.766   3.440
 5894SOL    HW118581   1.194   4.702   3.364
 5894SOL    HW218582   1.208   4.716   3.526
 5895SOL     OW18583   5.267   2.414   4.820
 5895SOL    HW118584   5.299   2.363   4.900
 5895SOL    HW218585   5.345   2.453   4.771
 5896SOL     OW18586   3.641   1.956   6.753
 5896SOL    HW118587   3.609   1.926   6.843
 5896SOL    HW218588   3.655   2.055   6.755
 5897SOL     OW18589   4.141   0.003   1.499
 5897SOL    HW118590   4.184   0.069   1.438
 5897SOL    HW218591   4.173   0.018   1.593
 5898SOL     OW18592   1.221   0.020   1.762
 5898SOL    HW118593   1.216   7.025   1.860
 5898SOL    HW218594   1.147   0.082   1.737
 5899SOL     OW18595   5.871   6.753   5.362
 5899SOL    HW118596   5.878   6.851   5.380
 5899SOL    HW218597   5.892   6.735   5.266
 5900SOL     OW18598   4.519   5.140   2.983
 5900SOL    HW118599   4.520   5.051   2.937
 5900SOL    HW218600   4.430   5.154   3.026
 5901SOL     OW18601   2.088   0.225   6.802
 5901SOL    HW118602   2.092   0.136   6.757
 5901SOL    HW218603   2.178   0.269   6.799
 5902SOL     OW18604   6.897   1.947   1.275
 5902SOL    HW118605   6.798   1.959   1.287
 5902SOL    HW218606   6.913   1.894   1.191
 5903SOL     OW18607   5.539   4.346   0.713
 5903SOL    HW118608   5.457   4.294   0.689
 5903SOL    HW218609   5.512   4.437   0.744
 5904SOL     OW18610   0.617   3.529   2.547
 5904SOL    HW118611   0.533   3.515   2.494
 5904SOL    HW218612   0.648   3.623   2.535
 5905SOL     OW18613   6.597   6.622   3.007
 5905SOL    HW118614   6.670   6.690   3.014
 5905SOL    HW218615   6.557   6.626   2.915
 5906SOL     OW18616   5.787   0.412   3.990
 5906SOL    HW118617   5.781   0.506   4.024
 5906SOL    HW218618   5.819   0.352   4.064
 5907SOL     OW18619   1.142   6.417   1.983
 5907SOL    HW118620   1.196   6.367   1.915
 5907SOL    HW218621   1.075   6.355   2.024
 5908SOL     OW18622   0.818   1.842   5.792
 5908SOL    HW118623   0.755   1.915   5.766
 5908SOL    HW218624   0.769   1.754   5.791
 5909SOL     OW18625   0.899   5.683   0.435
 5909SOL    HW118626   0.928   5.774   0.465
 5909SOL    HW218627   0.906   5.619   0.511
 5910SOL     OW18628   1.025   2.675   3.220
 5910SOL    HW118629   1.114   2.696   3.179
 5910SOL    HW218630   1.038   2.640   3.313
 5911SOL     OW18631   6.934   5.813   6.173
 5911SOL    HW118632   6.849   5.772   6.206
 5911SOL    HW218633   6.928   5.829   6.074
 5912SOL     OW18634   6.391   1.270   5.459
 5912SOL    HW118635   6.410   1.351   5.515
 5912SOL    HW218636   6.427   1.285   5.367
 5913SOL     OW18637   5.482   2.923   0.369
 5913SOL    HW118638   5.474   2.898   0.272
 5913SOL    HW218639   5.430   2.860   0.425
 5914SOL     OW18640   0.980   6.793   6.602
 5914SOL    HW118641   1.008   6.825   6.512
 5914SOL    HW218642   0.969   6.693   6.599
 5915SOL     OW18643   3.181   6.429   0.306
 5915SOL    HW118644   3.234   6.480   0.238
 5915SOL    HW218645   3.096   6.397   0.264
 5916SOL     OW18646   0.187   6.560   2.039
 5916SOL    HW118647   0.133   6.481   2.011
 5916SOL    HW218648   0.156   6.591   2.129
 5917SOL     OW18649   2.756   3.893   6.005
 5917SOL    HW118650   2.802   3.977   5.975
 5917SOL    HW218651   2.799   3.815   5.960
 5918SOL     OW18652   2.325   5.741   6.047
 5918SOL    HW118653   2.370   5.821   6.007
 5918SOL    HW218654   2.281   5.767   6.133
 5919SOL     OW18655   2.911   3.505   3.169
 5919SOL    HW118656   2.976   3.531   3.240
 5919SOL    HW218657   2.847   3.581   3.153
 5920SOL     OW18658   5.092   1.605   5.913
 5920SOL    HW118659   5.113   1.571   6.004
 5920SOL    HW218660   5.089   1.705   5.915
 5921SOL     OW18661   3.852   5.003   0.029
 5921SOL    HW118662   3.873   5.043   6.965
 5921SOL    HW218663   3.905   4.919   0.041
 5922SOL     OW18664   6.290   3.779   3.796
 5922SOL    HW118665   6.388   3.781   3.818
 5922SOL    HW218666   6.253   3.871   3.802
 5923SOL     OW18667   6.959   0.812   1.870
 5923SOL    HW118668   6.864   0.830   1.845
 5923SOL    HW218669   6.982   0.717   1.848
 5924SOL     OW18670   5.665   6.508   3.481
 5924SOL    HW118671   5.691   6.494   3.385
 5924SOL    HW218672   5.572   6.546   3.484
 5925SOL     OW18673   3.934   6.194   1.693
 5925SOL    HW118674   3.971   6.164   1.781
 5925SOL    HW218675   3.836   6.171   1.689
 5926SOL     OW18676   4.351   4.616   3.106
 5926SOL    HW118677   4.356   4.628   3.205
 5926SOL    HW218678   4.259   4.584   3.081
 5927SOL     OW18679   1.157   3.810   2.100
 5927SOL    HW118680   1.061   3.784   2.092
 5927SOL    HW218681   1.215   3.730   2.080
 5928SOL     OW18682   4.013   6.834   1.393
 5928SOL    HW118683   4.050   6.914   1.440
 5928SOL    HW218684   4.057   6.751   1.427
 5929SOL     OW18685   6.524   1.026   5.614
 5929SOL    HW118686   6.460   1.093   5.578
 5929SOL    HW218687   6.509   1.016   5.713
 5930SOL     OW18688   0.851   2.956   1.844
 5930SOL    HW118689   0.909   2.973   1.923
 5930SOL    HW218690   0.759   2.930   1.875
 5931SOL     OW18691   6.271   6.089   2.537
 5931SOL    HW118692   6.369   6.096   2.517
 5931SOL    HW218693   6.231   6.180   2.541
 5932SOL     OW18694   3.357   0.027   6.579
 5932SOL    HW118695   3.355   6.961   6.619
 5932SOL    HW218696   3.417   0.027   6.499
 5933SOL     OW18697   0.237   4.766   4.097
 5933SOL    HW118698   0.281   4.728   4.015
 5933SOL    HW218699   0.162   4.706   4.125
 5934SOL     OW18700   3.743   3.487   5.754
 5934SOL    HW118701   3.777   3.393   5.744
 5934SOL    HW218702   3.772   3.541   5.675
 5935SOL     OW18703   0.630   6.028   5.182
 5935SOL    HW118704   0.717   5.978   5.183
 5935SOL    HW218705   0.647   6.123   5.156
 5936SOL     OW18706   3.099   3.184   2.409
 5936SOL    HW118707   3.084   3.274   2.449
 5936SOL    HW218708   3.197   3.163   2.408
 5937SOL     OW18709   6.596   3.134   1.973
 5937SOL    HW118710   6.527   3.200   2.003
 5937SOL    HW218711   6.589   3.051   2.028
 5938SOL     OW18712   5.863   5.769   4.723
 5938SOL    HW118713   5.824   5.747   4.633
 5938SOL    HW218714   5.862   5.868   4.737
 5939SOL     OW18715   3.327   5.995   4.096
 5939SOL    HW118716   3.383   6.021   4.175
 5939SOL    HW218717   3.278   5.910   4.116
 5940SOL     OW18718   4.102   4.835   3.152
 5940SOL    HW118719   4.163   4.805   3.225
 5940SOL    HW218720   4.145   4.820   3.063
 5941SOL     OW18721   5.855   2.324   3.303
 5941SOL    HW118722   5.768   2.374   3.298
 5941SOL    HW218723   5.873   2.279   3.216
 5942SOL     OW18724   5.940   2.830   5.951
 5942SOL    HW118725   5.957   2.929   5.953
 5942SOL    HW218726   5.874   2.806   6.022
 5943SOL     OW18727   3.844   3.808   0.266
 5943SOL    HW118728   3.807   3.723   0.302
 5943SOL    HW218729   3.769   3.869   0.240
 5944SOL     OW18730   0.510   2.624   0.433
 5944SOL    HW118731   0.599   2.616   0.478
 5944SOL    HW218732   0.521   2.613   0.335
 5945SOL     OW18733   0.316   6.165   5.327
 5945SOL    HW118734   0.313   6.141   5.230
 5945SOL    HW218735   0.292   6.084   5.382
 5946SOL     OW18736   3.521   5.045   6.804
 5946SOL    HW118737   3.520   4.971   6.871
 5946SOL    HW218738   3.452   5.113   6.828
 5947SOL     OW18739   3.071   3.333   4.346
 5947SOL    HW118740   3.025   3.282   4.419
 5947SOL    HW218741   3.025   3.420   4.332
 5948SOL     OW18742   4.649   4.579   2.203
 5948SOL    HW118743   4.688   4.490   2.225
 5948SOL    HW218744   4.678   4.606   2.111
 5949SOL     OW18745   5.730   5.517   1.208
 5949SOL    HW118746   5.651   5.457   1.206
 5949SOL    HW218747   5.771   5.516   1.300
 5950SOL     OW18748   4.925   2.399   5.090
 5950SOL    HW118749   4.969   2.471   5.036
 5950SOL    HW218750   4.975   2.386   5.175
 5951SOL     OW18751   0.873   5.870   5.212
 5951SOL    HW118752   0.856   5.787   5.265
 5951SOL    HW218753   0.922   5.847   5.128
 5952SOL     OW18754   4.050   5.731   3.215
 5952SOL    HW118755   4.139   5.686   3.226
 5952SOL    HW218756   4.036   5.795   3.291
 5953SOL     OW18757   6.801   3.699   4.674
 5953SOL    HW118758   6.744   3.745   4.606
 5953SOL    HW218759   6.896   3.697   4.643
 5954SOL     OW18760   0.656   5.433   5.941
 5954SOL    HW118761   0.717   5.424   5.862
 5954SOL    HW218762   0.596   5.512   5.928
 5955SOL     OW18763   4.113   5.348   1.556
 5955SOL    HW118764   4.065   5.332   1.470
 5955SOL    HW218765   4.193   5.405   1.539
 5956SOL     OW18766   5.667   1.762   4.095
 5956SOL    HW118767   5.659   1.775   4.194
 5956SOL    HW218768   5.619   1.837   4.049
 5957SOL     OW18769   1.846   1.627   3.531
 5957SOL    HW118770   1.905   1.674   3.596
 5957SOL    HW218771   1.884   1.537   3.511
 5958SOL     OW18772   3.879   0.628   3.289
 5958SOL    HW118773   3.905   0.543   3.244
 5958SOL    HW218774   3.922   0.633   3.379
 5959SOL     OW18775   4.311   3.008   5.353
 5959SOL    HW118776   4.277   2.928   5.402
 5959SOL    HW218777   4.384   2.980   5.290
 5960SOL     OW18778   2.852   6.619   4.397
 5960SOL    HW118779   2.808   6.615   4.307
 5960SOL    HW218780   2.904   6.534   4.412
 5961SOL     OW18781   3.626   1.488   2.376
 5961SOL    HW118782   3.659   1.568   2.326
 5961SOL    HW218783   3.683   1.473   2.457
 5962SOL     OW18784   4.982   6.081   6.396
 5962SOL    HW118785   4.992   6.178   6.376
 5962SOL    HW218786   4.891   6.063   6.434
 5963SOL     OW18787   3.288   3.813   0.133
 5963SOL    HW118788   3.206   3.798   0.188
 5963SOL    HW218789   3.346   3.732   0.138
 5964SOL     OW18790   2.444   6.882   3.271
 5964SOL    HW118791   2.352   6.858   3.238
 5964SOL    HW218792   2.436   6.924   3.362
 5965SOL     OW18793   1.683   0.595   6.441
 5965SOL    HW118794   1.600   0.637   6.478
 5965SOL    HW218795   1.764   0.638   6.483
 5966SOL     OW18796   1.069   0.178   5.650
 5966SOL    HW118797   0.987   0.123   5.632
 5966SOL    HW218798   1.065   0.262   5.595
 5967SOL     OW18799   2.553   1.053   5.491
 5967SOL    HW118800   2.629   0.989   5.503
 5967SOL    HW218801   2.516   1.078   5.580
 5968SOL     OW18802   5.521   2.803   0.649
 5968SOL    HW118803   5.503   2.844   0.739
 5968SOL    HW218804   5.617   2.777   0.643
 5969SOL     OW18805   4.948   1.386   6.418
 5969SOL    HW118806   4.948   1.293   6.454
 5969SOL    HW218807   4.855   1.414   6.396
 5970SOL     OW18808   0.440   4.082   0.468
 5970SOL    HW118809   0.430   4.141   0.388
 5970SOL    HW218810   0.535   4.085   0.499
 5971SOL     OW18811   6.110   0.178   1.742
 5971SOL    HW118812   6.019   0.182   1.784
 5971SOL    HW218813   6.176   0.146   1.810
 5972SOL     OW18814   5.344   5.539   6.637
 5972SOL    HW118815   5.305   5.627   6.666
 5972SOL    HW218816   5.301   5.511   6.551
 5973SOL     OW18817   1.789   3.420   2.569
 5973SOL    HW118818   1.813   3.511   2.604
 5973SOL    HW218819   1.872   3.371   2.546
 5974SOL     OW18820   5.100   0.496   0.165
 5974SOL    HW118821   5.047   0.494   0.250
 5974SOL    HW218822   5.182   0.441   0.176
 5975SOL     OW18823   4.565   5.655   1.371
 5975SOL    HW118824   4.481   5.601   1.383
 5975SOL    HW218825   4.572   5.721   1.446
 5976SOL     OW18826   3.295   3.473   5.923
 5976SOL    HW118827   3.372   3.416   5.895
 5976SOL    HW218828   3.329   3.558   5.963
 5977SOL     OW18829   0.757   5.604   0.227
 5977SOL    HW118830   0.805   5.640   0.307
 5977SOL    HW218831   0.684   5.667   0.202
 5978SOL     OW18832   3.720   5.284   0.893
 5978SOL    HW118833   3.812   5.292   0.931
 5978SOL    HW218834   3.653   5.282   0.968
 5979SOL     OW18835   6.109   1.011   2.214
 5979SOL    HW118836   6.021   0.967   2.194
 5979SOL    HW218837   6.105   1.052   2.305
 5980SOL     OW18838   3.579   2.777   2.070
 5980SOL    HW118839   3.601   2.688   2.108
 5980SOL    HW218840   3.641   2.846   2.108
 5981SOL     OW18841   5.089   1.660   0.384
 5981SOL    HW118842   5.042   1.578   0.417
 5981SOL    HW218843   5.024   1.736   0.380
 5982SOL     OW18844   5.869   2.408   2.822
 5982SOL    HW118845   5.883   2.329   2.762
 5982SOL    HW218846   5.781   2.451   2.802
 5983SOL     OW18847   1.356   0.622   3.931
 5983SOL    HW118848   1.266   0.663   3.916
 5983SOL    HW218849   1.416   0.644   3.854
 5984SOL     OW18850   5.719   6.156   3.909
 5984SOL    HW118851   5.679   6.198   3.827
 5984SOL    HW218852   5.703   6.058   3.907
 5985SOL     OW18853   6.436   2.374   3.818
 5985SOL    HW118854   6.446   2.471   3.800
 5985SOL    HW218855   6.523   2.336   3.846
 5986SOL     OW18856   4.057   4.198   6.151
 5986SOL    HW118857   3.990   4.128   6.130
 5986SOL    HW218858   4.139   4.184   6.094
 5987SOL     OW18859   6.017   0.640   4.467
 5987SOL    HW118860   6.060   0.728   4.484
 5987SOL    HW218861   5.921   0.655   4.440
 5988SOL     OW18862   3.640   1.007   6.484
 5988SOL    HW118863   3.552   1.033   6.525
 5988SOL    HW218864   3.709   1.076   6.507
 5989SOL     OW18865   2.039   5.701   6.019
 5989SOL    HW118866   2.099   5.745   5.952
 5989SOL    HW218867   2.047   5.748   6.107
 5990SOL     OW18868   3.778   3.673   0.933
 5990SOL    HW118869   3.844   3.731   0.886
 5990SOL    HW218870   3.825   3.616   1.000
 5991SOL     OW18871   4.478   5.817   0.248
 5991SOL    HW118872   4.392   5.807   0.298
 5991SOL    HW218873   4.492   5.738   0.188
 5992SOL     OW18874   3.128   6.875   2.729
 5992SOL    HW118875   3.207   6.901   2.673
 5992SOL    HW218876   3.127   6.775   2.740
 5993SOL     OW18877   5.657   4.194   6.178
 5993SOL    HW118878   5.713   4.259   6.128
 5993SOL    HW218879   5.658   4.106   6.131
 5994SOL     OW18880   6.909   2.858   1.108
 5994SOL    HW118881   6.997   2.823   1.141
 5994SOL    HW218882   6.855   2.889   1.186
 5995SOL     OW18883   4.354   2.971   1.674
 5995SOL    HW118884   4.411   2.990   1.754
 5995SOL    HW218885   4.262   2.947   1.703
 5996SOL     OW18886   1.731   5.776   1.715
 5996SOL    HW118887   1.765   5.804   1.805
 5996SOL    HW218888   1.728   5.855   1.654
 5997SOL     OW18889   0.375   6.700   3.739
 5997SOL    HW118890   0.470   6.702   3.771
 5997SOL    HW218891   0.346   6.794   3.719
 5998SOL     OW18892   5.682   0.843   1.647
 5998SOL    HW118893   5.611   0.888   1.593
 5998SOL    HW218894   5.771   0.879   1.622
 5999SOL     OW18895   3.270   3.287   0.942
 5999SOL    HW118896   3.310   3.330   1.023
 5999SOL    HW218897   3.315   3.200   0.925
 6000SOL     OW18898   0.249   6.048   0.095
 6000SOL    HW118899   0.191   6.050   0.015
 6000SOL    HW218900   0.197   6.078   0.175
 6001SOL     OW18901   5.324   5.542   0.217
 6001SOL    HW118902   5.346   5.460   0.270
 6001SOL    HW218903   5.406   5.599   0.207
 6002SOL     OW18904   6.891   0.163   5.754
 6002SOL    HW118905   6.823   0.168   5.681
 6002SOL    HW218906   6.894   0.070   5.790
 6003SOL     OW18907   6.209   2.757   4.439
 6003SOL    HW118908   6.202   2.832   4.373
 6003SOL    HW218909   6.148   2.775   4.517
 6004SOL     OW18910   6.140   2.398   3.362
 6004SOL    HW118911   6.053   2.349   3.365
 6004SOL    HW218912   6.123   2.496   3.357
 6005SOL     OW18913   5.808   4.817   5.072
 6005SOL    HW118914   5.791   4.765   5.156
 6005SOL    HW218915   5.774   4.764   4.994
 6006SOL     OW18916   3.383   0.131   5.139
 6006SOL    HW118917   3.354   0.103   5.047
 6006SOL    HW218918   3.404   0.229   5.139
 6007SOL     OW18919   6.938   2.870   6.655
 6007SOL    HW118920   6.896   2.928   6.585
 6007SOL    HW218921   6.933   2.915   6.744
 6008SOL     OW18922   1.988   4.407   5.529
 6008SOL    HW118923   2.073   4.459   5.535
 6008SOL    HW218924   1.911   4.468   5.512
 6009SOL     OW18925   4.597   5.652   3.396
 6009SOL    HW118926   4.658   5.691   3.465
 6009SOL    HW218927   4.523   5.716   3.378
 6010SOL     OW18928   0.379   4.189   3.783
 6010SOL    HW118929   0.307   4.203   3.851
 6010SOL    HW218930   0.342   4.135   3.707
 6011SOL     OW18931   4.675   2.717   2.463
 6011SOL    HW118932   4.591   2.666   2.481
 6011SOL    HW218933   4.705   2.762   2.546
 6012SOL     OW18934   6.014   0.737   0.178
 6012SOL    HW118935   5.916   0.748   0.161
 6012SOL    HW218936   6.053   0.825   0.205
 6013SOL     OW18937   4.825   1.313   2.479
 6013SOL    HW118938   4.923   1.322   2.462
 6013SOL    HW218939   4.792   1.227   2.441
 6014SOL     OW18940   3.389   3.533   4.081
 6014SOL    HW118941   3.401   3.579   4.169
 6014SOL    HW218942   3.362   3.438   4.096
 6015SOL     OW18943   6.013   3.640   4.694
 6015SOL    HW118944   5.968   3.656   4.606
 6015SOL    HW218945   6.047   3.727   4.730
 6016SOL     OW18946   5.208   1.962   5.582
 6016SOL    HW118947   5.300   1.924   5.591
 6016SOL    HW218948   5.162   1.919   5.505
 6017SOL     OW18949   0.226   4.518   5.168
 6017SOL    HW118950   0.289   4.447   5.200
 6017SOL    HW218951   0.133   4.482   5.164
 6018SOL     OW18952   3.112   1.121   4.547
 6018SOL    HW118953   3.072   1.053   4.608
 6018SOL    HW218954   3.059   1.206   4.551
 6019SOL     OW18955   0.932   3.541   6.049
 6019SOL    HW118956   1.011   3.535   6.110
 6019SOL    HW218957   0.944   3.618   5.987
 6020SOL     OW18958   0.954   5.196   0.865
 6020SOL    HW118959   0.992   5.150   0.784
 6020SOL    HW218960   1.027   5.245   0.912
 6021SOL     OW18961   4.923   6.975   2.683
 6021SOL    HW118962   4.841   6.947   2.733
 6021SOL    HW218963   5.000   6.917   2.712
 6022SOL     OW18964   6.681   1.567   3.385
 6022SOL    HW118965   6.742   1.643   3.363
 6022SOL    HW218966   6.735   1.483   3.392
 6023SOL     OW18967   5.428   0.170   1.143
 6023SOL    HW118968   5.428   0.102   1.217
 6023SOL    HW218969   5.370   0.138   1.069
 6024SOL     OW18970   0.290   4.794   0.415
 6024SOL    HW118971   0.311   4.891   0.401
 6024SOL    HW218972   0.371   4.747   0.448
 6025SOL     OW18973   3.076   0.708   3.749
 6025SOL    HW118974   3.072   0.628   3.689
 6025SOL    HW218975   3.139   0.775   3.711
 6026SOL     OW18976   6.439   5.021   5.065
 6026SOL    HW118977   6.458   4.949   5.132
 6026SOL    HW218978   6.380   4.986   4.993
 6027SOL     OW18979   6.433   3.678   6.014
 6027SOL    HW118980   6.513   3.695   5.958
 6027SOL    HW218981   6.354   3.725   5.975
 6028SOL     OW18982   5.217   4.996   1.176
 6028SOL    HW118983   5.310   5.027   1.158
 6028SOL    HW218984   5.195   5.010   1.273
 6029SOL     OW18985   1.998   0.049   3.522
 6029SOL    HW118986   2.072   0.115   3.508
 6029SOL    HW218987   2.014   6.994   3.467
 6030SOL     OW18988   4.898   3.666   4.734
 6030SOL    HW118989   4.849   3.674   4.821
 6030SOL    HW218990   4.880   3.577   4.693
 6031SOL     OW18991   1.876   5.544   4.194
 6031SOL    HW118992   1.838   5.637   4.188
 6031SOL    HW218993   1.802   5.477   4.185
 6032SOL     OW18994   2.528   4.951   3.009
 6032SOL    HW118995   2.518   4.999   2.923
 6032SOL    HW218996   2.440   4.946   3.056
 6033SOL     OW18997   2.372   2.728   2.670
 6033SOL    HW118998   2.359   2.685   2.760
 6033SOL    HW218999   2.315   2.810   2.665
 6034SOL     OW19000   0.847   0.228   6.827
 6034SOL    HW119001   0.893   0.223   6.916
 6034SOL    HW219002   0.753   0.259   6.841
 6035SOL     OW19003   1.014   0.570   2.897
 6035SOL    HW119004   0.976   0.479   2.879
 6035SOL    HW219005   1.010   0.589   2.995
 6036SOL     OW19006   6.007   4.792   1.454
 6036SOL    HW119007   6.054   4.729   1.516
 6036SOL    HW219008   5.910   4.795   1.476
 6037SOL     OW19009   3.985   0.488   0.812
 6037SOL    HW119010   4.078   0.515   0.836
 6037SOL    HW219011   3.941   0.562   0.760
 6038SOL     OW19012   0.562   2.594   6.629
 6038SOL    HW119013   0.605   2.580   6.718
 6038SOL    HW219014   0.567   2.691   6.604
 6039SOL     OW19015   3.803   3.938   4.240
 6039SOL    HW119016   3.878   3.992   4.204
 6039SOL    HW219017   3.793   3.854   4.185
 6040SOL     OW19018   1.696   1.231   6.922
 6040SOL    HW119019   1.707   1.329   6.906
 6040SOL    HW219020   1.621   1.195   6.867
 6041SOL     OW19021   3.295   2.683   5.270
 6041SOL    HW119022   3.232   2.743   5.320
 6041SOL    HW219023   3.248   2.598   5.246
 6042SOL     OW19024   3.888   6.496   3.156
 6042SOL    HW119025   3.965   6.452   3.109
 6042SOL    HW219026   3.843   6.429   3.215
 6043SOL     OW19027   1.135   0.789   4.145
 6043SOL    HW119028   1.113   0.788   4.048
 6043SOL    HW219029   1.215   0.732   4.162
 6044SOL     OW19030   2.339   2.492   2.263
 6044SOL    HW119031   2.332   2.399   2.299
 6044SOL    HW219032   2.365   2.489   2.166
 6045SOL     OW19033   5.005   3.112   3.881
 6045SOL    HW119034   5.090   3.062   3.898
 6045SOL    HW219035   4.928   3.059   3.917
 6046SOL     OW19036   3.109   2.760   1.102
 6046SOL    HW119037   3.165   2.677   1.099
 6046SOL    HW219038   3.162   2.834   1.143
 6047SOL     OW19039   5.416   2.402   1.112
 6047SOL    HW119040   5.350   2.327   1.109
 6047SOL    HW219041   5.507   2.368   1.086
 6048SOL     OW19042   5.281   5.804   5.240
 6048SOL    HW119043   5.340   5.884   5.244
 6048SOL    HW219044   5.246   5.793   5.147
 6049SOL     OW19045   5.810   4.383   6.073
 6049SOL    HW119046   5.822   4.375   5.975
 6049SOL    HW219047   5.783   4.477   6.096
 6050SOL     OW19048   2.720   5.324   0.755
 6050SOL    HW119049   2.730   5.230   0.788
 6050SOL    HW219050   2.768   5.335   0.668
 6051SOL     OW19051   1.857   0.161   3.045
 6051SOL    HW119052   1.766   0.120   3.040
 6051SOL    HW219053   1.869   0.206   3.133
 6052SOL     OW19054   5.073   0.779   1.387
 6052SOL    HW119055   5.074   0.879   1.387
 6052SOL    HW219056   5.040   0.747   1.476
 6053SOL     OW19057   3.931   0.415   6.288
 6053SOL    HW119058   3.923   0.397   6.190
 6053SOL    HW219059   3.899   0.507   6.308
 6054SOL     OW19060   3.276   4.719   0.864
 6054SOL    HW119061   3.331   4.761   0.936
 6054SOL    HW219062   3.258   4.786   0.792
 6055SOL     OW19063   3.321   5.657   6.237
 6055SOL    HW119064   3.244   5.594   6.248
 6055SOL    HW219065   3.406   5.605   6.227
 6056SOL     OW19066   5.606   2.978   4.935
 6056SOL    HW119067   5.568   2.935   5.017
 6056SOL    HW219068   5.607   2.911   4.860
 6057SOL     OW19069   5.814   0.747   2.197
 6057SOL    HW119070   5.892   0.686   2.185
 6057SOL    HW219071   5.841   0.826   2.252
 6058SOL     OW19072   5.315   3.728   0.246
 6058SOL    HW119073   5.398   3.749   0.194
 6058SOL    HW219074   5.325   3.638   0.289
 6059SOL     OW19075   5.278   4.261   5.294
 6059SOL    HW119076   5.362   4.306   5.323
 6059SOL    HW219077   5.244   4.203   5.368
 6060SOL     OW19078   2.940   3.166   6.909
 6060SOL    HW119079   2.934   3.069   6.884
 6060SOL    HW219080   2.856   3.193   6.956
 6061SOL     OW19081   4.640   4.538   0.551
 6061SOL    HW119082   4.668   4.482   0.629
 6061SOL    HW219083   4.555   4.501   0.512
 6062SOL     OW19084   2.388   1.763   6.460
 6062SOL    HW119085   2.471   1.711   6.439
 6062SOL    HW219086   2.360   1.815   6.379
 6063SOL     OW19087   3.504   4.114   5.900
 6063SOL    HW119088   3.529   4.106   5.996
 6063SOL    HW219089   3.448   4.195   5.886
 6064SOL     OW19090   0.514   0.290   1.142
 6064SOL    HW119091   0.523   0.209   1.200
 6064SOL    HW219092   0.575   0.362   1.176
 6065SOL     OW19093   0.443   5.645   1.921
 6065SOL    HW119094   0.415   5.602   1.836
 6065SOL    HW219095   0.366   5.694   1.961
 6066SOL     OW19096   5.511   0.728   4.389
 6066SOL    HW119097   5.503   0.743   4.290
 6066SOL    HW219098   5.420   0.707   4.426
 6067SOL     OW19099   4.832   1.527   5.249
 6067SOL    HW119100   4.851   1.560   5.157
 6067SOL    HW219101   4.796   1.434   5.246
 6068SOL     OW19102   5.284   2.463   4.340
 6068SOL    HW119103   5.362   2.402   4.333
 6068SOL    HW219104   5.246   2.459   4.433
 6069SOL     OW19105   6.657   3.981   5.905
 6069SOL    HW119106   6.715   3.947   5.831
 6069SOL    HW219107   6.574   4.022   5.866
 6070SOL     OW19108   3.591   2.658   1.488
 6070SOL    HW119109   3.669   2.706   1.448
 6070SOL    HW219110   3.518   2.649   1.420
 6071SOL     OW19111   0.757   5.588   4.476
 6071SOL    HW119112   0.843   5.539   4.459
 6071SOL    HW219113   0.698   5.530   4.533
 6072SOL     OW19114   6.934   1.259   1.836
 6072SOL    HW119115   6.899   1.222   1.750
 6072SOL    HW219116   6.898   1.206   1.913
 6073SOL     OW19117   4.739   2.746   0.800
 6073SOL    HW119118   4.660   2.702   0.843
 6073SOL    HW219119   4.799   2.783   0.871
 6074SOL     OW19120   1.777   7.014   2.055
 6074SOL    HW119121   1.751   6.941   2.119
 6074SOL    HW219122   1.718   7.010   1.975
 6075SOL     OW19123   4.858   0.709   5.342
 6075SOL    HW119124   4.795   0.656   5.399
 6075SOL    HW219125   4.940   0.655   5.324
 6076SOL     OW19126   2.598   5.290   3.263
 6076SOL    HW119127   2.642   5.362   3.317
 6076SOL    HW219128   2.506   5.273   3.299
 6077SOL     OW19129   5.603   6.138   0.918
 6077SOL    HW119130   5.674   6.074   0.947
 6077SOL    HW219131   5.626   6.176   0.829
 6078SOL     OW19132   4.387   4.843   0.632
 6078SOL    HW119133   4.333   4.858   0.549
 6078SOL    HW219134   4.483   4.831   0.607
 6079SOL     OW19135   4.999   5.057   5.990
 6079SOL    HW119136   4.935   4.981   5.982
 6079SOL    HW219137   4.982   5.122   5.916
 6080SOL     OW19138   0.493   5.061   1.856
 6080SOL    HW119139   0.424   4.988   1.865
 6080SOL    HW219140   0.450   5.150   1.871
 6081SOL     OW19141   6.593   3.536   5.533
 6081SOL    HW119142   6.573   3.440   5.553
 6081SOL    HW219143   6.690   3.554   5.550
 6082SOL     OW19144   3.421   6.576   2.608
 6082SOL    HW119145   3.342   6.557   2.549
 6082SOL    HW219146   3.430   6.503   2.676
 6083SOL     OW19147   5.439   5.539   0.861
 6083SOL    HW119148   5.492   5.624   0.865
 6083SOL    HW219149   5.416   5.511   0.954
 6084SOL     OW19150   1.016   6.587   2.205
 6084SOL    HW119151   0.977   6.513   2.260
 6084SOL    HW219152   1.041   6.552   2.115
 6085SOL     OW19153   6.594   6.067   6.032
 6085SOL    HW119154   6.645   6.020   6.104
 6085SOL    HW219155   6.559   6.000   5.966
 6086SOL     OW19156   2.811   2.264   5.613
 6086SOL    HW119157   2.907   2.285   5.630
 6086SOL    HW219158   2.804   2.177   5.565
 6087SOL     OW19159   4.044   5.617   1.168
 6087SOL    HW119160   4.137   5.593   1.141
 6087SOL    HW219161   4.044   5.706   1.213
 6088SOL     OW19162   5.708   6.771   5.573
 6088SOL    HW119163   5.674   6.864   5.584
 6088SOL    HW219164   5.767   6.766   5.493
 6089SOL     OW19165   6.659   2.739   2.900
 6089SOL    HW119166   6.684   2.714   2.993
 6089SOL    HW219167   6.740   2.739   2.842
 6090SOL     OW19168   2.667   5.094   4.586
 6090SOL    HW119169   2.634   5.144   4.506
 6090SOL    HW219170   2.712   5.010   4.557
 6091SOL     OW19171   3.201   1.473   0.462
 6091SOL    HW119172   3.117   1.528   0.456
 6091SOL    HW219173   3.229   1.465   0.558
 6092SOL     OW19174   3.865   1.059   1.853
 6092SOL    HW119175   3.960   1.056   1.821
 6092SOL    HW219176   3.852   0.991   1.926
 6093SOL     OW19177   2.412   2.434   1.997
 6093SOL    HW119178   2.315   2.442   1.974
 6093SOL    HW219179   2.441   2.339   1.984
 6094SOL     OW19180   1.597   6.185   3.622
 6094SOL    HW119181   1.514   6.237   3.641
 6094SOL    HW219182   1.581   6.123   3.545
 6095SOL     OW19183   4.832   5.114   6.315
 6095SOL    HW119184   4.793   5.127   6.406
 6095SOL    HW219185   4.792   5.034   6.271
 6096SOL     OW19186   5.280   6.786   2.181
 6096SOL    HW119187   5.350   6.857   2.179
 6096SOL    HW219188   5.229   6.790   2.267
 6097SOL     OW19189   1.993   5.334   2.134
 6097SOL    HW119190   2.079   5.343   2.084
 6097SOL    HW219191   2.005   5.273   2.212
 6098SOL     OW19192   6.398   1.130   6.261
 6098SOL    HW119193   6.388   1.154   6.164
 6098SOL    HW219194   6.388   1.031   6.272
 6099SOL     OW19195   4.993   5.704   5.593
 6099SOL    HW119196   4.905   5.669   5.559
 6099SOL    HW219197   4.980   5.743   5.684
 6100SOL     OW19198   0.308   6.103   2.232
 6100SOL    HW119199   0.324   6.144   2.142
 6100SOL    HW219200   0.319   6.172   2.303
 6101SOL     OW19201   6.409   2.709   2.774
 6101SOL    HW119202   6.410   2.674   2.681
 6101SOL    HW219203   6.502   2.730   2.804
 6102SOL     OW19204   4.171   6.136   2.892
 6102SOL    HW119205   4.207   6.069   2.827
 6102SOL    HW219206   4.247   6.187   2.933
 6103SOL     OW19207   6.977   0.961   1.350
 6103SOL    HW119208   6.927   0.964   1.264
 6103SOL    HW219209   6.994   0.866   1.376
 6104SOL     OW19210   6.057   0.190   5.426
 6104SOL    HW119211   6.007   0.265   5.382
 6104SOL    HW219212   6.142   0.174   5.376
 6105SOL     OW19213   1.812   5.162   5.866
 6105SOL    HW119214   1.889   5.180   5.928
 6105SOL    HW219215   1.731   5.138   5.919
 6106SOL     OW19216   1.150   5.358   0.002
 6106SOL    HW119217   1.245   5.328   0.011
 6106SOL    HW219218   1.090   5.279   7.021
 6107SOL     OW19219   4.943   5.358   4.522
 6107SOL    HW119220   5.038   5.374   4.494
 6107SOL    HW219221   4.941   5.290   4.595
 6108SOL     OW19222   1.730   2.608   2.917
 6108SOL    HW119223   1.657   2.655   2.966
 6108SOL    HW219224   1.810   2.599   2.976
 6109SOL     OW19225   5.426   1.120   5.028
 6109SOL    HW119226   5.398   1.153   5.119
 6109SOL    HW219227   5.504   1.059   5.038
 6110SOL     OW19228   2.052   2.906   0.059
 6110SOL    HW119229   2.023   2.880   6.992
 6110SOL    HW219230   2.076   3.003   0.061
 6111SOL     OW19231   1.202   3.276   2.147
 6111SOL    HW119232   1.225   3.242   2.056
 6111SOL    HW219233   1.104   3.298   2.151
 6112SOL     OW19234   4.320   0.138   2.466
 6112SOL    HW119235   4.254   0.094   2.527
 6112SOL    HW219236   4.363   0.215   2.513
 6113SOL     OW19237   2.380   2.953   6.402
 6113SOL    HW119238   2.327   3.038   6.400
 6113SOL    HW219239   2.398   2.927   6.496
 6114SOL     OW19240   4.934   3.496   2.620
 6114SOL    HW119241   4.844   3.469   2.585
 6114SOL    HW219242   4.955   3.589   2.590
 6115SOL     OW19243   6.626   1.512   5.014
 6115SOL    HW119244   6.590   1.537   5.103
 6115SOL    HW219245   6.616   1.588   4.950
 6116SOL     OW19246   4.140   2.179   5.586
 6116SOL    HW119247   4.087   2.263   5.593
 6116SOL    HW219248   4.214   2.180   5.654
 6117SOL     OW19249   1.791   2.382   3.160
 6117SOL    HW119250   1.775   2.478   3.184
 6117SOL    HW219251   1.763   2.365   3.066
 6118SOL     OW19252   6.060   1.175   1.355
 6118SOL    HW119253   6.080   1.106   1.424
 6118SOL    HW219254   5.961   1.192   1.351
 6119SOL     OW19255   1.161   3.062   0.422
 6119SOL    HW119256   1.111   3.031   0.504
 6119SOL    HW219257   1.100   3.116   0.365
 6120SOL     OW19258   2.080   6.897   5.211
 6120SOL    HW119259   2.049   6.966   5.277
 6120SOL    HW219260   2.155   6.935   5.157
 6121SOL     OW19261   0.989   4.006   5.474
 6121SOL    HW119262   0.937   3.941   5.529
 6121SOL    HW219263   0.969   4.099   5.505
 6122SOL     OW19264   4.814   5.342   6.113
 6122SOL    HW119265   4.777   5.394   6.190
 6122SOL    HW219266   4.809   5.244   6.133
 6123SOL     OW19267   5.298   0.584   5.538
 6123SOL    HW119268   5.216   0.585   5.481
 6123SOL    HW219269   5.283   0.525   5.617
 6124SOL     OW19270   0.213   6.770   5.731
 6124SOL    HW119271   0.268   6.705   5.679
 6124SOL    HW219272   0.273   6.828   5.786
 6125SOL     OW19273   2.655   4.105   6.949
 6125SOL    HW119274   2.651   4.178   7.017
 6125SOL    HW219275   2.716   4.033   6.981
 6126SOL     OW19276   0.750   1.997   5.073
 6126SOL    HW119277   0.712   2.040   5.155
 6126SOL    HW219278   0.834   2.045   5.046
 6127SOL     OW19279   4.033   0.185   1.665
 6127SOL    HW119280   4.029   0.127   1.583
 6127SOL    HW219281   3.974   0.264   1.652
 6128SOL     OW19282   5.163   5.220   0.989
 6128SOL    HW119283   5.190   5.140   1.042
 6128SOL    HW219284   5.076   5.255   1.024
 6129SOL     OW19285   1.271   3.408   4.239
 6129SOL    HW119286   1.195   3.466   4.269
 6129SOL    HW219287   1.298   3.347   4.314
 6130SOL     OW19288   5.898   2.241   3.064
 6130SOL    HW119289   5.990   2.201   3.075
 6130SOL    HW219290   5.898   2.302   2.984
 6131SOL     OW19291   0.996   1.608   2.775
 6131SOL    HW119292   1.079   1.663   2.788
 6131SOL    HW219293   1.022   1.517   2.742
 6132SOL     OW19294   3.932   1.873   6.691
 6132SOL    HW119295   3.939   1.802   6.761
 6132SOL    HW219296   3.837   1.900   6.680
 6133SOL     OW19297   1.715   2.889   3.129
 6133SOL    HW119298   1.642   2.836   3.086
 6133SOL    HW219299   1.753   2.953   3.062
 6134SOL     OW19300   4.156   6.741   6.908
 6134SOL    HW119301   4.088   6.686   6.958
 6134SOL    HW219302   4.114   6.828   6.881
 6135SOL     OW19303   6.936   5.892   0.943
 6135SOL    HW119304   7.023   5.941   0.949
 6135SOL    HW219305   6.886   5.924   0.862
 6136SOL     OW19306   1.312   2.910   1.793
 6136SOL    HW119307   1.270   2.819   1.800
 6136SOL    HW219308   1.398   2.904   1.742
 6137SOL     OW19309   0.695   3.819   2.561
 6137SOL    HW119310   0.734   3.909   2.541
 6137SOL    HW219311   0.601   3.829   2.594
 6138SOL     OW19312   3.992   6.927   3.020
 6138SOL    HW119313   3.976   6.999   3.087
 6138SOL    HW219314   3.923   6.932   2.948
 6139SOL     OW19315   0.581   6.723   5.503
 6139SOL    HW119316   0.511   6.765   5.446
 6139SOL    HW219317   0.543   6.702   5.593
 6140SOL     OW19318   0.501   1.351   3.027
 6140SOL    HW119319   0.517   1.448   3.005
 6140SOL    HW219320   0.496   1.299   2.941
 6141SOL     OW19321   0.469   0.143   6.158
 6141SOL    HW119322   0.564   0.114   6.150
 6141SOL    HW219323   0.419   0.079   6.216
 6142SOL     OW19324   1.036   6.709   6.284
 6142SOL    HW119325   0.976   6.783   6.253
 6142SOL    HW219326   0.997   6.667   6.366
 6143SOL     OW19327   0.041   4.231   0.877
 6143SOL    HW119328   0.088   4.269   0.957
 6143SOL    HW219329   0.101   4.239   0.797
 6144SOL     OW19330   4.815   5.007   3.169
 6144SOL    HW119331   4.736   4.983   3.113
 6144SOL    HW219332   4.790   5.078   3.235
 6145SOL     OW19333   5.833   4.633   4.371
 6145SOL    HW119334   5.840   4.647   4.272
 6145SOL    HW219335   5.854   4.719   4.418
 6146SOL     OW19336   3.484   5.898   3.674
 6146SOL    HW119337   3.504   5.933   3.766
 6146SOL    HW219338   3.426   5.963   3.625
 6147SOL     OW19339   2.133   2.512   4.818
 6147SOL    HW119340   2.164   2.525   4.724
 6147SOL    HW219341   2.138   2.598   4.867
 6148SOL     OW19342   3.817   5.743   6.226
 6148SOL    HW119343   3.892   5.692   6.184
 6148SOL    HW219344   3.854   5.819   6.280
 6149SOL     OW19345   2.007   0.191   1.888
 6149SOL    HW119346   1.953   0.164   1.968
 6149SOL    HW219347   2.055   0.112   1.852
 6150SOL     OW19348   6.377   3.859   6.653
 6150SOL    HW119349   6.377   3.887   6.749
 6150SOL    HW219350   6.283   3.855   6.620
 6151SOL     OW19351   5.437   5.217   4.577
 6151SOL    HW119352   5.477   5.192   4.489
 6151SOL    HW219353   5.350   5.264   4.562
 6152SOL     OW19354   1.127   5.356   4.634
 6152SOL    HW119355   1.224   5.354   4.658
 6152SOL    HW219356   1.073   5.312   4.705
 6153SOL     OW19357   4.886   5.114   1.259
 6153SOL    HW119358   4.936   5.177   1.199
 6153SOL    HW219359   4.839   5.167   1.329
 6154SOL     OW19360   5.655   3.020   2.883
 6154SOL    HW119361   5.719   3.084   2.925
 6154SOL    HW219362   5.562   3.056   2.889
 6155SOL     OW19363   3.072   1.474   2.882
 6155SOL    HW119364   2.997   1.534   2.910
 6155SOL    HW219365   3.087   1.404   2.953
 6156SOL     OW19366   4.341   4.621   2.079
 6156SOL    HW119367   4.387   4.571   2.006
 6156SOL    HW219368   4.358   4.719   2.068
 6157SOL     OW19369   0.895   2.224   3.166
 6157SOL    HW119370   0.943   2.147   3.123
 6157SOL    HW219371   0.826   2.260   3.102
 6158SOL     OW19372   3.390   1.897   0.207
 6158SOL    HW119373   3.368   1.902   0.305
 6158SOL    HW219374   3.428   1.985   0.177
 6159SOL     OW19375   5.005   2.710   0.683
 6159SOL    HW119376   5.008   2.686   0.586
 6159SOL    HW219377   4.913   2.742   0.707
 6160SOL     OW19378   6.785   0.162   6.720
 6160SOL    HW119379   6.758   0.173   6.625
 6160SOL    HW219380   6.707   0.182   6.780
 6161SOL     OW19381   5.064   0.919   0.400
 6161SOL    HW119382   5.139   0.886   0.343
 6161SOL    HW219383   5.101   0.951   0.488
 6162SOL     OW19384   6.122   6.046   3.902
 6162SOL    HW119385   6.077   6.130   3.933
 6162SOL    HW219386   6.112   6.037   3.803
 6163SOL     OW19387   5.445   5.999   2.398
 6163SOL    HW119388   5.377   5.926   2.395
 6163SOL    HW219389   5.521   5.973   2.457
 6164SOL     OW19390   3.625   4.184   4.830
 6164SOL    HW119391   3.696   4.118   4.853
 6164SOL    HW219392   3.641   4.269   4.880
 6165SOL     OW19393   3.612   1.954   5.524
 6165SOL    HW119394   3.527   1.990   5.485
 6165SOL    HW219395   3.672   1.923   5.450
 6166SOL     OW19396   6.008   2.009   0.145
 6166SOL    HW119397   6.009   2.081   0.076
 6166SOL    HW219398   5.990   2.049   0.235
 6167SOL     OW19399   0.362   4.794   3.375
 6167SOL    HW119400   0.264   4.799   3.397
 6167SOL    HW219401   0.390   4.698   3.372
 6168SOL     OW19402   0.792   2.783   3.166
 6168SOL    HW119403   0.878   2.731   3.163
 6168SOL    HW219404   0.733   2.745   3.237
 6169SOL     OW19405   0.926   1.363   6.581
 6169SOL    HW119406   0.912   1.455   6.617
 6169SOL    HW219407   0.839   1.315   6.575
 6170SOL     OW19408   2.949   3.815   5.601
 6170SOL    HW119409   2.944   3.910   5.570
 6170SOL    HW219410   3.003   3.762   5.537
 6171SOL     OW19411   1.330   3.440   1.401
 6171SOL    HW119412   1.350   3.537   1.415
 6171SOL    HW219413   1.233   3.430   1.379
 6172SOL     OW19414   0.561   0.730   2.732
 6172SOL    HW119415   0.523   0.798   2.794
 6172SOL    HW219416   0.581   0.772   2.644
 6173SOL     OW19417   6.866   4.913   2.612
 6173SOL    HW119418   6.924   4.958   2.680
 6173SOL    HW219419   6.833   4.826   2.650
 6174SOL     OW19420   6.130   5.160   2.914
 6174SOL    HW119421   6.067   5.202   2.848
 6174SOL    HW219422   6.111   5.062   2.919
 6175SOL     OW19423   5.305   0.270   3.870
 6175SOL    HW119424   5.326   0.189   3.815
 6175SOL    HW219425   5.207   0.274   3.889
 6176SOL     OW19426   6.471   2.838   0.027
 6176SOL    HW119427   6.533   2.765   0.057
 6176SOL    HW219428   6.436   2.817   6.962
 6177SOL     OW19429   5.821   1.389   1.061
 6177SOL    HW119430   5.808   1.305   1.008
 6177SOL    HW219431   5.750   1.455   1.037
 6178SOL     OW19432   4.522   5.374   1.908
 6178SOL    HW119433   4.508   5.427   1.824
 6178SOL    HW219434   4.545   5.435   1.983
 6179SOL     OW19435   6.826   4.450   4.765
 6179SOL    HW119436   6.806   4.358   4.731
 6179SOL    HW219437   6.925   4.464   4.768
 6180SOL     OW19438   3.131   6.468   6.139
 6180SOL    HW119439   3.194   6.546   6.144
 6180SOL    HW219440   3.183   6.383   6.135
 6181SOL     OW19441   4.950   6.362   1.025
 6181SOL    HW119442   5.008   6.387   0.948
 6181SOL    HW219443   4.874   6.427   1.032
 6182SOL     OW19444   5.540   4.081   5.602
 6182SOL    HW119445   5.605   4.031   5.544
 6182SOL    HW219446   5.447   4.060   5.572
 6183SOL     OW19447   2.827   0.106   3.301
 6183SOL    HW119448   2.757   0.046   3.261
 6183SOL    HW219449   2.912   0.056   3.311
 6184SOL     OW19450   1.901   6.519   5.993
 6184SOL    HW119451   1.864   6.448   5.934
 6184SOL    HW219452   1.852   6.605   5.979
 6185SOL     OW19453   1.589   4.907   6.699
 6185SOL    HW119454   1.571   4.984   6.639
 6185SOL    HW219455   1.563   4.822   6.653
 6186SOL     OW19456   5.991   0.038   4.033
 6186SOL    HW119457   6.014   0.081   3.946
 6186SOL    HW219458   5.944   6.977   4.016
 6187SOL     OW19459   4.725   4.206   4.312
 6187SOL    HW119460   4.795   4.214   4.241
 6187SOL    HW219461   4.640   4.249   4.282
 6188SOL     OW19462   2.204   6.514   1.127
 6188SOL    HW119463   2.262   6.457   1.186
 6188SOL    HW219464   2.112   6.476   1.124
 6189SOL     OW19465   4.606   4.430   3.698
 6189SOL    HW119466   4.680   4.492   3.673
 6189SOL    HW219467   4.611   4.410   3.796
 6190SOL     OW19468   6.487   3.790   6.267
 6190SOL    HW119469   6.537   3.873   6.242
 6190SOL    HW219470   6.493   3.723   6.192
 6191SOL     OW19471   4.721   2.837   0.179
 6191SOL    HW119472   4.738   2.760   0.240
 6191SOL    HW219473   4.780   2.829   0.098
 6192SOL     OW19474   3.344   3.218   0.259
 6192SOL    HW119475   3.325   3.147   0.191
 6192SOL    HW219476   3.338   3.178   0.351
 6193SOL     OW19477   5.145   1.048   2.828
 6193SOL    HW119478   5.145   1.073   2.731
 6193SOL    HW219479   5.204   0.969   2.841
 6194SOL     OW19480   1.489   6.612   0.077
 6194SOL    HW119481   1.429   6.641   0.002
 6194SOL    HW219482   1.537   6.692   0.113
 6195SOL     OW19483   3.551   5.391   5.661
 6195SOL    HW119484   3.577   5.487   5.652
 6195SOL    HW219485   3.492   5.366   5.583
 6196SOL     OW19486   5.645   2.301   1.035
 6196SOL    HW119487   5.724   2.262   1.083
 6196SOL    HW219488   5.610   2.235   0.970
 6197SOL     OW19489   4.328   3.806   0.338
 6197SOL    HW119490   4.298   3.898   0.363
 6197SOL    HW219491   4.276   3.739   0.390
 6198SOL     OW19492   3.180   5.347   2.695
 6198SOL    HW119493   3.245   5.340   2.770
 6198SOL    HW219494   3.106   5.282   2.709
 6199SOL     OW19495   0.615   6.996   1.114
 6199SOL    HW119496   0.614   0.002   1.209
 6199SOL    HW219497   0.528   7.018   1.070
 6200SOL     OW19498   1.747   0.704   5.852
 6200SOL    HW119499   1.819   0.687   5.785
 6200SOL    HW219500   1.785   0.692   5.944
 6201SOL     OW19501   1.791   3.738   5.635
 6201SOL    HW119502   1.791   3.799   5.555
 6201SOL    HW219503   1.788   3.793   5.718
 6202SOL     OW19504   3.854   1.972   1.545
 6202SOL    HW119505   3.915   1.916   1.600
 6202SOL    HW219506   3.820   2.049   1.600
 6203SOL     OW19507   5.457   6.724   3.398
 6203SOL    HW119508   5.539   6.778   3.381
 6203SOL    HW219509   5.375   6.779   3.381
 6204SOL     OW19510   0.363   5.150   5.469
 6204SOL    HW119511   0.372   5.211   5.547
 6204SOL    HW219512   0.344   5.203   5.386
 6205SOL     OW19513   5.462   6.242   0.169
 6205SOL    HW119514   5.430   6.236   0.263
 6205SOL    HW219515   5.525   6.166   0.149
 6206SOL     OW19516   6.213   0.546   2.672
 6206SOL    HW119517   6.174   0.481   2.607
 6206SOL    HW219518   6.247   0.496   2.752
 6207SOL     OW19519   1.371   4.280   4.306
 6207SOL    HW119520   1.451   4.320   4.261
 6207SOL    HW219521   1.396   4.192   4.346
 6208SOL     OW19522   6.030   0.882   6.884
 6208SOL    HW119523   6.105   0.855   6.943
 6208SOL    HW219524   6.064   0.898   6.791
 6209SOL     OW19525   4.748   5.512   0.026
 6209SOL    HW119526   4.688   5.450   0.076
 6209SOL    HW219527   4.789   5.463   6.974
 6210SOL     OW19528   6.072   5.103   3.580
 6210SOL    HW119529   5.987   5.058   3.607
 6210SOL    HW219530   6.053   5.200   3.562
 6211SOL     OW19531   3.140   6.904   4.311
 6211SOL    HW119532   3.184   6.988   4.279
 6211SOL    HW219533   3.093   6.860   4.235
 6212SOL     OW19534   1.984   5.170   2.878
 6212SOL    HW119535   2.076   5.192   2.910
 6212SOL    HW219536   1.990   5.112   2.797
 6213SOL     OW19537   5.005   0.214   6.800
 6213SOL    HW119538   4.981   0.281   6.871
 6213SOL    HW219539   5.008   0.259   6.711
 6214SOL     OW19540   5.238   4.880   3.209
 6214SOL    HW119541   5.286   4.931   3.137
 6214SOL    HW219542   5.302   4.818   3.255
 6215SOL     OW19543   4.181   1.924   6.629
 6215SOL    HW119544   4.088   1.896   6.651
 6215SOL    HW219545   4.217   1.980   6.704
 6216SOL     OW19546   6.880   2.692   2.312
 6216SOL    HW119547   6.916   2.750   2.385
 6216SOL    HW219548   6.886   2.596   2.339
 6217SOL     OW19549   6.992   2.829   2.516
 6217SOL    HW119550   0.033   2.780   2.573
 6217SOL    HW219551   0.006   2.914   2.483
 6218SOL     OW19552   3.226   5.436   4.922
 6218SOL    HW119553   3.228   5.347   4.968
 6218SOL    HW219554   3.318   5.460   4.892
 6219SOL     OW19555   1.131   1.871   4.686
 6219SOL    HW119556   1.192   1.941   4.725
 6219SOL    HW219557   1.134   1.789   4.743
 6220SOL     OW19558   0.896   3.396   5.482
 6220SOL    HW119559   0.864   3.404   5.388
 6220SOL    HW219560   0.954   3.474   5.505
 6221SOL     OW19561   6.261   6.163   6.575
 6221SOL    HW119562   6.202   6.208   6.643
 6221SOL    HW219563   6.207   6.098   6.522
 6222SOL     OW19564   0.754   6.532   1.169
 6222SOL    HW119565   0.789   6.622   1.145
 6222SOL    HW219566   0.784   6.508   1.261
 6223SOL     OW19567   0.151   4.070   4.866
 6223SOL    HW119568   0.215   4.003   4.902
 6223SOL    HW219569   0.103   4.114   4.942
 6224SOL     OW19570   2.251   1.915   6.277
 6224SOL    HW119571   2.280   2.008   6.302
 6224SOL    HW219572   2.164   1.919   6.228
 6225SOL     OW19573   3.235   2.985   1.192
 6225SOL    HW119574   3.181   3.069   1.202
 6225SOL    HW219575   3.301   2.997   1.118
 6226SOL     OW19576   5.818   2.079   4.812
 6226SOL    HW119577   5.823   2.107   4.908
 6226SOL    HW219578   5.785   1.985   4.806
 6227SOL     OW19579   3.590   5.553   6.266
 6227SOL    HW119580   3.668   5.616   6.265
 6227SOL    HW219581   3.620   5.463   6.234
 6228SOL     OW19582   0.260   2.893   2.346
 6228SOL    HW119583   0.307   2.922   2.429
 6228SOL    HW219584   0.229   2.798   2.356
 6229SOL     OW19585   0.679   2.777   2.264
 6229SOL    HW119586   0.691   2.772   2.363
 6229SOL    HW219587   0.677   2.684   2.226
 6230SOL     OW19588   1.260   1.440   4.077
 6230SOL    HW119589   1.261   1.455   4.176
 6230SOL    HW219590   1.182   1.488   4.037
 6231SOL     OW19591   6.801   4.731   1.472
 6231SOL    HW119592   6.848   4.643   1.469
 6231SOL    HW219593   6.751   4.745   1.387
 6232SOL     OW19594   6.002   2.135   0.897
 6232SOL    HW119595   5.947   2.060   0.935
 6232SOL    HW219596   5.957   2.171   0.815
 6233SOL     OW19597   5.668   0.972   6.913
 6233SOL    HW119598   5.589   1.022   6.949
 6233SOL    HW219599   5.669   0.880   6.952
 6234SOL     OW19600   6.717   1.212   5.630
 6234SOL    HW119601   6.653   1.145   5.594
 6234SOL    HW219602   6.800   1.166   5.661
 6235SOL     OW19603   0.862   0.393   2.023
 6235SOL    HW119604   0.887   0.447   2.104
 6235SOL    HW219605   0.942   0.381   1.965
 6236SOL     OW19606   0.821   4.581   0.378
 6236SOL    HW119607   0.874   4.497   0.360
 6236SOL    HW219608   0.837   4.647   0.304
 6237SOL     OW19609   3.506   6.049   6.663
 6237SOL    HW119610   3.458   6.072   6.579
 6237SOL    HW219611   3.449   5.988   6.719
 6238SOL     OW19612   3.795   4.840   3.145
 6238SOL    HW119613   3.893   4.820   3.147
 6238SOL    HW219614   3.779   4.924   3.094
 6239SOL     OW19615   3.041   6.362   1.937
 6239SOL    HW119616   3.127   6.335   1.980
 6239SOL    HW219617   3.053   6.450   1.892
 6240SOL     OW19618   3.187   2.783   6.455
 6240SOL    HW119619   3.205   2.767   6.358
 6240SOL    HW219620   3.116   2.720   6.486
 6241SOL     OW19621   2.597   0.455   1.883
 6241SOL    HW119622   2.535   0.514   1.934
 6241SOL    HW219623   2.571   0.455   1.786
 6242SOL     OW19624   5.332   0.549   3.453
 6242SOL    HW119625   5.324   0.450   3.439
 6242SOL    HW219626   5.428   0.575   3.449
 6243SOL     OW19627   5.423   6.734   3.666
 6243SOL    HW119628   5.443   6.720   3.569
 6243SOL    HW219629   5.340   6.684   3.690
 6244SOL     OW19630   1.656   2.446   2.313
 6244SOL    HW119631   1.735   2.497   2.348
 6244SOL    HW219632   1.656   2.354   2.351
 6245SOL     OW19633   1.761   5.080   0.915
 6245SOL    HW119634   1.725   5.019   0.844
 6245SOL    HW219635   1.836   5.035   0.963
 6246SOL     OW19636   1.786   3.009   6.035
 6246SOL    HW119637   1.884   2.992   6.047
 6246SOL    HW219638   1.772   3.073   5.960
 6247SOL     OW19639   0.964   6.773   3.782
 6247SOL    HW119640   0.946   6.850   3.721
 6247SOL    HW219641   0.892   6.705   3.772
 6248SOL     OW19642   2.791   4.123   0.863
 6248SOL    HW119643   2.769   4.217   0.839
 6248SOL    HW219644   2.889   4.107   0.851
 6249SOL     OW19645   1.148   4.156   0.194
 6249SOL    HW119646   1.171   4.064   0.162
 6249SOL    HW219647   1.231   4.205   0.219
 6250SOL     OW19648   6.832   5.967   0.228
 6250SOL    HW119649   6.739   5.999   0.247
 6250SOL    HW219650   6.891   5.986   0.306
 6251SOL     OW19651   3.681   6.167   0.038
 6251SOL    HW119652   3.780   6.161   0.055
 6251SOL    HW219653   3.665   6.178   6.966
 6252SOL     OW19654   1.576   6.782   5.716
 6252SOL    HW119655   1.485   6.825   5.710
 6252SOL    HW219656   1.607   6.758   5.624
 6253SOL     OW19657   2.096   3.894   2.597
 6253SOL    HW119658   2.132   3.853   2.513
 6253SOL    HW219659   2.106   3.993   2.592
 6254SOL     OW19660   4.887   1.136   0.795
 6254SOL    HW119661   4.898   1.229   0.830
 6254SOL    HW219662   4.790   1.121   0.773
 6255SOL     OW19663   2.182   1.126   1.707
 6255SOL    HW119664   2.119   1.157   1.636
 6255SOL    HW219665   2.273   1.111   1.667
 6256SOL     OW19666   3.450   5.417   2.865
 6256SOL    HW119667   3.494   5.449   2.781
 6256SOL    HW219668   3.423   5.496   2.921
 6257SOL     OW19669   5.203   2.203   1.033
 6257SOL    HW119670   5.216   2.237   0.940
 6257SOL    HW219671   5.113   2.160   1.041
 6258SOL     OW19672   4.672   0.291   3.563
 6258SOL    HW119673   4.648   0.327   3.472
 6258SOL    HW219674   4.766   0.315   3.585
 6259SOL     OW19675   2.674   2.633   0.912
 6259SOL    HW119676   2.603   2.621   0.981
 6259SOL    HW219677   2.648   2.708   0.851
 6260SOL     OW19678   2.522   4.730   0.022
 6260SOL    HW119679   2.550   4.701   6.955
 6260SOL    HW219680   2.553   4.824   0.038
 6261SOL     OW19681   3.652   0.320   6.675
 6261SOL    HW119682   3.612   0.337   6.585
 6261SOL    HW219683   3.638   0.399   6.734
 6262SOL     OW19684   1.528   4.574   1.011
 6262SOL    HW119685   1.467   4.617   0.944
 6262SOL    HW219686   1.485   4.492   1.048
 6263SOL     OW19687   0.096   0.776   5.579
 6263SOL    HW119688   0.071   0.791   5.675
 6263SOL    HW219689   0.089   0.679   5.558
 6264SOL     OW19690   1.285   0.071   1.048
 6264SOL    HW119691   1.299   0.017   0.965
 6264SOL    HW219692   1.246   0.012   1.119
 6265SOL     OW19693   3.129   4.244   0.654
 6265SOL    HW119694   3.190   4.321   0.633
 6265SOL    HW219695   3.131   4.226   0.752
 6266SOL     OW19696   4.153   0.397   4.579
 6266SOL    HW119697   4.086   0.371   4.649
 6266SOL    HW219698   4.107   0.444   4.504
 6267SOL     OW19699   2.522   0.396   6.975
 6267SOL    HW119700   2.603   0.449   6.998
 6267SOL    HW219701   2.490   0.346   0.030
 6268SOL     OW19702   3.372   6.405   3.355
 6268SOL    HW119703   3.332   6.318   3.328
 6268SOL    HW219704   3.384   6.407   3.454
 6269SOL     OW19705   6.780   5.740   2.182
 6269SOL    HW119706   6.860   5.748   2.124
 6269SOL    HW219707   6.698   5.727   2.125
 6270SOL     OW19708   1.727   7.006   5.225
 6270SOL    HW119709   1.819   7.024   5.261
 6270SOL    HW219710   1.660   0.036   5.275
 6271SOL     OW19711   5.820   2.290   5.628
 6271SOL    HW119712   5.812   2.220   5.699
 6271SOL    HW219713   5.790   2.378   5.664
 6272SOL     OW19714   0.821   2.506   6.166
 6272SOL    HW119715   0.817   2.443   6.089
 6272SOL    HW219716   0.809   2.455   6.252
 6273SOL     OW19717   2.198   0.366   2.775
 6273SOL    HW119718   2.200   0.465   2.762
 6273SOL    HW219719   2.287   0.335   2.811
 6274SOL     OW19720   2.476   5.543   5.610
 6274SOL    HW119721   2.451   5.633   5.574
 6274SOL    HW219722   2.487   5.548   5.709
 6275SOL     OW19723   2.204   6.127   4.973
 6275SOL    HW119724   2.128   6.189   4.956
 6275SOL    HW219725   2.291   6.175   4.962
 6276SOL     OW19726   1.900   5.093   3.974
 6276SOL    HW119727   1.967   5.031   3.934
 6276SOL    HW219728   1.923   5.111   4.069
 6277SOL     OW19729   5.175   3.353   1.462
 6277SOL    HW119730   5.254   3.291   1.457
 6277SOL    HW219731   5.203   3.438   1.506
 6278SOL     OW19732   5.089   6.468   4.491
 6278SOL    HW119733   5.121   6.407   4.563
 6278SOL    HW219734   4.989   6.471   4.491
 6279SOL     OW19735   3.502   0.646   6.651
 6279SOL    HW119736   3.431   0.707   6.686
 6279SOL    HW219737   3.466   0.554   6.640
 6280SOL     OW19738   0.731   2.324   5.971
 6280SOL    HW119739   0.758   2.291   5.880
 6280SOL    HW219740   0.679   2.409   5.961
 6281SOL     OW19741   1.396   5.712   4.424
 6281SOL    HW119742   1.400   5.758   4.336
 6281SOL    HW219743   1.310   5.662   4.433
 6282SOL     OW19744   1.068   0.661   4.863
 6282SOL    HW119745   0.976   0.689   4.836
 6282SOL    HW219746   1.095   0.581   4.811
 6283SOL     OW19747   6.498   3.189   5.823
 6283SOL    HW119748   6.480   3.274   5.873
 6283SOL    HW219749   6.560   3.208   5.747
 6284SOL     OW19750   2.264   5.609   5.079
 6284SOL    HW119751   2.175   5.563   5.071
 6284SOL    HW219752   2.249   5.707   5.096
 6285SOL     OW19753   0.895   2.908   3.620
 6285SOL    HW119754   0.806   2.864   3.605
 6285SOL    HW219755   0.918   2.903   3.717
 6286SOL     OW19756   6.692   1.963   4.066
 6286SOL    HW119757   6.713   2.028   3.993
 6286SOL    HW219758   6.605   1.989   4.109
 6287SOL     OW19759   4.006   5.137   3.265
 6287SOL    HW119760   3.970   5.125   3.357
 6287SOL    HW219761   4.084   5.076   3.251
 6288SOL     OW19762   6.332   4.836   2.680
 6288SOL    HW119763   6.366   4.811   2.590
 6288SOL    HW219764   6.329   4.755   2.739
 6289SOL     OW19765   1.336   4.921   2.488
 6289SOL    HW119766   1.415   4.974   2.458
 6289SOL    HW219767   1.302   4.866   2.411
 6290SOL     OW19768   6.062   3.442   4.324
 6290SOL    HW119769   6.161   3.431   4.318
 6290SOL    HW219770   6.017   3.383   4.258
 6291SOL     OW19771   3.492   3.034   3.904
 6291SOL    HW119772   3.452   3.026   3.996
 6291SOL    HW219773   3.446   3.107   3.854
 6292SOL     OW19774   1.675   2.265   3.717
 6292SOL    HW119775   1.603   2.319   3.762
 6292SOL    HW219776   1.690   2.302   3.625
 6293SOL     OW19777   3.857   0.329   0.055
 6293SOL    HW119778   3.796   0.250   0.044
 6293SOL    HW219779   3.820   0.392   0.123
 6294SOL     OW19780   3.785   4.952   3.690
 6294SOL    HW119781   3.851   4.884   3.721
 6294SOL    HW219782   3.830   5.019   3.630
 6295SOL     OW19783   5.204   5.227   5.210
 6295SOL    HW119784   5.204   5.127   5.200
 6295SOL    HW219785   5.110   5.258   5.225
 6296SOL     OW19786   6.993   6.714   4.896
 6296SOL    HW119787   0.059   6.678   4.874
 6296SOL    HW219788   6.994   6.752   4.989
 6297SOL     OW19789   4.938   0.309   5.442
 6297SOL    HW119790   5.007   0.245   5.476
 6297SOL    HW219791   4.866   0.257   5.395
 6298SOL     OW19792   1.656   2.580   5.726
 6298SOL    HW119793   1.572   2.580   5.671
 6298SOL    HW219794   1.691   2.673   5.733
 6299SOL     OW19795   5.348   1.391   0.463
 6299SOL    HW119796   5.308   1.312   0.417
 6299SOL    HW219797   5.420   1.361   0.525
 6300SOL     OW19798   5.089   0.458   5.945
 6300SOL    HW119799   5.178   0.478   5.904
 6300SOL    HW219800   5.096   0.468   6.044
 6301SOL     OW19801   3.107   0.619   1.303
 6301SOL    HW119802   3.137   0.524   1.313
 6301SOL    HW219803   3.053   0.628   1.218
 6302SOL     OW19804   1.572   1.634   4.130
 6302SOL    HW119805   1.602   1.540   4.149
 6302SOL    HW219806   1.563   1.647   4.032
 6303SOL     OW19807   2.403   0.962   4.499
 6303SOL    HW119808   2.378   0.867   4.480
 6303SOL    HW219809   2.463   0.965   4.579
 6304SOL     OW19810   2.359   1.386   0.634
 6304SOL    HW119811   2.396   1.294   0.621
 6304SOL    HW219812   2.425   1.442   0.685
 6305SOL     OW19813   6.319   6.694   1.277
 6305SOL    HW119814   6.362   6.630   1.214
 6305SOL    HW219815   6.298   6.779   1.229
 6306SOL     OW19816   1.290   3.762   4.343
 6306SOL    HW119817   1.368   3.737   4.286
 6306SOL    HW219818   1.223   3.688   4.342
 6307SOL     OW19819   4.033   4.396   5.847
 6307SOL    HW119820   3.945   4.435   5.873
 6307SOL    HW219821   4.065   4.440   5.763
 6308SOL     OW19822   1.954   1.569   4.518
 6308SOL    HW119823   2.030   1.581   4.454
 6308SOL    HW219824   1.880   1.632   4.495
 6309SOL     OW19825   5.149   4.005   4.433
 6309SOL    HW119826   5.183   3.982   4.524
 6309SOL    HW219827   5.142   4.105   4.424
 6310SOL     OW19828   1.879   5.687   3.660
 6310SOL    HW119829   1.937   5.639   3.595
 6310SOL    HW219830   1.850   5.625   3.732
 6311SOL     OW19831   5.594   0.103   5.381
 6311SOL    HW119832   5.576   0.049   5.463
 6311SOL    HW219833   5.642   0.187   5.405
 6312SOL     OW19834   6.025   5.361   5.652
 6312SOL    HW119835   5.980   5.327   5.569
 6312SOL    HW219836   6.047   5.458   5.640
 6313SOL     OW19837   1.519   6.029   3.428
 6313SOL    HW119838   1.446   6.020   3.360
 6313SOL    HW219839   1.533   5.941   3.474
 6314SOL     OW19840   3.899   6.365   1.430
 6314SOL    HW119841   3.984   6.360   1.483
 6314SOL    HW219842   3.825   6.399   1.488
 6315SOL     OW19843   3.662   2.918   6.125
 6315SOL    HW119844   3.580   2.868   6.151
 6315SOL    HW219845   3.728   2.917   6.201
 6316SOL     OW19846   4.997   2.006   6.730
 6316SOL    HW119847   4.998   1.943   6.653
 6316SOL    HW219848   4.910   2.056   6.732
 6317SOL     OW19849   4.961   5.309   3.428
 6317SOL    HW119850   5.038   5.303   3.364
 6317SOL    HW219851   4.963   5.231   3.490
 6318SOL     OW19852   3.049   2.160   4.644
 6318SOL    HW119853   3.095   2.181   4.558
 6318SOL    HW219854   2.950   2.160   4.629
 6319SOL     OW19855   0.401   2.316   3.330
 6319SOL    HW119856   0.486   2.271   3.301
 6319SOL    HW219857   0.400   2.322   3.430
 6320SOL     OW19858   5.759   4.683   5.305
 6320SOL    HW119859   5.757   4.728   5.394
 6320SOL    HW219860   5.669   4.645   5.285
 6321SOL     OW19861   3.081   4.505   0.899
 6321SOL    HW119862   3.146   4.581   0.890
 6321SOL    HW219863   3.065   4.466   0.809
 6322SOL     OW19864   1.753   2.280   6.733
 6322SOL    HW119865   1.852   2.283   6.743
 6322SOL    HW219866   1.721   2.187   6.751
 6323SOL     OW19867   3.404   2.763   1.265
 6323SOL    HW119868   3.374   2.697   1.196
 6323SOL    HW219869   3.337   2.838   1.270
 6324SOL     OW19870   5.096   6.985   6.719
 6324SOL    HW119871   5.087   0.058   6.736
 6324SOL    HW219872   5.097   6.936   6.806
 6325SOL     OW19873   2.133   1.925   2.315
 6325SOL    HW119874   2.108   1.987   2.389
 6325SOL    HW219875   2.103   1.964   2.228
 6326SOL     OW19876   4.588   5.793   2.131
 6326SOL    HW119877   4.498   5.773   2.091
 6326SOL    HW219878   4.627   5.873   2.086
 6327SOL     OW19879   6.875   0.550   5.123
 6327SOL    HW119880   6.878   0.521   5.028
 6327SOL    HW219881   6.967   0.575   5.153
 6328SOL     OW19882   2.305   3.758   0.621
 6328SOL    HW119883   2.332   3.815   0.699
 6328SOL    HW219884   2.386   3.727   0.573
 6329SOL     OW19885   2.407   2.551   3.215
 6329SOL    HW119886   2.399   2.619   3.143
 6329SOL    HW219887   2.379   2.591   3.302
 6330SOL     OW19888   4.581   1.086   1.366
 6330SOL    HW119889   4.578   1.134   1.278
 6330SOL    HW219890   4.581   1.154   1.440
 6331SOL     OW19891   6.216   2.347   6.976
 6331SOL    HW119892   6.197   2.305   0.039
 6331SOL    HW219893   6.175   2.292   6.904
 6332SOL     OW19894   6.753   3.722   2.210
 6332SOL    HW119895   6.693   3.748   2.134
 6332SOL    HW219896   6.820   3.794   2.226
 6333SOL     OW19897   4.032   4.794   4.343
 6333SOL    HW119898   3.972   4.815   4.265
 6333SOL    HW219899   3.979   4.796   4.427
 6334SOL     OW19900   2.674   7.007   2.370
 6334SOL    HW119901   2.739   7.018   2.446
 6334SOL    HW219902   2.597   0.043   2.382
 6335SOL     OW19903   4.681   1.506   0.458
 6335SOL    HW119904   4.620   1.583   0.438
 6335SOL    HW219905   4.650   1.460   0.541
 6336SOL     OW19906   0.459   1.809   6.302
 6336SOL    HW119907   0.519   1.788   6.225
 6336SOL    HW219908   0.457   1.907   6.318
 6337SOL     OW19909   4.692   4.309   5.999
 6337SOL    HW119910   4.637   4.384   6.035
 6337SOL    HW219911   4.784   4.314   6.038
 6338SOL     OW19912   3.198   2.086   2.645
 6338SOL    HW119913   3.194   2.116   2.740
 6338SOL    HW219914   3.147   2.000   2.636
 6339SOL     OW19915   0.790   2.991   2.987
 6339SOL    HW119916   0.787   2.921   3.058
 6339SOL    HW219917   0.701   2.996   2.941
 6340SOL     OW19918   1.766   4.768   3.036
 6340SOL    HW119919   1.705   4.704   3.083
 6340SOL    HW219920   1.769   4.747   2.939
 6341SOL     OW19921   0.779   4.227   3.911
 6341SOL    HW119922   0.775   4.321   3.945
 6341SOL    HW219923   0.722   4.218   3.829
 6342SOL     OW19924   2.587   1.946   1.835
 6342SOL    HW119925   2.646   2.020   1.867
 6342SOL    HW219926   2.528   1.916   1.910
 6343SOL     OW19927   5.322   2.389   6.874
 6343SOL    HW119928   5.379   2.337   6.811
 6343SOL    HW219929   5.373   2.467   6.909
 6344SOL     OW19930   5.955   3.676   5.698
 6344SOL    HW119931   6.015   3.738   5.649
 6344SOL    HW219932   5.859   3.699   5.680
 6345SOL     OW19933   4.479   1.919   2.031
 6345SOL    HW119934   4.466   1.929   1.932
 6345SOL    HW219935   4.572   1.885   2.049
 6346SOL     OW19936   6.776   3.931   3.727
 6346SOL    HW119937   6.752   3.933   3.630
 6346SOL    HW219938   6.799   4.023   3.758
 6347SOL     OW19939   1.763   0.383   1.587
 6347SOL    HW119940   1.743   0.458   1.524
 6347SOL    HW219941   1.856   0.394   1.623
 6348SOL     OW19942   1.422   4.061   5.127
 6348SOL    HW119943   1.460   4.087   5.038
 6348SOL    HW219944   1.362   3.982   5.115
 6349SOL     OW19945   3.293   6.768   1.174
 6349SOL    HW119946   3.307   6.769   1.075
 6349SOL    HW219947   3.203   6.729   1.194
 6350SOL     OW19948   2.684   4.620   4.057
 6350SOL    HW119949   2.637   4.650   4.140
 6350SOL    HW219950   2.780   4.648   4.061
 6351SOL     OW19951   6.497   3.483   2.915
 6351SOL    HW119952   6.520   3.528   2.829
 6351SOL    HW219953   6.450   3.396   2.895
 6352SOL     OW19954   2.289   5.328   4.766
 6352SOL    HW119955   2.285   5.425   4.743
 6352SOL    HW219956   2.309   5.275   4.683
 6353SOL     OW19957   6.655   1.200   6.242
 6353SOL    HW119958   6.701   1.115   6.213
 6353SOL    HW219959   6.557   1.183   6.253
 6354SOL     OW19960   1.546   0.100   2.975
 6354SOL    HW119961   1.523   0.093   3.072
 6354SOL    HW219962   1.481   0.046   2.921
 6355SOL     OW19963   1.287   5.624   6.120
 6355SOL    HW119964   1.376   5.671   6.123
 6355SOL    HW219965   1.240   5.638   6.207
 6356SOL     OW19966   3.842   5.087   3.029
 6356SOL    HW119967   3.879   5.125   3.114
 6356SOL    HW219968   3.765   5.143   2.998
 6357SOL     OW19969   5.311   2.648   1.965
 6357SOL    HW119970   5.230   2.638   2.023
 6357SOL    HW219971   5.381   2.582   1.993
 6358SOL     OW19972   1.295   2.234   6.026
 6358SOL    HW119973   1.355   2.299   5.980
 6358SOL    HW219974   1.350   2.156   6.058
 6359SOL     OW19975   6.468   0.002   5.768
 6359SOL    HW119976   6.520   6.985   5.693
 6359SOL    HW219977   6.456   6.962   5.842
 6360SOL     OW19978   1.754   3.826   4.240
 6360SOL    HW119979   1.722   3.842   4.334
 6360SOL    HW219980   1.811   3.744   4.239
 6361SOL     OW19981   6.310   0.142   0.398
 6361SOL    HW119982   6.380   0.204   0.433
 6361SOL    HW219983   6.240   0.194   0.350
 6362SOL     OW19984   6.810   5.530   6.394
 6362SOL    HW119985   6.905   5.557   6.406
 6362SOL    HW219986   6.806   5.437   6.357
 6363SOL     OW19987   2.194   4.356   3.335
 6363SOL    HW119988   2.104   4.328   3.303
 6363SOL    HW219989   2.261   4.285   3.316
 6364SOL     OW19990   3.269   1.377   5.738
 6364SOL    HW119991   3.184   1.386   5.790
 6364SOL    HW219992   3.291   1.280   5.727
 6365SOL     OW19993   5.351   6.824   4.784
 6365SOL    HW119994   5.292   6.793   4.709
 6365SOL    HW219995   5.446   6.826   4.753
 6366SOL     OW19996   0.715   6.026   6.442
 6366SOL    HW119997   0.773   5.973   6.380
 6366SOL    HW219998   0.671   6.100   6.391
 6367SOL     OW19999   3.718   0.508   4.068
 6367SOL    HW120000   3.741   0.591   4.119
 6367SOL    HW220001   3.731   0.524   3.970
 6368SOL     OW20002   3.746   6.692   3.890
 6368SOL    HW120003   3.731   6.783   3.927
 6368SOL    HW220004   3.738   6.624   3.964
 6369SOL     OW20005   2.465   4.923   4.695
 6369SOL    HW120006   2.461   4.900   4.792
 6369SOL    HW220007   2.542   4.985   4.678
 6370SOL     OW20008   1.078   3.249   2.482
 6370SOL    HW120009   1.036   3.257   2.573
 6370SOL    HW220010   1.051   3.327   2.426
 6371SOL     OW20011   5.064   3.385   3.808
 6371SOL    HW120012   5.043   3.288   3.814
 6371SOL    HW220013   5.088   3.420   3.898
 6372SOL     OW20014   3.396   0.069   1.540
 6372SOL    HW120015   3.398   0.034   1.446
 6372SOL    HW220016   3.479   0.039   1.588
 6373SOL     OW20017   5.570   4.517   3.555
 6373SOL    HW120018   5.477   4.552   3.542
 6373SOL    HW220019   5.636   4.588   3.530
 6374SOL     OW20020   3.282   4.089   4.334
 6374SOL    HW120021   3.304   4.011   4.393
 6374SOL    HW220022   3.345   4.164   4.352
 6375SOL     OW20023   0.314   1.865   3.895
 6375SOL    HW120024   0.279   1.798   3.830
 6375SOL    HW220025   0.243   1.889   3.960
 6376SOL     OW20026   6.249   2.710   5.554
 6376SOL    HW120027   6.309   2.631   5.565
 6376SOL    HW220028   6.157   2.687   5.586
 6377SOL     OW20029   6.316   1.657   5.373
 6377SOL    HW120030   6.404   1.635   5.331
 6377SOL    HW220031   6.251   1.683   5.301
 6378SOL     OW20032   5.514   5.154   3.386
 6378SOL    HW120033   5.493   5.160   3.484
 6378SOL    HW220034   5.613   5.146   3.374
 6379SOL     OW20035   2.238   4.267   4.285
 6379SOL    HW120036   2.209   4.178   4.251
 6379SOL    HW220037   2.255   4.261   4.383
 6380SOL     OW20038   0.673   1.631   6.079
 6380SOL    HW120039   0.664   1.597   5.986
 6380SOL    HW220040   0.607   1.586   6.139
 6381SOL     OW20041   3.673   3.255   1.984
 6381SOL    HW120042   3.608   3.183   1.959
 6381SOL    HW220043   3.642   3.341   1.944
 6382SOL     OW20044   1.290   2.775   0.826
 6382SOL    HW120045   1.254   2.699   0.772
 6382SOL    HW220046   1.213   2.829   0.862
 6383SOL     OW20047   1.830   2.217   2.692
 6383SOL    HW120048   1.836   2.317   2.696
 6383SOL    HW220049   1.897   2.177   2.755
 6384SOL     OW20050   5.316   4.188   1.131
 6384SOL    HW120051   5.351   4.100   1.165
 6384SOL    HW220052   5.240   4.170   1.069
 6385SOL     OW20053   6.704   4.208   4.688
 6385SOL    HW120054   6.636   4.143   4.652
 6385SOL    HW220055   6.772   4.158   4.741
 6386SOL     OW20056   2.700   4.360   6.363
 6386SOL    HW120057   2.747   4.365   6.451
 6386SOL    HW220058   2.755   4.305   6.300
 6387SOL     OW20059   0.704   1.429   6.844
 6387SOL    HW120060   0.624   1.477   6.879
 6387SOL    HW220061   0.766   1.495   6.800
 6388SOL     OW20062   3.971   4.808   1.417
 6388SOL    HW120063   3.955   4.877   1.347
 6388SOL    HW220064   4.065   4.775   1.410
 6389SOL     OW20065   0.796   5.804   2.284
 6389SOL    HW120066   0.708   5.831   2.246
 6389SOL    HW220067   0.817   5.711   2.256
 6390SOL     OW20068   1.627   2.006   4.720
 6390SOL    HW120069   1.672   1.920   4.698
 6390SOL    HW220070   1.648   2.032   4.814
 6391SOL     OW20071   3.215   0.109   5.887
 6391SOL    HW120072   3.157   0.179   5.846
 6391SOL    HW220073   3.162   0.026   5.902
 6392SOL     OW20074   2.155   7.013   3.759
 6392SOL    HW120075   2.130   0.076   3.719
 6392SOL    HW220076   2.238   6.979   3.714
 6393SOL     OW20077   6.175   6.608   1.497
 6393SOL    HW120078   6.230   6.539   1.544
 6393SOL    HW220079   6.222   6.638   1.414
 6394SOL     OW20080   2.286   4.677   0.910
 6394SOL    HW120081   2.261   4.606   0.844
 6394SOL    HW220082   2.213   4.745   0.914
 6395SOL     OW20083   6.144   2.468   1.397
 6395SOL    HW120084   6.194   2.385   1.370
 6395SOL    HW220085   6.138   2.529   1.318
 6396SOL     OW20086   5.375   3.078   6.534
 6396SOL    HW120087   5.466   3.102   6.501
 6396SOL    HW220088   5.365   3.107   6.629
 6397SOL     OW20089   5.735   2.418   6.519
 6397SOL    HW120090   5.730   2.509   6.477
 6397SOL    HW220091   5.763   2.428   6.615
 6398SOL     OW20092   3.330   0.715   0.826
 6398SOL    HW120093   3.303   0.645   0.760
 6398SOL    HW220094   3.259   0.786   0.829
 6399SOL     OW20095   1.554   5.082   6.500
 6399SOL    HW120096   1.594   5.090   6.409
 6399SOL    HW220097   1.541   5.173   6.540
 6400SOL     OW20098   2.105   5.976   2.852
 6400SOL    HW120099   2.168   5.948   2.925
 6400SOL    HW220100   2.141   5.947   2.764
 6401SOL     OW20101   6.899   4.359   3.594
 6401SOL    HW120102   6.833   4.431   3.570
 6401SOL    HW220103   6.954   4.336   3.514
 6402SOL     OW20104   3.555   0.967   3.026
 6402SOL    HW120105   3.518   1.058   3.047
 6402SOL    HW220106   3.534   0.905   3.101
 6403SOL     OW20107   0.439   6.475   6.392
 6403SOL    HW120108   0.418   6.426   6.477
 6403SOL    HW220109   0.380   6.443   6.318
 6404SOL     OW20110   3.565   1.231   3.249
 6404SOL    HW120111   3.531   1.313   3.296
 6404SOL    HW220112   3.500   1.205   3.177
 6405SOL     OW20113   1.838   0.872   3.448
 6405SOL    HW120114   1.843   0.783   3.494
 6405SOL    HW220115   1.807   0.859   3.353
 6406SOL     OW20116   1.911   2.553   3.486
 6406SOL    HW120117   2.004   2.515   3.487
 6406SOL    HW220118   1.894   2.600   3.573
 6407SOL     OW20119   3.227   0.127   3.263
 6407SOL    HW120120   3.170   0.134   3.181
 6407SOL    HW220121   3.201   0.198   3.328
 6408SOL     OW20122   5.961   2.468   6.720
 6408SOL    HW120123   5.991   2.505   6.807
 6408SOL    HW220124   5.998   2.375   6.709
 6409SOL     OW20125   0.270   4.718   3.072
 6409SOL    HW120126   0.289   4.797   3.131
 6409SOL    HW220127   0.278   4.634   3.125
 6410SOL     OW20128   2.158   1.404   0.224
 6410SOL    HW120129   2.226   1.446   0.285
 6410SOL    HW220130   2.107   1.335   0.275
 6411SOL     OW20131   0.031   2.676   3.262
 6411SOL    HW120132   0.065   2.592   3.305
 6411SOL    HW220133   0.075   2.755   3.305
 6412SOL     OW20134   7.003   2.946   5.497
 6412SOL    HW120135   6.998   2.964   5.595
 6412SOL    HW220136   6.911   2.949   5.458
 6413SOL     OW20137   5.107   4.656   3.145
 6413SOL    HW120138   5.178   4.726   3.144
 6413SOL    HW220139   5.112   4.605   3.230
 6414SOL     OW20140   6.123   0.584   1.782
 6414SOL    HW120141   6.097   0.503   1.835
 6414SOL    HW220142   6.066   0.590   1.700
 6415SOL     OW20143   2.460   2.236   2.692
 6415SOL    HW120144   2.519   2.241   2.611
 6415SOL    HW220145   2.516   2.213   2.772
 6416SOL     OW20146   1.264   1.198   5.711
 6416SOL    HW120147   1.242   1.249   5.628
 6416SOL    HW220148   1.186   1.140   5.736
 6417SOL     OW20149   0.067   4.583   2.241
 6417SOL    HW120150   0.007   4.586   2.321
 6417SOL    HW220151   0.053   4.496   2.194
 6418SOL     OW20152   5.330   4.429   2.197
 6418SOL    HW120153   5.245   4.402   2.242
 6418SOL    HW220154   5.317   4.429   2.098
 6419SOL     OW20155   2.280   4.996   2.529
 6419SOL    HW120156   2.324   5.034   2.448
 6419SOL    HW220157   2.200   4.942   2.501
 6420SOL     OW20158   2.420   3.606   5.951
 6420SOL    HW120159   2.515   3.633   5.936
 6420SOL    HW220160   2.383   3.566   5.867
 6421SOL     OW20161   5.129   1.379   1.996
 6421SOL    HW120162   5.201   1.421   1.941
 6421SOL    HW220163   5.066   1.450   2.030
 6422SOL     OW20164   0.041   0.319   4.134
 6422SOL    HW120165   0.075   0.259   4.207
 6422SOL    HW220166   0.118   0.352   4.080
 6423SOL     OW20167   4.993   4.809   2.285
 6423SOL    HW120168   5.057   4.802   2.209
 6423SOL    HW220169   4.903   4.777   2.256
 6424SOL     OW20170   6.856   5.723   5.532
 6424SOL    HW120171   6.953   5.750   5.531
 6424SOL    HW220172   6.822   5.724   5.625
 6425SOL     OW20173   6.413   5.533   3.173
 6425SOL    HW120174   6.337   5.573   3.224
 6425SOL    HW220175   6.398   5.434   3.164
 6426SOL     OW20176   0.427   4.527   3.344
 6426SOL    HW120177   0.504   4.464   3.333
 6426SOL    HW220178   0.360   4.487   3.406
 6427SOL     OW20179   2.266   3.190   6.631
 6427SOL    HW120180   2.232   3.202   6.538
 6427SOL    HW220181   2.239   3.269   6.687
 6428SOL     OW20182   6.573   3.251   0.442
 6428SOL    HW120183   6.484   3.293   0.423
 6428SOL    HW220184   6.561   3.153   0.459
 6429SOL     OW20185   0.756   1.461   5.234
 6429SOL    HW120186   0.746   1.560   5.230
 6429SOL    HW220187   0.679   1.418   5.186
 6430SOL     OW20188   5.286   1.208   2.344
 6430SOL    HW120189   5.308   1.111   2.333
 6430SOL    HW220190   5.196   1.226   2.305
 6431SOL     OW20191   5.459   6.544   3.201
 6431SOL    HW120192   5.478   6.613   3.271
 6431SOL    HW220193   5.478   6.583   3.110
 6432SOL     OW20194   4.062   3.910   6.913
 6432SOL    HW120195   4.038   3.853   6.991
 6432SOL    HW220196   4.078   4.004   6.945
 6433SOL     OW20197   3.580   4.343   0.660
 6433SOL    HW120198   3.602   4.321   0.755
 6433SOL    HW220199   3.609   4.268   0.601
 6434SOL     OW20200   2.243   3.634   0.401
 6434SOL    HW120201   2.249   3.678   0.490
 6434SOL    HW220202   2.327   3.648   0.350
 6435SOL     OW20203   4.273   5.962   6.647
 6435SOL    HW120204   4.323   6.044   6.676
 6435SOL    HW220205   4.182   5.987   6.615
 6436SOL     OW20206   1.980   3.312   3.987
 6436SOL    HW120207   1.950   3.344   3.897
 6436SOL    HW220208   2.035   3.384   4.031
 6437SOL     OW20209   2.191   1.044   0.903
 6437SOL    HW120210   2.169   0.953   0.939
 6437SOL    HW220211   2.283   1.043   0.866
 6438SOL     OW20212   0.619   4.803   6.622
 6438SOL    HW120213   0.628   4.746   6.540
 6438SOL    HW220214   0.672   4.763   6.696
 6439SOL     OW20215   6.813   0.391   1.777
 6439SOL    HW120216   6.793   0.356   1.869
 6439SOL    HW220217   6.767   0.334   1.709
 6440SOL     OW20218   2.267   1.883   1.628
 6440SOL    HW120219   2.292   1.793   1.664
 6440SOL    HW220220   2.305   1.895   1.536
 6441SOL     OW20221   1.074   6.943   2.568
 6441SOL    HW120222   1.057   6.876   2.496
 6441SOL    HW220223   1.173   6.948   2.586
 6442SOL     OW20224   1.985   1.535   3.255
 6442SOL    HW120225   2.002   1.473   3.331
 6442SOL    HW220226   1.894   1.518   3.218
 6443SOL     OW20227   3.828   2.888   0.339
 6443SOL    HW120228   3.735   2.876   0.374
 6443SOL    HW220229   3.856   2.983   0.352
 6444SOL     OW20230   0.818   2.612   3.934
 6444SOL    HW120231   0.828   2.711   3.944
 6444SOL    HW220232   0.905   2.572   3.905
 6445SOL     OW20233   4.893   2.681   5.730
 6445SOL    HW120234   4.981   2.727   5.745
 6445SOL    HW220235   4.898   2.628   5.645
 6446SOL     OW20236   1.346   1.037   6.173
 6446SOL    HW120237   1.391   1.059   6.086
 6446SOL    HW220238   1.270   0.975   6.156
 6447SOL     OW20239   0.292   5.716   2.714
 6447SOL    HW120240   0.355   5.748   2.785
 6447SOL    HW220241   0.332   5.637   2.668
 6448SOL     OW20242   5.248   4.186   2.454
 6448SOL    HW120243   5.186   4.173   2.377
 6448SOL    HW220244   5.211   4.257   2.515
 6449SOL     OW20245   3.300   4.451   0.610
 6449SOL    HW120246   3.371   4.503   0.657
 6449SOL    HW220247   3.258   4.508   0.540
 6450SOL     OW20248   7.001   3.311   1.605
 6450SOL    HW120249   6.962   3.221   1.590
 6450SOL    HW220250   0.053   3.304   1.667
 6451SOL     OW20251   2.833   6.480   4.799
 6451SOL    HW120252   2.871   6.465   4.890
 6451SOL    HW220253   2.890   6.432   4.732
 6452SOL     OW20254   3.367   5.961   5.002
 6452SOL    HW120255   3.280   5.911   5.004
 6452SOL    HW220256   3.349   6.059   5.000
 6453SOL     OW20257   1.392   6.388   0.162
 6453SOL    HW120258   1.301   6.423   0.186
 6453SOL    HW220259   1.448   6.461   0.125
 6454SOL     OW20260   2.949   1.512   3.746
 6454SOL    HW120261   2.883   1.455   3.795
 6454SOL    HW220262   3.041   1.478   3.762
 6455SOL     OW20263   0.967   1.942   3.963
 6455SOL    HW120264   0.898   1.895   3.909
 6455SOL    HW220265   0.932   1.960   4.055
 6456SOL     OW20266   1.861   0.661   3.645
 6456SOL    HW120267   1.938   0.725   3.649
 6456SOL    HW220268   1.784   0.698   3.696
 6457SOL     OW20269   4.918   1.112   1.096
 6457SOL    HW120270   4.860   1.100   1.177
 6457SOL    HW220271   4.917   1.209   1.069
 6458SOL     OW20272   0.922   6.956   3.583
 6458SOL    HW120273   0.989   6.932   3.512
 6458SOL    HW220274   0.872   0.012   3.555
 6459SOL     OW20275   5.811   5.448   0.374
 6459SOL    HW120276   5.907   5.471   0.393
 6459SOL    HW220277   5.777   5.387   0.446
 6460SOL     OW20278   4.685   5.319   5.553
 6460SOL    HW120279   4.682   5.399   5.613
 6460SOL    HW220280   4.778   5.307   5.518
 6461SOL     OW20281   2.830   4.927   5.007
 6461SOL    HW120282   2.873   4.947   5.094
 6461SOL    HW220283   2.822   4.828   4.995
 6462SOL     OW20284   2.573   2.735   5.246
 6462SOL    HW120285   2.552   2.832   5.230
 6462SOL    HW220286   2.662   2.728   5.291
 6463SOL     OW20287   1.627   3.985   6.455
 6463SOL    HW120288   1.546   4.004   6.399
 6463SOL    HW220289   1.649   3.888   6.450
 6464SOL     OW20290   0.964   5.211   5.120
 6464SOL    HW120291   0.966   5.115   5.150
 6464SOL    HW220292   0.872   5.232   5.086
 6465SOL     OW20293   6.151   2.483   3.886
 6465SOL    HW120294   6.059   2.471   3.849
 6465SOL    HW220295   6.218   2.438   3.826
 6466SOL     OW20296   0.904   1.603   6.681
 6466SOL    HW120297   0.874   1.692   6.645
 6466SOL    HW220298   0.983   1.617   6.741
 6467SOL     OW20299   3.065   0.933   6.994
 6467SOL    HW120300   3.036   1.002   0.035
 6467SOL    HW220301   3.139   0.878   0.007
 6468SOL     OW20302   3.699   6.449   1.614
 6468SOL    HW120303   3.676   6.420   1.707
 6468SOL    HW220304   3.721   6.546   1.614
 6469SOL     OW20305   4.495   0.507   5.459
 6469SOL    HW120306   4.481   0.462   5.371
 6469SOL    HW220307   4.450   0.596   5.459
 6470SOL     OW20308   5.651   5.611   6.637
 6470SOL    HW120309   5.711   5.570   6.569
 6470SOL    HW220310   5.635   5.547   6.712
 6471SOL     OW20311   6.618   6.006   5.652
 6471SOL    HW120312   6.635   5.985   5.555
 6471SOL    HW220313   6.612   5.921   5.704
 6472SOL     OW20314   0.281   4.691   0.901
 6472SOL    HW120315   0.335   4.620   0.856
 6472SOL    HW220316   0.184   4.674   0.888
 6473SOL     OW20317   2.260   1.851   4.239
 6473SOL    HW120318   2.191   1.784   4.266
 6473SOL    HW220319   2.276   1.915   4.314
 6474SOL     OW20320   2.020   3.358   5.742
 6474SOL    HW120321   2.049   3.366   5.837
 6474SOL    HW220322   2.075   3.289   5.696
 6475SOL     OW20323   7.023   4.959   4.366
 6475SOL    HW120324   0.038   4.973   4.456
 6475SOL    HW220325   0.069   4.949   4.298
 6476SOL     OW20326   4.185   3.628   1.777
 6476SOL    HW120327   4.187   3.535   1.739
 6476SOL    HW220328   4.100   3.673   1.748
 6477SOL     OW20329   6.964   4.502   1.395
 6477SOL    HW120330   0.000   4.446   1.450
 6477SOL    HW220331   7.008   4.526   1.309
 6478SOL     OW20332   3.416   6.262   2.367
 6478SOL    HW120333   3.364   6.346   2.354
 6478SOL    HW220334   3.356   6.191   2.405
 6479SOL     OW20335   4.012   5.634   3.576
 6479SOL    HW120336   3.985   5.553   3.525
 6479SOL    HW220337   3.983   5.624   3.672
 6480SOL     OW20338   3.160   2.728   5.592
 6480SOL    HW120339   3.177   2.654   5.658
 6480SOL    HW220340   3.105   2.694   5.517
 6481SOL     OW20341   2.954   1.904   1.999
 6481SOL    HW120342   2.983   1.983   2.052
 6481SOL    HW220343   2.998   1.906   1.909
 6482SOL     OW20344   0.318   1.126   6.109
 6482SOL    HW120345   0.404   1.164   6.076
 6482SOL    HW220346   0.243   1.187   6.084
 6483SOL     OW20347   2.560   5.763   1.392
 6483SOL    HW120348   2.511   5.676   1.388
 6483SOL    HW220349   2.518   5.828   1.329
 6484SOL     OW20350   3.795   0.269   2.941
 6484SOL    HW120351   3.730   0.202   2.904
 6484SOL    HW220352   3.764   0.300   3.031
 6485SOL     OW20353   2.170   3.756   3.595
 6485SOL    HW120354   2.213   3.744   3.685
 6485SOL    HW220355   2.140   3.850   3.585
 6486SOL     OW20356   1.228   4.662   4.315
 6486SOL    HW120357   1.226   4.751   4.361
 6486SOL    HW220358   1.219   4.675   4.216
 6487SOL     OW20359   6.758   5.992   4.986
 6487SOL    HW120360   6.721   5.904   5.016
 6487SOL    HW220361   6.684   6.050   4.954
 6488SOL     OW20362   3.037   5.825   4.745
 6488SOL    HW120363   2.946   5.852   4.713
 6488SOL    HW220364   3.046   5.726   4.740
 6489SOL     OW20365   2.551   3.586   0.005
 6489SOL    HW120366   2.615   3.654   0.040
 6489SOL    HW220367   2.484   3.564   0.077
 6490SOL     OW20368   4.126   2.597   0.008
 6490SOL    HW120369   4.082   2.507   7.022
 6490SOL    HW220370   4.158   2.606   0.102
 6491SOL     OW20371   4.281   1.565   6.767
 6491SOL    HW120372   4.218   1.552   6.690
 6491SOL    HW220373   4.243   1.522   6.849
 6492SOL     OW20374   6.140   5.839   6.807
 6492SOL    HW120375   6.044   5.814   6.817
 6492SOL    HW220376   6.147   5.924   6.754
 6493SOL     OW20377   1.785   6.040   5.227
 6493SOL    HW120378   1.733   6.084   5.154
 6493SOL    HW220379   1.872   6.008   5.192
 6494SOL     OW20380   0.191   1.099   2.982
 6494SOL    HW120381   0.248   1.143   3.051
 6494SOL    HW220382   0.155   1.013   3.018
 6495SOL     OW20383   5.240   6.332   4.319
 6495SOL    HW120384   5.181   6.384   4.381
 6495SOL    HW220385   5.202   6.332   4.227
 6496SOL     OW20386   0.361   6.856   2.434
 6496SOL    HW120387   0.419   6.891   2.361
 6496SOL    HW220388   0.314   6.773   2.402
 6497SOL     OW20389   2.338   3.441   6.937
 6497SOL    HW120390   2.385   3.527   6.959
 6497SOL    HW220391   2.398   3.364   6.960
 6498SOL     OW20392   2.401   4.276   3.770
 6498SOL    HW120393   2.350   4.329   3.702
 6498SOL    HW220394   2.433   4.337   3.843
 6499SOL     OW20395   5.604   2.425   4.908
 6499SOL    HW120396   5.541   2.348   4.900
 6499SOL    HW220397   5.574   2.485   4.982
 6500SOL     OW20398   0.128   4.638   3.474
 6500SOL    HW120399   0.086   4.584   3.401
 6500SOL    HW220400   0.190   4.580   3.527
 6501SOL     OW20401   6.831   2.216   6.920
 6501SOL    HW120402   6.888   2.203   7.001
 6501SOL    HW220403   6.750   2.158   6.926
 6502SOL     OW20404   6.387   3.867   2.954
 6502SOL    HW120405   6.339   3.848   2.868
 6502SOL    HW220406   6.453   3.794   2.972
 6503SOL     OW20407   5.581   6.941   3.713
 6503SOL    HW120408   5.526   6.859   3.699
 6503SOL    HW220409   5.675   6.915   3.734
 6504SOL     OW20410   4.886   6.501   6.192
 6504SOL    HW120411   4.917   6.453   6.273
 6504SOL    HW220412   4.887   6.600   6.209
 6505SOL     OW20413   5.449   4.530   1.736
 6505SOL    HW120414   5.477   4.473   1.660
 6505SOL    HW220415   5.405   4.474   1.806
 6506SOL     OW20416   6.968   3.139   0.841
 6506SOL    HW120417   7.018   3.140   0.754
 6506SOL    HW220418   0.006   3.120   0.916
 6507SOL     OW20419   1.824   5.699   5.869
 6507SOL    HW120420   1.799   5.759   5.944
 6507SOL    HW220421   1.919   5.669   5.880
 6508SOL     OW20422   2.288   1.777   3.378
 6508SOL    HW120423   2.318   1.872   3.372
 6508SOL    HW220424   2.266   1.755   3.473
 6509SOL     OW20425   2.537   2.550   4.346
 6509SOL    HW120426   2.480   2.508   4.275
 6509SOL    HW220427   2.530   2.649   4.339
 6510SOL     OW20428   0.226   5.384   6.286
 6510SOL    HW120429   0.197   5.415   6.377
 6510SOL    HW220430   0.276   5.298   6.295
 6511SOL     OW20431   5.053   0.753   4.935
 6511SOL    HW120432   5.070   0.731   4.839
 6511SOL    HW220433   5.130   0.804   4.971
 6512SOL     OW20434   5.007   0.382   2.636
 6512SOL    HW120435   5.083   0.379   2.701
 6512SOL    HW220436   4.992   0.476   2.606
 6513SOL     OW20437   3.080   5.351   3.446
 6513SOL    HW120438   3.150   5.422   3.455
 6513SOL    HW220439   3.123   5.264   3.424
 6514SOL     OW20440   5.865   6.982   3.078
 6514SOL    HW120441   5.957   6.995   3.114
 6514SOL    HW220442   5.816   0.044   3.077
 6515SOL     OW20443   0.440   5.097   4.011
 6515SOL    HW120444   0.420   5.061   3.920
 6515SOL    HW220445   0.360   5.144   4.047
 6516SOL     OW20446   0.305   2.572   0.628
 6516SOL    HW120447   0.353   2.617   0.553
 6516SOL    HW220448   0.369   2.557   0.704
 6517SOL     OW20449   6.304   1.226   0.818
 6517SOL    HW120450   6.366   1.157   0.781
 6517SOL    HW220451   6.279   1.202   0.912
 6518SOL     OW20452   0.357   6.357   6.625
 6518SOL    HW120453   0.397   6.426   6.685
 6518SOL    HW220454   0.258   6.370   6.621
 6519SOL     OW20455   2.353   2.048   3.362
 6519SOL    HW120456   2.318   2.112   3.294
 6519SOL    HW220457   2.427   1.994   3.322
 6520SOL     OW20458   6.227   5.888   2.951
 6520SOL    HW120459   6.317   5.875   2.910
 6520SOL    HW220460   6.194   5.800   2.985
 6521SOL     OW20461   1.345   1.675   4.479
 6521SOL    HW120462   1.372   1.711   4.568
 6521SOL    HW220463   1.385   1.733   4.407
 6522SOL     OW20464   3.493   4.370   6.883
 6522SOL    HW120465   3.529   4.306   6.951
 6522SOL    HW220466   3.441   4.442   6.929
 6523SOL     OW20467   3.416   1.124   6.593
 6523SOL    HW120468   3.338   1.124   6.655
 6523SOL    HW220469   3.387   1.158   6.503
 6524SOL     OW20470   3.280   2.974   3.049
 6524SOL    HW120471   3.368   2.937   3.079
 6524SOL    HW220472   3.273   2.967   2.950
 6525SOL     OW20473   2.208   2.989   3.003
 6525SOL    HW120474   2.154   3.073   3.005
 6525SOL    HW220475   2.219   2.954   3.096
 6526SOL     OW20476   1.003   6.563   5.455
 6526SOL    HW120477   0.915   6.600   5.425
 6526SOL    HW220478   0.997   6.537   5.552
 6527SOL     OW20479   0.888   1.646   4.314
 6527SOL    HW120480   0.978   1.671   4.280
 6527SOL    HW220481   0.864   1.706   4.391
 6528SOL     OW20482   0.061   0.527   3.360
 6528SOL    HW120483   7.007   0.554   3.305
 6528SOL    HW220484   0.143   0.571   3.325
 6529SOL     OW20485   6.555   1.674   3.182
 6529SOL    HW120486   6.587   1.635   3.268
 6529SOL    HW220487   6.611   1.638   3.107
 6530SOL     OW20488   6.646   3.898   1.059
 6530SOL    HW120489   6.658   3.902   0.960
 6530SOL    HW220490   6.730   3.927   1.104
 6531SOL     OW20491   5.183   3.590   4.445
 6531SOL    HW120492   5.090   3.628   4.439
 6531SOL    HW220493   5.179   3.499   4.486
 6532SOL     OW20494   5.778   0.880   0.777
 6532SOL    HW120495   5.847   0.813   0.747
 6532SOL    HW220496   5.818   0.940   0.846
 6533SOL     OW20497   5.195   5.949   1.726
 6533SOL    HW120498   5.235   5.982   1.641
 6533SOL    HW220499   5.251   5.979   1.804
 6534SOL     OW20500   2.898   4.738   1.477
 6534SOL    HW120501   2.819   4.678   1.487
 6534SOL    HW220502   2.976   4.700   1.528
 6535SOL     OW20503   6.651   3.088   4.476
 6535SOL    HW120504   6.563   3.117   4.439
 6535SOL    HW220505   6.643   2.994   4.510
 6536SOL     OW20506   6.627   2.348   5.750
 6536SOL    HW120507   6.587   2.259   5.770
 6536SOL    HW220508   6.701   2.366   5.816
 6537SOL     OW20509   6.444   5.485   6.433
 6537SOL    HW120510   6.413   5.472   6.528
 6537SOL    HW220511   6.479   5.578   6.422
 6538SOL     OW20512   3.936   4.441   0.041
 6538SOL    HW120513   3.873   4.364   0.052
 6538SOL    HW220514   3.959   4.478   0.131
 6539SOL     OW20515   2.974   1.327   6.214
 6539SOL    HW120516   2.901   1.265   6.187
 6539SOL    HW220517   3.062   1.281   6.200
 6540SOL     OW20518   4.637   1.919   5.087
 6540SOL    HW120519   4.618   1.900   4.991
 6540SOL    HW220520   4.736   1.920   5.102
 6541SOL     OW20521   4.041   1.888   5.084
 6541SOL    HW120522   4.140   1.873   5.083
 6541SOL    HW220523   4.002   1.855   4.998
 6542SOL     OW20524   6.928   4.737   3.607
 6542SOL    HW120525   7.008   4.709   3.554
 6542SOL    HW220526   6.951   4.740   3.704
 6543SOL     OW20527   6.341   3.930   6.904
 6543SOL    HW120528   6.324   4.025   6.931
 6543SOL    HW220529   6.409   3.890   6.965
 6544SOL     OW20530   0.628   5.892   3.429
 6544SOL    HW120531   0.642   5.978   3.381
 6544SOL    HW220532   0.539   5.854   3.404
 6545SOL     OW20533   5.316   2.110   6.531
 6545SOL    HW120534   5.295   2.056   6.613
 6545SOL    HW220535   5.377   2.186   6.556
 6546SOL     OW20536   4.619   4.466   6.490
 6546SOL    HW120537   4.692   4.499   6.430
 6546SOL    HW220538   4.600   4.534   6.561
 6547SOL     OW20539   4.564   1.651   5.900
 6547SOL    HW120540   4.552   1.562   5.855
 6547SOL    HW220541   4.536   1.644   5.995
 6548SOL     OW20542   1.148   3.347   6.793
 6548SOL    HW120543   1.142   3.297   6.707
 6548SOL    HW220544   1.228   3.315   6.844
 6549SOL     OW20545   3.625   1.495   0.810
 6549SOL    HW120546   3.722   1.474   0.796
 6549SOL    HW220547   3.607   1.502   0.908
 6550SOL     OW20548   6.771   6.174   3.297
 6550SOL    HW120549   6.682   6.209   3.327
 6550SOL    HW220550   6.843   6.235   3.329
 6551SOL     OW20551   1.540   4.003   1.973
 6551SOL    HW120552   1.627   4.004   2.023
 6551SOL    HW220553   1.553   3.955   1.886
 6552SOL     OW20554   2.255   0.302   5.305
 6552SOL    HW120555   2.289   0.226   5.361
 6552SOL    HW220556   2.298   0.298   5.215
 6553SOL     OW20557   0.390   1.639   2.074
 6553SOL    HW120558   0.328   1.709   2.110
 6553SOL    HW220559   0.380   1.555   2.127
 6554SOL     OW20560   5.589   2.009   5.652
 6554SOL    HW120561   5.685   2.011   5.680
 6554SOL    HW220562   5.555   1.915   5.653
 6555SOL     OW20563   1.236   1.797   1.823
 6555SOL    HW120564   1.188   1.713   1.797
 6555SOL    HW220565   1.186   1.876   1.787
 6556SOL     OW20566   4.518   4.674   5.145
 6556SOL    HW120567   4.604   4.703   5.102
 6556SOL    HW220568   4.442   4.719   5.098
 6557SOL     OW20569   5.613   5.340   1.597
 6557SOL    HW120570   5.659   5.387   1.521
 6557SOL    HW220571   5.563   5.406   1.652
 6558SOL     OW20572   6.064   5.904   1.280
 6558SOL    HW120573   6.001   5.828   1.262
 6558SOL    HW220574   6.044   5.942   1.370
 6559SOL     OW20575   6.646   4.166   0.132
 6559SOL    HW120576   6.612   4.208   0.048
 6559SOL    HW220577   6.595   4.081   0.149
 6560SOL     OW20578   3.723   3.070   1.452
 6560SOL    HW120579   3.703   3.095   1.357
 6560SOL    HW220580   3.638   3.071   1.505
 6561SOL     OW20581   3.412   3.926   2.116
 6561SOL    HW120582   3.368   3.996   2.172
 6561SOL    HW220583   3.358   3.842   2.120
 6562SOL     OW20584   5.862   4.563   6.705
 6562SOL    HW120585   5.884   4.635   6.772
 6562SOL    HW220586   5.876   4.599   6.613
 6563SOL     OW20587   0.415   6.569   0.164
 6563SOL    HW120588   0.319   6.576   0.134
 6563SOL    HW220589   0.429   6.628   0.243
 6564SOL     OW20590   0.347   4.024   2.415
 6564SOL    HW120591   0.319   3.953   2.480
 6564SOL    HW220592   0.421   3.989   2.357
 6565SOL     OW20593   6.471   2.044   4.208
 6565SOL    HW120594   6.469   2.061   4.306
 6565SOL    HW220595   6.377   2.038   4.173
 6566SOL     OW20596   3.334   6.889   0.756
 6566SOL    HW120597   3.273   6.838   0.695
 6566SOL    HW220598   3.282   6.959   0.805
 6567SOL     OW20599   3.957   2.408   1.198
 6567SOL    HW120600   3.927   2.357   1.117
 6567SOL    HW220601   3.985   2.344   1.269
 6568SOL     OW20602   5.166   5.250   3.217
 6568SOL    HW120603   5.257   5.230   3.179
 6568SOL    HW220604   5.097   5.238   3.146
 6569SOL     OW20605   3.179   4.249   1.099
 6569SOL    HW120606   3.201   4.346   1.088
 6569SOL    HW220607   3.236   4.210   1.171
 6570SOL     OW20608   4.546   6.569   1.477
 6570SOL    HW120609   4.530   6.630   1.555
 6570SOL    HW220610   4.643   6.543   1.475
 6571SOL     OW20611   2.475   6.427   2.108
 6571SOL    HW120612   2.482   6.517   2.153
 6571SOL    HW220613   2.557   6.410   2.054
 6572SOL     OW20614   6.433   5.165   5.443
 6572SOL    HW120615   6.430   5.078   5.493
 6572SOL    HW220616   6.384   5.235   5.495
 6573SOL     OW20617   2.935   1.503   2.421
 6573SOL    HW120618   2.878   1.423   2.442
 6573SOL    HW220619   3.026   1.490   2.461
 6574SOL     OW20620   2.868   6.040   2.290
 6574SOL    HW120621   2.915   5.971   2.346
 6574SOL    HW220622   2.817   5.994   2.218
 6575SOL     OW20623   0.791   1.721   1.529
 6575SOL    HW120624   0.781   1.625   1.503
 6575SOL    HW220625   0.884   1.753   1.507
 6576SOL     OW20626   1.247   6.746   6.712
 6576SOL    HW120627   1.164   6.762   6.659
 6576SOL    HW220628   1.291   6.662   6.681
 6577SOL     OW20629   0.214   1.545   3.421
 6577SOL    HW120630   0.127   1.552   3.372
 6577SOL    HW220631   0.242   1.636   3.451
 6578SOL     OW20632   0.652   4.683   3.180
 6578SOL    HW120633   0.556   4.666   3.205
 6578SOL    HW220634   0.667   4.781   3.172
 6579SOL     OW20635   0.343   3.897   4.563
 6579SOL    HW120636   0.410   3.878   4.491
 6579SOL    HW220637   0.260   3.934   4.523
 6580SOL     OW20638   6.449   1.321   1.098
 6580SOL    HW120639   6.486   1.257   1.166
 6580SOL    HW220640   6.492   1.304   1.010
 6581SOL     OW20641   3.570   1.517   6.361
 6581SOL    HW120642   3.641   1.516   6.292
 6581SOL    HW220643   3.596   1.577   6.436
 6582SOL     OW20644   1.576   0.692   1.865
 6582SOL    HW120645   1.535   0.774   1.824
 6582SOL    HW220646   1.557   0.613   1.806
 6583SOL     OW20647   4.078   0.936   5.793
 6583SOL    HW120648   3.994   0.972   5.753
 6583SOL    HW220649   4.057   0.892   5.881
 6584SOL     OW20650   5.184   1.683   0.091
 6584SOL    HW120651   5.139   1.700   0.179
 6584SOL    HW220652   5.149   1.747   0.023
 6585SOL     OW20653   6.225   1.285   0.313
 6585SOL    HW120654   6.231   1.378   0.348
 6585SOL    HW220655   6.234   1.287   0.213
 6586SOL     OW20656   5.814   2.440   5.973
 6586SOL    HW120657   5.723   2.412   6.001
 6586SOL    HW220658   5.852   2.504   6.040
 6587SOL     OW20659   3.151   5.181   4.112
 6587SOL    HW120660   3.166   5.191   4.210
 6587SOL    HW220661   3.240   5.172   4.066
 6588SOL     OW20662   1.508   4.091   1.317
 6588SOL    HW120663   1.560   4.101   1.232
 6588SOL    HW220664   1.488   4.181   1.355
 6589SOL     OW20665   4.475   0.560   6.432
 6589SOL    HW120666   4.398   0.522   6.484
 6589SOL    HW220667   4.441   0.632   6.371
 6590SOL     OW20668   0.882   1.525   6.215
 6590SOL    HW120669   0.945   1.598   6.241
 6590SOL    HW220670   0.811   1.561   6.154
 6591SOL     OW20671   5.558   6.058   2.145
 6591SOL    HW120672   5.601   5.970   2.128
 6591SOL    HW220673   5.505   6.053   2.230
 6592SOL     OW20674   5.619   6.636   4.412
 6592SOL    HW120675   5.648   6.541   4.405
 6592SOL    HW220676   5.652   6.687   4.332
 6593SOL     OW20677   2.305   2.549   3.657
 6593SOL    HW120678   2.258   2.489   3.592
 6593SOL    HW220679   2.394   2.509   3.680
 6594SOL     OW20680   3.875   1.408   0.704
 6594SOL    HW120681   3.836   1.420   0.612
 6594SOL    HW220682   3.869   1.312   0.730
 6595SOL     OW20683   0.448   3.515   0.271
 6595SOL    HW120684   0.399   3.429   0.284
 6595SOL    HW220685   0.398   3.589   0.314
 6596SOL     OW20686   3.921   6.891   4.790
 6596SOL    HW120687   4.019   6.909   4.776
 6596SOL    HW220688   3.867   6.956   4.736
 6597SOL     OW20689   1.292   6.070   3.225
 6597SOL    HW120690   1.246   5.989   3.261
 6597SOL    HW220691   1.227   6.124   3.171
 6598SOL     OW20692   1.289   6.462   4.742
 6598SOL    HW120693   1.245   6.509   4.818
 6598SOL    HW220694   1.258   6.502   4.655
 6599SOL     OW20695   3.635   5.118   5.459
 6599SOL    HW120696   3.606   5.214   5.460
 6599SOL    HW220697   3.643   5.086   5.365
 6600SOL     OW20698   5.199   5.409   5.885
 6600SOL    HW120699   5.210   5.492   5.829
 6600SOL    HW220700   5.282   5.354   5.879
 6601SOL     OW20701   0.935   1.211   0.306
 6601SOL    HW120702   1.035   1.212   0.313
 6601SOL    HW220703   0.908   1.243   0.215
 6602SOL     OW20704   6.269   1.481   1.567
 6602SOL    HW120705   6.284   1.383   1.552
 6602SOL    HW220706   6.330   1.534   1.508
 6603SOL     OW20707   1.061   2.750   4.345
 6603SOL    HW120708   1.147   2.751   4.396
 6603SOL    HW220709   1.078   2.769   4.249
 6604SOL     OW20710   2.615   6.241   1.441
 6604SOL    HW120711   2.685   6.205   1.379
 6604SOL    HW220712   2.575   6.323   1.401
 6605SOL     OW20713   5.030   5.021   0.763
 6605SOL    HW120714   5.074   4.951   0.819
 6605SOL    HW220715   4.970   5.077   0.821
 6606SOL     OW20716   4.873   7.005   1.887
 6606SOL    HW120717   4.926   6.978   1.967
 6606SOL    HW220718   4.781   0.006   1.916
 6607SOL     OW20719   1.898   2.240   1.196
 6607SOL    HW120720   1.992   2.208   1.206
 6607SOL    HW220721   1.878   2.256   1.099
 6608SOL     OW20722   5.227   4.940   1.818
 6608SOL    HW120723   5.212   4.872   1.889
 6608SOL    HW220724   5.190   4.908   1.732
 6609SOL     OW20725   4.799   1.143   6.294
 6609SOL    HW120726   4.781   1.222   6.235
 6609SOL    HW220727   4.896   1.137   6.313
 6610SOL     OW20728   2.118   0.451   6.357
 6610SOL    HW120729   2.055   0.528   6.344
 6610SOL    HW220730   2.204   0.471   6.310
 6611SOL     OW20731   6.695   2.959   3.247
 6611SOL    HW120732   6.640   2.996   3.322
 6611SOL    HW220733   6.686   2.859   3.244
 6612SOL     OW20734   0.162   3.134   6.775
 6612SOL    HW120735   0.088   3.069   6.757
 6612SOL    HW220736   0.139   3.189   6.855
 6613SOL     OW20737   5.693   5.917   3.998
 6613SOL    HW120738   5.778   5.932   4.048
 6613SOL    HW220739   5.627   5.870   4.056
 6614SOL     OW20740   5.129   6.114   6.960
 6614SOL    HW120741   5.212   6.164   6.984
 6614SOL    HW220742   5.129   6.024   7.004
 6615SOL     OW20743   0.922   4.230   4.289
 6615SOL    HW120744   0.952   4.280   4.369
 6615SOL    HW220745   0.869   4.290   4.229
 6616SOL     OW20746   4.344   1.056   6.332
 6616SOL    HW120747   4.374   1.053   6.428
 6616SOL    HW220748   4.244   1.055   6.329
 6617SOL     OW20749   3.315   6.095   3.260
 6617SOL    HW120750   3.224   6.103   3.221
 6617SOL    HW220751   3.383   6.088   3.187
 6618SOL     OW20752   1.155   3.261   2.976
 6618SOL    HW120753   1.222   3.192   3.003
 6618SOL    HW220754   1.194   3.321   2.906
 6619SOL     OW20755   6.601   6.962   4.922
 6619SOL    HW120756   6.575   6.880   4.871
 6619SOL    HW220757   6.643   0.003   4.859
 6620SOL     OW20758   1.922   2.920   5.212
 6620SOL    HW120759   1.854   2.891   5.144
 6620SOL    HW220760   1.994   2.850   5.217
 6621SOL     OW20761   2.743   3.215   0.105
 6621SOL    HW120762   2.730   3.127   0.150
 6621SOL    HW220763   2.747   3.288   0.174
 6622SOL     OW20764   5.850   6.217   1.813
 6622SOL    HW120765   5.821   6.310   1.836
 6622SOL    HW220766   5.897   6.177   1.891
 6623SOL     OW20767   3.206   3.575   1.337
 6623SOL    HW120768   3.136   3.638   1.303
 6623SOL    HW220769   3.170   3.523   1.414
 6624SOL     OW20770   2.033   0.419   4.111
 6624SOL    HW120771   1.951   0.364   4.127
 6624SOL    HW220772   2.113   0.360   4.102
 6625SOL     OW20773   5.144   1.713   6.290
 6625SOL    HW120774   5.203   1.760   6.355
 6625SOL    HW220775   5.079   1.778   6.250
 6626SOL     OW20776   4.279   4.815   3.804
 6626SOL    HW120777   4.293   4.717   3.791
 6626SOL    HW220778   4.353   4.853   3.860
 6627SOL     OW20779   2.545   0.662   5.694
 6627SOL    HW120780   2.612   0.668   5.620
 6627SOL    HW220781   2.583   0.702   5.777
 6628SOL     OW20782   4.750   4.944   3.735
 6628SOL    HW120783   4.691   4.959   3.814
 6628SOL    HW220784   4.723   5.006   3.662
 6629SOL     OW20785   2.813   6.155   0.085
 6629SOL    HW120786   2.872   6.162   0.004
 6629SOL    HW220787   2.744   6.084   0.070
 6630SOL     OW20788   3.612   1.491   1.501
 6630SOL    HW120789   3.579   1.586   1.501
 6630SOL    HW220790   3.710   1.490   1.482
 6631SOL     OW20791   4.249   0.466   2.297
 6631SOL    HW120792   4.165   0.455   2.351
 6631SOL    HW220793   4.250   0.557   2.255
 6632SOL     OW20794   0.342   0.584   1.969
 6632SOL    HW120795   0.432   0.612   2.002
 6632SOL    HW220796   0.337   0.598   1.870
 6633SOL     OW20797   1.393   5.137   5.996
 6633SOL    HW120798   1.401   5.166   5.901
 6633SOL    HW220799   1.463   5.070   6.017
 6634SOL     OW20800   5.529   3.424   5.612
 6634SOL    HW120801   5.625   3.408   5.590
 6634SOL    HW220802   5.474   3.346   5.583
 6635SOL     OW20803   4.302   5.624   3.305
 6635SOL    HW120804   4.322   5.689   3.378
 6635SOL    HW220805   4.277   5.536   3.344
 6636SOL     OW20806   3.128   1.984   6.207
 6636SOL    HW120807   3.190   2.027   6.142
 6636SOL    HW220808   3.099   2.051   6.275
 6637SOL     OW20809   1.568   0.332   6.467
 6637SOL    HW120810   1.581   0.428   6.491
 6637SOL    HW220811   1.657   0.287   6.458
 6638SOL     OW20812   4.014   4.958   5.037
 6638SOL    HW120813   3.975   5.026   4.975
 6638SOL    HW220814   3.964   4.959   5.123
 6639SOL     OW20815   5.847   6.222   0.023
 6639SOL    HW120816   5.781   6.291   7.018
 6639SOL    HW220817   5.878   6.244   0.115
 6640SOL     OW20818   6.661   2.317   5.471
 6640SOL    HW120819   6.659   2.308   5.570
 6640SOL    HW220820   6.720   2.393   5.445
 6641SOL     OW20821   2.460   2.516   6.503
 6641SOL    HW120822   2.428   2.590   6.563
 6641SOL    HW220823   2.531   2.464   6.551
 6642SOL     OW20824   2.600   5.468   0.489
 6642SOL    HW120825   2.697   5.444   0.495
 6642SOL    HW220826   2.572   5.517   0.572
 6643SOL     OW20827   6.731   4.678   6.769
 6643SOL    HW120828   6.654   4.629   6.809
 6643SOL    HW220829   6.697   4.749   6.707
 6644SOL     OW20830   2.722   4.765   1.746
 6644SOL    HW120831   2.795   4.765   1.678
 6644SOL    HW220832   2.747   4.704   1.822
 6645SOL     OW20833   6.777   5.016   0.121
 6645SOL    HW120834   6.687   5.037   0.158
 6645SOL    HW220835   6.847   5.042   0.187
 6646SOL     OW20836   4.150   6.277   4.495
 6646SOL    HW120837   4.191   6.367   4.484
 6646SOL    HW220838   4.115   6.267   4.588
 6647SOL     OW20839   3.486   1.374   2.194
 6647SOL    HW120840   3.387   1.388   2.190
 6647SOL    HW220841   3.521   1.406   2.282
 6648SOL     OW20842   3.134   5.902   2.119
 6648SOL    HW120843   3.085   5.944   2.042
 6648SOL    HW220844   3.084   5.822   2.150
 6649SOL     OW20845   5.029   1.776   6.905
 6649SOL    HW120846   5.069   1.701   6.852
 6649SOL    HW220847   5.019   1.857   6.847
 6650SOL     OW20848   4.360   1.267   5.365
 6650SOL    HW120849   4.314   1.356   5.370
 6650SOL    HW220850   4.291   1.194   5.366
 6651SOL     OW20851   1.689   1.506   6.595
 6651SOL    HW120852   1.727   1.599   6.589
 6651SOL    HW220853   1.719   1.453   6.515
 6652SOL     OW20854   6.659   4.908   0.396
 6652SOL    HW120855   6.690   4.995   0.435
 6652SOL    HW220856   6.560   4.911   0.383
 6653SOL     OW20857   3.799   3.313   3.049
 6653SOL    HW120858   3.840   3.391   3.096
 6653SOL    HW220859   3.701   3.311   3.067
 6654SOL     OW20860   1.953   3.095   1.101
 6654SOL    HW120861   1.857   3.118   1.117
 6654SOL    HW220862   1.997   3.075   1.188
 6655SOL     OW20863   2.995   6.745   1.546
 6655SOL    HW120864   3.039   6.828   1.582
 6655SOL    HW220865   2.896   6.752   1.558
 6656SOL     OW20866   5.815   1.459   2.622
 6656SOL    HW120867   5.792   1.537   2.564
 6656SOL    HW220868   5.739   1.440   2.684
 6657SOL     OW20869   4.987   6.347   6.580
 6657SOL    HW120870   4.899   6.355   6.534
 6657SOL    HW220871   4.993   6.258   6.625
 6658SOL     OW20872   5.675   1.558   4.751
 6658SOL    HW120873   5.770   1.533   4.767
 6658SOL    HW220874   5.642   1.515   4.667
 6659SOL     OW20875   2.561   2.205   0.574
 6659SOL    HW120876   2.617   2.262   0.515
 6659SOL    HW220877   2.481   2.172   0.524
 6660SOL     OW20878   0.058   6.017   0.628
 6660SOL    HW120879   0.130   6.078   0.661
 6660SOL    HW220880   6.994   6.053   0.653
 6661SOL     OW20881   0.678   5.613   3.954
 6661SOL    HW120882   0.710   5.567   4.037
 6661SOL    HW220883   0.668   5.545   3.881
 6662SOL     OW20884   1.444   0.471   6.852
 6662SOL    HW120885   1.381   0.418   6.795
 6662SOL    HW220886   1.413   0.469   6.947
 6663SOL     OW20887   7.010   5.345   3.055
 6663SOL    HW120888   6.971   5.355   2.964
 6663SOL    HW220889   0.029   5.257   3.064
 6664SOL     OW20890   1.633   6.787   1.327
 6664SOL    HW120891   1.578   6.859   1.285
 6664SOL    HW220892   1.713   6.768   1.270
 6665SOL     OW20893   2.296   0.749   2.812
 6665SOL    HW120894   2.226   0.712   2.873
 6665SOL    HW220895   2.264   0.835   2.772
 6666SOL     OW20896   5.290   1.550   5.729
 6666SOL    HW120897   5.358   1.500   5.782
 6666SOL    HW220898   5.231   1.603   5.791
 6667SOL     OW20899   0.120   5.592   5.401
 6667SOL    HW120900   0.192   5.645   5.446
 6667SOL    HW220901   0.141   5.584   5.303
 6668SOL     OW20902   6.449   5.834   1.768
 6668SOL    HW120903   6.494   5.745   1.768
 6668SOL    HW220904   6.470   5.883   1.683
 6669SOL     OW20905   2.223   2.923   4.298
 6669SOL    HW120906   2.242   3.008   4.250
 6669SOL    HW220907   2.230   2.937   4.396
 6670SOL     OW20908   3.639   3.396   6.116
 6670SOL    HW120909   3.657   3.315   6.062
 6670SOL    HW220910   3.725   3.433   6.152
 6671SOL     OW20911   5.101   5.512   1.292
 6671SOL    HW120912   5.195   5.528   1.322
 6671SOL    HW220913   5.038   5.558   1.354
 6672SOL     OW20914   1.235   1.712   4.892
 6672SOL    HW120915   1.216   1.780   4.962
 6672SOL    HW220916   1.332   1.712   4.869
 6673SOL     OW20917   4.787   6.334   3.465
 6673SOL    HW120918   4.768   6.424   3.505
 6673SOL    HW220919   4.796   6.343   3.366
 6674SOL     OW20920   0.827   5.206   6.726
 6674SOL    HW120921   0.871   5.273   6.668
 6674SOL    HW220922   0.794   5.129   6.670
 6675SOL     OW20923   4.413   3.979   1.716
 6675SOL    HW120924   4.403   4.009   1.621
 6675SOL    HW220925   4.421   4.059   1.775
 6676SOL     OW20926   0.338   3.953   5.722
 6676SOL    HW120927   0.398   3.993   5.792
 6676SOL    HW220928   0.381   3.961   5.632
 6677SOL     OW20929   0.258   2.638   0.104
 6677SOL    HW120930   0.171   2.657   0.058
 6677SOL    HW220931   0.327   2.703   0.071
 6678SOL     OW20932   1.718   2.463   0.045
 6678SOL    HW120933   1.714   2.539   0.109
 6678SOL    HW220934   1.776   2.390   0.082
 6679SOL     OW20935   2.757   1.744   4.203
 6679SOL    HW120936   2.667   1.700   4.208
 6679SOL    HW220937   2.817   1.704   4.272
 6680SOL     OW20938   4.312   6.372   6.344
 6680SOL    HW120939   4.367   6.419   6.275
 6680SOL    HW220940   4.241   6.434   6.378
 6681SOL     OW20941   5.002   4.766   0.054
 6681SOL    HW120942   5.035   4.674   0.075
 6681SOL    HW220943   4.902   4.766   0.054
 6682SOL     OW20944   0.772   4.073   2.470
 6682SOL    HW120945   0.771   4.173   2.461
 6682SOL    HW220946   0.859   4.037   2.438
 6683SOL     OW20947   5.184   2.578   5.827
 6683SOL    HW120948   5.121   2.570   5.904
 6683SOL    HW220949   5.273   2.541   5.853
 6684SOL     OW20950   2.128   6.802   0.997
 6684SOL    HW120951   2.118   6.714   1.045
 6684SOL    HW220952   2.111   6.877   1.061
 6685SOL     OW20953   5.335   2.500   5.195
 6685SOL    HW120954   5.428   2.499   5.159
 6685SOL    HW220955   5.299   2.593   5.191
 6686SOL     OW20956   5.194   5.550   3.637
 6686SOL    HW120957   5.185   5.593   3.727
 6686SOL    HW220958   5.143   5.464   3.636
 6687SOL     OW20959   0.252   1.635   1.218
 6687SOL    HW120960   0.327   1.569   1.225
 6687SOL    HW220961   0.261   1.688   1.134
 6688SOL     OW20962   0.184   4.015   1.848
 6688SOL    HW120963   0.266   4.023   1.904
 6688SOL    HW220964   0.103   4.017   1.907
 6689SOL     OW20965   4.029   3.311   0.559
 6689SOL    HW120966   4.110   3.258   0.586
 6689SOL    HW220967   3.996   3.364   0.637
 6690SOL     OW20968   2.559   1.015   1.979
 6690SOL    HW120969   2.464   1.032   2.008
 6690SOL    HW220970   2.559   0.958   1.897
 6691SOL     OW20971   3.317   5.505   1.836
 6691SOL    HW120972   3.352   5.590   1.798
 6691SOL    HW220973   3.299   5.517   1.934
 6692SOL     OW20974   2.741   4.745   5.246
 6692SOL    HW120975   2.699   4.763   5.157
 6692SOL    HW220976   2.820   4.685   5.234
 6693SOL     OW20977   4.805   3.604   6.150
 6693SOL    HW120978   4.712   3.607   6.186
 6693SOL    HW220979   4.860   3.676   6.191
 6694SOL     OW20980   4.697   6.385   0.045
 6694SOL    HW120981   4.694   6.405   6.973
 6694SOL    HW220982   4.634   6.445   0.093
 6695SOL     OW20983   1.601   1.838   5.949
 6695SOL    HW120984   1.607   1.905   6.023
 6695SOL    HW220985   1.625   1.881   5.862
 6696SOL     OW20986   1.383   2.226   0.377
 6696SOL    HW120987   1.396   2.221   0.476
 6696SOL    HW220988   1.461   2.183   0.331
 6697SOL     OW20989   4.514   2.401   3.684
 6697SOL    HW120990   4.428   2.388   3.635
 6697SOL    HW220991   4.591   2.385   3.622
 6698SOL     OW20992   3.128   2.948   0.392
 6698SOL    HW120993   3.135   2.857   0.351
 6698SOL    HW220994   3.042   2.991   0.364
 6699SOL     OW20995   3.745   4.645   0.039
 6699SOL    HW120996   3.722   4.682   0.129
 6699SOL    HW220997   3.812   4.571   0.050
 6700SOL     OW20998   0.136   6.059   0.967
 6700SOL    HW120999   0.133   6.133   0.899
 6700SOL    HW221000   0.163   6.096   1.056
 6701SOL     OW21001   6.069   2.812   1.496
 6701SOL    HW121002   6.027   2.884   1.552
 6701SOL    HW221003   6.150   2.778   1.543
 6702SOL     OW21004   2.498   2.637   0.475
 6702SOL    HW121005   2.525   2.703   0.545
 6702SOL    HW221006   2.574   2.620   0.413
 6703SOL     OW21007   6.635   1.721   6.967
 6703SOL    HW121008   6.674   1.745   6.878
 6703SOL    HW221009   6.661   1.627   6.991
 6704SOL     OW21010   4.338   2.202   2.959
 6704SOL    HW121011   4.415   2.216   3.021
 6704SOL    HW221012   4.362   2.239   2.869
 6705SOL     OW21013   7.016   1.709   1.890
 6705SOL    HW121014   0.062   1.754   1.943
 6705SOL    HW221015   0.032   1.648   1.822
 6706SOL     OW21016   1.188   4.017   0.554
 6706SOL    HW121017   1.096   4.050   0.577
 6706SOL    HW221018   1.208   3.936   0.610
 6707SOL     OW21019   0.129   5.367   4.541
 6707SOL    HW121020   0.062   5.423   4.589
 6707SOL    HW221021   0.211   5.421   4.523
 6708SOL     OW21022   1.774   5.640   2.895
 6708SOL    HW121023   1.719   5.573   2.846
 6708SOL    HW221024   1.779   5.724   2.842
 6709SOL     OW21025   3.028   5.611   1.892
 6709SOL    HW121026   3.033   5.704   1.856
 6709SOL    HW221027   3.120   5.572   1.899
 6710SOL     OW21028   2.341   2.056   5.867
 6710SOL    HW121029   2.352   2.115   5.946
 6710SOL    HW221030   2.315   2.111   5.787
 6711SOL     OW21031   6.295   4.747   6.644
 6711SOL    HW121032   6.313   4.665   6.589
 6711SOL    HW221033   6.262   4.720   6.734
 6712SOL     OW21034   4.557   5.308   0.107
 6712SOL    HW121035   4.578   5.331   0.202
 6712SOL    HW221036   4.595   5.219   0.085
 6713SOL     OW21037   2.177   1.683   1.181
 6713SOL    HW121038   2.227   1.758   1.225
 6713SOL    HW221039   2.151   1.710   1.088
 6714SOL     OW21040   5.305   0.829   5.658
 6714SOL    HW121041   5.398   0.864   5.663
 6714SOL    HW221042   5.307   0.735   5.623
 6715SOL     OW21043   0.231   0.859   7.024
 6715SOL    HW121044   0.315   0.806   0.015
 6715SOL    HW221045   0.197   0.894   0.086
 6716SOL     OW21046   0.957   6.236   2.112
 6716SOL    HW121047   0.922   6.206   2.023
 6716SOL    HW221048   0.949   6.162   2.178
 6717SOL     OW21049   4.406   2.654   0.673
 6717SOL    HW121050   4.454   2.643   0.760
 6717SOL    HW221051   4.340   2.580   0.662
 6718SOL     OW21052   3.957   6.309   6.333
 6718SOL    HW121053   3.872   6.299   6.385
 6718SOL    HW221054   3.987   6.404   6.336
 6719SOL     OW21055   0.113   0.302   6.037
 6719SOL    HW121056   0.191   0.251   5.999
 6719SOL    HW221057   0.143   0.353   6.118
 6720SOL     OW21058   2.088   6.267   1.983
 6720SOL    HW121059   2.179   6.226   1.972
 6720SOL    HW221060   2.083   6.312   2.072
 6721SOL     OW21061   6.258   6.671   4.773
 6721SOL    HW121062   6.273   6.769   4.788
 6721SOL    HW221063   6.160   6.652   4.773
 6722SOL     OW21064   5.143   3.228   1.016
 6722SOL    HW121065   5.148   3.324   0.990
 6722SOL    HW221066   5.049   3.204   1.040
 6723SOL     OW21067   2.380   6.988   3.589
 6723SOL    HW121068   2.357   0.023   3.513
 6723SOL    HW221069   2.472   7.009   3.622
 6724SOL     OW21070   1.276   4.057   5.681
 6724SOL    HW121071   1.372   4.033   5.697
 6724SOL    HW221072   1.247   4.019   5.593
 6725SOL     OW21073   1.090   4.273   1.954
 6725SOL    HW121074   1.104   4.320   1.867
 6725SOL    HW221075   1.140   4.187   1.954
 6726SOL     OW21076   1.295   2.063   4.171
 6726SOL    HW121077   1.279   2.022   4.082
 6726SOL    HW221078   1.210   2.100   4.207
 6727SOL     OW21079   5.885   3.921   5.896
 6727SOL    HW121080   5.860   3.879   5.809
 6727SOL    HW221081   5.976   3.891   5.923
 6728SOL     OW21082   4.645   1.248   4.614
 6728SOL    HW121083   4.671   1.321   4.677
 6728SOL    HW221084   4.623   1.288   4.525
 6729SOL     OW21085   6.472   1.641   2.509
 6729SOL    HW121086   6.379   1.661   2.480
 6729SOL    HW221087   6.475   1.631   2.609
 6730SOL     OW21088   2.110   6.521   6.715
 6730SOL    HW121089   2.024   6.499   6.670
 6730SOL    HW221090   2.099   6.604   6.769
 6731SOL     OW21091   2.408   4.487   1.109
 6731SOL    HW121092   2.361   4.569   1.077
 6731SOL    HW221093   2.404   4.417   1.038
 6732SOL     OW21094   3.316   5.774   6.601
 6732SOL    HW121095   3.386   5.703   6.590
 6732SOL    HW221096   3.271   5.790   6.513
 6733SOL     OW21097   4.420   5.044   6.504
 6733SOL    HW121098   4.397   5.062   6.408
 6733SOL    HW221099   4.473   5.121   6.540
 6734SOL     OW21100   0.843   3.320   5.946
 6734SOL    HW121101   0.874   3.410   5.977
 6734SOL    HW221102   0.818   3.325   5.850
 6735SOL     OW21103   0.403   5.533   5.183
 6735SOL    HW121104   0.374   5.544   5.088
 6735SOL    HW221105   0.502   5.517   5.187
 6736SOL     OW21106   1.910   3.525   0.579
 6736SOL    HW121107   1.978   3.564   0.517
 6736SOL    HW221108   1.838   3.592   0.597
 6737SOL     OW21109   2.174   2.186   1.080
 6737SOL    HW121110   2.229   2.265   1.107
 6737SOL    HW221111   2.143   2.137   1.162
 6738SOL     OW21112   1.770   2.869   2.120
 6738SOL    HW121113   1.803   2.802   2.054
 6738SOL    HW221114   1.832   2.870   2.199
 6739SOL     OW21115   3.108   5.642   5.978
 6739SOL    HW121116   3.187   5.681   6.025
 6739SOL    HW221117   3.133   5.554   5.938
 6740SOL     OW21118   2.172   1.614   4.363
 6740SOL    HW121119   2.246   1.556   4.396
 6740SOL    HW221120   2.118   1.563   4.295
 6741SOL     OW21121   4.622   1.897   6.176
 6741SOL    HW121122   4.689   1.907   6.102
 6741SOL    HW221123   4.628   1.976   6.237
 6742SOL     OW21124   0.382   5.546   3.956
 6742SOL    HW121125   0.329   5.605   4.016
 6742SOL    HW221126   0.471   5.587   3.938
 6743SOL     OW21127   4.452   4.154   6.678
 6743SOL    HW121128   4.368   4.197   6.645
 6743SOL    HW221129   4.518   4.147   6.602
 6744SOL     OW21130   4.024   5.634   6.080
 6744SOL    HW121131   4.074   5.696   6.020
 6744SOL    HW221132   4.028   5.541   6.042
 6745SOL     OW21133   0.928   5.317   2.674
 6745SOL    HW121134   0.858   5.388   2.672
 6745SOL    HW221135   0.952   5.295   2.768
 6746SOL     OW21136   0.188   0.513   2.392
 6746SOL    HW121137   0.254   0.525   2.466
 6746SOL    HW221138   0.217   0.567   2.313
 6747SOL     OW21139   5.620   6.005   4.373
 6747SOL    HW121140   5.603   6.078   4.439
 6747SOL    HW221141   5.718   6.001   4.353
 6748SOL     OW21142   1.016   0.765   2.687
 6748SOL    HW121143   1.028   0.687   2.748
 6748SOL    HW221144   0.951   0.829   2.728
 6749SOL     OW21145   2.792   6.949   6.953
 6749SOL    HW121146   2.749   0.010   6.927
 6749SOL    HW221147   2.734   6.873   6.924
 6750SOL     OW21148   3.927   1.473   4.723
 6750SOL    HW121149   3.965   1.416   4.796
 6750SOL    HW221150   3.872   1.546   4.763
 6751SOL     OW21151   3.305   2.093   3.607
 6751SOL    HW121152   3.265   2.146   3.533
 6751SOL    HW221153   3.351   2.013   3.570
 6752SOL     OW21154   6.361   2.580   1.582
 6752SOL    HW121155   6.335   2.665   1.628
 6752SOL    HW221156   6.285   2.546   1.528
 6753SOL     OW21157   4.424   1.760   6.907
 6753SOL    HW121158   4.448   1.700   6.983
 6753SOL    HW221159   4.365   1.710   6.842
 6754SOL     OW21160   6.534   2.111   5.813
 6754SOL    HW121161   6.578   2.035   5.763
 6754SOL    HW221162   6.504   2.079   5.903
 6755SOL     OW21163   4.938   1.585   3.962
 6755SOL    HW121164   4.901   1.607   4.052
 6755SOL    HW221165   4.869   1.534   3.910
 6756SOL     OW21166   4.797   4.112   4.029
 6756SOL    HW121167   4.817   4.018   4.054
 6756SOL    HW221168   4.698   4.124   4.020
 6757SOL     OW21169   4.923   5.809   0.532
 6757SOL    HW121170   4.832   5.831   0.496
 6757SOL    HW221171   4.977   5.765   0.461
 6758SOL     OW21172   4.958   3.469   2.013
 6758SOL    HW121173   5.053   3.476   1.982
 6758SOL    HW221174   4.909   3.402   1.957
 6759SOL     OW21175   1.153   3.930   3.942
 6759SOL    HW121176   1.228   3.864   3.944
 6759SOL    HW221177   1.149   3.979   4.029
 6760SOL     OW21178   0.154   4.999   4.651
 6760SOL    HW121179   0.150   4.917   4.708
 6760SOL    HW221180   0.245   5.009   4.612
 6761SOL     OW21181   5.545   2.857   5.956
 6761SOL    HW121182   5.578   2.910   5.877
 6761SOL    HW221183   5.453   2.888   5.981
 6762SOL     OW21184   6.618   5.339   3.328
 6762SOL    HW121185   6.560   5.293   3.260
 6762SOL    HW221186   6.713   5.309   3.317
 6763SOL     OW21187   6.393   5.705   4.168
 6763SOL    HW121188   6.441   5.730   4.252
 6763SOL    HW221189   6.328   5.631   4.187
 6764SOL     OW21190   3.149   3.961   5.989
 6764SOL    HW121191   3.244   3.968   5.959
 6764SOL    HW221192   3.143   3.898   6.067
 6765SOL     OW21193   6.432   5.044   3.558
 6765SOL    HW121194   6.467   5.029   3.465
 6765SOL    HW221195   6.383   5.131   3.561
 6766SOL     OW21196   2.417   0.393   5.830
 6766SOL    HW121197   2.456   0.473   5.783
 6766SOL    HW221198   2.472   0.313   5.809
 6767SOL     OW21199   0.547   2.312   0.401
 6767SOL    HW121200   0.458   2.314   0.447
 6767SOL    HW221201   0.552   2.386   0.335
 6768SOL     OW21202   0.513   0.478   3.240
 6768SOL    HW121203   0.518   0.389   3.194
 6768SOL    HW221204   0.570   0.477   3.322
 6769SOL     OW21205   3.091   1.834   5.119
 6769SOL    HW121206   3.048   1.780   5.192
 6769SOL    HW221207   3.083   1.931   5.140
 6770SOL     OW21208   0.219   2.725   4.310
 6770SOL    HW121209   0.221   2.821   4.283
 6770SOL    HW221210   0.266   2.670   4.241
 6771SOL     OW21211   3.761   1.902   3.248
 6771SOL    HW121212   3.732   1.948   3.164
 6771SOL    HW221213   3.861   1.907   3.255
 6772SOL     OW21214   5.286   1.864   2.576
 6772SOL    HW121215   5.347   1.942   2.566
 6772SOL    HW221216   5.214   1.870   2.507
 6773SOL     OW21217   6.851   6.358   1.606
 6773SOL    HW121218   6.914   6.400   1.542
 6773SOL    HW221219   6.761   6.347   1.563
 6774SOL     OW21220   2.013   1.724   5.226
 6774SOL    HW121221   2.110   1.746   5.217
 6774SOL    HW221222   1.998   1.627   5.207
 6775SOL     OW21223   0.863   1.651   3.724
 6775SOL    HW121224   0.817   1.740   3.727
 6775SOL    HW221225   0.887   1.629   3.629
 6776SOL     OW21226   3.890   4.099   0.936
 6776SOL    HW121227   3.795   4.119   0.960
 6776SOL    HW221228   3.894   4.014   0.884
 6777SOL     OW21229   4.387   5.404   1.484
 6777SOL    HW121230   4.386   5.394   1.384
 6777SOL    HW221231   4.471   5.362   1.520
 6778SOL     OW21232   5.289   3.210   2.437
 6778SOL    HW121233   5.380   3.251   2.452
 6778SOL    HW221234   5.294   3.144   2.362
 6779SOL     OW21235   6.007   4.155   5.865
 6779SOL    HW121236   6.029   4.199   5.952
 6779SOL    HW221237   5.948   4.075   5.881
 6780SOL     OW21238   2.271   2.929   3.260
 6780SOL    HW121239   2.244   3.019   3.294
 6780SOL    HW221240   2.303   2.873   3.336
 6781SOL     OW21241   6.243   1.211   4.184
 6781SOL    HW121242   6.178   1.285   4.164
 6781SOL    HW221243   6.316   1.246   4.244
 6782SOL     OW21244   6.992   1.532   3.265
 6782SOL    HW121245   6.941   1.467   3.208
 6782SOL    HW221246   6.932   1.607   3.291
 6783SOL     OW21247   1.083   4.714   5.628
 6783SOL    HW121248   0.984   4.727   5.618
 6783SOL    HW221249   1.114   4.759   5.712
 6784SOL     OW21250   2.254   3.296   1.634
 6784SOL    HW121251   2.160   3.264   1.644
 6784SOL    HW221252   2.274   3.361   1.708
 6785SOL     OW21253   5.390   4.618   5.015
 6785SOL    HW121254   5.422   4.523   5.023
 6785SOL    HW221255   5.294   4.619   4.988
 6786SOL     OW21256   6.297   2.648   0.796
 6786SOL    HW121257   6.344   2.698   0.723
 6786SOL    HW221258   6.237   2.579   0.756
 6787SOL     OW21259   3.555   2.236   0.456
 6787SOL    HW121260   3.472   2.225   0.511
 6787SOL    HW221261   3.588   2.330   0.465
 6788SOL     OW21262   0.641   3.767   3.191
 6788SOL    HW121263   0.608   3.673   3.177
 6788SOL    HW221264   0.652   3.812   3.103
 6789SOL     OW21265   6.947   3.853   4.159
 6789SOL    HW121266   6.896   3.933   4.191
 6789SOL    HW221267   6.928   3.837   4.062
 6790SOL     OW21268   0.872   4.963   6.313
 6790SOL    HW121269   0.966   4.935   6.331
 6790SOL    HW221270   0.832   4.904   6.243
 6791SOL     OW21271   4.366   1.415   4.184
 6791SOL    HW121272   4.379   1.436   4.087
 6791SOL    HW221273   4.378   1.499   4.238
 6792SOL     OW21274   4.521   0.283   5.111
 6792SOL    HW121275   4.447   0.339   5.149
 6792SOL    HW221276   4.578   0.248   5.186
 6793SOL     OW21277   2.354   2.944   6.975
 6793SOL    HW121278   2.361   2.847   6.997
 6793SOL    HW221279   2.298   2.990   0.018
 6794SOL     OW21280   4.228   1.483   6.089
 6794SOL    HW121281   4.216   1.572   6.044
 6794SOL    HW221282   4.298   1.431   6.042
 6795SOL     OW21283   1.456   1.066   1.103
 6795SOL    HW121284   1.445   0.974   1.143
 6795SOL    HW221285   1.396   1.130   1.150
 6796SOL     OW21286   6.049   1.334   1.895
 6796SOL    HW121287   5.971   1.362   1.839
 6796SOL    HW221288   6.131   1.382   1.864
 6797SOL     OW21289   0.364   2.348   1.618
 6797SOL    HW121290   0.376   2.254   1.586
 6797SOL    HW221291   0.352   2.348   1.717
 6798SOL     OW21292   5.542   0.636   2.098
 6798SOL    HW121293   5.468   0.693   2.063
 6798SOL    HW221294   5.613   0.695   2.139
 6799SOL     OW21295   5.179   6.977   3.038
 6799SOL    HW121296   5.149   6.901   2.981
 6799SOL    HW221297   5.104   0.017   3.048
 6800SOL     OW21298   1.152   0.882   1.511
 6800SOL    HW121299   1.202   0.795   1.503
 6800SOL    HW221300   1.143   0.907   1.607
 6801SOL     OW21301   1.519   6.352   4.992
 6801SOL    HW121302   1.505   6.347   4.893
 6801SOL    HW221303   1.579   6.429   5.013
 6802SOL     OW21304   3.387   5.755   1.747
 6802SOL    HW121305   3.464   5.739   1.686
 6802SOL    HW221306   3.406   5.833   1.807
 6803SOL     OW21307   5.251   4.878   0.092
 6803SOL    HW121308   5.177   4.815   0.068
 6803SOL    HW221309   5.304   4.840   0.167
 6804SOL     OW21310   2.770   4.821   2.874
 6804SOL    HW121311   2.721   4.908   2.873
 6804SOL    HW221312   2.706   4.747   2.896
 6805SOL     OW21313   0.467   4.930   5.817
 6805SOL    HW121314   0.441   4.994   5.890
 6805SOL    HW221315   0.492   4.981   5.735
 6806SOL     OW21316   6.485   0.557   3.401
 6806SOL    HW121317   6.563   0.616   3.420
 6806SOL    HW221318   6.413   0.610   3.356
 6807SOL     OW21319   3.352   3.862   2.600
 6807SOL    HW121320   3.382   3.857   2.695
 6807SOL    HW221321   3.411   3.925   2.549
 6808SOL     OW21322   4.302   1.852   5.146
 6808SOL    HW121323   4.263   1.847   5.238
 6808SOL    HW221324   4.394   1.813   5.147
 6809SOL     OW21325   5.838   4.489   2.396
 6809SOL    HW121326   5.777   4.538   2.334
 6809SOL    HW221327   5.875   4.408   2.350
 6810SOL     OW21328   2.643   1.156   3.223
 6810SOL    HW121329   2.669   1.100   3.302
 6810SOL    HW221330   2.584   1.231   3.254
 6811SOL     OW21331   6.173   1.878   2.433
 6811SOL    HW121332   6.100   1.877   2.502
 6811SOL    HW221333   6.260   1.898   2.477
 6812SOL     OW21334   2.905   3.588   5.361
 6812SOL    HW121335   2.932   3.684   5.346
 6812SOL    HW221336   2.807   3.578   5.345
 6813SOL     OW21337   4.950   3.308   1.326
 6813SOL    HW121338   5.042   3.332   1.355
 6813SOL    HW221339   4.884   3.370   1.368
 6814SOL     OW21340   4.018   1.569   6.271
 6814SOL    HW121341   4.110   1.531   6.260
 6814SOL    HW221342   3.998   1.632   6.196
 6815SOL     OW21343   2.162   5.196   6.597
 6815SOL    HW121344   2.078   5.153   6.562
 6815SOL    HW221345   2.208   5.244   6.523
 6816SOL     OW21346   0.592   1.994   4.316
 6816SOL    HW121347   0.607   2.075   4.372
 6816SOL    HW221348   0.494   1.980   4.304
 6817SOL     OW21349   3.044   2.187   2.427
 6817SOL    HW121350   3.095   2.180   2.513
 6817SOL    HW221351   2.946   2.188   2.448
 6818SOL     OW21352   2.335   6.493   5.893
 6818SOL    HW121353   2.432   6.473   5.897
 6818SOL    HW221354   2.294   6.447   5.814
 6819SOL     OW21355   4.453   4.872   3.180
 6819SOL    HW121356   4.540   4.888   3.133
 6819SOL    HW221357   4.406   4.794   3.138
 6820SOL     OW21358   2.004   6.273   1.501
 6820SOL    HW121359   2.053   6.275   1.414
 6820SOL    HW221360   2.021   6.358   1.550
 6821SOL     OW21361   4.540   2.894   5.226
 6821SOL    HW121362   4.561   2.856   5.135
 6821SOL    HW221363   4.605   2.966   5.247
 6822SOL     OW21364   0.008   2.835   6.198
 6822SOL    HW121365   0.071   2.886   6.256
 6822SOL    HW221366   6.978   2.774   6.255
 6823SOL     OW21367   5.792   3.428   6.835
 6823SOL    HW121368   5.788   3.469   6.744
 6823SOL    HW221369   5.882   3.443   6.875
 6824SOL     OW21370   1.382   1.597   6.680
 6824SOL    HW121371   1.362   1.594   6.582
 6824SOL    HW221372   1.479   1.616   6.694
 6825SOL     OW21373   0.122   5.975   1.437
 6825SOL    HW121374   0.137   5.876   1.445
 6825SOL    HW221375   0.029   5.997   1.466
 6826SOL     OW21376   1.140   3.551   3.230
 6826SOL    HW121377   1.064   3.613   3.249
 6826SOL    HW221378   1.110   3.456   3.242
 6827SOL     OW21379   4.533   5.763   5.035
 6827SOL    HW121380   4.578   5.677   5.012
 6827SOL    HW221381   4.439   5.745   5.062
 6828SOL     OW21382   3.690   1.565   2.976
 6828SOL    HW121383   3.760   1.610   2.920
 6828SOL    HW221384   3.693   1.601   3.069
 6829SOL     OW21385   5.101   6.399   5.048
 6829SOL    HW121386   5.090   6.498   5.033
 6829SOL    HW221387   5.146   6.384   5.136
 6830SOL     OW21388   5.765   0.630   3.186
 6830SOL    HW121389   5.833   0.609   3.257
 6830SOL    HW221390   5.810   0.637   3.097
 6831SOL     OW21391   1.526   1.239   5.571
 6831SOL    HW121392   1.452   1.266   5.633
 6831SOL    HW221393   1.504   1.149   5.531
 6832SOL     OW21394   3.000   1.797   0.653
 6832SOL    HW121395   2.942   1.877   0.638
 6832SOL    HW221396   3.073   1.820   0.717
 6833SOL     OW21397   2.933   5.283   5.968
 6833SOL    HW121398   2.875   5.363   5.955
 6833SOL    HW221399   3.018   5.294   5.917
 6834SOL     OW21400   4.939   0.087   0.812
 6834SOL    HW121401   4.851   0.071   0.767
 6834SOL    HW221402   5.004   0.017   0.783
 6835SOL     OW21403   3.588   1.959   4.255
 6835SOL    HW121404   3.661   2.026   4.267
 6835SOL    HW221405   3.509   2.003   4.211
 6836SOL     OW21406   1.965   5.029   6.231
 6836SOL    HW121407   1.980   4.952   6.168
 6836SOL    HW221408   2.017   5.108   6.200
 6837SOL     OW21409   1.077   0.535   2.214
 6837SOL    HW121410   1.159   0.553   2.159
 6837SOL    HW221411   1.098   0.467   2.285
 6838SOL     OW21412   2.765   4.399   5.327
 6838SOL    HW121413   2.707   4.466   5.281
 6838SOL    HW221414   2.848   4.385   5.273
 6839SOL     OW21415   5.388   2.339   3.908
 6839SOL    HW121416   5.338   2.375   3.829
 6839SOL    HW221417   5.401   2.413   3.975
 6840SOL     OW21418   2.590   6.356   4.694
 6840SOL    HW121419   2.553   6.393   4.609
 6840SOL    HW221420   2.647   6.425   4.738
 6841SOL     OW21421   3.810   5.913   2.169
 6841SOL    HW121422   3.713   5.920   2.194
 6841SOL    HW221423   3.859   5.862   2.240
 6842SOL     OW21424   0.294   3.359   6.963
 6842SOL    HW121425   0.368   3.311   6.915
 6842SOL    HW221426   0.294   3.455   6.936
 6843SOL     OW21427   4.243   2.258   2.170
 6843SOL    HW121428   4.322   2.217   2.124
 6843SOL    HW221429   4.271   2.291   2.260
 6844SOL     OW21430   4.487   5.172   4.318
 6844SOL    HW121431   4.473   5.259   4.365
 6844SOL    HW221432   4.583   5.163   4.291
 6845SOL     OW21433   4.564   4.920   2.725
 6845SOL    HW121434   4.537   4.829   2.696
 6845SOL    HW221435   4.611   4.967   2.650
 6846SOL     OW21436   3.548   3.290   2.244
 6846SOL    HW121437   3.579   3.257   2.156
 6846SOL    HW221438   3.545   3.390   2.243
 6847SOL     OW21439   4.951   3.789   1.797
 6847SOL    HW121440   4.961   3.695   1.763
 6847SOL    HW221441   4.865   3.827   1.762
 6848SOL     OW21442   0.515   5.298   4.369
 6848SOL    HW121443   0.582   5.226   4.355
 6848SOL    HW221444   0.423   5.258   4.372
 6849SOL     OW21445   3.647   5.809   4.188
 6849SOL    HW121446   3.614   5.716   4.176
 6849SOL    HW221447   3.592   5.855   4.257
 6850SOL     OW21448   5.481   2.278   3.485
 6850SOL    HW121449   5.568   2.248   3.446
 6850SOL    HW221450   5.406   2.234   3.434
 6851SOL     OW21451   1.317   5.313   6.226
 6851SOL    HW121452   1.342   5.256   6.147
 6851SOL    HW221453   1.286   5.403   6.194
 6852SOL     OW21454   0.840   4.360   1.250
 6852SOL    HW121455   0.817   4.267   1.279
 6852SOL    HW221456   0.773   4.392   1.183
 6853SOL     OW21457   1.050   5.770   6.076
 6853SOL    HW121458   1.138   5.724   6.085
 6853SOL    HW221459   1.028   5.781   5.979
 6854SOL     OW21460   6.610   1.659   5.663
 6854SOL    HW121461   6.631   1.753   5.689
 6854SOL    HW221462   6.639   1.597   5.736
 6855SOL     OW21463   4.251   0.113   2.838
 6855SOL    HW121464   4.181   0.177   2.869
 6855SOL    HW221465   4.210   0.046   2.776
 6856SOL     OW21466   6.574   3.756   4.482
 6856SOL    HW121467   6.597   3.745   4.385
 6856SOL    HW221468   6.537   3.670   4.517
 6857SOL     OW21469   3.291   1.840   6.371
 6857SOL    HW121470   3.209   1.872   6.323
 6857SOL    HW221471   3.365   1.827   6.305
 6858SOL     OW21472   4.084   3.654   4.741
 6858SOL    HW121473   4.093   3.578   4.677
 6858SOL    HW221474   4.081   3.740   4.690
 6859SOL     OW21475   2.323   6.937   0.755
 6859SOL    HW121476   2.340   6.875   0.678
 6859SOL    HW221477   2.225   6.947   0.769
 6860SOL     OW21478   5.455   4.889   1.466
 6860SOL    HW121479   5.426   4.808   1.517
 6860SOL    HW221480   5.374   4.943   1.442
 6861SOL     OW21481   5.738   5.462   0.126
 6861SOL    HW121482   5.729   5.460   0.226
 6861SOL    HW221483   5.828   5.499   0.102
 6862SOL     OW21484   2.972   5.156   4.938
 6862SOL    HW121485   2.940   5.066   4.968
 6862SOL    HW221486   3.041   5.190   5.003
 6863SOL     OW21487   6.511   1.391   4.081
 6863SOL    HW121488   6.522   1.294   4.104
 6863SOL    HW221489   6.420   1.407   4.043
 6864SOL     OW21490   2.847   5.772   3.442
 6864SOL    HW121491   2.875   5.868   3.448
 6864SOL    HW221492   2.929   5.714   3.437
 6865SOL     OW21493   6.321   3.926   4.772
 6865SOL    HW121494   6.286   4.001   4.827
 6865SOL    HW221495   6.339   3.847   4.831
 6866SOL     OW21496   7.004   3.944   2.022
 6866SOL    HW121497   6.949   3.931   1.940
 6866SOL    HW221498   6.945   3.969   2.099
 6867SOL     OW21499   1.639   4.642   1.859
 6867SOL    HW121500   1.691   4.567   1.816
 6867SOL    HW221501   1.660   4.728   1.812
 6868SOL     OW21502   1.991   6.279   4.920
 6868SOL    HW121503   1.906   6.234   4.945
 6868SOL    HW221504   1.973   6.376   4.901
 6869SOL     OW21505   5.525   3.251   4.777
 6869SOL    HW121506   5.538   3.174   4.839
 6869SOL    HW221507   5.480   3.326   4.826
 6870SOL     OW21508   5.573   3.369   3.664
 6870SOL    HW121509   5.544   3.276   3.641
 6870SOL    HW221510   5.577   3.424   3.581
 6871SOL     OW21511   6.070   4.375   1.732
 6871SOL    HW121512   6.162   4.342   1.713
 6871SOL    HW221513   6.007   4.298   1.736
 6872SOL     OW21514   1.571   3.540   1.094
 6872SOL    HW121515   1.482   3.495   1.103
 6872SOL    HW221516   1.558   3.639   1.093
 6873SOL     OW21517   5.653   2.968   5.726
 6873SOL    HW121518   5.604   2.996   5.644
 6873SOL    HW221519   5.734   2.915   5.700
 6874SOL     OW21520   6.887   3.178   3.898
 6874SOL    HW121521   6.877   3.165   3.800
 6874SOL    HW221522   6.983   3.194   3.920
 6875SOL     OW21523   1.061   1.353   2.623
 6875SOL    HW121524   1.103   1.355   2.532
 6875SOL    HW221525   1.131   1.329   2.691
 6876SOL     OW21526   3.501   5.587   6.590
 6876SOL    HW121527   3.478   5.509   6.531
 6876SOL    HW221528   3.533   5.553   6.678
 6877SOL     OW21529   2.187   4.202   6.756
 6877SOL    HW121530   2.091   4.175   6.742
 6877SOL    HW221531   2.194   4.262   6.835
 6878SOL     OW21532   2.446   1.615   5.701
 6878SOL    HW121533   2.541   1.608   5.730
 6878SOL    HW221534   2.393   1.661   5.772
 6879SOL     OW21535   0.294   1.894   0.114
 6879SOL    HW121536   0.284   1.953   0.193
 6879SOL    HW221537   0.271   1.800   0.139
 6880SOL     OW21538   2.224   4.094   5.321
 6880SOL    HW121539   2.274   4.043   5.251
 6880SOL    HW221540   2.127   4.096   5.298
 6881SOL     OW21541   0.094   4.343   1.137
 6881SOL    HW121542   0.149   4.290   1.202
 6881SOL    HW221543   0.116   4.440   1.146
 6882SOL     OW21544   2.153   0.794   4.701
 6882SOL    HW121545   2.072   0.738   4.719
 6882SOL    HW221546   2.129   0.891   4.710
 6883SOL     OW21547   3.709   0.008   0.930
 6883SOL    HW121548   3.702   6.938   0.959
 6883SOL    HW221549   3.631   0.059   0.964
 6884SOL     OW21550   2.259   4.248   4.566
 6884SOL    HW121551   2.209   4.178   4.616
 6884SOL    HW221552   2.349   4.261   4.609
 6885SOL     OW21553   2.808   5.999   3.209
 6885SOL    HW121554   2.890   6.026   3.158
 6885SOL    HW221555   2.817   5.904   3.239
 6886SOL     OW21556   5.084   1.447   2.440
 6886SOL    HW121557   5.040   1.529   2.402
 6886SOL    HW221558   5.104   1.462   2.537
 6887SOL     OW21559   5.349   0.123   5.228
 6887SOL    HW121560   5.440   0.100   5.262
 6887SOL    HW221561   5.335   0.221   5.234
 6888SOL     OW21562   6.155   0.486   5.353
 6888SOL    HW121563   6.132   0.542   5.273
 6888SOL    HW221564   6.226   0.421   5.329
 6889SOL     OW21565   0.988   2.485   5.908
 6889SOL    HW121566   1.064   2.499   5.844
 6889SOL    HW221567   0.978   2.388   5.929
 6890SOL     OW21568   2.274   0.269   0.845
 6890SOL    HW121569   2.327   0.288   0.928
 6890SOL    HW221570   2.216   0.189   0.860
 6891SOL     OW21571   2.008   3.946   5.028
 6891SOL    HW121572   2.098   3.983   5.005
 6891SOL    HW221573   1.990   3.864   4.972
 6892SOL     OW21574   3.913   0.058   4.251
 6892SOL    HW121575   3.904   0.153   4.280
 6892SOL    HW221576   4.010   0.033   4.248
 6893SOL     OW21577   5.336   5.717   2.703
 6893SOL    HW121578   5.286   5.723   2.616
 6893SOL    HW221579   5.355   5.809   2.736
 6894SOL     OW21580   6.080   5.546   0.439
 6894SOL    HW121581   6.050   5.573   0.530
 6894SOL    HW221582   6.123   5.623   0.393
 6895SOL     OW21583   3.102   4.458   0.085
 6895SOL    HW121584   3.037   4.517   0.036
 6895SOL    HW221585   3.094   4.364   0.052
 6896SOL     OW21586   3.564   0.324   3.754
 6896SOL    HW121587   3.551   0.226   3.742
 6896SOL    HW221588   3.514   0.355   3.834
 6897SOL     OW21589   3.031   2.908   0.078
 6897SOL    HW121590   2.992   2.949   7.022
 6897SOL    HW221591   3.109   2.962   0.109
 6898SOL     OW21592   4.209   0.991   1.822
 6898SOL    HW121593   4.211   1.073   1.765
 6898SOL    HW221594   4.253   0.916   1.773
 6899SOL     OW21595   5.301   0.101   6.434
 6899SOL    HW121596   5.250   0.017   6.412
 6899SOL    HW221597   5.247   0.181   6.408
 6900SOL     OW21598   5.704   0.695   5.854
 6900SOL    HW121599   5.632   0.684   5.923
 6900SOL    HW221600   5.662   0.694   5.763
 6901SOL     OW21601   0.440   0.321   6.358
 6901SOL    HW121602   0.436   0.408   6.308
 6901SOL    HW221603   0.452   0.246   6.293
 6902SOL     OW21604   0.576   0.121   0.230
 6902SOL    HW121605   0.649   0.104   0.163
 6902SOL    HW221606   0.616   0.128   0.321
 6903SOL     OW21607   3.675   3.627   0.388
 6903SOL    HW121608   3.603   3.591   0.329
 6903SOL    HW221609   3.708   3.555   0.449
 6904SOL     OW21610   6.445   1.289   3.711
 6904SOL    HW121611   6.473   1.195   3.692
 6904SOL    HW221612   6.346   1.292   3.726
 6905SOL     OW21613   6.195   6.790   0.705
 6905SOL    HW121614   6.135   6.867   0.725
 6905SOL    HW221615   6.201   6.731   0.785
 6906SOL     OW21616   3.769   1.092   4.436
 6906SOL    HW121617   3.669   1.101   4.443
 6906SOL    HW221618   3.812   1.155   4.502
 6907SOL     OW21619   3.812   1.132   1.068
 6907SOL    HW121620   3.727   1.180   1.085
 6907SOL    HW221621   3.831   1.133   0.969
 6908SOL     OW21622   0.849   0.523   5.689
 6908SOL    HW121623   0.775   0.463   5.659
 6908SOL    HW221624   0.835   0.548   5.785
 6909SOL     OW21625   4.194   5.103   0.909
 6909SOL    HW121626   4.227   5.107   0.814
 6909SOL    HW221627   4.272   5.107   0.971
 6910SOL     OW21628   6.248   1.527   2.851
 6910SOL    HW121629   6.206   1.598   2.908
 6910SOL    HW221630   6.251   1.442   2.903
 6911SOL     OW21631   4.367   0.383   3.669
 6911SOL    HW121632   4.365   0.299   3.615
 6911SOL    HW221633   4.331   0.365   3.761
 6912SOL     OW21634   4.638   4.940   1.701
 6912SOL    HW121635   4.653   4.975   1.794
 6912SOL    HW221636   4.726   4.912   1.662
 6913SOL     OW21637   4.984   4.412   4.569
 6913SOL    HW121638   5.006   4.351   4.493
 6913SOL    HW221639   5.059   4.477   4.583
 6914SOL     OW21640   5.999   5.261   7.009
 6914SOL    HW121641   5.899   5.262   6.996
 6914SOL    HW221642   6.039   5.189   6.953
 6915SOL     OW21643   0.828   4.750   2.255
 6915SOL    HW121644   0.766   4.683   2.297
 6915SOL    HW221645   0.893   4.783   2.324
 6916SOL     OW21646   6.699   4.214   6.695
 6916SOL    HW121647   6.640   4.159   6.636
 6916SOL    HW221648   6.758   4.154   6.748
 6917SOL     OW21649   4.864   5.758   6.069
 6917SOL    HW121650   4.787   5.757   6.132
 6917SOL    HW221651   4.914   5.671   6.076
 6918SOL     OW21652   0.359   3.785   4.259
 6918SOL    HW121653   0.380   3.882   4.244
 6918SOL    HW221654   0.429   3.743   4.316
 6919SOL     OW21655   1.954   5.537   2.381
 6919SOL    HW121656   1.898   5.523   2.300
 6919SOL    HW221657   1.902   5.512   2.463
 6920SOL     OW21658   5.094   5.375   4.916
 6920SOL    HW121659   5.050   5.326   4.992
 6920SOL    HW221660   5.054   5.466   4.908
 6921SOL     OW21661   6.182   5.959   3.360
 6921SOL    HW121662   6.264   5.965   3.302
 6921SOL    HW221663   6.101   5.979   3.305
 6922SOL     OW21664   1.650   6.071   0.222
 6922SOL    HW121665   1.736   6.077   0.272
 6922SOL    HW221666   1.580   6.125   0.268
 6923SOL     OW21667   4.320   6.511   3.841
 6923SOL    HW121668   4.228   6.525   3.805
 6923SOL    HW221669   4.316   6.443   3.915
 6924SOL     OW21670   0.858   4.146   0.246
 6924SOL    HW121671   0.950   4.115   0.221
 6924SOL    HW221672   0.792   4.111   0.180
 6925SOL     OW21673   3.793   5.861   3.777
 6925SOL    HW121674   3.781   5.942   3.719
 6925SOL    HW221675   3.730   5.789   3.748
 6926SOL     OW21676   3.815   4.029   3.568
 6926SOL    HW121677   3.863   3.973   3.500
 6926SOL    HW221678   3.763   4.101   3.521
 6927SOL     OW21679   5.154   4.185   6.066
 6927SOL    HW121680   5.235   4.164   6.012
 6927SOL    HW221681   5.178   4.190   6.163
 6928SOL     OW21682   4.264   0.262   6.629
 6928SOL    HW121683   4.226   0.277   6.538
 6928SOL    HW221684   4.307   0.346   6.661
 6929SOL     OW21685   4.343   6.410   6.941
 6929SOL    HW121686   4.353   6.446   0.008
 6929SOL    HW221687   4.424   6.431   6.887
 6930SOL     OW21688   0.496   6.967   2.211
 6930SOL    HW121689   0.532   6.910   2.137
 6930SOL    HW221690   0.398   6.981   2.199
 6931SOL     OW21691   0.512   0.094   1.665
 6931SOL    HW121692   0.580   0.065   1.732
 6931SOL    HW221693   0.435   0.030   1.667
 6932SOL     OW21694   3.300   0.777   6.791
 6932SOL    HW121695   3.312   0.875   6.809
 6932SOL    HW221696   3.204   0.758   6.773
 6933SOL     OW21697   3.663   5.306   4.996
 6933SOL    HW121698   3.732   5.240   4.965
 6933SOL    HW221699   3.597   5.322   4.923
 6934SOL     OW21700   5.403   3.227   6.821
 6934SOL    HW121701   5.336   3.299   6.840
 6934SOL    HW221702   5.365   3.138   6.850
 6935SOL     OW21703   4.423   6.073   3.319
 6935SOL    HW121704   4.397   6.142   3.386
 6935SOL    HW221705   4.468   6.117   3.241
 6936SOL     OW21706   0.007   1.586   2.150
 6936SOL    HW121707   0.071   1.658   2.123
 6936SOL    HW221708   7.004   1.601   2.245
 6937SOL     OW21709   4.738   6.395   6.814
 6937SOL    HW121710   4.748   6.466   6.743
 6937SOL    HW221711   4.739   6.305   6.771
 6938SOL     OW21712   4.972   3.797   5.557
 6938SOL    HW121713   4.892   3.761   5.605
 6938SOL    HW221714   4.975   3.760   5.464
 6939SOL     OW21715   0.210   4.738   2.597
 6939SOL    HW121716   0.168   4.704   2.681
 6939SOL    HW221717   0.174   4.829   2.577
 6940SOL     OW21718   4.628   0.711   0.508
 6940SOL    HW121719   4.717   0.686   0.470
 6940SOL    HW221720   4.616   0.810   0.503
 6941SOL     OW21721   3.567   3.451   1.824
 6941SOL    HW121722   3.469   3.442   1.805
 6941SOL    HW221723   3.617   3.447   1.738
 6942SOL     OW21724   0.101   2.601   0.830
 6942SOL    HW121725   0.177   2.590   0.766
 6942SOL    HW221726   0.135   2.596   0.924
 6943SOL     OW21727   4.992   6.683   6.405
 6943SOL    HW121728   4.977   6.610   6.472
 6943SOL    HW221729   5.038   6.760   6.448
 6944SOL     OW21730   1.323   5.842   5.227
 6944SOL    HW121731   1.378   5.856   5.145
 6944SOL    HW221732   1.260   5.919   5.239
 6945SOL     OW21733   6.414   3.396   6.625
 6945SOL    HW121734   6.328   3.397   6.573
 6945SOL    HW221735   6.469   3.476   6.600
 6946SOL     OW21736   5.901   5.018   2.624
 6946SOL    HW121737   5.998   5.033   2.606
 6946SOL    HW221738   5.880   5.042   2.719
 6947SOL     OW21739   3.946   6.886   3.766
 6947SOL    HW121740   3.881   6.811   3.771
 6947SOL    HW221741   3.902   6.970   3.798
 6948SOL     OW21742   4.987   0.508   0.412
 6948SOL    HW121743   4.940   0.420   0.424
 6948SOL    HW221744   5.058   0.517   0.482
 6949SOL     OW21745   4.818   6.329   3.191
 6949SOL    HW121746   4.867   6.416   3.198
 6949SOL    HW221747   4.856   6.275   3.115
 6950SOL     OW21748   2.441   0.244   2.888
 6950SOL    HW121749   2.454   0.146   2.873
 6950SOL    HW221750   2.427   0.261   2.985
 6951SOL     OW21751   6.517   6.517   6.102
 6951SOL    HW121752   6.598   6.557   6.145
 6951SOL    HW221753   6.511   6.420   6.126
 6952SOL     OW21754   6.849   4.990   3.372
 6952SOL    HW121755   6.880   4.969   3.465
 6952SOL    HW221756   6.903   4.938   3.306
 6953SOL     OW21757   5.368   1.159   5.599
 6953SOL    HW121758   5.433   1.168   5.674
 6953SOL    HW221759   5.276   1.183   5.632
 6954SOL     OW21760   0.685   3.322   3.901
 6954SOL    HW121761   0.740   3.404   3.914
 6954SOL    HW221762   0.588   3.345   3.906
 6955SOL     OW21763   6.621   0.085   1.916
 6955SOL    HW121764   6.624   0.010   1.982
 6955SOL    HW221765   6.649   0.170   1.961
 6956SOL     OW21766   4.218   5.895   2.407
 6956SOL    HW121767   4.190   5.939   2.322
 6956SOL    HW221768   4.296   5.834   2.390
 6957SOL     OW21769   6.927   4.973   1.380
 6957SOL    HW121770   6.914   4.903   1.450
 6957SOL    HW221771   6.838   5.006   1.349
 6958SOL     OW21772   2.379   2.224   6.076
 6958SOL    HW121773   2.330   2.209   6.162
 6958SOL    HW221774   2.478   2.219   6.093
 6959SOL     OW21775   2.849   1.147   4.790
 6959SOL    HW121776   2.849   1.246   4.804
 6959SOL    HW221777   2.923   1.106   4.843
 6960SOL     OW21778   0.344   5.065   0.368
 6960SOL    HW121779   0.319   5.123   0.291
 6960SOL    HW221780   0.276   5.074   0.441
 6961SOL     OW21781   0.606   2.158   3.612
 6961SOL    HW121782   0.673   2.220   3.653
 6961SOL    HW221783   0.609   2.167   3.512
 6962SOL     OW21784   5.457   5.088   3.097
 6962SOL    HW121785   5.512   5.063   3.177
 6962SOL    HW221786   5.476   5.183   3.072
 6963SOL     OW21787   0.218   5.685   1.030
 6963SOL    HW121788   0.158   5.741   1.088
 6963SOL    HW221789   0.311   5.723   1.032
 6964SOL     OW21790   4.740   4.834   5.464
 6964SOL    HW121791   4.714   4.783   5.545
 6964SOL    HW221792   4.662   4.887   5.431
 6965SOL     OW21793   6.953   3.497   6.117
 6965SOL    HW121794   6.914   3.578   6.074
 6965SOL    HW221795   0.010   3.522   6.168
 6966SOL     OW21796   5.595   2.784   2.745
 6966SOL    HW121797   5.536   2.808   2.668
 6966SOL    HW221798   5.628   2.868   2.788
 6967SOL     OW21799   1.797   1.863   5.336
 6967SOL    HW121800   1.828   1.866   5.431
 6967SOL    HW221801   1.857   1.802   5.283
 6968SOL     OW21802   4.146   6.448   0.989
 6968SOL    HW121803   4.135   6.355   0.952
 6968SOL    HW221804   4.103   6.453   1.079
 6969SOL     OW21805   3.698   1.662   2.017
 6969SOL    HW121806   3.684   1.740   1.956
 6969SOL    HW221807   3.653   1.581   1.980
 6970SOL     OW21808   3.903   3.847   0.773
 6970SOL    HW121809   4.002   3.845   0.778
 6970SOL    HW221810   3.874   3.830   0.678
 6971SOL     OW21811   6.492   2.868   1.877
 6971SOL    HW121812   6.537   2.799   1.934
 6971SOL    HW221813   6.453   2.824   1.796
 6972SOL     OW21814   5.713   4.306   4.648
 6972SOL    HW121815   5.718   4.321   4.550
 6972SOL    HW221816   5.624   4.337   4.682
 6973SOL     OW21817   1.504   4.901   5.002
 6973SOL    HW121818   1.553   4.818   4.977
 6973SOL    HW221819   1.564   4.961   5.055
 6974SOL     OW21820   3.654   3.389   3.617
 6974SOL    HW121821   3.752   3.381   3.633
 6974SOL    HW221822   3.610   3.434   3.696
 6975SOL     OW21823   3.512   6.977   5.278
 6975SOL    HW121824   3.609   6.985   5.259
 6975SOL    HW221825   3.459   7.003   5.197
 6976SOL     OW21826   3.582   4.867   6.990
 6976SOL    HW121827   3.655   4.935   7.000
 6976SOL    HW221828   3.622   4.776   6.982
 6977SOL     OW21829   5.391   1.950   1.516
 6977SOL    HW121830   5.361   1.890   1.591
 6977SOL    HW221831   5.388   2.045   1.546
 6978SOL     OW21832   6.744   0.666   1.758
 6978SOL    HW121833   6.700   0.701   1.841
 6978SOL    HW221834   6.775   0.572   1.774
 6979SOL     OW21835   1.326   5.628   2.194
 6979SOL    HW121836   1.384   5.590   2.122
 6979SOL    HW221837   1.301   5.722   2.170
 6980SOL     OW21838   2.101   0.799   3.666
 6980SOL    HW121839   2.181   0.839   3.623
 6980SOL    HW221840   2.106   0.814   3.765
 6981SOL     OW21841   2.605   4.241   6.714
 6981SOL    HW121842   2.635   4.190   6.634
 6981SOL    HW221843   2.654   4.208   6.795
 6982SOL     OW21844   1.444   1.325   3.882
 6982SOL    HW121845   1.385   1.361   3.954
 6982SOL    HW221846   1.539   1.342   3.905
 6983SOL     OW21847   0.077   1.109   3.968
 6983SOL    HW121848   0.142   1.170   3.922
 6983SOL    HW221849   0.122   1.022   3.989
 6984SOL     OW21850   2.582   1.595   5.124
 6984SOL    HW121851   2.589   1.548   5.212
 6984SOL    HW221852   2.488   1.626   5.110
 6985SOL     OW21853   3.851   5.371   2.442
 6985SOL    HW121854   3.875   5.449   2.383
 6985SOL    HW221855   3.752   5.370   2.456
 6986SOL     OW21856   2.492   6.328   5.716
 6986SOL    HW121857   2.481   6.230   5.704
 6986SOL    HW221858   2.544   6.347   5.799
 6987SOL     OW21859   0.374   1.957   6.001
 6987SOL    HW121860   0.461   1.989   6.037
 6987SOL    HW221861   0.382   1.861   5.974
 6988SOL     OW21862   5.954   1.219   5.083
 6988SOL    HW121863   5.985   1.133   5.122
 6988SOL    HW221864   5.871   1.250   5.130
 6989SOL     OW21865   1.152   1.964   3.173
 6989SOL    HW121866   1.224   1.994   3.236
 6989SOL    HW221867   1.187   1.966   3.079
 6990SOL     OW21868   4.889   1.859   0.325
 6990SOL    HW121869   4.827   1.929   0.361
 6990SOL    HW221870   4.854   1.824   0.239
 6991SOL     OW21871   2.578   4.654   4.841
 6991SOL    HW121872   2.525   4.700   4.914
 6991SOL    HW221873   2.675   4.675   4.853
 6992SOL     OW21874   6.032   5.914   5.029
 6992SOL    HW121875   5.999   6.000   4.990
 6992SOL    HW221876   6.024   5.918   5.129
 6993SOL     OW21877   5.747   6.563   3.093
 6993SOL    HW121878   5.752   6.467   3.121
 6993SOL    HW221879   5.773   6.621   3.170
 6994SOL     OW21880   0.557   3.405   5.094
 6994SOL    HW121881   0.517   3.493   5.122
 6994SOL    HW221882   0.499   3.364   5.023
 6995SOL     OW21883   6.214   5.153   4.749
 6995SOL    HW121884   6.190   5.062   4.781
 6995SOL    HW221885   6.255   5.146   4.657
 6996SOL     OW21886   2.854   0.959   5.064
 6996SOL    HW121887   2.772   0.934   5.013
 6996SOL    HW221888   2.828   1.000   5.152
 6997SOL     OW21889   4.602   6.368   5.491
 6997SOL    HW121890   4.621   6.322   5.404
 6997SOL    HW221891   4.565   6.302   5.557
 6998SOL     OW21892   1.768   3.523   1.627
 6998SOL    HW121893   1.795   3.564   1.540
 6998SOL    HW221894   1.837   3.545   1.697
 6999SOL     OW21895   2.628   1.631   6.800
 6999SOL    HW121896   2.559   1.575   6.752
 6999SOL    HW221897   2.614   1.623   6.899
 7000SOL     OW21898   0.156   6.134   2.850
 7000SOL    HW121899   0.095   6.167   2.923
 7000SOL    HW221900   0.246   6.116   2.887
 7001SOL     OW21901   2.727   2.465   6.079
 7001SOL    HW121902   2.707   2.430   5.988
 7001SOL    HW221903   2.803   2.530   6.074
 7002SOL     OW21904   2.430   4.569   3.670
 7002SOL    HW121905   2.372   4.620   3.606
 7002SOL    HW221906   2.526   4.582   3.646
 7003SOL     OW21907   2.638   0.137   6.911
 7003SOL    HW121908   2.614   0.232   6.930
 7003SOL    HW221909   2.632   0.121   6.812
 7004SOL     OW21910   1.975   4.662   1.881
 7004SOL    HW121911   2.075   4.656   1.890
 7004SOL    HW221912   1.936   4.570   1.885
 7005SOL     OW21913   0.139   5.910   5.331
 7005SOL    HW121914   0.215   5.847   5.347
 7005SOL    HW221915   0.105   5.944   5.419
 7006SOL     OW21916   5.183   4.322   5.002
 7006SOL    HW121917   5.193   4.227   4.975
 7006SOL    HW221918   5.203   4.331   5.100
 7007SOL     OW21919   5.018   6.520   3.235
 7007SOL    HW121920   5.049   6.585   3.305
 7007SOL    HW221921   5.059   6.431   3.254
 7008SOL     OW21922   2.427   4.991   4.020
 7008SOL    HW121923   2.401   5.017   3.927
 7008SOL    HW221924   2.418   4.892   4.031
 7009SOL     OW21925   6.355   4.767   2.416
 7009SOL    HW121926   6.380   4.855   2.377
 7009SOL    HW221927   6.265   4.739   2.381
 7010SOL     OW21928   4.389   4.701   5.814
 7010SOL    HW121929   4.438   4.762   5.752
 7010SOL    HW221930   4.395   4.736   5.907
 7011SOL     OW21931   1.572   6.957   5.994
 7011SOL    HW121932   1.585   6.862   5.967
 7011SOL    HW221933   1.506   6.962   6.068
 7012SOL     OW21934   1.899   0.869   2.057
 7012SOL    HW121935   1.859   0.907   1.974
 7012SOL    HW221936   1.852   0.784   2.081
 7013SOL     OW21937   0.533   6.789   0.921
 7013SOL    HW121938   0.569   6.823   1.008
 7013SOL    HW221939   0.486   6.702   0.936
 7014SOL     OW21940   4.611   4.221   1.000
 7014SOL    HW121941   4.564   4.261   1.078
 7014SOL    HW221942   4.545   4.173   0.943
 7015SOL     OW21943   5.580   3.565   1.922
 7015SOL    HW121944   5.614   3.658   1.935
 7015SOL    HW221945   5.526   3.537   2.002
 7016SOL     OW21946   3.994   4.829   2.572
 7016SOL    HW121947   4.026   4.868   2.658
 7016SOL    HW221948   3.894   4.832   2.568
 7017SOL     OW21949   2.230   0.886   2.370
 7017SOL    HW121950   2.202   0.894   2.274
 7017SOL    HW221951   2.193   0.964   2.422
 7018SOL     OW21952   0.057   4.568   4.680
 7018SOL    HW121953   0.119   4.505   4.726
 7018SOL    HW221954   0.089   4.662   4.695
 7019SOL     OW21955   2.778   4.782   6.829
 7019SOL    HW121956   2.790   4.747   6.737
 7019SOL    HW221957   2.757   4.880   6.824
 7020SOL     OW21958   5.457   6.642   0.484
 7020SOL    HW121959   5.400   6.706   0.432
 7020SOL    HW221960   5.522   6.598   0.422
 7021SOL     OW21961   2.999   0.778   5.575
 7021SOL    HW121962   3.054   0.774   5.491
 7021SOL    HW221963   2.969   0.686   5.599
 7022SOL     OW21964   4.641   4.284   0.175
 7022SOL    HW121965   4.595   4.221   0.238
 7022SOL    HW221966   4.733   4.250   0.156
 7023SOL     OW21967   6.837   2.418   3.187
 7023SOL    HW121968   6.909   2.360   3.226
 7023SOL    HW221969   6.852   2.428   3.088
 7024SOL     OW21970   1.528   5.787   6.501
 7024SOL    HW121971   1.464   5.711   6.494
 7024SOL    HW221972   1.503   5.859   6.436
 7025SOL     OW21973   3.559   1.575   6.765
 7025SOL    HW121974   3.474   1.540   6.727
 7025SOL    HW221975   3.605   1.632   6.697
 7026SOL     OW21976   2.663   1.461   1.841
 7026SOL    HW121977   2.735   1.450   1.909
 7026SOL    HW221978   2.697   1.433   1.751
 7027SOL     OW21979   3.311   5.691   2.923
 7027SOL    HW121980   3.306   5.669   3.020
 7027SOL    HW221981   3.219   5.688   2.883
 7028SOL     OW21982   5.641   6.437   4.760
 7028SOL    HW121983   5.556   6.469   4.719
 7028SOL    HW221984   5.644   6.464   4.856
 7029SOL     OW21985   3.933   6.593   6.636
 7029SOL    HW121986   3.902   6.688   6.639
 7029SOL    HW221987   3.860   6.533   6.670
 7030SOL     OW21988   0.424   3.341   5.685
 7030SOL    HW121989   0.368   3.386   5.755
 7030SOL    HW221990   0.378   3.349   5.596
 7031SOL     OW21991   2.229   5.824   3.852
 7031SOL    HW121992   2.257   5.761   3.780
 7031SOL    HW221993   2.183   5.773   3.925
 7032SOL     OW21994   4.523   6.755   3.753
 7032SOL    HW121995   4.546   6.815   3.830
 7032SOL    HW221996   4.438   6.707   3.773
 7033SOL     OW21997   6.702   1.499   4.240
 7033SOL    HW121998   6.623   1.460   4.194
 7033SOL    HW221999   6.690   1.598   4.250
 7034SOL     OW22000   5.569   0.956   3.086
 7034SOL    HW122001   5.645   1.008   3.048
 7034SOL    HW222002   5.554   0.983   3.181
 7035SOL     OW22003   1.340   6.989   2.583
 7035SOL    HW122004   1.408   6.927   2.542
 7035SOL    HW222005   1.330   0.044   2.526
 7036SOL     OW22006   6.441   5.944   1.434
 7036SOL    HW122007   6.501   5.959   1.512
 7036SOL    HW222008   6.488   5.886   1.367
 7037SOL     OW22009   0.163   6.670   6.530
 7037SOL    HW122010   0.137   6.573   6.534
 7037SOL    HW222011   0.173   6.698   6.435
 7038SOL     OW22012   1.611   3.919   4.477
 7038SOL    HW122013   1.586   3.822   4.482
 7038SOL    HW222014   1.658   3.946   4.561
 7039SOL     OW22015   2.923   6.778   0.082
 7039SOL    HW122016   2.875   6.852   0.034
 7039SOL    HW222017   2.958   6.812   0.169
 7040SOL     OW22018   4.804   2.622   5.978
 7040SOL    HW122019   4.879   2.560   6.002
 7040SOL    HW222020   4.812   2.647   5.881
 7041SOL     OW22021   1.402   1.949   3.338
 7041SOL    HW122022   1.464   1.880   3.377
 7041SOL    HW222023   1.447   2.039   3.341
 7042SOL     OW22024   5.644   5.066   6.543
 7042SOL    HW122025   5.652   5.071   6.444
 7042SOL    HW222026   5.548   5.077   6.570
 7043SOL     OW22027   2.360   2.747   3.004
 7043SOL    HW122028   2.359   2.847   3.006
 7043SOL    HW222029   2.266   2.713   3.001
 7044SOL     OW22030   5.013   4.464   2.955
 7044SOL    HW122031   5.061   4.537   3.004
 7044SOL    HW222032   5.048   4.375   2.985
 7045SOL     OW22033   4.619   6.158   1.368
 7045SOL    HW122034   4.704   6.210   1.366
 7045SOL    HW222035   4.591   6.136   1.274
 7046SOL     OW22036   3.633   1.833   3.854
 7046SOL    HW122037   3.654   1.930   3.867
 7046SOL    HW222038   3.603   1.794   3.941
 7047SOL     OW22039   1.151   2.288   3.304
 7047SOL    HW122040   1.139   2.225   3.381
 7047SOL    HW222041   1.077   2.274   3.238
 7048SOL     OW22042   0.953   6.036   1.478
 7048SOL    HW122043   0.950   5.978   1.397
 7048SOL    HW222044   1.022   6.108   1.465
 7049SOL     OW22045   2.817   0.659   0.872
 7049SOL    HW122046   2.839   0.562   0.866
 7049SOL    HW222047   2.757   0.675   0.951
 7050SOL     OW22048   3.206   4.088   3.680
 7050SOL    HW122049   3.165   4.114   3.767
 7050SOL    HW222050   3.305   4.081   3.690
 7051SOL     OW22051   0.309   0.293   0.922
 7051SOL    HW122052   0.370   0.339   0.987
 7051SOL    HW222053   0.355   0.283   0.834
 7052SOL     OW22054   6.530   2.367   4.191
 7052SOL    HW122055   6.534   2.337   4.286
 7052SOL    HW222056   6.439   2.404   4.171
 7053SOL     OW22057   0.076   3.096   6.369
 7053SOL    HW122058   0.128   3.116   6.286
 7053SOL    HW222059   7.005   3.118   6.354
 7054SOL     OW22060   1.122   6.656   1.427
 7054SOL    HW122061   1.149   6.682   1.519
 7054SOL    HW222062   1.186   6.695   1.361
 7055SOL     OW22063   4.226   6.743   5.486
 7055SOL    HW122064   4.153   6.676   5.498
 7055SOL    HW222065   4.314   6.701   5.508
 7056SOL     OW22066   5.729   4.915   3.687
 7056SOL    HW122067   5.776   4.907   3.775
 7056SOL    HW222068   5.734   5.010   3.656
 7057SOL     OW22069   0.858   4.298   4.761
 7057SOL    HW122070   0.908   4.213   4.749
 7057SOL    HW222071   0.836   4.337   4.671
 7058SOL     OW22072   0.218   5.639   5.727
 7058SOL    HW122073   0.165   5.555   5.713
 7058SOL    HW222074   0.295   5.641   5.663
 7059SOL     OW22075   0.192   0.071   2.613
 7059SOL    HW122076   0.141   0.036   2.534
 7059SOL    HW222077   0.289   0.048   2.602
 7060SOL     OW22078   3.714   0.116   1.414
 7060SOL    HW122079   3.746   0.027   1.383
 7060SOL    HW222080   3.676   0.108   1.506
 7061SOL     OW22081   0.136   2.077   3.543
 7061SOL    HW122082   0.092   2.123   3.620
 7061SOL    HW222083   0.221   2.033   3.575
 7062SOL     OW22084   5.742   1.514   5.822
 7062SOL    HW122085   5.775   1.594   5.772
 7062SOL    HW222086   5.820   1.455   5.844
 7063SOL     OW22087   1.284   6.890   0.826
 7063SOL    HW122088   1.313   6.939   0.744
 7063SOL    HW222089   1.223   6.815   0.800
 7064SOL     OW22090   4.083   2.371   1.772
 7064SOL    HW122091   4.082   2.338   1.867
 7064SOL    HW222092   4.135   2.457   1.767
 7065SOL     OW22093   4.716   3.786   1.215
 7065SOL    HW122094   4.658   3.761   1.137
 7065SOL    HW222095   4.669   3.765   1.300
 7066SOL     OW22096   3.879   0.868   0.422
 7066SOL    HW122097   3.950   0.805   0.452
 7066SOL    HW222098   3.836   0.910   0.502
 7067SOL     OW22099   1.368   2.474   5.002
 7067SOL    HW122100   1.402   2.568   5.009
 7067SOL    HW222101   1.370   2.431   5.092
 7068SOL     OW22102   0.533   3.525   3.120
 7068SOL    HW122103   0.524   3.469   3.202
 7068SOL    HW222104   0.625   3.514   3.082
 7069SOL     OW22105   6.751   3.067   4.895
 7069SOL    HW122106   6.828   3.043   4.835
 7069SOL    HW222107   6.677   3.107   4.841
 7070SOL     OW22108   6.530   5.297   4.772
 7070SOL    HW122109   6.555   5.242   4.693
 7070SOL    HW222110   6.437   5.274   4.801
 7071SOL     OW22111   0.224   6.867   5.054
 7071SOL    HW122112   0.127   6.850   5.075
 7071SOL    HW222113   0.273   6.888   5.139
 7072SOL     OW22114   6.901   0.434   5.790
 7072SOL    HW122115   6.886   0.335   5.790
 7072SOL    HW222116   6.812   0.480   5.787
 7073SOL     OW22117   6.423   0.756   4.502
 7073SOL    HW122118   6.458   0.835   4.454
 7073SOL    HW222119   6.407   0.681   4.437
 7074SOL     OW22120   3.721   2.991   2.147
 7074SOL    HW122121   3.675   3.045   2.217
 7074SOL    HW222122   3.796   3.045   2.108
 7075SOL     OW22123   0.973   6.467   4.532
 7075SOL    HW122124   0.874   6.482   4.530
 7075SOL    HW222125   0.994   6.379   4.490
 7076SOL     OW22126   3.899   2.401   0.582
 7076SOL    HW122127   3.935   2.441   0.498
 7076SOL    HW222128   3.800   2.387   0.572
 7077SOL     OW22129   2.479   5.296   5.428
 7077SOL    HW122130   2.419   5.333   5.357
 7077SOL    HW222131   2.534   5.369   5.468
 7078SOL     OW22132   6.318   0.374   1.960
 7078SOL    HW122133   6.342   0.341   1.869
 7078SOL    HW222134   6.284   0.299   2.015
 7079SOL     OW22135   6.786   6.590   5.557
 7079SOL    HW122136   6.713   6.522   5.551
 7079SOL    HW222137   6.857   6.557   5.619
 7080SOL     OW22138   4.242   2.112   3.866
 7080SOL    HW122139   4.266   2.126   3.962
 7080SOL    HW222140   4.299   2.040   3.827
 7081SOL     OW22141   3.419   0.859   5.430
 7081SOL    HW122142   3.331   0.810   5.430
 7081SOL    HW222143   3.476   0.824   5.355
 7082SOL     OW22144   5.786   6.385   0.452
 7082SOL    HW122145   5.699   6.403   0.406
 7082SOL    HW222146   5.858   6.374   0.384
 7083SOL     OW22147   3.351   1.333   6.412
 7083SOL    HW122148   3.303   1.299   6.331
 7083SOL    HW222149   3.430   1.387   6.383
 7084SOL     OW22150   6.796   0.100   5.320
 7084SOL    HW122151   6.778   0.004   5.299
 7084SOL    HW222152   6.886   0.126   5.284
 7085SOL     OW22153   1.753   0.827   3.215
 7085SOL    HW122154   1.785   0.903   3.159
 7085SOL    HW222155   1.764   0.741   3.164
 7086SOL     OW22156   5.142   1.461   6.212
 7086SOL    HW122157   5.166   1.555   6.236
 7086SOL    HW222158   5.065   1.430   6.269
 7087SOL     OW22159   0.057   3.853   3.688
 7087SOL    HW122160   0.065   3.836   3.786
 7087SOL    HW222161   0.080   3.948   3.668
 7088SOL     OW22162   5.104   3.137   4.181
 7088SOL    HW122163   5.037   3.211   4.185
 7088SOL    HW222164   5.160   3.147   4.099
 7089SOL     OW22165   3.431   2.311   6.306
 7089SOL    HW122166   3.369   2.286   6.381
 7089SOL    HW222167   3.421   2.246   6.231
 7090SOL     OW22168   2.498   1.359   5.941
 7090SOL    HW122169   2.570   1.391   5.879
 7090SOL    HW222170   2.539   1.306   6.015
 7091SOL     OW22171   7.010   1.925   6.697
 7091SOL    HW122172   0.053   1.942   6.768
 7091SOL    HW222173   6.967   2.012   6.671
 7092SOL     OW22174   4.133   2.840   6.920
 7092SOL    HW122175   4.145   2.902   6.997
 7092SOL    HW222176   4.142   2.745   6.951
 7093SOL     OW22177   2.995   3.961   4.127
 7093SOL    HW122178   2.926   3.953   4.056
 7093SOL    HW222179   3.078   4.002   4.089
 7094SOL     OW22180   0.544   6.438   5.247
 7094SOL    HW122181   0.489   6.392   5.317
 7094SOL    HW222182   0.483   6.476   5.178
 7095SOL     OW22183   2.956   2.534   7.019
 7095SOL    HW122184   2.961   2.454   6.960
 7095SOL    HW222185   3.034   2.594   7.002
 7096SOL     OW22186   5.984   1.213   3.930
 7096SOL    HW122187   5.970   1.308   3.903
 7096SOL    HW222188   5.961   1.202   4.027
 7097SOL     OW22189   6.570   0.543   2.041
 7097SOL    HW122190   6.480   0.577   2.066
 7097SOL    HW222191   6.560   0.458   1.990
 7098SOL     OW22192   1.225   6.152   5.000
 7098SOL    HW122193   1.201   6.127   5.094
 7098SOL    HW222194   1.324   6.151   4.990
 7099SOL     OW22195   1.921   0.786   4.448
 7099SOL    HW122196   2.003   0.837   4.422
 7099SOL    HW222197   1.840   0.832   4.411
 7100SOL     OW22198   5.181   3.771   1.017
 7100SOL    HW122199   5.095   3.759   0.968
 7100SOL    HW222200   5.228   3.852   0.983
 7101SOL     OW22201   2.032   0.236   4.468
 7101SOL    HW122202   2.020   0.334   4.479
 7101SOL    HW222203   1.943   0.190   4.471
 7102SOL     OW22204   4.234   0.583   0.831
 7102SOL    HW122205   4.215   0.676   0.862
 7102SOL    HW222206   4.284   0.534   0.903
 7103SOL     OW22207   4.279   5.610   7.000
 7103SOL    HW122208   4.376   5.629   7.016
 7103SOL    HW222209   4.232   5.696   6.981
 7104SOL     OW22210   0.765   3.643   4.631
 7104SOL    HW122211   0.801   3.573   4.569
 7104SOL    HW222212   0.689   3.606   4.683
 7105SOL     OW22213   3.489   3.002   5.413
 7105SOL    HW122214   3.519   3.096   5.431
 7105SOL    HW222215   3.557   2.938   5.451
 7106SOL     OW22216   3.257   3.134   3.517
 7106SOL    HW122217   3.205   3.177   3.443
 7106SOL    HW222218   3.331   3.078   3.477
 7107SOL     OW22219   2.773   0.829   0.663
 7107SOL    HW122220   2.788   0.763   0.736
 7107SOL    HW222221   2.747   0.781   0.579
 7108SOL     OW22222   4.402   6.303   1.149
 7108SOL    HW122223   4.352   6.363   1.212
 7108SOL    HW222224   4.401   6.344   1.057
 7109SOL     OW22225   3.743   6.846   6.509
 7109SOL    HW122226   3.711   6.931   6.466
 7109SOL    HW222227   3.778   6.867   6.601
 7110SOL     OW22228   5.382   4.943   3.972
 7110SOL    HW122229   5.316   4.963   3.900
 7110SOL    HW222230   5.430   5.026   3.998
 7111SOL     OW22231   1.773   2.870   4.484
 7111SOL    HW122232   1.676   2.886   4.506
 7111SOL    HW222233   1.800   2.780   4.518
 7112SOL     OW22234   1.656   5.412   4.191
 7112SOL    HW122235   1.558   5.393   4.184
 7112SOL    HW222236   1.677   5.445   4.283
 7113SOL     OW22237   2.992   3.763   4.798
 7113SOL    HW122238   3.020   3.760   4.702
 7113SOL    HW222239   3.051   3.702   4.851
 7114SOL     OW22240   3.959   6.683   1.716
 7114SOL    HW122241   3.993   6.694   1.809
 7114SOL    HW222242   4.035   6.691   1.652
 7115SOL     OW22243   5.290   2.290   1.768
 7115SOL    HW122244   5.307   2.267   1.864
 7115SOL    HW222245   5.371   2.269   1.714
 7116SOL     OW22246   5.693   2.899   3.287
 7116SOL    HW122247   5.636   2.981   3.287
 7116SOL    HW222248   5.785   2.921   3.255
 7117SOL     OW22249   0.109   0.112   4.333
 7117SOL    HW122250   0.197   0.107   4.380
 7117SOL    HW222251   0.045   0.049   4.377
 7118SOL     OW22252   4.085   3.238   1.145
 7118SOL    HW122253   4.020   3.283   1.206
 7118SOL    HW222254   4.152   3.305   1.113
 7119SOL     OW22255   4.825   1.192   3.354
 7119SOL    HW122256   4.786   1.100   3.360
 7119SOL    HW222257   4.892   1.204   3.427
 7120SOL     OW22258   3.498   1.451   3.447
 7120SOL    HW122259   3.448   1.535   3.469
 7120SOL    HW222260   3.529   1.407   3.531
 7121SOL     OW22261   2.296   0.151   2.629
 7121SOL    HW122262   2.339   0.199   2.553
 7121SOL    HW222263   2.221   0.207   2.666
 7122SOL     OW22264   6.552   1.126   6.741
 7122SOL    HW122265   6.495   1.067   6.798
 7122SOL    HW222266   6.585   1.075   6.662
 7123SOL     OW22267   3.115   4.954   1.138
 7123SOL    HW122268   3.114   5.047   1.176
 7123SOL    HW222269   3.107   4.887   1.211
 7124SOL     OW22270   1.148   3.675   0.248
 7124SOL    HW122271   1.202   3.636   0.173
 7124SOL    HW222272   1.117   3.602   0.308
 7125SOL     OW22273   7.002   6.500   1.439
 7125SOL    HW122274   0.072   6.477   1.457
 7125SOL    HW222275   6.989   6.512   1.341
 7126SOL     OW22276   2.703   4.510   0.138
 7126SOL    HW122277   2.756   4.542   0.060
 7126SOL    HW222278   2.607   4.536   0.128
 7127SOL     OW22279   2.788   5.869   4.507
 7127SOL    HW122280   2.791   5.783   4.557
 7127SOL    HW222281   2.842   5.861   4.423
 7128SOL     OW22282   2.859   5.384   0.527
 7128SOL    HW122283   2.919   5.462   0.509
 7128SOL    HW222284   2.892   5.304   0.477
 7129SOL     OW22285   3.600   0.600   0.913
 7129SOL    HW122286   3.502   0.595   0.893
 7129SOL    HW222287   3.648   0.526   0.865
 7130SOL     OW22288   3.069   4.967   4.520
 7130SOL    HW122289   3.140   4.960   4.450
 7130SOL    HW222290   2.995   4.903   4.500
 7131SOL     OW22291   2.388   2.014   0.383
 7131SOL    HW122292   2.379   1.996   0.285
 7131SOL    HW222293   2.447   1.944   0.424
 7132SOL     OW22294   3.299   3.908   1.442
 7132SOL    HW122295   3.343   3.827   1.404
 7132SOL    HW222296   3.220   3.880   1.497
 7133SOL     OW22297   5.456   4.743   3.339
 7133SOL    HW122298   5.535   4.804   3.329
 7133SOL    HW222299   5.418   4.752   3.430
 7134SOL     OW22300   5.794   5.840   2.993
 7134SOL    HW122301   5.788   5.741   2.988
 7134SOL    HW222302   5.812   5.878   2.903
 7135SOL     OW22303   1.755   1.876   3.137
 7135SOL    HW122304   1.808   1.859   3.054
 7135SOL    HW222305   1.783   1.963   3.177
 7136SOL     OW22306   2.090   2.117   0.827
 7136SOL    HW122307   2.145   2.074   0.756
 7136SOL    HW222308   2.143   2.122   0.912
 7137SOL     OW22309   5.427   1.005   5.368
 7137SOL    HW122310   5.388   1.034   5.455
 7137SOL    HW222311   5.460   0.911   5.376
 7138SOL     OW22312   2.892   2.459   1.088
 7138SOL    HW122313   2.881   2.540   1.146
 7138SOL    HW222314   2.899   2.487   0.992
 7139SOL     OW22315   4.932   3.071   2.090
 7139SOL    HW122316   4.854   3.080   2.028
 7139SOL    HW222317   5.012   3.038   2.039
 7140SOL     OW22318   6.257   3.304   5.094
 7140SOL    HW122319   6.224   3.396   5.115
 7140SOL    HW222320   6.355   3.308   5.074
 7141SOL     OW22321   3.346   6.442   0.900
 7141SOL    HW122322   3.294   6.430   0.985
 7141SOL    HW222323   3.367   6.538   0.887
 7142SOL     OW22324   4.391   6.664   2.924
 7142SOL    HW122325   4.359   6.692   3.014
 7142SOL    HW222326   4.369   6.568   2.909
 7143SOL     OW22327   1.380   2.386   6.524
 7143SOL    HW122328   1.303   2.387   6.460
 7143SOL    HW222329   1.428   2.298   6.518
 7144SOL     OW22330   1.280   1.552   3.177
 7144SOL    HW122331   1.230   1.575   3.093
 7144SOL    HW222332   1.265   1.623   3.245
 7145SOL     OW22333   4.323   6.165   6.087
 7145SOL    HW122334   4.422   6.177   6.095
 7145SOL    HW222335   4.276   6.244   6.127
 7146SOL     OW22336   1.951   0.430   6.958
 7146SOL    HW122337   1.994   0.388   6.878
 7146SOL    HW222338   2.017   0.488   7.005
 7147SOL     OW22339   6.301   6.533   3.408
 7147SOL    HW122340   6.306   6.453   3.469
 7147SOL    HW222341   6.393   6.553   3.373
 7148SOL     OW22342   0.099   6.019   1.809
 7148SOL    HW122343   0.053   5.989   1.725
 7148SOL    HW222344   0.171   6.084   1.785
 7149SOL     OW22345   6.901   6.897   3.291
 7149SOL    HW122346   6.909   6.937   3.382
 7149SOL    HW222347   6.917   6.968   3.222
 7150SOL     OW22348   4.871   2.559   1.639
 7150SOL    HW122349   4.906   2.648   1.608
 7150SOL    HW222350   4.947   2.504   1.673
 7151SOL     OW22351   0.772   5.872   0.943
 7151SOL    HW122352   0.859   5.873   0.893
 7151SOL    HW222353   0.782   5.817   1.026
 7152SOL     OW22354   0.341   2.217   5.776
 7152SOL    HW122355   0.297   2.127   5.775
 7152SOL    HW222356   0.369   2.239   5.870
 7153SOL     OW22357   3.526   6.062   3.907
 7153SOL    HW122358   3.524   6.160   3.888
 7153SOL    HW222359   3.454   6.038   3.971
 7154SOL     OW22360   4.090   6.199   4.748
 7154SOL    HW122361   4.170   6.211   4.807
 7154SOL    HW222362   4.023   6.140   4.794
 7155SOL     OW22363   1.750   6.342   1.427
 7155SOL    HW122364   1.835   6.305   1.464
 7155SOL    HW222365   1.708   6.274   1.367
 7156SOL     OW22366   0.772   4.973   4.597
 7156SOL    HW122367   0.775   5.018   4.508
 7156SOL    HW222368   0.825   5.025   4.663
 7157SOL     OW22369   5.885   4.757   0.943
 7157SOL    HW122370   5.945   4.776   1.020
 7157SOL    HW222371   5.797   4.802   0.958
 7158SOL     OW22372   0.384   6.854   3.274
 7158SOL    HW122373   0.436   6.779   3.232
 7158SOL    HW222374   0.317   6.889   3.208
 7159SOL     OW22375   0.342   4.553   2.433
 7159SOL    HW122376   0.265   4.596   2.482
 7159SOL    HW222377   0.362   4.465   2.475
 7160SOL     OW22378   6.474   0.374   2.836
 7160SOL    HW122379   6.426   0.452   2.876
 7160SOL    HW222380   6.525   0.326   2.907
 7161SOL     OW22381   3.296   3.883   4.783
 7161SOL    HW122382   3.233   3.934   4.842
 7161SOL    HW222383   3.346   3.816   4.838
 7162SOL     OW22384   3.473   6.339   5.571
 7162SOL    HW122385   3.376   6.362   5.578
 7162SOL    HW222386   3.528   6.421   5.587
 7163SOL     OW22387   3.296   6.493   3.974
 7163SOL    HW122388   3.248   6.413   3.939
 7163SOL    HW222389   3.340   6.471   4.061
 7164SOL     OW22390   2.030   2.187   2.913
 7164SOL    HW122391   2.085   2.267   2.886
 7164SOL    HW222392   2.048   2.165   3.009
 7165SOL     OW22393   6.329   0.968   1.183
 7165SOL    HW122394   6.334   0.945   1.086
 7165SOL    HW222395   6.317   0.885   1.236
 7166SOL     OW22396   4.987   3.779   0.504
 7166SOL    HW122397   5.074   3.751   0.545
 7166SOL    HW222398   4.935   3.832   0.570
 7167SOL     OW22399   5.005   4.003   5.235
 7167SOL    HW122400   4.976   4.047   5.320
 7167SOL    HW222401   5.104   3.996   5.232
 7168SOL     OW22402   1.102   2.629   3.796
 7168SOL    HW122403   1.175   2.602   3.733
 7168SOL    HW222404   1.121   2.594   3.887
 7169SOL     OW22405   0.993   2.990   5.109
 7169SOL    HW122406   0.919   2.988   5.176
 7169SOL    HW222407   0.992   3.079   5.062
 7170SOL     OW22408   4.037   5.353   3.811
 7170SOL    HW122409   4.112   5.288   3.799
 7170SOL    HW222410   4.073   5.445   3.824
 7171SOL     OW22411   5.605   3.949   5.982
 7171SOL    HW122412   5.704   3.953   5.971
 7171SOL    HW222413   5.576   3.854   5.994
 7172SOL     OW22414   1.316   0.091   5.618
 7172SOL    HW122415   1.228   0.139   5.623
 7172SOL    HW222416   1.390   0.154   5.639
 7173SOL     OW22417   0.499   4.677   5.603
 7173SOL    HW122418   0.409   4.652   5.638
 7173SOL    HW222419   0.512   4.776   5.613
 7174SOL     OW22420   1.211   5.561   6.711
 7174SOL    HW122421   1.190   5.648   6.756
 7174SOL    HW222422   1.138   5.495   6.730
 7175SOL     OW22423   5.822   3.432   0.847
 7175SOL    HW122424   5.917   3.411   0.826
 7175SOL    HW222425   5.787   3.367   0.914
 7176SOL     OW22426   0.727   4.961   2.679
 7176SOL    HW122427   0.654   4.895   2.667
 7176SOL    HW222428   0.753   4.999   2.590
 7177SOL     OW22429   2.270   6.720   3.638
 7177SOL    HW122430   2.306   6.812   3.653
 7177SOL    HW222431   2.278   6.666   3.722
 7178SOL     OW22432   2.516   2.616   5.779
 7178SOL    HW122433   2.560   2.690   5.727
 7178SOL    HW222434   2.439   2.581   5.727
 7179SOL     OW22435   1.527   3.416   4.903
 7179SOL    HW122436   1.620   3.412   4.937
 7179SOL    HW222437   1.467   3.362   4.962
 7180SOL     OW22438   1.207   5.760   6.347
 7180SOL    HW122439   1.215   5.856   6.320
 7180SOL    HW222440   1.154   5.754   6.431
 7181SOL     OW22441   2.747   6.825   0.768
 7181SOL    HW122442   2.695   6.771   0.834
 7181SOL    HW222443   2.730   6.790   0.676
 7182SOL     OW22444   0.987   2.986   5.871
 7182SOL    HW122445   0.947   2.897   5.895
 7182SOL    HW222446   0.918   3.057   5.880
 7183SOL     OW22447   1.723   4.909   1.790
 7183SOL    HW122448   1.705   4.974   1.865
 7183SOL    HW222449   1.801   4.940   1.737
 7184SOL     OW22450   0.623   6.821   3.774
 7184SOL    HW122451   0.588   6.868   3.692
 7184SOL    HW222452   0.668   6.737   3.746
 7185SOL     OW22453   4.957   2.121   5.688
 7185SOL    HW122454   4.963   2.216   5.657
 7185SOL    HW222455   4.931   2.062   5.611
 7186SOL     OW22456   0.280   6.921   5.330
 7186SOL    HW122457   0.317   6.828   5.328
 7186SOL    HW222458   0.205   6.926   5.395
 7187SOL     OW22459   1.503   4.862   1.037
 7187SOL    HW122460   1.533   4.774   1.002
 7187SOL    HW222461   1.566   4.893   1.108
 7188SOL     OW22462   5.504   6.982   0.762
 7188SOL    HW122463   5.566   0.015   0.814
 7188SOL    HW222464   5.556   6.935   0.690
 7189SOL     OW22465   6.254   1.129   6.933
 7189SOL    HW122466   6.218   1.145   6.841
 7189SOL    HW222467   6.278   1.033   6.944
 7190SOL     OW22468   5.281   3.166   3.173
 7190SOL    HW122469   5.219   3.132   3.244
 7190SOL    HW222470   5.259   3.261   3.153
 7191SOL     OW22471   0.795   4.390   2.437
 7191SOL    HW122472   0.714   4.442   2.411
 7191SOL    HW222473   0.842   4.357   2.355
 7192SOL     OW22474   2.282   5.969   4.635
 7192SOL    HW122475   2.185   5.959   4.658
 7192SOL    HW222476   2.315   6.059   4.664
 7193SOL     OW22477   2.876   1.828   3.125
 7193SOL    HW122478   2.892   1.908   3.069
 7193SOL    HW222479   2.809   1.768   3.081
 7194SOL     OW22480   2.314   2.400   1.198
 7194SOL    HW122481   2.394   2.374   1.253
 7194SOL    HW222482   2.345   2.438   1.111
 7195SOL     OW22483   0.388   5.271   6.738
 7195SOL    HW122484   0.441   5.251   6.656
 7195SOL    HW222485   0.443   5.254   6.819
 7196SOL     OW22486   2.929   3.210   2.133
 7196SOL    HW122487   2.995   3.136   2.119
 7196SOL    HW222488   2.864   3.184   2.204
 7197SOL     OW22489   6.852   2.658   5.817
 7197SOL    HW122490   6.817   2.638   5.909
 7197SOL    HW222491   6.792   2.725   5.773
 7198SOL     OW22492   0.936   0.605   5.109
 7198SOL    HW122493   0.894   0.696   5.115
 7198SOL    HW222494   0.983   0.596   5.021
 7199SOL     OW22495   1.918   1.009   2.300
 7199SOL    HW122496   1.899   0.989   2.204
 7199SOL    HW222497   1.929   0.924   2.351
 7200SOL     OW22498   2.465   0.783   0.095
 7200SOL    HW122499   2.437   0.822   0.007
 7200SOL    HW222500   2.487   0.686   0.083
 7201SOL     OW22501   1.616   5.337   3.566
 7201SOL    HW122502   1.590   5.342   3.470
 7201SOL    HW222503   1.711   5.368   3.576
 7202SOL     OW22504   3.618   0.058   6.416
 7202SOL    HW122505   3.652   0.069   6.323
 7202SOL    HW222506   3.621   0.146   6.464
 7203SOL     OW22507   6.093   1.428   0.933
 7203SOL    HW122508   6.124   1.444   1.027
 7203SOL    HW222509   6.166   1.382   0.881
 7204SOL     OW22510   5.706   6.722   4.921
 7204SOL    HW122511   5.703   6.629   4.959
 7204SOL    HW222512   5.632   6.733   4.854
 7205SOL     OW22513   1.893   6.359   3.272
 7205SOL    HW122514   1.835   6.279   3.254
 7205SOL    HW222515   1.850   6.416   3.342
 7206SOL     OW22516   1.146   0.377   1.567
 7206SOL    HW122517   1.070   0.315   1.553
 7206SOL    HW222518   1.223   0.350   1.509
 7207SOL     OW22519   3.441   6.921   1.328
 7207SOL    HW122520   3.374   6.853   1.298
 7207SOL    HW222521   3.529   6.877   1.342
 7208SOL     OW22522   4.545   6.548   4.566
 7208SOL    HW122523   4.555   6.556   4.665
 7208SOL    HW222524   4.488   6.624   4.532
 7209SOL     OW22525   2.961   3.251   3.319
 7209SOL    HW122526   2.917   3.179   3.265
 7209SOL    HW222527   2.972   3.333   3.262
 7210SOL     OW22528   5.340   0.209   3.434
 7210SOL    HW122529   5.335   0.153   3.517
 7210SOL    HW222530   5.417   0.272   3.442
 7211SOL     OW22531   1.641   5.793   3.815
 7211SOL    HW122532   1.585   5.835   3.887
 7211SOL    HW222533   1.737   5.796   3.842
 7212SOL     OW22534   0.929   6.220   3.587
 7212SOL    HW122535   1.025   6.249   3.586
 7212SOL    HW222536   0.882   6.256   3.506
 7213SOL     OW22537   5.855   0.401   5.934
 7213SOL    HW122538   5.799   0.319   5.948
 7213SOL    HW222539   5.865   0.418   5.836
 7214SOL     OW22540   2.527   5.242   4.062
 7214SOL    HW122541   2.476   5.156   4.061
 7214SOL    HW222542   2.474   5.312   4.015
 7215SOL     OW22543   0.203   3.412   4.343
 7215SOL    HW122544   0.133   3.379   4.406
 7215SOL    HW222545   0.159   3.448   4.260
 7216SOL     OW22546   2.724   6.155   6.727
 7216SOL    HW122547   2.694   6.070   6.684
 7216SOL    HW222548   2.651   6.190   6.786
 7217SOL     OW22549   1.891   4.613   1.506
 7217SOL    HW122550   1.857   4.530   1.463
 7217SOL    HW222551   1.915   4.680   1.436
 7218SOL     OW22552   4.596   3.022   5.545
 7218SOL    HW122553   4.589   2.946   5.610
 7218SOL    HW222554   4.504   3.054   5.521
 7219SOL     OW22555   4.887   5.505   3.140
 7219SOL    HW122556   4.927   5.477   3.053
 7219SOL    HW222557   4.800   5.459   3.154
 7220SOL     OW22558   6.813   5.569   3.408
 7220SOL    HW122559   6.717   5.593   3.424
 7220SOL    HW222560   6.821   5.469   3.397
 7221SOL     OW22561   5.141   5.177   4.701
 7221SOL    HW122562   5.206   5.104   4.723
 7221SOL    HW222563   5.131   5.238   4.780
 7222SOL     OW22564   6.445   6.847   0.561
 7222SOL    HW122565   6.466   6.788   0.484
 7222SOL    HW222566   6.351   6.831   0.591
 7223SOL     OW22567   3.281   1.812   1.623
 7223SOL    HW122568   3.258   1.758   1.542
 7223SOL    HW222569   3.196   1.842   1.668
 7224SOL     OW22570   6.053   2.096   4.642
 7224SOL    HW122571   5.992   2.103   4.721
 7224SOL    HW222572   6.023   2.021   4.583
 7225SOL     OW22573   1.356   5.562   6.490
 7225SOL    HW122574   1.312   5.564   6.580
 7225SOL    HW222575   1.297   5.605   6.422
 7226SOL     OW22576   0.404   0.739   0.479
 7226SOL    HW122577   0.471   0.683   0.431
 7226SOL    HW222578   0.334   0.679   0.519
 7227SOL     OW22579   0.999   2.283   0.459
 7227SOL    HW122580   0.911   2.236   0.462
 7227SOL    HW222581   1.054   2.246   0.384
 7228SOL     OW22582   6.968   0.776   2.135
 7228SOL    HW122583   6.947   0.816   2.046
 7228SOL    HW222584   0.042   0.777   2.149
 7229SOL     OW22585   0.857   0.664   3.980
 7229SOL    HW122586   0.942   0.678   3.931
 7229SOL    HW222587   0.848   0.567   4.005
 7230SOL     OW22588   4.578   5.347   4.758
 7230SOL    HW122589   4.642   5.277   4.791
 7230SOL    HW222590   4.497   5.348   4.815
 7231SOL     OW22591   4.345   0.350   0.141
 7231SOL    HW122592   4.259   0.307   0.169
 7231SOL    HW222593   4.392   0.290   0.076
 7232SOL     OW22594   3.866   4.906   3.415
 7232SOL    HW122595   3.848   4.874   3.322
 7232SOL    HW222596   3.779   4.926   3.461
 7233SOL     OW22597   0.715   3.072   4.786
 7233SOL    HW122598   0.663   2.990   4.762
 7233SOL    HW222599   0.724   3.077   4.886
 7234SOL     OW22600   6.374   2.993   2.196
 7234SOL    HW122601   6.286   3.022   2.235
 7234SOL    HW222602   6.374   3.008   2.098
 7235SOL     OW22603   6.414   3.881   3.414
 7235SOL    HW122604   6.379   3.806   3.358
 7235SOL    HW222605   6.362   3.964   3.394
 7236SOL     OW22606   3.195   1.864   2.895
 7236SOL    HW122607   3.178   1.784   2.952
 7236SOL    HW222608   3.117   1.927   2.902
 7237SOL     OW22609   6.556   6.565   5.082
 7237SOL    HW122610   6.486   6.512   5.035
 7237SOL    HW222611   6.640   6.566   5.027
 7238SOL     OW22612   2.308   1.887   1.339
 7238SOL    HW122613   2.401   1.913   1.312
 7238SOL    HW222614   2.253   1.970   1.351
 7239SOL     OW22615   2.071   1.803   3.204
 7239SOL    HW122616   2.045   1.706   3.204
 7239SOL    HW222617   2.158   1.814   3.252
 7240SOL     OW22618   2.742   4.252   0.156
 7240SOL    HW122619   2.732   4.197   0.238
 7240SOL    HW222620   2.732   4.349   0.178
 7241SOL     OW22621   3.151   0.510   6.301
 7241SOL    HW122622   3.077   0.563   6.343
 7241SOL    HW222623   3.164   0.541   6.207
 7242SOL     OW22624   6.038   4.227   6.859
 7242SOL    HW122625   6.121   4.179   6.885
 7242SOL    HW222626   6.050   4.325   6.875
 7243SOL     OW22627   1.166   4.482   6.551
 7243SOL    HW122628   1.176   4.440   6.461
 7243SOL    HW222629   1.189   4.579   6.544
 7244SOL     OW22630   4.441   0.612   1.101
 7244SOL    HW122631   4.391   0.669   1.167
 7244SOL    HW222632   4.538   0.637   1.102
 7245SOL     OW22633   0.423   2.533   4.684
 7245SOL    HW122634   0.375   2.515   4.770
 7245SOL    HW222635   0.521   2.534   4.700
 7246SOL     OW22636   6.581   6.782   4.500
 7246SOL    HW122637   6.546   6.875   4.495
 7246SOL    HW222638   6.545   6.729   4.423
 7247SOL     OW22639   2.410   6.706   2.840
 7247SOL    HW122640   2.361   6.663   2.915
 7247SOL    HW222641   2.372   6.675   2.752
 7248SOL     OW22642   3.305   0.855   3.677
 7248SOL    HW122643   3.328   0.898   3.590
 7248SOL    HW222644   3.290   0.925   3.746
 7249SOL     OW22645   5.721   4.181   1.116
 7249SOL    HW122646   5.638   4.136   1.148
 7249SOL    HW222647   5.740   4.261   1.173
 7250SOL     OW22648   2.121   4.722   6.162
 7250SOL    HW122649   2.113   4.693   6.258
 7250SOL    HW222650   2.030   4.735   6.123
 7251SOL     OW22651   6.717   0.217   5.556
 7251SOL    HW122652   6.723   0.157   5.476
 7251SOL    HW222653   6.660   0.296   5.536
 7252SOL     OW22654   3.543   3.407   4.525
 7252SOL    HW122655   3.449   3.426   4.555
 7252SOL    HW222656   3.577   3.326   4.572
 7253SOL     OW22657   1.462   6.216   0.378
 7253SOL    HW122658   1.543   6.254   0.424
 7253SOL    HW222659   1.431   6.280   0.308
 7254SOL     OW22660   3.482   5.438   4.831
 7254SOL    HW122661   3.427   5.395   4.760
 7254SOL    HW222662   3.542   5.507   4.790
 7255SOL     OW22663   3.232   3.459   2.117
 7255SOL    HW122664   3.153   3.416   2.161
 7255SOL    HW222665   3.311   3.455   2.178
 7256SOL     OW22666   4.752   4.768   4.410
 7256SOL    HW122667   4.685   4.834   4.443
 7256SOL    HW222668   4.844   4.801   4.428
 7257SOL     OW22669   6.281   2.871   3.211
 7257SOL    HW122670   6.292   2.773   3.192
 7257SOL    HW222671   6.343   2.923   3.153
 7258SOL     OW22672   4.500   0.318   4.207
 7258SOL    HW122673   4.528   0.384   4.137
 7258SOL    HW222674   4.403   0.331   4.228
 7259SOL     OW22675   2.880   4.657   0.316
 7259SOL    HW122676   2.970   4.615   0.328
 7259SOL    HW222677   2.817   4.590   0.277
 7260SOL     OW22678   3.650   1.632   3.253
 7260SOL    HW122679   3.674   1.604   3.346
 7260SOL    HW222680   3.683   1.725   3.237
 7261SOL     OW22681   2.703   3.148   1.714
 7261SOL    HW122682   2.650   3.233   1.716
 7261SOL    HW222683   2.642   3.070   1.709
 7262SOL     OW22684   5.935   2.446   4.248
 7262SOL    HW122685   5.930   2.538   4.208
 7262SOL    HW222686   5.939   2.453   4.348
 7263SOL     OW22687   1.310   5.489   1.738
 7263SOL    HW122688   1.326   5.495   1.837
 7263SOL    HW222689   1.392   5.452   1.694
 7264SOL     OW22690   0.003   1.415   0.028
 7264SOL    HW122691   6.989   1.326   0.009
 7264SOL    HW222692   0.102   1.406   0.042
 7265SOL     OW22693   5.524   5.340   6.299
 7265SOL    HW122694   5.444   5.362   6.354
 7265SOL    HW222695   5.604   5.384   6.338
 7266SOL     OW22696   4.314   0.756   1.287
 7266SOL    HW122697   4.395   0.758   1.346
 7266SOL    HW222698   4.233   0.734   1.343
 7267SOL     OW22699   6.819   4.791   4.982
 7267SOL    HW122700   6.776   4.775   5.071
 7267SOL    HW222701   6.910   4.831   4.994
 7268SOL     OW22702   4.125   5.521   2.327
 7268SOL    HW122703   4.159   5.442   2.276
 7268SOL    HW222704   4.125   5.500   2.425
 7269SOL     OW22705   0.969   5.609   1.403
 7269SOL    HW122706   0.998   5.517   1.432
 7269SOL    HW222707   0.969   5.614   1.303
 7270SOL     OW22708   2.613   1.941   3.269
 7270SOL    HW122709   2.603   2.007   3.195
 7270SOL    HW222710   2.681   1.873   3.243
 7271SOL     OW22711   0.310   4.442   2.788
 7271SOL    HW122712   0.340   4.356   2.746
 7271SOL    HW222713   0.385   4.509   2.785
 7272SOL     OW22714   5.370   2.834   2.558
 7272SOL    HW122715   5.296   2.767   2.562
 7272SOL    HW222716   5.351   2.909   2.621
 7273SOL     OW22717   5.542   3.899   1.589
 7273SOL    HW122718   5.539   3.995   1.562
 7273SOL    HW222719   5.489   3.886   1.673
 7274SOL     OW22720   6.842   5.198   5.894
 7274SOL    HW122721   6.917   5.137   5.920
 7274SOL    HW222722   6.820   5.184   5.797
 7275SOL     OW22723   6.410   0.929   0.272
 7275SOL    HW122724   6.383   0.833   0.276
 7275SOL    HW222725   6.337   0.983   0.232
 7276SOL     OW22726   2.751   2.035   3.786
 7276SOL    HW122727   2.700   1.996   3.709
 7276SOL    HW222728   2.843   1.995   3.789
 7277SOL     OW22729   5.038   1.343   5.511
 7277SOL    HW122730   5.060   1.307   5.602
 7277SOL    HW222731   4.980   1.423   5.521
 7278SOL     OW22732   3.867   1.566   3.597
 7278SOL    HW122733   3.897   1.649   3.646
 7278SOL    HW222734   3.948   1.518   3.562
 7279SOL     OW22735   4.258   4.544   1.151
 7279SOL    HW122736   4.175   4.488   1.148
 7279SOL    HW222737   4.234   4.637   1.177
 7280SOL     OW22738   5.102   2.402   5.315
 7280SOL    HW122739   5.128   2.337   5.387
 7280SOL    HW222740   5.184   2.445   5.277
 7281SOL     OW22741   3.573   7.020   0.657
 7281SOL    HW122742   3.510   6.946   0.676
 7281SOL    HW222743   3.619   0.022   0.741
 7282SOL     OW22744   6.802   5.473   2.293
 7282SOL    HW122745   6.847   5.411   2.229
 7282SOL    HW222746   6.810   5.567   2.261
 7283SOL     OW22747   2.828   6.206   2.026
 7283SOL    HW122748   2.850   6.110   2.006
 7283SOL    HW222749   2.904   6.264   1.996
 7284SOL     OW22750   6.822   2.794   3.658
 7284SOL    HW122751   6.821   2.698   3.628
 7284SOL    HW222752   6.761   2.847   3.599
 7285SOL     OW22753   4.987   2.821   1.558
 7285SOL    HW122754   5.040   2.896   1.520
 7285SOL    HW222755   4.907   2.857   1.606
 7286SOL     OW22756   0.892   1.164   0.589
 7286SOL    HW122757   0.913   1.203   0.499
 7286SOL    HW222758   0.794   1.147   0.597
 7287SOL     OW22759   0.319   2.890   3.915
 7287SOL    HW122760   0.253   2.816   3.913
 7287SOL    HW222761   0.408   2.856   3.886
 7288SOL     OW22762   2.756   2.364   2.691
 7288SOL    HW122763   2.687   2.404   2.631
 7288SOL    HW222764   2.723   2.366   2.785
 7289SOL     OW22765   5.628   2.191   1.837
 7289SOL    HW122766   5.657   2.149   1.751
 7289SOL    HW222767   5.684   2.271   1.856
 7290SOL     OW22768   4.487   1.083   6.096
 7290SOL    HW122769   4.435   1.109   6.177
 7290SOL    HW222770   4.467   0.988   6.071
 7291SOL     OW22771   3.355   0.100   0.202
 7291SOL    HW122772   3.405   0.051   0.273
 7291SOL    HW222773   3.362   0.050   0.116
 7292SOL     OW22774   1.550   0.098   3.266
 7292SOL    HW122775   1.562   0.011   3.313
 7292SOL    HW222776   1.552   0.173   3.332
 7293SOL     OW22777   1.450   0.853   5.268
 7293SOL    HW122778   1.393   0.772   5.270
 7293SOL    HW222779   1.494   0.861   5.178
 7294SOL     OW22780   3.059   4.630   1.662
 7294SOL    HW122781   3.012   4.567   1.723
 7294SOL    HW222782   3.148   4.592   1.636
 7295SOL     OW22783   6.427   4.956   1.499
 7295SOL    HW122784   6.346   4.985   1.449
 7295SOL    HW222785   6.480   4.892   1.443
 7296SOL     OW22786   3.539   4.899   3.063
 7296SOL    HW122787   3.621   4.851   3.095
 7296SOL    HW222788   3.487   4.839   3.002
 7297SOL     OW22789   3.356   6.686   1.484
 7297SOL    HW122790   3.306   6.770   1.505
 7297SOL    HW222791   3.453   6.708   1.471
 7298SOL     OW22792   4.193   5.651   6.521
 7298SOL    HW122793   4.283   5.607   6.524
 7298SOL    HW222794   4.188   5.722   6.591
 7299SOL     OW22795   1.187   3.045   0.012
 7299SOL    HW122796   1.120   2.996   0.068
 7299SOL    HW222797   1.173   3.022   6.942
 7300SOL     OW22798   1.086   5.472   2.087
 7300SOL    HW122799   1.136   5.423   2.016
 7300SOL    HW222800   1.148   5.534   2.136
 7301SOL     OW22801   6.218   0.111   5.790
 7301SOL    HW122802   6.301   0.059   5.771
 7301SOL    HW222803   6.233   0.207   5.767
 7302SOL     OW22804   5.418   3.177   6.217
 7302SOL    HW122805   5.432   3.145   6.123
 7302SOL    HW222806   5.332   3.228   6.222
 7303SOL     OW22807   3.123   0.980   0.771
 7303SOL    HW122808   3.139   0.946   0.679
 7303SOL    HW222809   3.062   1.060   0.767
 7304SOL     OW22810   2.489   5.048   1.214
 7304SOL    HW122811   2.526   4.982   1.280
 7304SOL    HW222812   2.392   5.063   1.232
 7305SOL     OW22813   5.983   2.165   6.967
 7305SOL    HW122814   5.930   2.132   6.888
 7305SOL    HW222815   5.924   2.219   0.001
 7306SOL     OW22816   3.462   1.781   1.116
 7306SOL    HW122817   3.495   1.869   1.150
 7306SOL    HW222818   3.471   1.778   1.016
 7307SOL     OW22819   3.191   6.745   2.312
 7307SOL    HW122820   3.094   6.765   2.322
 7307SOL    HW222821   3.237   6.823   2.267
 7308SOL     OW22822   5.712   1.075   1.871
 7308SOL    HW122823   5.688   1.144   1.940
 7308SOL    HW222824   5.637   1.011   1.861
 7309SOL     OW22825   2.622   6.200   3.316
 7309SOL    HW122826   2.682   6.133   3.274
 7309SOL    HW222827   2.619   6.185   3.415
 7310SOL     OW22828   1.290   3.318   0.191
 7310SOL    HW122829   1.277   3.286   0.097
 7310SOL    HW222830   1.210   3.296   0.246
 7311SOL     OW22831   0.265   0.260   0.521
 7311SOL    HW122832   0.206   0.338   0.501
 7311SOL    HW222833   0.353   0.293   0.556
 7312SOL     OW22834   6.932   1.868   5.499
 7312SOL    HW122835   6.927   1.962   5.532
 7312SOL    HW222836   7.018   1.826   5.531
 7313SOL     OW22837   2.220   0.778   1.354
 7313SOL    HW122838   2.211   0.867   1.309
 7313SOL    HW222839   2.200   0.788   1.452
 7314SOL     OW22840   6.897   4.143   0.022
 7314SOL    HW122841   6.807   4.165   0.059
 7314SOL    HW222842   6.888   4.126   6.949
 7315SOL     OW22843   6.882   5.275   2.487
 7315SOL    HW122844   6.904   5.359   2.439
 7315SOL    HW222845   6.913   5.196   2.434
 7316SOL     OW22846   3.016   2.148   6.377
 7316SOL    HW122847   2.938   2.086   6.373
 7316SOL    HW222848   2.998   2.227   6.318
 7317SOL     OW22849   3.283   1.509   1.910
 7317SOL    HW122850   3.358   1.452   1.876
 7317SOL    HW222851   3.319   1.599   1.936
 7318SOL     OW22852   3.630   6.841   2.243
 7318SOL    HW122853   3.708   6.853   2.182
 7318SOL    HW222854   3.548   6.821   2.189
 7319SOL     OW22855   6.843   4.168   0.352
 7319SOL    HW122856   6.908   4.091   0.348
 7319SOL    HW222857   6.779   4.161   0.276
 7320SOL     OW22858   6.915   3.937   1.083
 7320SOL    HW122859   6.917   4.036   1.100
 7320SOL    HW222860   6.957   3.918   0.994
 7321SOL     OW22861   2.143   6.101   5.848
 7321SOL    HW122862   2.089   6.049   5.783
 7321SOL    HW222863   2.240   6.080   5.836
 7322SOL     OW22864   1.173   1.285   3.195
 7322SOL    HW122865   1.100   1.333   3.147
 7322SOL    HW222866   1.248   1.348   3.214
 7323SOL     OW22867   1.954   1.431   1.015
 7323SOL    HW122868   1.919   1.470   1.100
 7323SOL    HW222869   1.994   1.503   0.958
 7324SOL     OW22870   5.848   4.686   2.836
 7324SOL    HW122871   5.816   4.637   2.917
 7324SOL    HW222872   5.824   4.634   2.754
 7325SOL     OW22873   3.597   0.632   5.555
 7325SOL    HW122874   3.563   0.653   5.646
 7325SOL    HW222875   3.648   0.711   5.519
 7326SOL     OW22876   3.031   0.877   6.448
 7326SOL    HW122877   3.129   0.870   6.429
 7326SOL    HW222878   3.012   0.842   6.540
 7327SOL     OW22879   5.678   3.582   3.202
 7327SOL    HW122880   5.761   3.567   3.256
 7327SOL    HW222881   5.699   3.568   3.105
 7328SOL     OW22882   3.898   5.292   5.789
 7328SOL    HW122883   3.864   5.230   5.861
 7328SOL    HW222884   3.823   5.349   5.757
 7329SOL     OW22885   2.008   3.222   0.329
 7329SOL    HW122886   1.942   3.229   0.254
 7329SOL    HW222887   1.959   3.211   0.416
 7330SOL     OW22888   3.041   3.077   1.473
 7330SOL    HW122889   3.060   3.122   1.386
 7330SOL    HW222890   2.956   3.025   1.466
 7331SOL     OW22891   5.239   0.642   2.207
 7331SOL    HW122892   5.265   0.550   2.237
 7331SOL    HW222893   5.267   0.655   2.112
 7332SOL     OW22894   3.493   3.990   0.001
 7332SOL    HW122895   3.461   4.017   0.092
 7332SOL    HW222896   3.424   4.013   6.959
 7333SOL     OW22897   6.703   3.310   2.334
 7333SOL    HW122898   6.755   3.361   2.265
 7333SOL    HW222899   6.728   3.214   2.331
 7334SOL     OW22900   2.938   6.970   5.585
 7334SOL    HW122901   2.994   6.889   5.606
 7334SOL    HW222902   2.924   7.022   5.669
 7335SOL     OW22903   6.970   3.604   2.909
 7335SOL    HW122904   6.886   3.654   2.887
 7335SOL    HW222905   0.021   3.667   2.910
 7336SOL     OW22906   1.788   6.220   0.905
 7336SOL    HW122907   1.883   6.250   0.917
 7336SOL    HW222908   1.740   6.285   0.846
 7337SOL     OW22909   3.294   2.800   2.069
 7337SOL    HW122910   3.275   2.729   2.137
 7337SOL    HW222911   3.393   2.809   2.059
 7338SOL     OW22912   5.485   2.723   1.055
 7338SOL    HW122913   5.423   2.758   0.984
 7338SOL    HW222914   5.448   2.638   1.093
 7339SOL     OW22915   6.788   6.341   4.940
 7339SOL    HW122916   6.861   6.299   4.886
 7339SOL    HW222917   6.771   6.434   4.908
 7340SOL     OW22918   3.195   1.086   0.256
 7340SOL    HW122919   3.109   1.035   0.249
 7340SOL    HW222920   3.181   1.181   0.228
 7341SOL     OW22921   0.302   4.598   3.892
 7341SOL    HW122922   0.239   4.523   3.912
 7341SOL    HW222923   0.298   4.621   3.795
 7342SOL     OW22924   6.410   0.632   0.298
 7342SOL    HW122925   6.484   0.591   0.245
 7342SOL    HW222926   6.434   0.633   0.395
 7343SOL     OW22927   6.013   4.149   2.101
 7343SOL    HW122928   5.992   4.226   2.161
 7343SOL    HW222929   5.928   4.113   2.062
 7344SOL     OW22930   1.846   6.516   6.573
 7344SOL    HW122931   1.811   6.439   6.521
 7344SOL    HW222932   1.860   6.594   6.512
 7345SOL     OW22933   4.187   5.054   5.537
 7345SOL    HW122934   4.087   5.050   5.538
 7345SOL    HW222935   4.217   5.134   5.590
 7346SOL     OW22936   3.290   4.524   1.118
 7346SOL    HW122937   3.248   4.597   1.172
 7346SOL    HW222938   3.386   4.514   1.144
 7347SOL     OW22939   6.043   2.231   2.133
 7347SOL    HW122940   6.007   2.318   2.165
 7347SOL    HW222941   6.065   2.238   2.035
 7348SOL     OW22942   1.246   3.157   3.785
 7348SOL    HW122943   1.230   3.061   3.811
 7348SOL    HW222944   1.160   3.199   3.756
 7349SOL     OW22945   3.449   2.036   1.562
 7349SOL    HW122946   3.454   2.026   1.463
 7349SOL    HW222947   3.374   1.979   1.597
 7350SOL     OW22948   0.654   2.215   3.345
 7350SOL    HW122949   0.665   2.314   3.333
 7350SOL    HW222950   0.657   2.170   3.256
 7351SOL     OW22951   4.027   4.653   6.695
 7351SOL    HW122952   4.018   4.748   6.664
 7351SOL    HW222953   3.969   4.594   6.639
 7352SOL     OW22954   1.214   1.389   2.385
 7352SOL    HW122955   1.293   1.435   2.425
 7352SOL    HW222956   1.144   1.457   2.362
 7353SOL     OW22957   6.379   1.906   5.098
 7353SOL    HW122958   6.394   1.924   5.195
 7353SOL    HW222959   6.413   1.982   5.043
 7354SOL     OW22960   6.798   0.963   6.249
 7354SOL    HW122961   6.828   0.972   6.154
 7354SOL    HW222962   6.737   0.884   6.257
 7355SOL     OW22963   1.102   6.553   1.115
 7355SOL    HW122964   1.104   6.454   1.129
 7355SOL    HW222965   1.008   6.583   1.097
 7356SOL     OW22966   5.923   2.589   6.217
 7356SOL    HW122967   5.834   2.633   6.234
 7356SOL    HW222968   5.996   2.656   6.231
 7357SOL     OW22969   4.774   0.727   0.746
 7357SOL    HW122970   4.837   0.799   0.715
 7357SOL    HW222971   4.702   0.714   0.678
 7358SOL     OW22972   3.650   2.117   3.658
 7358SOL    HW122973   3.555   2.150   3.657
 7358SOL    HW222974   3.681   2.108   3.752
 7359SOL     OW22975   3.486   3.086   1.883
 7359SOL    HW122976   3.387   3.095   1.870
 7359SOL    HW222977   3.520   3.009   1.830
 7360SOL     OW22978   1.475   3.147   4.991
 7360SOL    HW122979   1.440   3.168   5.082
 7360SOL    HW222980   1.561   3.096   4.999
 7361SOL     OW22981   5.363   6.725   0.898
 7361SOL    HW122982   5.355   6.823   0.882
 7361SOL    HW222983   5.381   6.708   0.994
 7362SOL     OW22984   1.009   0.209   5.055
 7362SOL    HW122985   0.923   0.183   5.010
 7362SOL    HW222986   1.080   0.222   4.987
 7363SOL     OW22987   5.842   2.554   0.212
 7363SOL    HW122988   5.800   2.598   0.291
 7363SOL    HW222989   5.857   2.622   0.140
 7364SOL     OW22990   3.955   6.659   0.950
 7364SOL    HW122991   3.968   6.758   0.955
 7364SOL    HW222992   4.032   6.613   0.994
 7365SOL     OW22993   2.876   6.938   2.619
 7365SOL    HW122994   2.966   6.954   2.660
 7365SOL    HW222995   2.807   6.988   2.671
 7366SOL     OW22996   0.773   5.127   6.987
 7366SOL    HW122997   0.813   5.198   0.019
 7366SOL    HW222998   0.795   5.146   6.892
 7367SOL     OW22999   4.448   4.001   1.437
 7367SOL    HW123000   4.367   3.990   1.379
 7367SOL    HW223001   4.498   4.083   1.408
 7368SOL     OW23002   3.406   3.661   4.321
 7368SOL    HW123003   3.480   3.725   4.339
 7368SOL    HW223004   3.365   3.631   4.407
 7369SOL     OW23005   4.800   3.537   1.384
 7369SOL    HW123006   4.777   3.627   1.348
 7369SOL    HW223007   4.716   3.490   1.412
 7370SOL     OW23008   1.862   0.318   6.619
 7370SOL    HW123009   1.813   0.250   6.673
 7370SOL    HW223010   1.944   0.276   6.579
 7371SOL     OW23011   2.953   5.166   3.766
 7371SOL    HW123012   2.910   5.155   3.855
 7371SOL    HW223013   2.986   5.260   3.756
 7372SOL     OW23014   3.810   7.016   5.223
 7372SOL    HW123015   3.848   6.984   5.310
 7372SOL    HW223016   3.850   6.964   5.148
 7373SOL     OW23017   4.397   0.712   3.446
 7373SOL    HW123018   4.339   0.689   3.525
 7373SOL    HW223019   4.465   0.780   3.474
 7374SOL     OW23020   1.630   2.917   5.024
 7374SOL    HW123021   1.544   2.867   5.011
 7374SOL    HW223022   1.695   2.890   4.953
 7375SOL     OW23023   1.436   1.836   4.283
 7375SOL    HW123024   1.512   1.806   4.225
 7375SOL    HW223025   1.401   1.923   4.249
 7376SOL     OW23026   3.248   3.013   6.788
 7376SOL    HW123027   3.185   3.013   6.710
 7376SOL    HW223028   3.342   3.009   6.754
 7377SOL     OW23029   5.076   5.169   1.860
 7377SOL    HW123030   5.127   5.094   1.818
 7377SOL    HW223031   5.030   5.222   1.789
 7378SOL     OW23032   6.786   2.377   4.489
 7378SOL    HW123033   6.695   2.417   4.480
 7378SOL    HW223034   6.788   2.286   4.447
 7379SOL     OW23035   4.375   1.054   2.611
 7379SOL    HW123036   4.302   0.990   2.635
 7379SOL    HW223037   4.448   1.006   2.563
 7380SOL     OW23038   6.622   3.670   5.801
 7380SOL    HW123039   6.659   3.579   5.782
 7380SOL    HW223040   6.690   3.739   5.778
 7381SOL     OW23041   4.855   2.796   2.275
 7381SOL    HW123042   4.862   2.894   2.297
 7381SOL    HW223043   4.795   2.752   2.342
 7382SOL     OW23044   0.529   4.940   5.492
 7382SOL    HW123045   0.481   5.027   5.505
 7382SOL    HW223046   0.516   4.907   5.399
 7383SOL     OW23047   0.302   6.538   2.662
 7383SOL    HW123048   0.288   6.562   2.566
 7383SOL    HW223049   0.244   6.459   2.686
 7384SOL     OW23050   5.283   0.931   2.283
 7384SOL    HW123051   5.351   0.946   2.212
 7384SOL    HW223052   5.310   0.854   2.340
 7385SOL     OW23053   4.282   5.700   2.115
 7385SOL    HW123054   4.233   5.640   2.178
 7385SOL    HW223055   4.257   5.795   2.135
 7386SOL     OW23056   0.751   2.223   5.620
 7386SOL    HW123057   0.705   2.309   5.639
 7386SOL    HW223058   0.703   2.149   5.667
 7387SOL     OW23059   4.161   5.912   4.319
 7387SOL    HW123060   4.067   5.900   4.349
 7387SOL    HW223061   4.167   5.993   4.261
 7388SOL     OW23062   7.024   5.628   4.152
 7388SOL    HW123063   6.963   5.550   4.150
 7388SOL    HW223064   0.004   5.670   4.061
 7389SOL     OW23065   1.616   4.220   6.969
 7389SOL    HW123066   1.707   4.195   7.002
 7389SOL    HW223067   1.624   4.257   6.876
 7390SOL     OW23068   1.069   2.045   6.274
 7390SOL    HW123069   1.168   2.044   6.262
 7390SOL    HW223070   1.047   2.072   6.368
 7391SOL     OW23071   5.419   4.439   6.212
 7391SOL    HW123072   5.510   4.479   6.212
 7391SOL    HW223073   5.352   4.508   6.184
 7392SOL     OW23074   1.672   6.031   5.684
 7392SOL    HW123075   1.699   6.067   5.595
 7392SOL    HW223076   1.651   5.934   5.676
 7393SOL     OW23077   6.148   5.195   2.008
 7393SOL    HW123078   6.139   5.291   1.983
 7393SOL    HW223079   6.221   5.153   1.953
 7394SOL     OW23080   4.141   3.225   6.065
 7394SOL    HW123081   4.115   3.132   6.091
 7394SOL    HW223082   4.140   3.284   6.146
 7395SOL     OW23083   0.451   0.549   6.199
 7395SOL    HW123084   0.548   0.572   6.207
 7395SOL    HW223085   0.427   0.540   6.102
 7396SOL     OW23086   1.860   1.035   6.334
 7396SOL    HW123087   1.772   0.988   6.342
 7396SOL    HW223088   1.882   1.078   6.422
 7397SOL     OW23089   6.323   4.727   4.555
 7397SOL    HW123090   6.248   4.784   4.521
 7397SOL    HW223091   6.322   4.728   4.655
 7398SOL     OW23092   3.324   5.112   3.875
 7398SOL    HW123093   3.321   5.062   3.788
 7398SOL    HW223094   3.406   5.086   3.926
 7399SOL     OW23095   0.684   4.157   5.714
 7399SOL    HW123096   0.641   4.246   5.699
 7399SOL    HW223097   0.774   4.156   5.671
 7400SOL     OW23098   3.155   4.248   6.772
 7400SOL    HW123099   3.206   4.164   6.792
 7400SOL    HW223100   3.059   4.236   6.799
 7401SOL     OW23101   0.550   0.867   3.391
 7401SOL    HW123102   0.552   0.966   3.405
 7401SOL    HW223103   0.456   0.834   3.403
 7402SOL     OW23104   1.829   0.166   3.980
 7402SOL    HW123105   1.799   0.185   4.073
 7402SOL    HW223106   1.776   0.221   3.916
 7403SOL     OW23107   2.106   2.933   3.846
 7403SOL    HW123108   2.153   2.845   3.851
 7403SOL    HW223109   2.149   2.990   3.776
 7404SOL     OW23110   2.293   0.200   1.548
 7404SOL    HW123111   2.271   0.291   1.584
 7404SOL    HW223112   2.211   0.157   1.511
 7405SOL     OW23113   1.681   4.914   4.696
 7405SOL    HW123114   1.594   4.956   4.720
 7405SOL    HW223115   1.752   4.948   4.757
 7406SOL     OW23116   1.862   3.990   2.398
 7406SOL    HW123117   1.791   3.971   2.465
 7406SOL    HW223118   1.927   4.056   2.435
 7407SOL     OW23119   6.848   6.051   4.544
 7407SOL    HW123120   6.832   6.011   4.453
 7407SOL    HW223121   6.932   6.105   4.541
 7408SOL     OW23122   1.287   4.261   6.030
 7408SOL    HW123123   1.236   4.206   6.097
 7408SOL    HW223124   1.366   4.210   5.998
 7409SOL     OW23125   0.797   1.296   4.815
 7409SOL    HW123126   0.836   1.357   4.747
 7409SOL    HW223127   0.744   1.349   4.882
 7410SOL     OW23128   0.371   4.678   1.162
 7410SOL    HW123129   0.401   4.584   1.180
 7410SOL    HW223130   0.348   4.688   1.066
 7411SOL     OW23131   2.398   0.069   4.281
 7411SOL    HW123132   2.459   0.098   4.207
 7411SOL    HW223133   2.446   0.005   4.341
 7412SOL     OW23134   2.760   0.661   1.361
 7412SOL    HW123135   2.683   0.710   1.404
 7412SOL    HW223136   2.822   0.628   1.433
 7413SOL     OW23137   0.047   3.608   3.583
 7413SOL    HW123138   0.138   3.579   3.554
 7413SOL    HW223139   0.053   3.701   3.621
 7414SOL     OW23140   6.792   0.297   2.350
 7414SOL    HW123141   6.831   0.384   2.320
 7414SOL    HW223142   6.693   0.306   2.358
 7415SOL     OW23143   0.885   3.235   3.101
 7415SOL    HW123144   0.878   3.137   3.082
 7415SOL    HW223145   0.981   3.260   3.112
 7416SOL     OW23146   3.521   1.246   4.279
 7416SOL    HW123147   3.493   1.228   4.373
 7416SOL    HW223148   3.449   1.298   4.232
 7417SOL     OW23149   1.460   6.511   5.650
 7417SOL    HW123150   1.376   6.504   5.704
 7417SOL    HW223151   1.508   6.595   5.675
 7418SOL     OW23152   2.961   4.473   1.318
 7418SOL    HW123153   2.897   4.505   1.387
 7418SOL    HW223154   3.029   4.545   1.300
 7419SOL     OW23155   5.677   1.817   4.665
 7419SOL    HW123156   5.580   1.831   4.643
 7419SOL    HW223157   5.701   1.721   4.650
 7420SOL     OW23158   6.583   6.911   2.123
 7420SOL    HW123159   6.597   6.836   2.058
 7420SOL    HW223160   6.486   6.914   2.148
 7421SOL     OW23161   3.303   3.358   1.218
 7421SOL    HW123162   3.401   3.360   1.197
 7421SOL    HW223163   3.276   3.444   1.260
 7422SOL     OW23164   6.590   3.153   1.697
 7422SOL    HW123165   6.590   3.129   1.794
 7422SOL    HW223166   6.522   3.098   1.649
 7423SOL     OW23167   1.046   4.691   6.054
 7423SOL    HW123168   1.105   4.759   6.010
 7423SOL    HW223169   1.030   4.615   5.992
 7424SOL     OW23170   6.148   1.473   4.162
 7424SOL    HW123171   6.193   1.530   4.231
 7424SOL    HW223172   6.050   1.489   4.163
 7425SOL     OW23173   4.131   4.587   6.924
 7425SOL    HW123174   4.063   4.530   6.970
 7425SOL    HW223175   4.099   4.610   6.832
 7426SOL     OW23176   0.559   2.221   6.883
 7426SOL    HW123177   0.573   2.176   6.971
 7426SOL    HW223178   0.471   2.269   6.884
 7427SOL     OW23179   3.087   6.048   4.542
 7427SOL    HW123180   3.104   5.977   4.611
 7427SOL    HW223181   3.010   6.021   4.484
 7428SOL     OW23182   4.209   2.182   5.319
 7428SOL    HW123183   4.185   2.203   5.414
 7428SOL    HW223184   4.236   2.086   5.311
 7429SOL     OW23185   6.527   6.982   2.711
 7429SOL    HW123186   6.523   6.949   2.617
 7429SOL    HW223187   6.469   0.037   2.721
 7430SOL     OW23188   6.948   4.702   5.477
 7430SOL    HW123189   6.903   4.615   5.457
 7430SOL    HW223190   0.017   4.698   5.446
 7431SOL     OW23191   0.481   3.521   1.194
 7431SOL    HW123192   0.524   3.537   1.283
 7431SOL    HW223193   0.384   3.542   1.199
 7432SOL     OW23194   0.857   6.134   4.146
 7432SOL    HW123195   0.788   6.088   4.203
 7432SOL    HW223196   0.903   6.066   4.090
 7433SOL     OW23197   6.151   5.294   1.032
 7433SOL    HW123198   6.174   5.277   0.936
 7433SOL    HW223199   6.232   5.328   1.080
 7434SOL     OW23200   2.964   1.647   6.770
 7434SOL    HW123201   2.887   1.672   6.829
 7434SOL    HW223202   3.049   1.677   6.812
 7435SOL     OW23203   3.417   6.731   5.884
 7435SOL    HW123204   3.449   6.770   5.970
 7435SOL    HW223205   3.464   6.777   5.808
 7436SOL     OW23206   6.257   2.906   6.571
 7436SOL    HW123207   6.167   2.863   6.561
 7436SOL    HW223208   6.315   2.882   6.493
 7437SOL     OW23209   6.701   5.303   6.852
 7437SOL    HW123210   6.655   5.339   6.933
 7437SOL    HW223211   6.777   5.362   6.826
 7438SOL     OW23212   0.890   4.413   1.769
 7438SOL    HW123213   0.867   4.507   1.741
 7438SOL    HW223214   0.826   4.383   1.839
 7439SOL     OW23215   2.854   7.022   3.859
 7439SOL    HW123216   2.925   0.028   3.796
 7439SOL    HW223217   2.886   6.939   3.905
 7440SOL     OW23218   0.987   3.277   5.030
 7440SOL    HW123219   1.015   3.255   4.936
 7440SOL    HW223220   0.889   3.261   5.040
 7441SOL     OW23221   5.781   6.832   4.253
 7441SOL    HW123222   5.857   6.809   4.314
 7441SOL    HW223223   5.807   6.813   4.158
 7442SOL     OW23224   1.079   0.890   6.666
 7442SOL    HW123225   1.146   0.870   6.737
 7442SOL    HW223226   1.127   0.919   6.583
 7443SOL     OW23227   6.654   2.025   0.554
 7443SOL    HW123228   6.660   1.968   0.472
 7443SOL    HW223229   6.716   2.103   0.546
 7444SOL     OW23230   6.896   3.236   6.153
 7444SOL    HW123231   6.818   3.221   6.215
 7444SOL    HW223232   6.916   3.334   6.148
 7445SOL     OW23233   4.833   0.996   1.340
 7445SOL    HW123234   4.858   1.023   1.433
 7445SOL    HW223235   4.733   0.989   1.334
 7446SOL     OW23236   6.346   4.195   6.966
 7446SOL    HW123237   6.439   4.194   6.930
 7446SOL    HW223238   6.343   4.247   0.026
 7447SOL     OW23239   2.435   4.985   6.224
 7447SOL    HW123240   2.518   4.964   6.172
 7447SOL    HW223241   2.433   4.928   6.306
 7448SOL     OW23242   5.506   6.776   6.069
 7448SOL    HW123243   5.583   6.815   6.119
 7448SOL    HW223244   5.535   6.752   5.976
 7449SOL     OW23245   4.655   2.415   2.119
 7449SOL    HW123246   4.598   2.335   2.097
 7449SOL    HW223247   4.676   2.464   2.035
 7450SOL     OW23248   4.937   2.776   3.771
 7450SOL    HW123249   4.886   2.808   3.851
 7450SOL    HW223250   4.875   2.728   3.709
 7451SOL     OW23251   1.536   0.302   3.455
 7451SOL    HW123252   1.575   0.363   3.386
 7451SOL    HW223253   1.578   0.321   3.543
 7452SOL     OW23254   1.613   0.410   4.609
 7452SOL    HW123255   1.634   0.507   4.624
 7452SOL    HW223256   1.561   0.401   4.524
 7453SOL     OW23257   5.747   6.028   4.814
 7453SOL    HW123258   5.797   6.060   4.894
 7453SOL    HW223259   5.693   6.104   4.777
 7454SOL     OW23260   0.919   3.378   1.542
 7454SOL    HW123261   0.883   3.468   1.563
 7454SOL    HW223262   0.860   3.308   1.582
 7455SOL     OW23263   5.802   1.252   1.307
 7455SOL    HW123264   5.790   1.289   1.216
 7455SOL    HW223265   5.719   1.267   1.361
 7456SOL     OW23266   1.520   2.197   4.565
 7456SOL    HW123267   1.546   2.119   4.622
 7456SOL    HW223268   1.594   2.264   4.564
 7457SOL     OW23269   5.336   0.473   5.844
 7457SOL    HW123270   5.353   0.391   5.789
 7457SOL    HW223271   5.400   0.475   5.921
 7458SOL     OW23272   2.327   6.670   6.566
 7458SOL    HW123273   2.233   6.701   6.579
 7458SOL    HW223274   2.344   6.591   6.625
 7459SOL     OW23275   4.442   0.491   6.690
 7459SOL    HW123276   4.471   0.469   6.783
 7459SOL    HW223277   4.521   0.495   6.630
 7460SOL     OW23278   1.962   5.389   0.378
 7460SOL    HW123279   1.883   5.443   0.407
 7460SOL    HW223280   2.025   5.447   0.326
 7461SOL     OW23281   5.383   1.462   5.471
 7461SOL    HW123282   5.434   1.378   5.455
 7461SOL    HW223283   5.351   1.465   5.566
 7462SOL     OW23284   1.813   2.345   1.503
 7462SOL    HW123285   1.865   2.421   1.543
 7462SOL    HW223286   1.716   2.366   1.507
 7463SOL     OW23287   3.491   2.985   1.589
 7463SOL    HW123288   3.534   2.920   1.651
 7463SOL    HW223289   3.393   2.967   1.582
 7464SOL     OW23290   3.792   6.021   6.513
 7464SOL    HW123291   3.752   5.948   6.567
 7464SOL    HW223292   3.821   5.985   6.424
 7465SOL     OW23293   1.659   0.363   1.153
 7465SOL    HW123294   1.560   0.348   1.156
 7465SOL    HW223295   1.683   0.409   1.068
 7466SOL     OW23296   0.845   0.270   6.379
 7466SOL    HW123297   0.902   0.255   6.460
 7466SOL    HW223298   0.823   0.182   6.337
 7467SOL     OW23299   6.358   2.347   1.113
 7467SOL    HW123300   6.343   2.336   1.015
 7467SOL    HW223301   6.449   2.387   1.128
 7468SOL     OW23302   4.765   2.189   2.424
 7468SOL    HW123303   4.770   2.096   2.389
 7468SOL    HW223304   4.818   2.250   2.365
 7469SOL     OW23305   0.941   0.122   0.195
 7469SOL    HW123306   0.958   0.032   0.155
 7469SOL    HW223307   0.985   0.193   0.139
 7470SOL     OW23308   0.735   2.808   2.542
 7470SOL    HW123309   0.672   2.828   2.616
 7470SOL    HW223310   0.823   2.854   2.559
 7471SOL     OW23311   6.019   6.698   5.075
 7471SOL    HW123312   6.010   6.646   4.990
 7471SOL    HW223313   6.078   6.649   5.139
 7472SOL     OW23314   4.740   6.334   4.003
 7472SOL    HW123315   4.749   6.354   3.906
 7472SOL    HW223316   4.792   6.402   4.056
 7473SOL     OW23317   6.742   4.365   3.232
 7473SOL    HW123318   6.764   4.428   3.307
 7473SOL    HW223319   6.679   4.295   3.265
 7474SOL     OW23320   3.027   0.750   4.408
 7474SOL    HW123321   3.076   0.664   4.417
 7474SOL    HW223322   2.986   0.775   4.495
 7475SOL     OW23323   4.856   0.763   2.257
 7475SOL    HW123324   4.775   0.741   2.202
 7475SOL    HW223325   4.913   0.681   2.267
 7476SOL     OW23326   4.270   6.219   4.951
 7476SOL    HW123327   4.351   6.169   4.920
 7476SOL    HW223328   4.298   6.303   4.997
 7477SOL     OW23329   4.860   0.882   4.108
 7477SOL    HW123330   4.873   0.786   4.134
 7477SOL    HW223331   4.831   0.935   4.187
 7478SOL     OW23332   4.121   4.156   6.418
 7478SOL    HW123333   4.122   4.180   6.321
 7478SOL    HW223334   4.157   4.232   6.471
 7479SOL     OW23335   3.837   1.733   0.932
 7479SOL    HW123336   3.877   1.659   0.877
 7479SOL    HW223337   3.845   1.711   1.029
 7480SOL     OW23338   6.129   5.492   1.366
 7480SOL    HW123339   6.215   5.452   1.333
 7480SOL    HW223340   6.091   5.552   1.296
 7481SOL     OW23341   5.468   5.106   1.162
 7481SOL    HW123342   5.470   5.179   1.094
 7481SOL    HW223343   5.519   5.135   1.243
 7482SOL     OW23344   4.132   1.279   1.902
 7482SOL    HW123345   4.053   1.275   1.963
 7482SOL    HW223346   4.102   1.296   1.809
 7483SOL     OW23347   4.320   1.941   4.630
 7483SOL    HW123348   4.233   1.898   4.604
 7483SOL    HW223349   4.310   1.983   4.720
 7484SOL     OW23350   0.065   0.180   1.771
 7484SOL    HW123351   0.156   0.219   1.782
 7484SOL    HW223352   0.012   0.194   1.854
 7485SOL     OW23353   3.326   6.322   5.264
 7485SOL    HW123354   3.352   6.254   5.333
 7485SOL    HW223355   3.326   6.279   5.173
 7486SOL     OW23356   2.373   6.747   5.494
 7486SOL    HW123357   2.294   6.774   5.549
 7486SOL    HW223358   2.383   6.648   5.496
 7487SOL     OW23359   1.927   6.747   2.266
 7487SOL    HW123360   1.986   6.825   2.286
 7487SOL    HW223361   1.947   6.673   2.329
 7488SOL     OW23362   2.295   6.971   5.038
 7488SOL    HW123363   2.338   6.910   5.105
 7488SOL    HW223364   2.358   6.985   4.961
 7489SOL     OW23365   4.546   2.165   5.040
 7489SOL    HW123366   4.565   2.070   5.066
 7489SOL    HW223367   4.588   2.183   4.950
 7490SOL     OW23368   0.838   0.466   0.860
 7490SOL    HW123369   0.768   0.394   0.860
 7490SOL    HW223370   0.893   0.459   0.777
 7491SOL     OW23371   0.666   4.894   7.004
 7491SOL    HW123372   0.594   4.905   6.936
 7491SOL    HW223373   0.716   4.980   7.014
 7492SOL     OW23374   2.317   2.000   5.054
 7492SOL    HW123375   2.304   2.088   5.099
 7492SOL    HW223376   2.344   2.015   4.958
 7493SOL     OW23377   6.486   4.302   6.189
 7493SOL    HW123378   6.525   4.356   6.114
 7493SOL    HW223379   6.404   4.255   6.157
 7494SOL     OW23380   5.552   0.914   2.458
 7494SOL    HW123381   5.584   0.822   2.483
 7494SOL    HW223382   5.554   0.924   2.359
 7495SOL     OW23383   2.248   1.034   1.237
 7495SOL    HW123384   2.217   1.124   1.203
 7495SOL    HW223385   2.248   0.969   1.161
 7496SOL     OW23386   1.167   4.498   5.897
 7496SOL    HW123387   1.193   4.486   5.802
 7496SOL    HW223388   1.223   4.439   5.955
 7497SOL     OW23389   3.127   5.113   1.438
 7497SOL    HW123390   3.140   5.053   1.517
 7497SOL    HW223391   3.032   5.109   1.408
 7498SOL     OW23392   2.758   1.385   4.257
 7498SOL    HW123393   2.788   1.345   4.171
 7498SOL    HW223394   2.658   1.391   4.258
 7499SOL     OW23395   6.127   6.914   3.198
 7499SOL    HW123396   6.203   6.967   3.160
 7499SOL    HW223397   6.160   6.822   3.221
 7500SOL     OW23398   3.947   6.048   2.584
 7500SOL    HW123399   3.952   5.981   2.658
 7500SOL    HW223400   3.918   6.137   2.621
 7501SOL     OW23401   6.568   4.294   4.165
 7501SOL    HW123402   6.493   4.327   4.222
 7501SOL    HW223403   6.648   4.352   4.177
 7502SOL     OW23404   1.490   1.458   5.376
 7502SOL    HW123405   1.424   1.432   5.305
 7502SOL    HW223406   1.504   1.380   5.438
 7503SOL     OW23407   2.983   0.756   6.686
 7503SOL    HW123408   2.909   0.699   6.652
 7503SOL    HW223409   2.954   0.804   6.769
 7504SOL     OW23410   4.226   6.727   3.638
 7504SOL    HW123411   4.148   6.736   3.576
 7504SOL    HW223412   4.265   6.818   3.655
 7505SOL     OW23413   3.093   0.830   5.113
 7505SOL    HW123414   3.141   0.905   5.158
 7505SOL    HW223415   2.998   0.856   5.097
 7506SOL     OW23416   3.937   1.073   2.707
 7506SOL    HW123417   3.906   1.047   2.798
 7506SOL    HW223418   3.880   1.147   2.672
 7507SOL     OW23419   0.073   6.508   0.119
 7507SOL    HW123420   7.009   6.487   0.157
 7507SOL    HW223421   0.078   6.604   0.093
 7508SOL     OW23422   5.796   6.539   2.555
 7508SOL    HW123423   5.725   6.579   2.613
 7508SOL    HW223424   5.809   6.443   2.580
 7509SOL     OW23425   4.694   4.809   0.624
 7509SOL    HW123426   4.681   4.711   0.612
 7509SOL    HW223427   4.779   4.837   0.579
 7510SOL     OW23428   3.034   3.812   5.273
 7510SOL    HW123429   2.952   3.865   5.253
 7510SOL    HW223430   3.113   3.854   5.228
 7511SOL     OW23431   1.412   0.511   2.353
 7511SOL    HW123432   1.387   0.520   2.450
 7511SOL    HW223433   1.457   0.595   2.323
 7512SOL     OW23434   2.765   4.233   1.189
 7512SOL    HW123435   2.849   4.274   1.226
 7512SOL    HW223436   2.788   4.176   1.110
 7513SOL     OW23437   1.604   2.735   0.112
 7513SOL    HW123438   1.663   2.801   0.159
 7513SOL    HW223439   1.595   2.760   0.016
 7514SOL     OW23440   2.553   6.085   2.042
 7514SOL    HW123441   2.636   6.138   2.024
 7514SOL    HW223442   2.489   6.097   1.966
 7515SOL     OW23443   0.782   0.095   2.857
 7515SOL    HW123444   0.761   7.024   2.870
 7515SOL    HW223445   0.698   0.148   2.861
 7516SOL     OW23446   6.865   5.951   4.290
 7516SOL    HW123447   6.820   6.006   4.220
 7516SOL    HW223448   6.964   5.953   4.276
 7517SOL     OW23449   6.580   3.562   1.030
 7517SOL    HW123450   6.626   3.592   1.114
 7517SOL    HW223451   6.519   3.486   1.051
 7518SOL     OW23452   3.606   5.658   3.730
 7518SOL    HW123453   3.550   5.738   3.711
 7518SOL    HW223454   3.568   5.579   3.683
 7519SOL     OW23455   0.470   6.094   4.093
 7519SOL    HW123456   0.502   6.117   4.001
 7519SOL    HW223457   0.539   6.120   4.160
 7520SOL     OW23458   2.282   0.145   2.211
 7520SOL    HW123459   2.231   0.113   2.131
 7520SOL    HW223460   2.230   0.216   2.258
 7521SOL     OW23461   4.360   4.563   5.463
 7521SOL    HW123462   4.336   4.660   5.463
 7521SOL    HW223463   4.297   4.512   5.520
 7522SOL     OW23464   2.537   0.864   6.483
 7522SOL    HW123465   2.558   0.862   6.386
 7522SOL    HW223466   2.472   0.937   6.502
 7523SOL     OW23467   6.129   1.309   5.592
 7523SOL    HW123468   6.218   1.276   5.562
 7523SOL    HW223469   6.060   1.289   5.522
 7524SOL     OW23470   0.258   2.622   6.069
 7524SOL    HW123471   0.198   2.594   6.143
 7524SOL    HW223472   0.203   2.664   5.996
 7525SOL     OW23473   2.282   0.287   6.057
 7525SOL    HW123474   2.358   0.247   6.108
 7525SOL    HW223475   2.316   0.330   5.973
 7526SOL     OW23476   3.454   2.986   3.449
 7526SOL    HW123477   3.547   3.021   3.444
 7526SOL    HW223478   3.440   2.938   3.536
 7527SOL     OW23479   4.484   4.651   2.707
 7527SOL    HW123480   4.421   4.649   2.630
 7527SOL    HW223481   4.515   4.558   2.728
 7528SOL     OW23482   4.781   2.545   0.300
 7528SOL    HW123483   4.767   2.460   0.250
 7528SOL    HW223484   4.878   2.557   0.320
 7529SOL     OW23485   5.601   1.363   4.105
 7529SOL    HW123486   5.632   1.403   4.019
 7529SOL    HW223487   5.509   1.397   4.127
 7530SOL     OW23488   0.024   3.238   2.132
 7530SOL    HW123489   0.034   3.224   2.034
 7530SOL    HW223490   6.963   3.200   2.163
 7531SOL     OW23491   4.378   2.229   4.357
 7531SOL    HW123492   4.396   2.180   4.272
 7531SOL    HW223493   4.407   2.325   4.348
 7532SOL     OW23494   5.316   5.714   1.771
 7532SOL    HW123495   5.250   5.790   1.773
 7532SOL    HW223496   5.320   5.671   1.861
 7533SOL     OW23497   1.942   0.935   2.840
 7533SOL    HW123498   1.928   0.936   2.939
 7533SOL    HW223499   2.027   0.982   2.817
 7534SOL     OW23500   3.717   6.244   5.078
 7534SOL    HW123501   3.656   6.266   5.002
 7534SOL    HW223502   3.811   6.234   5.044
 7535SOL     OW23503   2.657   1.031   5.805
 7535SOL    HW123504   2.720   1.107   5.791
 7535SOL    HW223505   2.564   1.066   5.815
 7536SOL     OW23506   5.490   4.733   5.255
 7536SOL    HW123507   5.446   4.695   5.173
 7536SOL    HW223508   5.512   4.829   5.240
 7537SOL     OW23509   1.864   4.158   5.521
 7537SOL    HW123510   1.916   4.243   5.518
 7537SOL    HW223511   1.779   4.168   5.469
 7538SOL     OW23512   3.273   3.273   2.885
 7538SOL    HW123513   3.231   3.187   2.917
 7538SOL    HW223514   3.261   3.343   2.956
 7539SOL     OW23515   2.459   2.338   5.110
 7539SOL    HW123516   2.554   2.307   5.112
 7539SOL    HW223517   2.405   2.283   5.174
 7540SOL     OW23518   3.240   0.939   6.146
 7540SOL    HW123519   3.244   0.852   6.195
 7540SOL    HW223520   3.177   0.931   6.069
 7541SOL     OW23521   6.954   4.061   5.113
 7541SOL    HW123522   7.010   4.010   5.179
 7541SOL    HW223523   6.859   4.061   5.142
 7542SOL     OW23524   0.595   6.689   6.506
 7542SOL    HW123525   0.641   6.627   6.570
 7542SOL    HW223526   0.523   6.640   6.458
 7543SOL     OW23527   4.314   1.952   0.536
 7543SOL    HW123528   4.371   2.031   0.558
 7543SOL    HW223529   4.229   1.957   0.588
 7544SOL     OW23530   0.189   1.784   3.202
 7544SOL    HW123531   0.135   1.820   3.126
 7544SOL    HW223532   0.133   1.780   3.285
 7545SOL     OW23533   4.700   6.725   3.248
 7545SOL    HW123534   4.794   6.756   3.263
 7545SOL    HW223535   4.657   6.781   3.176
 7546SOL     OW23536   4.531   0.499   0.681
 7546SOL    HW123537   4.539   0.567   0.608
 7546SOL    HW223538   4.498   0.413   0.643
 7547SOL     OW23539   3.971   6.464   0.724
 7547SOL    HW123540   4.067   6.483   0.744
 7547SOL    HW223541   3.914   6.517   0.787
 7548SOL     OW23542   2.520   1.795   0.424
 7548SOL    HW123543   2.569   1.720   0.378
 7548SOL    HW223544   2.422   1.787   0.405
 7549SOL     OW23545   5.306   1.875   2.045
 7549SOL    HW123546   5.258   1.808   2.101
 7549SOL    HW223547   5.246   1.907   1.971
 7550SOL     OW23548   2.650   5.373   2.780
 7550SOL    HW123549   2.746   5.377   2.752
 7550SOL    HW223550   2.593   5.410   2.707
 7551SOL     OW23551   4.750   3.971   6.349
 7551SOL    HW123552   4.710   4.047   6.401
 7551SOL    HW223553   4.779   3.899   6.413
 7552SOL     OW23554   2.434   5.479   3.760
 7552SOL    HW123555   2.522   5.443   3.730
 7552SOL    HW223556   2.375   5.404   3.789
 7553SOL     OW23557   3.780   4.883   6.053
 7553SOL    HW123558   3.854   4.827   6.017
 7553SOL    HW223559   3.727   4.829   6.119
 7554SOL     OW23560   5.319   1.409   0.802
 7554SOL    HW123561   5.418   1.422   0.805
 7554SOL    HW223562   5.298   1.311   0.809
 7555SOL     OW23563   1.588   5.572   4.756
 7555SOL    HW123564   1.586   5.669   4.733
 7555SOL    HW223565   1.652   5.557   4.831
 7556SOL     OW23566   0.005   2.125   5.619
 7556SOL    HW123567   6.979   2.180   5.685
 7556SOL    HW223568   0.062   2.059   5.667
 7557SOL     OW23569   5.177   3.882   5.708
 7557SOL    HW123570   5.137   3.949   5.772
 7557SOL    HW223571   5.104   3.835   5.659
 7558SOL     OW23572   2.302   2.694   4.107
 7558SOL    HW123573   2.292   2.779   4.159
 7558SOL    HW223574   2.212   2.665   4.074
 7559SOL     OW23575   6.539   5.519   1.125
 7559SOL    HW123576   6.597   5.525   1.044
 7559SOL    HW223577   6.596   5.501   1.206
 7560SOL     OW23578   5.146   6.878   6.950
 7560SOL    HW123579   5.159   6.787   6.990
 7560SOL    HW223580   5.233   6.927   6.952
 7561SOL     OW23581   0.974   3.255   0.230
 7561SOL    HW123582   0.960   3.267   0.132
 7561SOL    HW223583   0.892   3.214   0.271
 7562SOL     OW23584   4.839   5.876   4.473
 7562SOL    HW123585   4.797   5.880   4.382
 7562SOL    HW223586   4.848   5.969   4.510
 7563SOL     OW23587   2.995   6.904   0.826
 7563SOL    HW123588   3.032   6.980   0.772
 7563SOL    HW223589   2.900   6.889   0.800
 7564SOL     OW23590   5.048   1.032   3.438
 7564SOL    HW123591   5.042   1.019   3.339
 7564SOL    HW223592   5.091   0.952   3.479
 7565SOL     OW23593   5.103   4.485   6.484
 7565SOL    HW123594   5.200   4.502   6.501
 7565SOL    HW223595   5.050   4.567   6.506
 7566SOL     OW23596   1.171   4.814   3.733
 7566SOL    HW123597   1.094   4.846   3.678
 7566SOL    HW223598   1.174   4.866   3.819
 7567SOL     OW23599   1.533   3.018   5.631
 7567SOL    HW123600   1.458   3.065   5.676
 7567SOL    HW223601   1.503   2.986   5.541
 7568SOL     OW23602   6.211   5.515   4.219
 7568SOL    HW123603   6.132   5.571   4.196
 7568SOL    HW223604   6.197   5.474   4.310
 7569SOL     OW23605   4.617   5.809   6.195
 7569SOL    HW123606   4.540   5.848   6.245
 7569SOL    HW223607   4.640   5.868   6.118
 7570SOL     OW23608   5.683   5.156   5.510
 7570SOL    HW123609   5.634   5.239   5.486
 7570SOL    HW223610   5.620   5.091   5.552
 7571SOL     OW23611   5.008   4.359   1.615
 7571SOL    HW123612   4.945   4.370   1.692
 7571SOL    HW223613   4.960   4.381   1.530
 7572SOL     OW23614   5.094   0.550   3.603
 7572SOL    HW123615   5.104   0.581   3.698
 7572SOL    HW223616   5.184   0.528   3.565
 7573SOL     OW23617   5.719   5.496   4.350
 7573SOL    HW123618   5.688   5.576   4.403
 7573SOL    HW223619   5.670   5.491   4.264
 7574SOL     OW23620   6.451   1.520   4.504
 7574SOL    HW123621   6.474   1.617   4.498
 7574SOL    HW223622   6.358   1.509   4.537
 7575SOL     OW23623   4.494   0.782   5.992
 7575SOL    HW123624   4.442   0.822   5.916
 7575SOL    HW223625   4.590   0.808   5.983
 7576SOL     OW23626   6.070   5.515   0.087
 7576SOL    HW123627   6.164   5.518   0.119
 7576SOL    HW223628   6.047   5.421   0.059
 7577SOL     OW23629   6.826   0.122   4.803
 7577SOL    HW123630   6.796   0.218   4.803
 7577SOL    HW223631   6.914   0.115   4.848
 7578SOL     OW23632   1.657   6.663   4.002
 7578SOL    HW123633   1.752   6.633   3.996
 7578SOL    HW223634   1.640   6.736   3.936
 7579SOL     OW23635   4.144   2.102   2.407
 7579SOL    HW123636   4.216   2.058   2.354
 7579SOL    HW223637   4.058   2.098   2.357
 7580SOL     OW23638   1.300   3.671   3.902
 7580SOL    HW123639   1.365   3.673   3.978
 7580SOL    HW223640   1.342   3.627   3.823
 7581SOL     OW23641   4.492   0.959   0.582
 7581SOL    HW123642   4.491   0.982   0.485
 7581SOL    HW223643   4.413   0.901   0.603
 7582SOL     OW23644   3.691   1.481   0.408
 7582SOL    HW123645   3.685   1.577   0.434
 7582SOL    HW223646   3.735   1.472   0.319
 7583SOL     OW23647   6.017   3.777   1.955
 7583SOL    HW123648   5.960   3.835   1.897
 7583SOL    HW223649   6.063   3.708   1.899
 7584SOL     OW23650   2.743   0.049   1.235
 7584SOL    HW123651   2.784   6.985   1.247
 7584SOL    HW223652   2.664   0.042   1.174
 7585SOL     OW23653   1.541   3.325   6.022
 7585SOL    HW123654   1.555   3.228   6.042
 7585SOL    HW223655   1.595   3.350   5.941
 7586SOL     OW23656   3.066   0.859   3.107
 7586SOL    HW123657   2.990   0.801   3.080
 7586SOL    HW223658   3.032   0.931   3.168
 7587SOL     OW23659   2.951   1.313   6.942
 7587SOL    HW123660   2.972   1.321   6.844
 7587SOL    HW223661   2.987   1.392   6.990
 7588SOL     OW23662   0.497   3.649   1.763
 7588SOL    HW123663   0.445   3.678   1.683
 7588SOL    HW223664   0.494   3.549   1.770
 7589SOL     OW23665   6.177   6.429   0.426
 7589SOL    HW123666   6.268   6.408   0.460
 7589SOL    HW223667   6.158   6.526   0.436
 7590SOL     OW23668   3.080   1.585   6.268
 7590SOL    HW123669   3.033   1.498   6.253
 7590SOL    HW223670   3.015   1.660   6.260
 7591SOL     OW23671   0.330   5.315   0.749
 7591SOL    HW123672   0.383   5.311   0.833
 7591SOL    HW223673   0.391   5.304   0.670
 7592SOL     OW23674   0.131   4.419   6.712
 7592SOL    HW123675   0.117   4.338   6.656
 7592SOL    HW223676   0.157   4.496   6.653
 7593SOL     OW23677   6.173   2.601   6.533
 7593SOL    HW123678   6.098   2.625   6.596
 7593SOL    HW223679   6.140   2.536   6.465
 7594SOL     OW23680   0.332   4.403   2.185
 7594SOL    HW123681   0.322   4.447   2.274
 7594SOL    HW223682   0.249   4.416   2.131
 7595SOL     OW23683   0.415   2.839   6.422
 7595SOL    HW123684   0.421   2.741   6.401
 7595SOL    HW223685   0.327   2.859   6.464
 7596SOL     OW23686   4.871   5.494   2.420
 7596SOL    HW123687   4.938   5.425   2.447
 7596SOL    HW223688   4.909   5.585   2.438
 7597SOL     OW23689   3.011   5.785   1.527
 7597SOL    HW123690   3.105   5.766   1.499
 7597SOL    HW223691   3.008   5.801   1.626
 7598SOL     OW23692   6.044   0.703   2.969
 7598SOL    HW123693   6.076   0.778   3.026
 7598SOL    HW223694   5.971   0.735   2.908
 7599SOL     OW23695   5.183   1.095   3.721
 7599SOL    HW123696   5.150   1.088   3.626
 7599SOL    HW223697   5.106   1.079   3.783
 7600SOL     OW23698   1.906   0.787   2.501
 7600SOL    HW123699   1.952   0.737   2.575
 7600SOL    HW223700   1.814   0.815   2.531
 7601SOL     OW23701   2.011   5.648   3.037
 7601SOL    HW123702   1.916   5.643   3.006
 7601SOL    HW223703   2.063   5.573   2.997
 7602SOL     OW23704   1.465   3.663   5.363
 7602SOL    HW123705   1.387   3.627   5.311
 7602SOL    HW223706   1.452   3.760   5.380
 7603SOL     OW23707   1.440   6.001   6.377
 7603SOL    HW123708   1.503   6.056   6.322
 7603SOL    HW223709   1.347   6.037   6.368
 7604SOL     OW23710   2.839   5.599   4.193
 7604SOL    HW123711   2.877   5.508   4.210
 7604SOL    HW223712   2.740   5.591   4.180
 7605SOL     OW23713   1.727   6.287   0.440
 7605SOL    HW123714   1.765   6.337   0.363
 7605SOL    HW223715   1.770   6.197   0.446
 7606SOL     OW23716   0.156   2.333   2.293
 7606SOL    HW123717   0.128   2.255   2.348
 7606SOL    HW223718   0.250   2.321   2.263
 7607SOL     OW23719   4.419   6.673   0.674
 7607SOL    HW123720   4.344   6.615   0.642
 7607SOL    HW223721   4.401   6.768   0.649
 7608SOL     OW23722   3.349   3.978   3.121
 7608SOL    HW123723   3.344   4.076   3.104
 7608SOL    HW223724   3.342   3.961   3.220
 7609SOL     OW23725   6.579   3.682   3.112
 7609SOL    HW123726   6.568   3.613   3.041
 7609SOL    HW223727   6.673   3.681   3.146
 7610SOL     OW23728   5.713   0.772   0.095
 7610SOL    HW123729   5.736   0.709   0.021
 7610SOL    HW223730   5.752   0.862   0.076
 7611SOL     OW23731   0.700   1.784   0.049
 7611SOL    HW123732   0.762   1.824   0.116
 7611SOL    HW223733   0.661   1.700   0.085
 7612SOL     OW23734   3.802   2.122   4.244
 7612SOL    HW123735   3.803   2.147   4.341
 7612SOL    HW223736   3.886   2.072   4.222
 7613SOL     OW23737   4.729   1.825   2.090
 7613SOL    HW123738   4.785   1.835   2.007
 7613SOL    HW223739   4.735   1.731   2.123
 7614SOL     OW23740   4.556   2.803   1.507
 7614SOL    HW123741   4.489   2.805   1.581
 7614SOL    HW223742   4.641   2.846   1.538
 7615SOL     OW23743   5.271   4.631   6.135
 7615SOL    HW123744   5.200   4.699   6.156
 7615SOL    HW223745   5.291   4.634   6.037
 7616SOL     OW23746   0.466   4.448   4.144
 7616SOL    HW123747   0.432   4.440   4.050
 7616SOL    HW223748   0.565   4.462   4.142
 7617SOL     OW23749   2.996   5.848   2.442
 7617SOL    HW123750   3.035   5.756   2.436
 7617SOL    HW223751   2.954   5.861   2.532
 7618SOL     OW23752   1.156   1.901   6.957
 7618SOL    HW123753   1.242   1.872   6.999
 7618SOL    HW223754   1.175   1.953   6.874
 7619SOL     OW23755   5.875   3.128   4.892
 7619SOL    HW123756   5.826   3.056   4.941
 7619SOL    HW223757   5.851   3.124   4.795
 7620SOL     OW23758   3.840   5.784   0.101
 7620SOL    HW123759   3.828   5.804   0.199
 7620SOL    HW223760   3.937   5.783   0.079
 7621SOL     OW23761   0.612   1.701   0.481
 7621SOL    HW123762   0.556   1.781   0.459
 7621SOL    HW223763   0.655   1.714   0.571
 7622SOL     OW23764   5.210   3.841   1.696
 7622SOL    HW123765   5.136   3.838   1.763
 7622SOL    HW223766   5.194   3.915   1.631
 7623SOL     OW23767   4.744   4.844   6.230
 7623SOL    HW123768   4.681   4.825   6.305
 7623SOL    HW223769   4.794   4.761   6.207
 7624SOL     OW23770   0.343   2.762   4.548
 7624SOL    HW123771   0.394   2.683   4.582
 7624SOL    HW223772   0.315   2.746   4.454
 7625SOL     OW23773   4.661   0.197   1.128
 7625SOL    HW123774   4.648   0.277   1.070
 7625SOL    HW223775   4.660   0.225   1.224
 7626SOL     OW23776   6.884   6.765   5.359
 7626SOL    HW123777   6.841   6.698   5.420
 7626SOL    HW223778   6.943   6.826   5.411
 7627SOL     OW23779   6.034   3.511   6.890
 7627SOL    HW123780   6.098   3.437   6.909
 7627SOL    HW223781   6.074   3.598   6.920
 7628SOL     OW23782   3.202   0.436   1.057
 7628SOL    HW123783   3.185   0.399   1.149
 7628SOL    HW223784   3.298   0.425   1.034
 7629SOL     OW23785   6.493   6.689   2.744
 7629SOL    HW123786   6.413   6.687   2.804
 7629SOL    HW223787   6.514   6.784   2.720
 7630SOL     OW23788   5.980   6.137   2.062
 7630SOL    HW123789   6.046   6.114   2.133
 7630SOL    HW223790   5.904   6.189   2.103
 7631SOL     OW23791   0.702   1.942   5.405
 7631SOL    HW123792   0.781   1.892   5.442
 7631SOL    HW223793   0.730   2.035   5.380
 7632SOL     OW23794   3.663   2.148   1.660
 7632SOL    HW123795   3.582   2.096   1.633
 7632SOL    HW223796   3.645   2.195   1.746
 7633SOL     OW23797   5.092   2.987   0.146
 7633SOL    HW123798   5.128   3.065   0.196
 7633SOL    HW223799   5.061   2.917   0.210
 7634SOL     OW23800   1.171   1.384   1.833
 7634SOL    HW123801   1.137   1.470   1.795
 7634SOL    HW223802   1.258   1.361   1.790
 7635SOL     OW23803   2.429   4.820   5.345
 7635SOL    HW123804   2.451   4.903   5.395
 7635SOL    HW223805   2.451   4.740   5.401
 7636SOL     OW23806   0.913   1.352   3.079
 7636SOL    HW123807   0.896   1.451   3.076
 7636SOL    HW223808   0.836   1.306   3.124
 7637SOL     OW23809   1.792   6.325   2.480
 7637SOL    HW123810   1.823   6.263   2.552
 7637SOL    HW223811   1.872   6.370   2.439
 7638SOL     OW23812   4.825   5.907   2.448
 7638SOL    HW123813   4.779   5.847   2.513
 7638SOL    HW223814   4.780   5.996   2.447
 7639SOL     OW23815   1.353   2.217   0.643
 7639SOL    HW123816   1.409   2.267   0.709
 7639SOL    HW223817   1.256   2.230   0.664
 7640SOL     OW23818   2.697   2.349   0.381
 7640SOL    HW123819   2.684   2.442   0.349
 7640SOL    HW223820   2.721   2.290   0.304
 7641SOL     OW23821   0.447   4.266   1.478
 7641SOL    HW123822   0.465   4.274   1.576
 7641SOL    HW223823   0.368   4.207   1.463
 7642SOL     OW23824   2.632   1.572   3.177
 7642SOL    HW123825   2.574   1.494   3.200
 7642SOL    HW223826   2.716   1.540   3.135
 7643SOL     OW23827   4.536   1.667   3.911
 7643SOL    HW123828   4.493   1.697   3.997
 7643SOL    HW223829   4.530   1.741   3.844
 7644SOL     OW23830   6.449   1.860   2.810
 7644SOL    HW123831   6.508   1.939   2.827
 7644SOL    HW223832   6.397   1.876   2.726
 7645SOL     OW23833   4.548   4.517   6.124
 7645SOL    HW123834   4.484   4.443   6.146
 7645SOL    HW223835   4.590   4.551   6.208
 7646SOL     OW23836   1.977   2.851   2.309
 7646SOL    HW123837   2.018   2.802   2.386
 7646SOL    HW223838   2.028   2.935   2.291
 7647SOL     OW23839   1.412   2.905   1.234
 7647SOL    HW123840   1.385   2.811   1.215
 7647SOL    HW223841   1.417   2.957   1.148
 7648SOL     OW23842   3.987   2.078   3.745
 7648SOL    HW123843   3.942   2.140   3.809
 7648SOL    HW223844   4.081   2.061   3.775
 7649SOL     OW23845   1.721   0.845   2.679
 7649SOL    HW123846   1.661   0.924   2.668
 7649SOL    HW223847   1.796   0.869   2.740
 7650SOL     OW23848   5.541   3.389   0.970
 7650SOL    HW123849   5.587   3.398   0.882
 7650SOL    HW223850   5.449   3.428   0.965
 7651SOL     OW23851   2.813   0.132   4.943
 7651SOL    HW123852   2.786   0.052   4.889
 7651SOL    HW223853   2.896   0.171   4.905
 7652SOL     OW23854   0.436   4.036   4.224
 7652SOL    HW123855   0.506   4.095   4.264
 7652SOL    HW223856   0.345   4.071   4.247
 7653SOL     OW23857   2.520   1.568   0.789
 7653SOL    HW123858   2.491   1.530   0.877
 7653SOL    HW223859   2.550   1.663   0.802
 7654SOL     OW23860   4.765   2.908   3.244
 7654SOL    HW123861   4.852   2.861   3.258
 7654SOL    HW223862   4.749   2.973   3.319
 7655SOL     OW23863   4.020   0.495   3.854
 7655SOL    HW123864   4.047   0.581   3.896
 7655SOL    HW223865   3.924   0.501   3.825
 7656SOL     OW23866   1.547   5.757   5.757
 7656SOL    HW123867   1.639   5.719   5.752
 7656SOL    HW223868   1.482   5.687   5.787
 7657SOL     OW23869   2.672   2.350   2.951
 7657SOL    HW123870   2.716   2.284   3.011
 7657SOL    HW223871   2.638   2.427   3.005
 7658SOL     OW23872   4.479   6.519   5.846
 7658SOL    HW123873   4.503   6.483   5.756
 7658SOL    HW223874   4.556   6.509   5.908
 7659SOL     OW23875   5.664   5.977   6.801
 7659SOL    HW123876   5.584   5.945   6.852
 7659SOL    HW223877   5.669   6.077   6.806
 7660SOL     OW23878   6.362   5.335   4.082
 7660SOL    HW123879   6.432   5.365   4.017
 7660SOL    HW223880   6.337   5.410   4.142
 7661SOL     OW23881   6.061   1.673   4.551
 7661SOL    HW123882   6.006   1.752   4.525
 7661SOL    HW223883   6.145   1.672   4.497
 7662SOL     OW23884   1.064   1.995   2.247
 7662SOL    HW123885   1.100   1.920   2.304
 7662SOL    HW223886   1.048   1.962   2.154
 7663SOL     OW23887   6.070   6.671   6.094
 7663SOL    HW123888   6.123   6.643   6.174
 7663SOL    HW223889   6.028   6.760   6.111
 7664SOL     OW23890   3.453   0.642   2.502
 7664SOL    HW123891   3.534   0.610   2.452
 7664SOL    HW223892   3.481   0.705   2.574
 7665SOL     OW23893   4.225   0.647   3.647
 7665SOL    HW123894   4.271   0.565   3.680
 7665SOL    HW223895   4.240   0.721   3.713
 7666SOL     OW23896   0.028   0.019   1.343
 7666SOL    HW123897   6.959   0.030   1.372
 7666SOL    HW223898   0.088   0.070   1.405
 7667SOL     OW23899   5.015   5.832   1.462
 7667SOL    HW123900   4.955   5.903   1.499
 7667SOL    HW223901   4.979   5.801   1.374
 7668SOL     OW23902   2.688   4.402   0.852
 7668SOL    HW123903   2.610   4.465   0.846
 7668SOL    HW223904   2.744   4.428   0.931
 7669SOL     OW23905   5.451   1.906   5.025
 7669SOL    HW123906   5.455   1.966   5.105
 7669SOL    HW223907   5.540   1.864   5.010
 7670SOL     OW23908   1.660   6.015   6.146
 7670SOL    HW123909   1.577   5.971   6.113
 7670SOL    HW223910   1.730   6.012   6.075
 7671SOL     OW23911   4.432   1.139   5.130
 7671SOL    HW123912   4.414   1.173   5.038
 7671SOL    HW223913   4.420   1.213   5.196
 7672SOL     OW23914   5.614   6.315   3.709
 7672SOL    HW123915   5.671   6.391   3.737
 7672SOL    HW223916   5.522   6.348   3.687
 7673SOL     OW23917   2.108   5.262   0.020
 7673SOL    HW123918   2.169   5.228   0.092
 7673SOL    HW223919   2.039   5.193   7.025
 7674SOL     OW23920   6.721   2.460   4.029
 7674SOL    HW123921   6.699   2.551   3.993
 7674SOL    HW223922   6.646   2.427   4.085
 7675SOL     OW23923   5.079   0.735   2.721
 7675SOL    HW123924   5.149   0.764   2.786
 7675SOL    HW223925   4.995   0.711   2.771
 7676SOL     OW23926   1.253   1.964   0.568
 7676SOL    HW123927   1.303   2.043   0.603
 7676SOL    HW223928   1.296   1.880   0.601
 7677SOL     OW23929   0.897   3.999   1.596
 7677SOL    HW123930   0.855   3.932   1.535
 7677SOL    HW223931   0.930   3.953   1.679
 7678SOL     OW23932   1.799   1.282   5.644
 7678SOL    HW123933   1.702   1.288   5.619
 7678SOL    HW223934   1.837   1.198   5.606
 7679SOL     OW23935   1.650   6.563   5.084
 7679SOL    HW123936   1.716   6.639   5.081
 7679SOL    HW223937   1.571   6.592   5.137
 7680SOL     OW23938   1.902   2.565   6.878
 7680SOL    HW123939   1.847   2.488   6.911
 7680SOL    HW223940   1.988   2.531   6.841
 7681SOL     OW23941   2.700   6.984   0.314
 7681SOL    HW123942   2.616   6.970   0.261
 7681SOL    HW223943   2.681   6.969   0.411
 7682SOL     OW23944   2.702   0.255   2.180
 7682SOL    HW123945   2.740   0.340   2.216
 7682SOL    HW223946   2.659   0.204   2.254
 7683SOL     OW23947   6.860   2.147   4.307
 7683SOL    HW123948   6.768   2.124   4.274
 7683SOL    HW223949   6.883   2.088   4.384
 7684SOL     OW23950   5.636   2.231   0.330
 7684SOL    HW123951   5.726   2.261   0.362
 7684SOL    HW223952   5.578   2.211   0.409
 7685SOL     OW23953   3.357   3.375   0.053
 7685SOL    HW123954   3.350   3.331   0.143
 7685SOL    HW223955   3.276   3.351   7.024
 7686SOL     OW23956   4.880   0.528   3.457
 7686SOL    HW123957   4.885   0.460   3.383
 7686SOL    HW223958   4.967   0.529   3.506
 7687SOL     OW23959   6.025   5.611   5.329
 7687SOL    HW123960   5.962   5.537   5.307
 7687SOL    HW223961   5.980   5.676   5.391
 7688SOL     OW23962   0.286   0.703   6.367
 7688SOL    HW123963   0.280   0.802   6.355
 7688SOL    HW223964   0.347   0.665   6.297
 7689SOL     OW23965   5.373   5.751   3.524
 7689SOL    HW123966   5.348   5.665   3.569
 7689SOL    HW223967   5.452   5.791   3.569
 7690SOL     OW23968   6.024   5.241   1.417
 7690SOL    HW123969   5.962   5.227   1.340
 7690SOL    HW223970   6.076   5.325   1.403
 7691SOL     OW23971   4.682   2.762   4.418
 7691SOL    HW123972   4.655   2.792   4.326
 7691SOL    HW223973   4.760   2.700   4.412
 7692SOL     OW23974   0.676   6.827   1.427
 7692SOL    HW123975   0.669   6.778   1.514
 7692SOL    HW223976   0.770   6.859   1.415
 7693SOL     OW23977   4.429   6.845   0.954
 7693SOL    HW123978   4.504   6.878   1.011
 7693SOL    HW223979   4.407   6.750   0.979
 7694SOL     OW23980   0.606   4.273   4.323
 7694SOL    HW123981   0.521   4.307   4.284
 7694SOL    HW223982   0.681   4.336   4.302
 7695SOL     OW23983   4.087   6.830   0.683
 7695SOL    HW123984   4.061   6.858   0.776
 7695SOL    HW223985   4.006   6.799   0.634
 7696SOL     OW23986   6.806   1.877   4.910
 7696SOL    HW123987   6.839   1.970   4.897
 7696SOL    HW223988   6.861   1.814   4.855
 7697SOL     OW23989   2.885   0.565   2.617
 7697SOL    HW123990   2.936   0.648   2.641
 7697SOL    HW223991   2.852   0.573   2.523
 7698SOL     OW23992   0.557   2.848   4.748
 7698SOL    HW123993   0.471   2.818   4.708
 7698SOL    HW223994   0.583   2.787   4.822
 7699SOL     OW23995   3.670   5.784   6.900
 7699SOL    HW123996   3.696   5.816   6.809
 7699SOL    HW223997   3.731   5.823   6.968
 7700SOL     OW23998   4.869   6.342   5.252
 7700SOL    HW123999   4.797   6.272   5.262
 7700SOL    HW224000   4.958   6.298   5.254
 7701SOL     OW24001   6.293   1.588   6.787
 7701SOL    HW124002   6.204   1.555   6.755
 7701SOL    HW224003   6.364   1.562   6.722
 7702SOL     OW24004   3.152   6.814   5.639
 7702SOL    HW124005   3.128   6.763   5.556
 7702SOL    HW224006   3.251   6.824   5.645
 7703SOL     OW24007   6.747   1.268   4.636
 7703SOL    HW124008   6.801   1.288   4.554
 7703SOL    HW224009   6.800   1.208   4.696
 7704SOL     OW24010   4.633   4.636   5.630
 7704SOL    HW124011   4.551   4.591   5.596
 7704SOL    HW224012   4.633   4.635   5.730
 7705SOL     OW24013   3.676   4.778   6.334
 7705SOL    HW124014   3.606   4.736   6.277
 7705SOL    HW224015   3.634   4.848   6.392
 7706SOL     OW24016   4.889   1.549   5.649
 7706SOL    HW124017   4.975   1.551   5.700
 7706SOL    HW224018   4.903   1.591   5.559
 7707SOL     OW24019   0.939   6.106   6.663
 7707SOL    HW124020   1.039   6.108   6.663
 7707SOL    HW224021   0.904   6.175   6.727
 7708SOL     OW24022   5.089   5.969   5.547
 7708SOL    HW124023   5.020   6.040   5.557
 7708SOL    HW224024   5.044   5.880   5.539
 7709SOL     OW24025   5.001   3.733   2.043
 7709SOL    HW124026   4.975   3.772   1.955
 7709SOL    HW224027   4.983   3.634   2.043
 7710SOL     OW24028   2.669   0.751   1.085
 7710SOL    HW124029   2.707   0.694   1.158
 7710SOL    HW224030   2.682   0.847   1.108
 7711SOL     OW24031   6.322   6.145   5.022
 7711SOL    HW124032   6.349   6.061   5.070
 7711SOL    HW224033   6.400   6.183   4.974
 7712SOL     OW24034   6.600   4.301   1.547
 7712SOL    HW124035   6.564   4.374   1.489
 7712SOL    HW224036   6.627   4.224   1.490
 7713SOL     OW24037   1.768   4.387   0.455
 7713SOL    HW124038   1.829   4.465   0.443
 7713SOL    HW224039   1.800   4.311   0.398
 7714SOL     OW24040   6.662   5.743   5.047
 7714SOL    HW124041   6.719   5.689   5.108
 7714SOL    HW224042   6.670   5.707   4.954
 7715SOL     OW24043   4.842   1.365   0.982
 7715SOL    HW124044   4.763   1.426   0.988
 7715SOL    HW224045   4.910   1.403   0.920
 7716SOL     OW24046   5.919   3.279   3.542
 7716SOL    HW124047   5.821   3.263   3.526
 7716SOL    HW224048   5.932   3.372   3.575
 7717SOL     OW24049   2.614   0.988   4.674
 7717SOL    HW124050   2.653   0.920   4.612
 7717SOL    HW224051   2.686   1.052   4.702
 7718SOL     OW24052   2.052   2.694   2.557
 7718SOL    HW124053   2.040   2.744   2.643
 7718SOL    HW224054   2.130   2.632   2.566
 7719SOL     OW24055   6.838   3.449   3.631
 7719SOL    HW124056   6.915   3.511   3.618
 7719SOL    HW224057   6.762   3.478   3.572
 7720SOL     OW24058   0.078   6.851   0.471
 7720SOL    HW124059   7.021   6.870   0.523
 7720SOL    HW224060   0.150   6.913   0.499
 7721SOL     OW24061   1.520   4.435   3.156
 7721SOL    HW124062   1.574   4.360   3.118
 7721SOL    HW224063   1.452   4.398   3.219
 7722SOL     OW24064   0.373   5.143   2.640
 7722SOL    HW124065   0.428   5.097   2.570
 7722SOL    HW224066   0.298   5.084   2.668
 7723SOL     OW24067   6.509   4.133   0.610
 7723SOL    HW124068   6.464   4.161   0.695
 7723SOL    HW224069   6.441   4.130   0.537
 7724SOL     OW24070   2.432   4.424   2.145
 7724SOL    HW124071   2.449   4.522   2.142
 7724SOL    HW224072   2.468   4.381   2.062
 7725SOL     OW24073   5.352   2.622   2.912
 7725SOL    HW124074   5.434   2.673   2.939
 7725SOL    HW224075   5.377   2.555   2.842
 7726SOL     OW24076   0.281   5.317   4.096
 7726SOL    HW124077   0.291   5.315   4.196
 7726SOL    HW224078   0.298   5.410   4.063
 7727SOL     OW24079   6.189   1.804   3.498
 7727SOL    HW124080   6.164   1.870   3.569
 7727SOL    HW224081   6.288   1.796   3.494
 7728SOL     OW24082   1.074   3.686   3.711
 7728SOL    HW124083   0.979   3.678   3.741
 7728SOL    HW224084   1.135   3.655   3.784
 7729SOL     OW24085   5.911   2.666   1.755
 7729SOL    HW124086   5.946   2.632   1.668
 7729SOL    HW224087   5.822   2.710   1.740
 7730SOL     OW24088   5.686   5.507   2.108
 7730SOL    HW124089   5.742   5.511   2.026
 7730SOL    HW224090   5.738   5.545   2.185
 7731SOL     OW24091   5.745   1.019   1.158
 7731SOL    HW124092   5.669   0.961   1.189
 7731SOL    HW224093   5.797   1.050   1.238
 7732SOL     OW24094   4.639   5.950   0.871
 7732SOL    HW124095   4.718   5.998   0.832
 7732SOL    HW224096   4.567   5.943   0.802
 7733SOL     OW24097   4.475   6.090   1.981
 7733SOL    HW124098   4.497   6.156   1.909
 7733SOL    HW224099   4.559   6.058   2.024
 7734SOL     OW24100   1.715   4.312   3.939
 7734SOL    HW124101   1.694   4.332   4.035
 7734SOL    HW224102   1.631   4.287   3.891
 7735SOL     OW24103   3.964   5.222   6.619
 7735SOL    HW124104   3.975   5.321   6.611
 7735SOL    HW224105   3.921   5.186   6.536
 7736SOL     OW24106   5.007   4.477   6.964
 7736SOL    HW124107   5.092   4.504   7.009
 7736SOL    HW224108   4.971   4.394   7.007
 7737SOL     OW24109   4.208   0.839   0.939
 7737SOL    HW124110   4.298   0.848   0.980
 7737SOL    HW224111   4.138   0.862   1.007
 7738SOL     OW24112   1.983   5.738   6.645
 7738SOL    HW124113   1.921   5.816   6.639
 7738SOL    HW224114   1.981   5.700   6.737
 7739SOL     OW24115   0.400   0.988   2.026
 7739SOL    HW124116   0.467   1.010   2.097
 7739SOL    HW224117   0.445   0.937   1.952
 7740SOL     OW24118   0.870   0.361   2.874
 7740SOL    HW124119   0.810   0.352   2.795
 7740SOL    HW224120   0.878   0.272   2.920
 7741SOL     OW24121   1.440   6.005   4.492
 7741SOL    HW124122   1.496   6.021   4.410
 7741SOL    HW224123   1.421   5.907   4.500
 7742SOL     OW24124   6.522   2.038   3.415
 7742SOL    HW124125   6.449   2.063   3.479
 7742SOL    HW224126   6.605   2.016   3.466
 7743SOL     OW24127   4.686   2.493   6.461
 7743SOL    HW124128   4.686   2.518   6.364
 7743SOL    HW224129   4.759   2.428   6.479
 7744SOL     OW24130   0.406   5.741   4.413
 7744SOL    HW124131   0.334   5.805   4.439
 7744SOL    HW224132   0.493   5.790   4.406
 7745SOL     OW24133   3.416   2.114   5.456
 7745SOL    HW124134   3.425   2.212   5.441
 7745SOL    HW224135   3.348   2.097   5.527
 7746SOL     OW24136   2.648   0.047   6.638
 7746SOL    HW124137   2.584   0.076   6.566
 7746SOL    HW224138   2.736   0.025   6.597
 7747SOL     OW24139   4.125   5.904   1.207
 7747SOL    HW124140   4.036   5.943   1.228
 7747SOL    HW224141   4.170   5.960   1.137
 7748SOL     OW24142   2.922   3.733   5.837
 7748SOL    HW124143   2.923   3.772   5.744
 7748SOL    HW224144   2.978   3.650   5.839
 7749SOL     OW24145   4.273   3.588   6.034
 7749SOL    HW124146   4.311   3.635   6.113
 7749SOL    HW224147   4.193   3.638   6.000
 7750SOL     OW24148   0.403   5.986   1.373
 7750SOL    HW124149   0.455   5.950   1.451
 7750SOL    HW224150   0.305   5.979   1.394
 7751SOL     OW24151   0.965   1.270   1.989
 7751SOL    HW124152   0.956   1.308   2.081
 7751SOL    HW224153   1.038   1.318   1.940
 7752SOL     OW24154   5.069   0.540   5.391
 7752SOL    HW124155   5.041   0.512   5.299
 7752SOL    HW224156   5.026   0.481   5.459
 7753SOL     OW24157   2.079   1.351   4.691
 7753SOL    HW124158   2.153   1.304   4.642
 7753SOL    HW224159   2.060   1.438   4.646
 7754SOL     OW24160   3.616   5.992   1.473
 7754SOL    HW124161   3.577   5.910   1.431
 7754SOL    HW224162   3.690   6.027   1.415
 7755SOL     OW24163   0.888   3.204   6.264
 7755SOL    HW124164   0.953   3.230   6.192
 7755SOL    HW224165   0.855   3.287   6.310
 7756SOL     OW24166   3.050   6.634   1.808
 7756SOL    HW124167   3.015   6.702   1.873
 7756SOL    HW224168   3.027   6.662   1.715
 7757SOL     OW24169   6.467   4.352   1.206
 7757SOL    HW124170   6.437   4.402   1.288
 7757SOL    HW224171   6.566   4.345   1.207
 7758SOL     OW24172   1.859   6.740   6.404
 7758SOL    HW124173   1.931   6.709   6.342
 7758SOL    HW224174   1.772   6.743   6.355
 7759SOL     OW24175   3.233   2.233   5.828
 7759SOL    HW124176   3.134   2.248   5.822
 7759SOL    HW224177   3.259   2.156   5.770
 7760SOL     OW24178   5.143   2.120   2.378
 7760SOL    HW124179   5.122   2.083   2.468
 7760SOL    HW224180   5.062   2.167   2.342
 7761SOL     OW24181   5.395   6.025   5.175
 7761SOL    HW124182   5.453   5.960   5.126
 7761SOL    HW224183   5.452   6.095   5.218
 7762SOL     OW24184   1.378   0.350   3.816
 7762SOL    HW124185   1.372   0.390   3.724
 7762SOL    HW224186   1.404   0.421   3.882
 7763SOL     OW24187   2.246   0.112   5.520
 7763SOL    HW124188   2.271   0.045   5.590
 7763SOL    HW224189   2.228   0.201   5.564
 7764SOL     OW24190   3.180   4.041   5.629
 7764SOL    HW124191   3.123   4.094   5.567
 7764SOL    HW224192   3.138   4.041   5.720
 7765SOL     OW24193   6.350   3.751   4.273
 7765SOL    HW124194   6.447   3.735   4.256
 7765SOL    HW224195   6.296   3.681   4.226
 7766SOL     OW24196   0.710   4.067   0.473
 7766SOL    HW124197   0.741   4.100   0.384
 7766SOL    HW224198   0.787   4.069   0.538
 7767SOL     OW24199   4.261   6.741   2.570
 7767SOL    HW124200   4.300   6.728   2.662
 7767SOL    HW224201   4.334   6.765   2.506
 7768SOL     OW24202   4.879   4.448   3.501
 7768SOL    HW124203   4.813   4.398   3.445
 7768SOL    HW224204   4.838   4.534   3.532
 7769SOL     OW24205   3.795   1.784   5.108
 7769SOL    HW124206   3.729   1.859   5.101
 7769SOL    HW224207   3.888   1.821   5.103
 7770SOL     OW24208   0.205   3.546   4.841
 7770SOL    HW124209   0.133   3.597   4.888
 7770SOL    HW224210   0.282   3.607   4.821
 7771SOL     OW24211   2.931   1.827   6.184
 7771SOL    HW124212   3.016   1.881   6.179
 7771SOL    HW224213   2.853   1.888   6.185
 7772SOL     OW24214   5.026   0.619   0.831
 7772SOL    HW124215   4.932   0.635   0.804
 7772SOL    HW224216   5.038   0.523   0.857
 7773SOL     OW24217   2.654   5.620   6.880
 7773SOL    HW124218   2.615   5.654   6.795
 7773SOL    HW224219   2.674   5.522   6.871
 7774SOL     OW24220   4.550   2.222   3.923
 7774SOL    HW124221   4.561   2.247   3.827
 7774SOL    HW224222   4.639   2.211   3.966
 7775SOL     OW24223   3.974   0.360   6.825
 7775SOL    HW124224   3.929   0.351   6.913
 7775SOL    HW224225   4.000   0.270   6.791
 7776SOL     OW24226   0.185   6.871   6.139
 7776SOL    HW124227   0.178   6.909   6.231
 7776SOL    HW224228   0.248   6.927   6.085
 7777SOL     OW24229   6.127   5.430   4.454
 7777SOL    HW124230   6.214   5.386   4.477
 7777SOL    HW224231   6.098   5.488   4.530
 7778SOL     OW24232   6.091   3.937   2.675
 7778SOL    HW124233   6.018   3.919   2.740
 7778SOL    HW224234   6.052   3.944   2.582
 7779SOL     OW24235   3.572   0.142   2.820
 7779SOL    HW124236   3.524   0.224   2.792
 7779SOL    HW224237   3.511   0.084   2.874
 7780SOL     OW24238   0.218   6.365   6.276
 7780SOL    HW124239   0.251   6.300   6.207
 7780SOL    HW224240   0.181   6.445   6.229
 7781SOL     OW24241   1.763   3.932   0.317
 7781SOL    HW124242   1.760   3.872   0.237
 7781SOL    HW224243   1.740   4.025   0.289
 7782SOL     OW24244   6.023   4.903   3.134
 7782SOL    HW124245   5.997   4.894   3.038
 7782SOL    HW224246   5.962   4.968   3.180
 7783SOL     OW24247   0.474   0.143   5.678
 7783SOL    HW124248   0.441   0.133   5.584
 7783SOL    HW224249   0.542   0.073   5.697
 7784SOL     OW24250   2.808   2.432   1.657
 7784SOL    HW124251   2.885   2.438   1.721
 7784SOL    HW224252   2.726   2.469   1.700
 7785SOL     OW24253   1.267   6.267   3.460
 7785SOL    HW124254   1.237   6.269   3.364
 7785SOL    HW224255   1.333   6.340   3.475
 7786SOL     OW24256   4.419   1.242   6.935
 7786SOL    HW124257   4.405   1.164   6.996
 7786SOL    HW224258   4.363   1.319   6.965
 7787SOL     OW24259   2.415   3.485   1.178
 7787SOL    HW124260   2.447   3.542   1.103
 7787SOL    HW224261   2.489   3.472   1.244
 7788SOL     OW24262   1.438   6.172   1.589
 7788SOL    HW124263   1.382   6.102   1.633
 7788SOL    HW224264   1.390   6.206   1.507
 7789SOL     OW24265   3.366   6.874   6.295
 7789SOL    HW124266   3.329   6.838   6.380
 7789SOL    HW224267   3.331   6.967   6.280
 7790SOL     OW24268   6.456   5.027   2.393
 7790SOL    HW124269   6.434   5.116   2.431
 7790SOL    HW224270   6.544   4.996   2.430
 7791SOL     OW24271   2.101   5.428   1.730
 7791SOL    HW124272   2.124   5.332   1.715
 7791SOL    HW224273   2.117   5.450   1.827
 7792SOL     OW24274   0.419   0.888   2.900
 7792SOL    HW124275   0.329   0.931   2.907
 7792SOL    HW224276   0.443   0.845   2.987
 7793SOL     OW24277   4.593   1.757   6.678
 7793SOL    HW124278   4.560   1.762   6.773
 7793SOL    HW224279   4.660   1.684   6.671
 7794SOL     OW24280   0.518   5.342   2.322
 7794SOL    HW124281   0.575   5.331   2.240
 7794SOL    HW224282   0.568   5.310   2.402
 7795SOL     OW24283   3.255   5.130   5.510
 7795SOL    HW124284   3.320   5.062   5.543
 7795SOL    HW224285   3.193   5.156   5.584
 7796SOL     OW24286   3.757   3.579   5.427
 7796SOL    HW124287   3.794   3.626   5.507
 7796SOL    HW224288   3.831   3.533   5.378
 7797SOL     OW24289   1.499   5.260   2.150
 7797SOL    HW124290   1.560   5.183   2.131
 7797SOL    HW224291   1.422   5.229   2.205
 7798SOL     OW24292   0.781   1.175   1.670
 7798SOL    HW124293   0.700   1.199   1.724
 7798SOL    HW224294   0.864   1.195   1.722
 7799SOL     OW24295   2.740   5.672   2.880
 7799SOL    HW124296   2.691   5.588   2.856
 7799SOL    HW224297   2.729   5.690   2.977
 7800SOL     OW24298   0.769   5.797   1.409
 7800SOL    HW124299   0.708   5.808   1.488
 7800SOL    HW224300   0.846   5.738   1.435
 7801SOL     OW24301   1.750   2.205   2.438
 7801SOL    HW124302   1.771   2.193   2.535
 7801SOL    HW224303   1.668   2.154   2.414
 7802SOL     OW24304   0.068   4.455   6.180
 7802SOL    HW124305   0.164   4.431   6.168
 7802SOL    HW224306   0.046   4.455   6.278
 7803SOL     OW24307   5.470   2.325   6.617
 7803SOL    HW124308   5.416   2.408   6.602
 7803SOL    HW224309   5.568   2.348   6.611
 7804SOL     OW24310   3.006   1.965   3.837
 7804SOL    HW124311   3.095   1.938   3.801
 7804SOL    HW224312   3.015   2.053   3.885
 7805SOL     OW24313   5.064   2.838   1.916
 7805SOL    HW124314   4.976   2.791   1.921
 7805SOL    HW224315   5.106   2.840   2.007
 7806SOL     OW24316   6.474   2.706   6.106
 7806SOL    HW124317   6.381   2.740   6.094
 7806SOL    HW224318   6.511   2.676   6.018
 7807SOL     OW24319   1.801   4.419   6.056
 7807SOL    HW124320   1.787   4.323   6.033
 7807SOL    HW224321   1.837   4.467   5.976
 7808SOL     OW24322   4.580   4.362   2.471
 7808SOL    HW124323   4.617   4.327   2.384
 7808SOL    HW224324   4.498   4.416   2.452
 7809SOL     OW24325   5.026   4.885   4.442
 7809SOL    HW124326   5.056   4.964   4.388
 7809SOL    HW224327   5.085   4.875   4.523
 7810SOL     OW24328   3.977   6.457   4.929
 7810SOL    HW124329   3.963   6.497   4.838
 7810SOL    HW224330   4.019   6.367   4.920
 7811SOL     OW24331   1.035   5.661   2.888
 7811SOL    HW124332   1.123   5.670   2.935
 7811SOL    HW224333   0.964   5.710   2.940
 7812SOL     OW24334   2.428   3.052   5.460
 7812SOL    HW124335   2.478   3.131   5.493
 7812SOL    HW224336   2.446   3.039   5.362
 7813SOL     OW24337   4.657   2.366   1.517
 7813SOL    HW124338   4.720   2.425   1.568
 7813SOL    HW224339   4.709   2.310   1.453
 7814SOL     OW24340   6.575   3.232   2.551
 7814SOL    HW124341   6.634   3.282   2.488
 7814SOL    HW224342   6.553   3.142   2.512
 7815SOL     OW24343   5.946   2.436   4.986
 7815SOL    HW124344   5.926   2.490   5.068
 7815SOL    HW224345   5.925   2.491   4.905
 7816SOL     OW24346   0.372   1.694   5.964
 7816SOL    HW124347   0.387   1.624   5.894
 7816SOL    HW224348   0.329   1.653   6.044
 7817SOL     OW24349   3.890   4.000   6.045
 7817SOL    HW124350   3.819   4.044   6.100
 7817SOL    HW224351   3.858   3.989   5.951
 7818SOL     OW24352   4.509   0.937   2.246
 7818SOL    HW124353   4.559   0.915   2.329
 7818SOL    HW224354   4.416   0.901   2.252
 7819SOL     OW24355   0.503   3.740   4.004
 7819SOL    HW124356   0.438   3.738   4.081
 7819SOL    HW224357   0.508   3.832   3.967
 7820SOL     OW24358   2.081   0.844   5.267
 7820SOL    HW124359   2.129   0.808   5.347
 7820SOL    HW224360   2.117   0.935   5.244
 7821SOL     OW24361   6.368   5.446   6.686
 7821SOL    HW124362   6.415   5.460   6.773
 7821SOL    HW224363   6.278   5.491   6.689
 7822SOL     OW24364   1.169   1.388   5.521
 7822SOL    HW124365   1.225   1.355   5.445
 7822SOL    HW224366   1.097   1.449   5.486
 7823SOL     OW24367   1.519   4.268   6.554
 7823SOL    HW124368   1.476   4.193   6.604
 7823SOL    HW224369   1.617   4.249   6.542
 7824SOL     OW24370   5.710   0.919   4.068
 7824SOL    HW124371   5.623   0.943   4.111
 7824SOL    HW224372   5.732   0.986   3.997
 7825SOL     OW24373   2.425   3.091   1.573
 7825SOL    HW124374   2.394   3.181   1.604
 7825SOL    HW224375   2.372   3.020   1.621
 7826SOL     OW24376   5.496   1.286   0.197
 7826SOL    HW124377   5.459   1.338   0.120
 7826SOL    HW224378   5.542   1.349   0.261
 7827SOL     OW24379   3.876   4.578   1.301
 7827SOL    HW124380   3.894   4.666   1.345
 7827SOL    HW224381   3.953   4.516   1.316
 7828SOL     OW24382   0.846   5.996   1.205
 7828SOL    HW124383   0.773   6.009   1.138
 7828SOL    HW224384   0.822   5.922   1.268
 7829SOL     OW24385   2.587   3.428   1.377
 7829SOL    HW124386   2.559   3.416   1.472
 7829SOL    HW224387   2.682   3.398   1.366
 7830SOL     OW24388   5.546   3.695   6.116
 7830SOL    HW124389   5.559   3.655   6.026
 7830SOL    HW224390   5.632   3.690   6.168
 7831SOL     OW24391   1.666   4.197   0.266
 7831SOL    HW124392   1.723   4.226   0.190
 7831SOL    HW224393   1.580   4.248   0.266
 7832SOL     OW24394   3.393   1.646   4.965
 7832SOL    HW124395   3.393   1.740   5.000
 7832SOL    HW224396   3.322   1.593   5.012
 7833SOL     OW24397   0.940   0.721   0.782
 7833SOL    HW124398   0.927   0.783   0.704
 7833SOL    HW224399   0.870   0.650   0.781
 7834SOL     OW24400   0.198   1.190   2.334
 7834SOL    HW124401   0.263   1.195   2.258
 7834SOL    HW224402   0.206   1.101   2.379
 7835SOL     OW24403   2.225   3.084   4.829
 7835SOL    HW124404   2.265   3.062   4.917
 7835SOL    HW224405   2.188   3.177   4.831
 7836SOL     OW24406   3.086   0.126   6.533
 7836SOL    HW124407   3.115   0.198   6.470
 7836SOL    HW224408   3.165   0.069   6.556
 7837SOL     OW24409   5.915   6.588   2.051
 7837SOL    HW124410   5.865   6.518   2.000
 7837SOL    HW224411   5.903   6.573   2.149
 7838SOL     OW24412   4.900   6.315   5.558
 7838SOL    HW124413   4.863   6.223   5.567
 7838SOL    HW224414   4.886   6.348   5.465
 7839SOL     OW24415   6.249   3.785   4.546
 7839SOL    HW124416   6.290   3.834   4.623
 7839SOL    HW224417   6.307   3.796   4.465
 7840SOL     OW24418   5.023   2.044   4.374
 7840SOL    HW124419   4.933   2.052   4.416
 7840SOL    HW224420   5.075   2.128   4.388
 7841SOL     OW24421   5.318   2.562   6.515
 7841SOL    HW124422   5.235   2.521   6.476
 7841SOL    HW224423   5.309   2.662   6.513
 7842SOL     OW24424   1.433   1.492   3.386
 7842SOL    HW124425   1.345   1.520   3.348
 7842SOL    HW224426   1.506   1.550   3.349
 7843SOL     OW24427   5.697   3.885   1.197
 7843SOL    HW124428   5.654   3.896   1.108
 7843SOL    HW224429   5.746   3.798   1.200
 7844SOL     OW24430   4.536   0.739   3.780
 7844SOL    HW124431   4.443   0.740   3.817
 7844SOL    HW224432   4.591   0.808   3.827
 7845SOL     OW24433   1.042   1.093   3.893
 7845SOL    HW124434   1.060   1.049   3.805
 7845SOL    HW224435   0.959   1.054   3.933
 7846SOL     OW24436   2.493   1.028   1.374
 7846SOL    HW124437   2.413   1.057   1.321
 7846SOL    HW224438   2.575   1.038   1.317
 7847SOL     OW24439   0.415   1.019   0.850
 7847SOL    HW124440   0.421   1.026   0.750
 7847SOL    HW224441   0.505   0.996   0.887
 7848SOL     OW24442   3.656   4.406   1.075
 7848SOL    HW124443   3.624   4.466   1.149
 7848SOL    HW224444   3.685   4.462   0.997
 7849SOL     OW24445   5.431   3.782   3.611
 7849SOL    HW124446   5.388   3.696   3.637
 7849SOL    HW224447   5.393   3.814   3.524
 7850SOL     OW24448   6.771   0.556   3.741
 7850SOL    HW124449   6.756   0.477   3.799
 7850SOL    HW224450   6.865   0.588   3.752
 7851SOL     OW24451   5.980   6.228   0.285
 7851SOL    HW124452   6.064   6.282   0.295
 7851SOL    HW224453   5.952   6.192   0.374
 7852SOL     OW24454   2.659   6.514   6.671
 7852SOL    HW124455   2.746   6.516   6.721
 7852SOL    HW224456   2.662   6.442   6.602
 7853SOL     OW24457   2.911   1.127   0.101
 7853SOL    HW124458   2.815   1.140   0.127
 7853SOL    HW224459   2.933   1.189   0.026
 7854SOL     OW24460   3.877   3.598   1.191
 7854SOL    HW124461   3.892   3.540   1.271
 7854SOL    HW224462   3.834   3.684   1.220
 7855SOL     OW24463   3.964   5.992   6.310
 7855SOL    HW124464   4.058   5.962   6.294
 7855SOL    HW224465   3.946   6.076   6.259
 7856SOL     OW24466   6.362   4.708   4.853
 7856SOL    HW124467   6.363   4.644   4.929
 7856SOL    HW224468   6.456   4.727   4.825
 7857SOL     OW24469   6.402   2.491   5.711
 7857SOL    HW124470   6.340   2.473   5.788
 7857SOL    HW224471   6.482   2.431   5.719
 7858SOL     OW24472   5.451   4.585   3.117
 7858SOL    HW124473   5.441   4.486   3.130
 7858SOL    HW224474   5.433   4.632   3.203
 7859SOL     OW24475   0.624   4.138   6.540
 7859SOL    HW124476   0.692   4.190   6.591
 7859SOL    HW224477   0.652   4.132   6.444
 7860SOL     OW24478   3.845   6.269   2.772
 7860SOL    HW124479   3.809   6.217   2.849
 7860SOL    HW224480   3.769   6.305   2.718
 7861SOL     OW24481   4.205   5.163   1.723
 7861SOL    HW124482   4.234   5.210   1.807
 7861SOL    HW224483   4.175   5.231   1.656
 7862SOL     OW24484   3.012   4.226   1.726
 7862SOL    HW124485   2.968   4.310   1.757
 7862SOL    HW224486   2.941   4.158   1.704
 7863SOL     OW24487   6.340   6.231   3.254
 7863SOL    HW124488   6.395   6.284   3.318
 7863SOL    HW224489   6.382   6.142   3.240
 7864SOL     OW24490   0.046   6.259   5.413
 7864SOL    HW124491   0.130   6.246   5.360
 7864SOL    HW224492   6.993   6.258   5.351
 7865SOL     OW24493   4.072   6.325   3.981
 7865SOL    HW124494   4.015   6.262   3.927
 7865SOL    HW224495   4.122   6.274   4.051
 7866SOL     OW24496   2.772   1.469   2.201
 7866SOL    HW124497   2.811   1.500   2.288
 7866SOL    HW224498   2.845   1.457   2.134
 7867SOL     OW24499   5.640   5.795   2.450
 7867SOL    HW124500   5.732   5.757   2.438
 7867SOL    HW224501   5.641   5.861   2.525
 7868SOL     OW24502   5.130   6.366   1.834
 7868SOL    HW124503   5.078   6.327   1.910
 7868SOL    HW224504   5.204   6.303   1.808
 7869SOL     OW24505   6.460   3.830   1.253
 7869SOL    HW124506   6.394   3.768   1.211
 7869SOL    HW224507   6.530   3.856   1.186
 7870SOL     OW24508   6.017   5.329   3.344
 7870SOL    HW124509   5.941   5.394   3.342
 7870SOL    HW224510   6.099   5.376   3.377
 7871SOL     OW24511   5.568   3.534   3.448
 7871SOL    HW124512   5.597   3.528   3.352
 7871SOL    HW224513   5.551   3.630   3.472
 7872SOL     OW24514   1.108   4.301   2.428
 7872SOL    HW124515   1.184   4.235   2.422
 7872SOL    HW224516   1.053   4.296   2.345
 7873SOL     OW24517   6.827   0.721   5.477
 7873SOL    HW124518   6.760   0.647   5.476
 7873SOL    HW224519   6.901   0.699   5.541
 7874SOL     OW24520   6.712   1.364   6.733
 7874SOL    HW124521   6.646   1.291   6.754
 7874SOL    HW224522   6.713   1.380   6.635
 7875SOL     OW24523   4.672   4.364   6.790
 7875SOL    HW124524   4.625   4.284   6.752
 7875SOL    HW224525   4.770   4.357   6.772
 7876SOL     OW24526   6.637   0.442   4.714
 7876SOL    HW124527   6.624   0.407   4.807
 7876SOL    HW224528   6.579   0.522   4.700
 7877SOL     OW24529   0.261   2.266   2.765
 7877SOL    HW124530   0.181   2.310   2.723
 7877SOL    HW224531   0.258   2.280   2.864
 7878SOL     OW24532   5.004   4.628   2.686
 7878SOL    HW124533   5.025   4.572   2.766
 7878SOL    HW224534   4.910   4.660   2.690
 7879SOL     OW24535   4.651   5.895   3.248
 7879SOL    HW124536   4.628   5.968   3.311
 7879SOL    HW224537   4.674   5.812   3.299
 7880SOL     OW24538   0.621   6.277   0.741
 7880SOL    HW124539   0.575   6.215   0.805
 7880SOL    HW224540   0.644   6.362   0.788
 7881SOL     OW24541   0.298   4.177   4.457
 7881SOL    HW124542   0.226   4.138   4.515
 7881SOL    HW224543   0.380   4.194   4.512
 7882SOL     OW24544   1.434   2.742   2.539
 7882SOL    HW124545   1.407   2.709   2.449
 7882SOL    HW224546   1.354   2.782   2.585
 7883SOL     OW24547   2.139   0.788   1.608
 7883SOL    HW124548   2.178   0.719   1.668
 7883SOL    HW224549   2.039   0.788   1.616
 7884SOL     OW24550   1.465   4.367   3.717
 7884SOL    HW124551   1.446   4.280   3.672
 7884SOL    HW224552   1.378   4.412   3.739
 7885SOL     OW24553   5.763   5.561   2.957
 7885SOL    HW124554   5.795   5.470   2.985
 7885SOL    HW224555   5.729   5.557   2.863
 7886SOL     OW24556   5.310   3.702   1.232
 7886SOL    HW124557   5.326   3.603   1.228
 7886SOL    HW224558   5.285   3.735   1.142
 7887SOL     OW24559   3.194   2.969   5.391
 7887SOL    HW124560   3.220   3.010   5.304
 7887SOL    HW224561   3.274   2.965   5.451
 7888SOL     OW24562   6.932   1.847   4.136
 7888SOL    HW124563   6.935   1.750   4.113
 7888SOL    HW224564   6.849   1.888   4.098
 7889SOL     OW24565   0.115   5.409   0.071
 7889SOL    HW124566   0.152   5.339   0.010
 7889SOL    HW224567   0.178   5.424   0.147
 7890SOL     OW24568   1.408   2.688   4.146
 7890SOL    HW124569   1.489   2.663   4.093
 7890SOL    HW224570   1.395   2.787   4.142
 7891SOL     OW24571   0.643   3.253   4.197
 7891SOL    HW124572   0.607   3.199   4.273
 7891SOL    HW224573   0.568   3.278   4.135
 7892SOL     OW24574   1.505   2.209   4.315
 7892SOL    HW124575   1.420   2.160   4.295
 7892SOL    HW224576   1.515   2.220   4.414
 7893SOL     OW24577   6.221   6.141   1.795
 7893SOL    HW124578   6.171   6.175   1.874
 7893SOL    HW224579   6.192   6.047   1.775
 7894SOL     OW24580   2.088   1.767   6.802
 7894SOL    HW124581   2.108   1.748   6.706
 7894SOL    HW224582   2.128   1.695   6.859
 7895SOL     OW24583   3.859   5.889   4.386
 7895SOL    HW124584   3.824   5.833   4.461
 7895SOL    HW224585   3.799   5.877   4.306
 7896SOL     OW24586   4.535   3.240   1.342
 7896SOL    HW124587   4.577   3.219   1.430
 7896SOL    HW224588   4.436   3.251   1.354
 7897SOL     OW24589   3.328   4.252   6.523
 7897SOL    HW124590   3.259   4.289   6.584
 7897SOL    HW224591   3.413   4.237   6.573
 7898SOL     OW24592   4.905   0.151   4.480
 7898SOL    HW124593   4.815   0.167   4.440
 7898SOL    HW224594   4.970   0.126   4.409
 7899SOL     OW24595   5.551   5.551   1.759
 7899SOL    HW124596   5.524   5.647   1.767
 7899SOL    HW224597   5.616   5.529   1.832
 7900SOL     OW24598   0.258   3.865   0.506
 7900SOL    HW124599   0.336   3.927   0.501
 7900SOL    HW224600   0.240   3.842   0.602
 7901SOL     OW24601   5.107   1.344   5.783
 7901SOL    HW124602   5.163   1.421   5.815
 7901SOL    HW224603   5.024   1.338   5.839
 7902SOL     OW24604   0.337   6.175   3.358
 7902SOL    HW124605   0.257   6.119   3.339
 7902SOL    HW224606   0.350   6.240   3.283
 7903SOL     OW24607   3.832   1.608   3.907
 7903SOL    HW124608   3.792   1.668   3.837
 7903SOL    HW224609   3.928   1.592   3.886
 7904SOL     OW24610   6.083   0.282   2.952
 7904SOL    HW124611   6.047   0.210   2.894
 7904SOL    HW224612   6.044   0.370   2.926
 7905SOL     OW24613   5.194   0.763   0.688
 7905SOL    HW124614   5.124   0.702   0.724
 7905SOL    HW224615   5.159   0.857   0.684
 7906SOL     OW24616   1.295   4.831   1.225
 7906SOL    HW124617   1.248   4.744   1.214
 7906SOL    HW224618   1.344   4.853   1.141
 7907SOL     OW24619   5.976   0.277   3.198
 7907SOL    HW124620   6.042   0.272   3.123
 7907SOL    HW224621   5.988   0.363   3.248
 7908SOL     OW24622   0.631   2.240   6.579
 7908SOL    HW124623   0.700   2.184   6.624
 7908SOL    HW224624   0.553   2.253   6.640
 7909SOL     OW24625   5.129   4.252   3.099
 7909SOL    HW124626   5.178   4.180   3.049
 7909SOL    HW224627   5.062   4.210   3.160
 7910SOL     OW24628   1.308   3.299   1.059
 7910SOL    HW124629   1.257   3.265   1.139
 7910SOL    HW224630   1.343   3.221   1.007
 7911SOL     OW24631   0.745   4.028   1.115
 7911SOL    HW124632   0.724   4.055   1.209
 7911SOL    HW224633   0.746   3.929   1.109
 7912SOL     OW24634   5.483   5.270   0.580
 7912SOL    HW124635   5.387   5.273   0.607
 7912SOL    HW224636   5.529   5.353   0.609
 7913SOL     OW24637   2.126   4.190   0.858
 7913SOL    HW124638   2.096   4.202   0.764
 7913SOL    HW224639   2.219   4.226   0.868
 7914SOL     OW24640   0.084   5.477   6.512
 7914SOL    HW124641   0.072   5.475   6.611
 7914SOL    HW224642   0.052   5.565   6.476
 7915SOL     OW24643   3.848   1.286   2.915
 7915SOL    HW124644   3.780   1.353   2.947
 7915SOL    HW224645   3.849   1.207   2.976
 7916SOL     OW24646   0.286   0.711   4.386
 7916SOL    HW124647   0.364   0.688   4.327
 7916SOL    HW224648   0.282   0.647   4.462
 7917SOL     OW24649   4.227   2.466   6.177
 7917SOL    HW124650   4.173   2.407   6.236
 7917SOL    HW224651   4.268   2.540   6.230
 7918SOL     OW24652   1.371   1.231   5.043
 7918SOL    HW124653   1.349   1.313   4.990
 7918SOL    HW224654   1.450   1.185   5.002
 7919SOL     OW24655   1.253   5.038   3.141
 7919SOL    HW124656   1.303   5.110   3.095
 7919SOL    HW224657   1.154   5.051   3.129
 7920SOL     OW24658   4.963   1.000   1.602
 7920SOL    HW124659   4.964   0.901   1.613
 7920SOL    HW224660   4.980   1.043   1.691
 7921SOL     OW24661   5.656   1.586   1.395
 7921SOL    HW124662   5.642   1.683   1.413
 7921SOL    HW224663   5.729   1.551   1.453
 7922SOL     OW24664   0.482   6.494   6.876
 7922SOL    HW124665   0.513   6.578   6.920
 7922SOL    HW224666   0.421   6.444   6.937
 7923SOL     OW24667   2.795   2.296   6.493
 7923SOL    HW124668   2.854   2.355   6.548
 7923SOL    HW224669   2.848   2.220   6.457
 7924SOL     OW24670   5.438   6.580   1.158
 7924SOL    HW124671   5.493   6.509   1.113
 7924SOL    HW224672   5.343   6.551   1.163
 7925SOL     OW24673   2.382   6.485   0.927
 7925SOL    HW124674   2.463   6.442   0.967
 7925SOL    HW224675   2.312   6.494   0.997
 7926SOL     OW24676   5.260   1.112   6.610
 7926SOL    HW124677   5.351   1.138   6.578
 7926SOL    HW224678   5.257   1.118   6.709
 7927SOL     OW24679   5.206   0.043   2.338
 7927SOL    HW124680   5.191   0.060   2.240
 7927SOL    HW224681   5.121   0.061   2.388
 7928SOL     OW24682   6.730   1.278   3.297
 7928SOL    HW124683   6.765   1.291   3.204
 7928SOL    HW224684   6.675   1.194   3.300
 7929SOL     OW24685   4.335   3.932   6.796
 7929SOL    HW124686   4.242   3.915   6.828
 7929SOL    HW224687   4.338   4.020   6.748
 7930SOL     OW24688   3.401   5.301   5.891
 7930SOL    HW124689   3.454   5.361   5.831
 7930SOL    HW224690   3.464   5.246   5.947
 7931SOL     OW24691   3.253   2.540   0.845
 7931SOL    HW124692   3.210   2.470   0.788
 7931SOL    HW224693   3.265   2.505   0.938
 7932SOL     OW24694   0.087   5.034   0.949
 7932SOL    HW124695   0.165   5.012   1.007
 7932SOL    HW224696   0.111   5.110   0.888
 7933SOL     OW24697   6.696   0.898   5.947
 7933SOL    HW124698   6.729   0.804   5.950
 7933SOL    HW224699   6.737   0.945   5.869
 7934SOL     OW24700   1.489   4.656   0.653
 7934SOL    HW124701   1.556   4.653   0.579
 7934SOL    HW224702   1.512   4.586   0.721
 7935SOL     OW24703   5.071   4.364   2.558
 7935SOL    HW124704   4.983   4.316   2.554
 7935SOL    HW224705   5.072   4.425   2.638
 7936SOL     OW24706   2.456   5.946   3.615
 7936SOL    HW124707   2.510   6.030   3.605
 7936SOL    HW224708   2.359   5.969   3.616
 7937SOL     OW24709   1.635   5.548   4.429
 7937SOL    HW124710   1.549   5.598   4.439
 7937SOL    HW224711   1.621   5.452   4.454
 7938SOL     OW24712   5.395   6.904   5.623
 7938SOL    HW124713   5.486   6.933   5.652
 7938SOL    HW224714   5.376   6.813   5.659
 7939SOL     OW24715   0.432   1.876   5.500
 7939SOL    HW124716   0.481   1.794   5.526
 7939SOL    HW224717   0.471   1.913   5.415
 7940SOL     OW24718   3.431   1.872   2.322
 7940SOL    HW124719   3.393   1.924   2.398
 7940SOL    HW224720   3.412   1.920   2.236
 7941SOL     OW24721   4.512   6.530   3.285
 7941SOL    HW124722   4.589   6.593   3.273
 7941SOL    HW224723   4.475   6.540   3.377
 7942SOL     OW24724   0.876   2.290   2.123
 7942SOL    HW124725   0.930   2.232   2.183
 7942SOL    HW224726   0.924   2.377   2.108
 7943SOL     OW24727   1.293   4.774   5.865
 7943SOL    HW124728   1.365   4.808   5.924
 7943SOL    HW224729   1.277   4.677   5.884
 7944SOL     OW24730   0.681   2.246   1.943
 7944SOL    HW124731   0.756   2.259   2.008
 7944SOL    HW224732   0.659   2.334   1.900
 7945SOL     OW24733   6.559   5.095   2.963
 7945SOL    HW124734   6.621   5.114   2.886
 7945SOL    HW224735   6.566   4.999   2.988
 7946SOL     OW24736   4.007   0.345   5.710
 7946SOL    HW124737   3.908   0.354   5.700
 7946SOL    HW224738   4.031   0.248   5.711
 7947SOL     OW24739   2.172   2.297   4.997
 7947SOL    HW124740   2.159   2.369   4.929
 7947SOL    HW224741   2.238   2.328   5.066
 7948SOL     OW24742   0.983   5.121   1.544
 7948SOL    HW124743   0.907   5.127   1.479
 7948SOL    HW224744   1.069   5.140   1.497
 7949SOL     OW24745   4.344   4.422   5.853
 7949SOL    HW124746   4.355   4.520   5.837
 7949SOL    HW224747   4.248   4.402   5.873
 7950SOL     OW24748   5.845   6.144   5.581
 7950SOL    HW124749   5.879   6.206   5.510
 7950SOL    HW224750   5.809   6.196   5.657
 7951SOL     OW24751   1.892   4.979   3.214
 7951SOL    HW124752   1.866   4.920   3.138
 7951SOL    HW224753   1.881   5.075   3.187
 7952SOL     OW24754   6.590   3.207   6.760
 7952SOL    HW124755   6.689   3.218   6.766
 7952SOL    HW224756   6.556   3.253   6.678
 7953SOL     OW24757   4.579   1.829   1.294
 7953SOL    HW124758   4.624   1.741   1.312
 7953SOL    HW224759   4.493   1.813   1.245
 7954SOL     OW24760   4.279   3.722   6.280
 7954SOL    HW124761   4.301   3.815   6.251
 7954SOL    HW224762   4.317   3.706   6.371
 7955SOL     OW24763   2.155   1.671   6.091
 7955SOL    HW124764   2.173   1.719   6.176
 7955SOL    HW224765   2.132   1.736   6.019
 7956SOL     OW24766   5.636   1.678   1.747
 7956SOL    HW124767   5.649   1.690   1.845
 7956SOL    HW224768   5.645   1.581   1.724
 7957SOL     OW24769   3.576   0.660   6.211
 7957SOL    HW124770   3.599   0.689   6.303
 7957SOL    HW224771   3.639   0.702   6.146
 7958SOL     OW24772   5.729   4.367   6.376
 7958SOL    HW124773   5.719   4.317   6.462
 7958SOL    HW224774   5.689   4.315   6.301
 7959SOL     OW24775   5.019   0.643   6.478
 7959SOL    HW124776   5.063   0.733   6.488
 7959SOL    HW224777   4.920   0.655   6.480
 7960SOL     OW24778   0.674   1.584   6.453
 7960SOL    HW124779   0.682   1.675   6.494
 7960SOL    HW224780   0.747   1.571   6.386
 7961SOL     OW24781   6.674   0.113   0.900
 7961SOL    HW124782   6.730   0.048   0.951
 7961SOL    HW224783   6.598   0.065   0.857
 7962SOL     OW24784   6.962   1.753   6.078
 7962SOL    HW124785   6.970   1.851   6.060
 7962SOL    HW224786   7.020   1.728   6.156
 7963SOL     OW24787   6.379   4.863   3.967
 7963SOL    HW124788   6.458   4.811   3.936
 7963SOL    HW224789   6.334   4.907   3.889
 7964SOL     OW24790   6.865   2.572   1.812
 7964SOL    HW124791   6.835   2.483   1.778
 7964SOL    HW224792   6.942   2.559   1.875
 7965SOL     OW24793   4.653   3.100   0.187
 7965SOL    HW124794   4.662   3.120   0.284
 7965SOL    HW224795   4.680   3.006   0.169
 7966SOL     OW24796   4.070   3.786   5.941
 7966SOL    HW124797   4.017   3.853   5.993
 7966SOL    HW224798   4.017   3.702   5.932
 7967SOL     OW24799   2.225   5.350   2.466
 7967SOL    HW124800   2.219   5.416   2.391
 7967SOL    HW224801   2.168   5.270   2.445
 7968SOL     OW24802   6.174   2.121   5.252
 7968SOL    HW124803   6.169   2.190   5.323
 7968SOL    HW224804   6.261   2.072   5.259
 7969SOL     OW24805   4.843   6.207   0.390
 7969SOL    HW124806   4.827   6.114   0.420
 7969SOL    HW224807   4.931   6.239   0.425
 7970SOL     OW24808   5.891   2.735   2.552
 7970SOL    HW124809   5.953   2.677   2.606
 7970SOL    HW224810   5.805   2.745   2.601
 7971SOL     OW24811   2.827   1.385   1.603
 7971SOL    HW124812   2.910   1.437   1.621
 7971SOL    HW224813   2.849   1.287   1.606
 7972SOL     OW24814   3.244   3.099   1.759
 7972SOL    HW124815   3.171   3.044   1.799
 7972SOL    HW224816   3.227   3.108   1.660
 7973SOL     OW24817   5.625   4.101   3.959
 7973SOL    HW124818   5.562   4.179   3.961
 7973SOL    HW224819   5.601   4.041   3.883
 7974SOL     OW24820   6.422   1.291   4.932
 7974SOL    HW124821   6.509   1.303   4.979
 7974SOL    HW224822   6.380   1.380   4.915
 7975SOL     OW24823   4.551   0.320   0.501
 7975SOL    HW124824   4.533   0.223   0.484
 7975SOL    HW224825   4.526   0.372   0.419
 7976SOL     OW24826   0.895   0.003   5.962
 7976SOL    HW124827   0.956   6.955   5.994
 7976SOL    HW224828   0.950   0.080   5.930
 7977SOL     OW24829   5.895   6.171   2.419
 7977SOL    HW124830   5.897   6.071   2.423
 7977SOL    HW224831   5.861   6.200   2.329
 7978SOL     OW24832   0.492   3.466   6.734
 7978SOL    HW124833   0.572   3.460   6.793
 7978SOL    HW224834   0.518   3.444   6.640
 7979SOL     OW24835   2.116   4.305   5.837
 7979SOL    HW124836   2.135   4.363   5.916
 7979SOL    HW224837   2.187   4.235   5.829
 7980SOL     OW24838   3.073   5.459   6.266
 7980SOL    HW124839   3.060   5.455   6.365
 7980SOL    HW224840   3.136   5.387   6.237
 7981SOL     OW24841   1.047   4.896   2.102
 7981SOL    HW124842   1.081   4.848   2.184
 7981SOL    HW224843   1.049   4.833   2.024
 7982SOL     OW24844   1.599   1.551   5.987
 7982SOL    HW124845   1.514   1.515   5.948
 7982SOL    HW224846   1.608   1.648   5.965
 7983SOL     OW24847   5.556   1.260   1.423
 7983SOL    HW124848   5.509   1.241   1.510
 7983SOL    HW224849   5.547   1.357   1.401
 7984SOL     OW24850   0.766   1.540   0.764
 7984SOL    HW124851   0.734   1.634   0.776
 7984SOL    HW224852   0.865   1.541   0.747
 7985SOL     OW24853   2.723   1.943   4.817
 7985SOL    HW124854   2.772   1.907   4.896
 7985SOL    HW224855   2.779   1.930   4.735
 7986SOL     OW24856   4.073   1.364   5.524
 7986SOL    HW124857   4.055   1.273   5.487
 7986SOL    HW224858   4.100   1.356   5.620
 7987SOL     OW24859   2.444   3.852   0.851
 7987SOL    HW124860   2.425   3.948   0.829
 7987SOL    HW224861   2.538   3.843   0.883
 7988SOL     OW24862   0.621   0.640   1.510
 7988SOL    HW124863   0.720   0.633   1.521
 7988SOL    HW224864   0.576   0.608   1.593
 7989SOL     OW24865   1.860   4.153   0.020
 7989SOL    HW124866   1.933   4.220   0.012
 7989SOL    HW224867   1.899   4.062   0.033
 7990SOL     OW24868   2.554   5.986   4.436
 7990SOL    HW124869   2.502   5.971   4.352
 7990SOL    HW224870   2.644   5.942   4.428
 7991SOL     OW24871   5.383   1.829   4.514
 7991SOL    HW124872   5.363   1.749   4.458
 7991SOL    HW224873   5.300   1.858   4.562
 7992SOL     OW24874   2.214   0.444   0.319
 7992SOL    HW124875   2.137   0.455   0.383
 7992SOL    HW224876   2.292   0.496   0.353
 7993SOL     OW24877   0.181   6.935   1.904
 7993SOL    HW124878   0.257   7.000   1.896
 7993SOL    HW224879   0.094   6.986   1.902
 7994SOL     OW24880   4.893   0.610   2.859
 7994SOL    HW124881   4.938   0.539   2.912
 7994SOL    HW224882   4.862   0.683   2.920
 7995SOL     OW24883   5.677   4.276   2.950
 7995SOL    HW124884   5.602   4.259   3.014
 7995SOL    HW224885   5.673   4.371   2.919
 7996SOL     OW24886   4.405   0.086   3.901
 7996SOL    HW124887   4.326   0.147   3.895
 7996SOL    HW224888   4.453   0.084   3.813
 7997SOL     OW24889   0.246   2.022   0.328
 7997SOL    HW124890   0.282   2.114   0.340
 7997SOL    HW224891   0.160   2.013   0.378
 7998SOL     OW24892   2.614   6.632   6.999
 7998SOL    HW124893   2.584   6.649   6.905
 7998SOL    HW224894   2.697   6.577   6.998
 7999SOL     OW24895   1.300   1.812   5.934
 7999SOL    HW124896   1.393   1.779   5.953
 7999SOL    HW224897   1.270   1.872   6.008
 8000SOL     OW24898   6.053   0.331   6.401
 8000SOL    HW124899   6.006   0.271   6.466
 8000SOL    HW224900   6.019   0.424   6.411
 8001SOL     OW24901   4.399   6.233   1.586
 8001SOL    HW124902   4.415   6.134   1.585
 8001SOL    HW224903   4.456   6.276   1.516
 8002SOL     OW24904   0.708   1.541   5.824
 8002SOL    HW124905   0.776   1.474   5.795
 8002SOL    HW224906   0.656   1.572   5.745
 8003SOL     OW24907   1.601   6.104   1.841
 8003SOL    HW124908   1.544   6.127   1.920
 8003SOL    HW224909   1.593   6.176   1.772
 8004SOL     OW24910   1.703   3.009   3.399
 8004SOL    HW124911   1.691   2.971   3.307
 8004SOL    HW224912   1.791   2.978   3.435
 8005SOL     OW24913   2.820   0.274   3.659
 8005SOL    HW124914   2.752   0.203   3.672
 8005SOL    HW224915   2.775   0.361   3.639
 8006SOL     OW24916   3.326   5.668   5.603
 8006SOL    HW124917   3.244   5.655   5.658
 8006SOL    HW224918   3.311   5.631   5.511
 8007SOL     OW24919   5.377   1.748   6.515
 8007SOL    HW124920   5.431   1.831   6.528
 8007SOL    HW224921   5.422   1.689   6.448
 8008SOL     OW24922   3.300   5.950   0.170
 8008SOL    HW124923   3.393   5.951   0.134
 8008SOL    HW224924   3.250   6.031   0.137
 8009SOL     OW24925   4.611   1.164   1.108
 8009SOL    HW124926   4.554   1.244   1.088
 8009SOL    HW224927   4.667   1.143   1.028
 8010SOL     OW24928   2.988   2.505   5.362
 8010SOL    HW124929   3.061   2.468   5.304
 8010SOL    HW224930   3.002   2.604   5.372
 8011SOL     OW24931   3.709   1.934   1.863
 8011SOL    HW124932   3.621   1.973   1.889
 8011SOL    HW224933   3.777   2.008   1.858
 8012SOL     OW24934   0.686   2.879   6.551
 8012SOL    HW124935   0.757   2.815   6.582
 8012SOL    HW224936   0.658   2.854   6.459
 8013SOL     OW24937   0.597   2.944   3.533
 8013SOL    HW124938   0.620   2.969   3.627
 8013SOL    HW224939   0.570   3.026   3.482
 8014SOL     OW24940   1.663   0.760   4.039
 8014SOL    HW124941   1.650   0.701   4.119
 8014SOL    HW224942   1.621   0.849   4.056
 8015SOL     OW24943   2.124   0.089   5.951
 8015SOL    HW124944   2.163   0.172   5.989
 8015SOL    HW224945   2.197   0.035   5.908
 8016SOL     OW24946   3.963   1.365   4.972
 8016SOL    HW124947   3.875   1.316   4.977
 8016SOL    HW224948   4.006   1.365   5.062
 8017SOL     OW24949   6.579   6.992   6.929
 8017SOL    HW124950   6.575   0.052   6.877
 8017SOL    HW224951   6.520   7.000   7.010
 8018SOL     OW24952   3.625   2.472   0.101
 8018SOL    HW124953   3.633   2.378   0.135
 8018SOL    HW224954   3.534   2.508   0.122
 8019SOL     OW24955   2.398   3.575   0.882
 8019SOL    HW124956   2.399   3.674   0.895
 8019SOL    HW224957   2.305   3.546   0.858
 8020SOL     OW24958   5.947   0.652   6.153
 8020SOL    HW124959   5.974   0.639   6.248
 8020SOL    HW224960   5.851   0.626   6.142
 8021SOL     OW24961   2.094   2.492   1.308
 8021SOL    HW124962   2.024   2.453   1.248
 8021SOL    HW224963   2.185   2.472   1.270
 8022SOL     OW24964   5.996   0.411   2.010
 8022SOL    HW124965   5.906   0.392   2.050
 8022SOL    HW224966   6.057   0.333   2.027
 8023SOL     OW24967   5.967   5.315   2.717
 8023SOL    HW124968   5.948   5.410   2.742
 8023SOL    HW224969   5.896   5.281   2.655
 8024SOL     OW24970   1.465   5.906   5.984
 8024SOL    HW124971   1.480   5.879   5.889
 8024SOL    HW224972   1.372   5.942   5.994
 8025SOL     OW24973   1.431   5.108   0.911
 8025SOL    HW124974   1.462   5.198   0.941
 8025SOL    HW224975   1.487   5.038   0.955
 8026SOL     OW24976   0.025   4.606   0.869
 8026SOL    HW124977   0.038   4.637   0.776
 8026SOL    HW224978   6.993   4.524   0.869
 8027SOL     OW24979   3.301   6.575   5.401
 8027SOL    HW124980   3.214   6.605   5.364
 8027SOL    HW224981   3.327   6.488   5.359
 8028SOL     OW24982   2.484   5.876   4.189
 8028SOL    HW124983   2.384   5.877   4.184
 8028SOL    HW224984   2.522   5.890   4.098
 8029SOL     OW24985   5.008   2.325   1.746
 8029SOL    HW124986   5.108   2.325   1.742
 8029SOL    HW224987   4.977   2.242   1.792
 8030SOL     OW24988   6.115   5.278   0.414
 8030SOL    HW124989   6.102   5.376   0.397
 8030SOL    HW224990   6.132   5.263   0.511
 8031SOL     OW24991   6.159   6.653   3.194
 8031SOL    HW124992   6.137   6.611   3.106
 8031SOL    HW224993   6.219   6.592   3.246
 8032SOL     OW24994   5.018   3.547   1.649
 8032SOL    HW124995   4.947   3.560   1.580
 8032SOL    HW224996   5.108   3.541   1.605
 8033SOL     OW24997   4.569   3.630   6.969
 8033SOL    HW124998   4.560   3.553   6.906
 8033SOL    HW224999   4.479   3.652   7.007
 8034SOL     OW25000   5.393   0.193   5.813
 8034SOL    HW125001   5.360   0.202   5.907
 8034SOL    HW225002   5.321   0.154   5.756
 8035SOL     OW25003   4.651   0.911   2.023
 8035SOL    HW125004   4.736   0.964   2.027
 8035SOL    HW225005   4.598   0.926   2.107
 8036SOL     OW25006   6.859   3.176   3.621
 8036SOL    HW125007   6.948   3.160   3.578
 8036SOL    HW225008   6.835   3.273   3.614
 8037SOL     OW25009   1.366   3.255   6.940
 8037SOL    HW125010   1.400   3.171   6.982
 8037SOL    HW225011   1.426   3.282   6.865
 8038SOL     OW25012   5.204   6.135   2.180
 8038SOL    HW125013   5.150   6.120   2.263
 8038SOL    HW225014   5.278   6.200   2.199
 8039SOL     OW25015   0.328   2.472   4.949
 8039SOL    HW125016   0.228   2.468   4.944
 8039SOL    HW225017   0.364   2.379   4.958
 8040SOL     OW25018   1.974   6.147   6.897
 8040SOL    HW125019   1.890   6.195   6.872
 8040SOL    HW225020   2.049   6.180   6.839
 8041SOL     OW25021   3.267   1.007   2.706
 8041SOL    HW125022   3.234   1.016   2.800
 8041SOL    HW225023   3.242   1.089   2.654
 8042SOL     OW25024   4.383   4.270   5.338
 8042SOL    HW125025   4.326   4.320   5.273
 8042SOL    HW225026   4.360   4.173   5.336
 8043SOL     OW25027   3.883   4.764   0.526
 8043SOL    HW125028   3.872   4.804   0.617
 8043SOL    HW225029   3.794   4.758   0.482
 8044SOL     OW25030   3.037   2.959   0.844
 8044SOL    HW125031   3.007   2.909   0.925
 8044SOL    HW225032   3.119   2.915   0.806
 8045SOL     OW25033   7.000   1.877   2.616
 8045SOL    HW125034   6.947   1.812   2.669
 8045SOL    HW225035   0.055   1.905   2.668
 8046SOL     OW25036   0.708   5.008   2.262
 8046SOL    HW125037   0.726   5.046   2.172
 8046SOL    HW225038   0.728   4.910   2.262
 8047SOL     OW25039   3.992   7.012   6.902
 8047SOL    HW125040   3.904   7.001   6.857
 8047SOL    HW225041   3.984   6.991   6.999
 8048SOL     OW25042   3.631   3.233   6.771
 8048SOL    HW125043   3.551   3.285   6.742
 8048SOL    HW225044   3.714   3.287   6.754
 8049SOL     OW25045   1.151   6.704   0.247
 8049SOL    HW125046   1.185   6.784   0.198
 8049SOL    HW225047   1.181   6.707   0.342
 8050SOL     OW25048   2.081   3.621   4.593
 8050SOL    HW125049   2.066   3.598   4.497
 8050SOL    HW225050   2.017   3.570   4.650
 8051SOL     OW25051   4.704   5.589   4.121
 8051SOL    HW125052   4.701   5.532   4.203
 8051SOL    HW225053   4.789   5.572   4.072
 8052SOL     OW25054   2.363   2.131   2.085
 8052SOL    HW125055   2.424   2.060   2.051
 8052SOL    HW225056   2.282   2.138   2.027
 8053SOL     OW25057   2.984   2.786   5.377
 8053SOL    HW125058   3.049   2.861   5.394
 8053SOL    HW225059   2.891   2.823   5.370
 8054SOL     OW25060   5.912   3.786   4.936
 8054SOL    HW125061   5.918   3.689   4.916
 8054SOL    HW225062   5.830   3.824   4.893
 8055SOL     OW25063   0.294   1.233   5.340
 8055SOL    HW125064   0.212   1.258   5.288
 8055SOL    HW225065   0.276   1.151   5.394
 8056SOL     OW25066   3.426   6.755   3.583
 8056SOL    HW125067   3.346   6.779   3.528
 8056SOL    HW225068   3.509   6.771   3.531
 8057SOL     OW25069   2.694   2.075   2.163
 8057SOL    HW125070   2.673   2.173   2.171
 8057SOL    HW225071   2.767   2.062   2.096
 8058SOL     OW25072   3.275   6.326   3.006
 8058SOL    HW125073   3.275   6.415   3.053
 8058SOL    HW225074   3.184   6.285   3.011
 8059SOL     OW25075   2.869   0.857   5.811
 8059SOL    HW125076   2.888   0.852   5.713
 8059SOL    HW225077   2.788   0.913   5.827
 8060SOL     OW25078   0.191   1.740   6.272
 8060SOL    HW125079   0.279   1.787   6.287
 8060SOL    HW225080   0.116   1.804   6.291
 8061SOL     OW25081   0.097   0.850   3.063
 8061SOL    HW125082   0.051   0.829   3.149
 8061SOL    HW225083   0.042   0.817   2.986
 8062SOL     OW25084   4.183   5.456   4.756
 8062SOL    HW125085   4.106   5.452   4.820
 8062SOL    HW225086   4.172   5.385   4.687
 8063SOL     OW25087   2.771   1.386   2.839
 8063SOL    HW125088   2.833   1.329   2.786
 8063SOL    HW225089   2.793   1.483   2.825
 8064SOL     OW25090   6.474   3.215   6.998
 8064SOL    HW125091   6.518   3.206   6.909
 8064SOL    HW225092   6.519   3.288   0.025
 8065SOL     OW25093   3.668   6.795   4.532
 8065SOL    HW125094   3.667   6.716   4.594
 8065SOL    HW225095   3.711   6.873   4.578
 8066SOL     OW25096   6.406   0.246   4.313
 8066SOL    HW125097   6.470   0.307   4.267
 8066SOL    HW225098   6.356   0.192   4.245
 8067SOL     OW25099   4.847   2.512   3.699
 8067SOL    HW125100   4.765   2.548   3.742
 8067SOL    HW225101   4.911   2.481   3.770
 8068SOL     OW25102   0.605   4.797   0.734
 8068SOL    HW125103   0.598   4.897   0.731
 8068SOL    HW225104   0.592   4.766   0.828
 8069SOL     OW25105   2.523   4.948   1.987
 8069SOL    HW125106   2.583   4.986   1.916
 8069SOL    HW225107   2.562   4.968   2.077
 8070SOL     OW25108   4.100   3.359   0.844
 8070SOL    HW125109   4.060   3.429   0.904
 8070SOL    HW225110   4.200   3.362   0.852
 8071SOL     OW25111   3.790   6.663   4.915
 8071SOL    HW125112   3.718   6.619   4.863
 8071SOL    HW225113   3.835   6.733   4.858
 8072SOL     OW25114   2.930   2.208   0.844
 8072SOL    HW125115   2.931   2.201   0.943
 8072SOL    HW225116   2.884   2.293   0.817
 8073SOL     OW25117   2.958   6.403   5.043
 8073SOL    HW125118   2.876   6.445   5.079
 8073SOL    HW225119   2.956   6.304   5.061
 8074SOL     OW25120   2.685   1.009   1.143
 8074SOL    HW125121   2.775   1.005   1.186
 8074SOL    HW225122   2.696   1.008   1.044
 8075SOL     OW25123   0.201   0.024   0.636
 8075SOL    HW125124   0.286   7.016   0.678
 8075SOL    HW225125   0.218   0.114   0.595
 8076SOL     OW25126   0.021   0.513   5.577
 8076SOL    HW125127   6.985   0.490   5.652
 8076SOL    HW225128   0.072   0.432   5.549
 8077SOL     OW25129   4.166   6.243   2.534
 8077SOL    HW125130   4.094   6.302   2.499
 8077SOL    HW225131   4.127   6.155   2.560
 8078SOL     OW25132   0.909   1.775   1.028
 8078SOL    HW125133   0.816   1.750   1.056
 8078SOL    HW225134   0.913   1.874   1.010
 8079SOL     OW25135   6.705   1.408   3.732
 8079SOL    HW125136   6.622   1.356   3.711
 8079SOL    HW225137   6.679   1.495   3.776
 8080SOL     OW25138   1.476   2.707   1.993
 8080SOL    HW125139   1.539   2.715   1.916
 8080SOL    HW225140   1.385   2.738   1.965
 8081SOL     OW25141   6.245   5.038   5.814
 8081SOL    HW125142   6.313   4.990   5.869
 8081SOL    HW225143   6.262   5.020   5.717
 8082SOL     OW25144   3.534   0.467   2.109
 8082SOL    HW125145   3.441   0.489   2.078
 8082SOL    HW225146   3.599   0.480   2.034
 8083SOL     OW25147   5.177   2.919   4.546
 8083SOL    HW125148   5.176   2.920   4.446
 8083SOL    HW225149   5.262   2.877   4.578
 8084SOL     OW25150   2.832   0.850   6.253
 8084SOL    HW125151   2.762   0.788   6.288
 8084SOL    HW225152   2.901   0.865   6.323
 8085SOL     OW25153   6.460   6.356   2.747
 8085SOL    HW125154   6.428   6.336   2.840
 8085SOL    HW225155   6.411   6.436   2.711
 8086SOL     OW25156   0.240   1.207   0.942
 8086SOL    HW125157   0.200   1.153   1.016
 8086SOL    HW225158   0.307   1.151   0.893
 8087SOL     OW25159   1.844   0.465   6.236
 8087SOL    HW125160   1.833   0.367   6.252
 8087SOL    HW225161   1.798   0.516   6.309
 8088SOL     OW25162   5.887   0.343   0.022
 8088SOL    HW125163   5.937   0.375   6.967
 8088SOL    HW225164   5.946   0.282   0.075
 8089SOL     OW25165   5.984   2.954   6.426
 8089SOL    HW125166   5.982   2.897   6.507
 8089SOL    HW225167   6.010   3.047   6.451
 8090SOL     OW25168   4.160   1.307   6.292
 8090SOL    HW125169   4.193   1.357   6.212
 8090SOL    HW225170   4.165   1.209   6.275
 8091SOL     OW25171   1.458   4.452   5.014
 8091SOL    HW125172   1.444   4.498   4.926
 8091SOL    HW225173   1.377   4.464   5.071
 8092SOL     OW25174   4.938   1.943   5.430
 8092SOL    HW125175   4.992   1.984   5.356
 8092SOL    HW225176   4.952   1.844   5.432
 8093SOL     OW25177   2.905   5.466   3.269
 8093SOL    HW125178   2.987   5.446   3.322
 8093SOL    HW225179   2.829   5.487   3.331
 8094SOL     OW25180   0.552   3.142   5.478
 8094SOL    HW125181   0.469   3.197   5.474
 8094SOL    HW225182   0.529   3.047   5.501
 8095SOL     OW25183   0.679   4.739   4.644
 8095SOL    HW125184   0.684   4.834   4.611
 8095SOL    HW225185   0.772   4.705   4.662
 8096SOL     OW25186   2.098   0.618   2.941
 8096SOL    HW125187   2.089   0.544   3.007
 8096SOL    HW225188   2.089   0.706   2.988
 8097SOL     OW25189   4.232   0.324   4.266
 8097SOL    HW125190   4.151   0.380   4.280
 8097SOL    HW225191   4.221   0.236   4.314
 8098SOL     OW25192   2.586   6.357   3.901
 8098SOL    HW125193   2.598   6.456   3.898
 8098SOL    HW225194   2.515   6.330   3.836
 8099SOL     OW25195   4.645   6.256   4.750
 8099SOL    HW125196   4.573   6.324   4.743
 8099SOL    HW225197   4.635   6.189   4.676
 8100SOL     OW25198   6.753   1.460   6.999
 8100SOL    HW125199   6.847   1.462   0.005
 8100SOL    HW225200   6.751   1.457   6.899
 8101SOL     OW25201   1.283   5.466   0.692
 8101SOL    HW125202   1.345   5.454   0.770
 8101SOL    HW225203   1.268   5.378   0.648
 8102SOL     OW25204   0.527   3.785   3.460
 8102SOL    HW125205   0.557   3.745   3.374
 8102SOL    HW225206   0.427   3.785   3.464
 8103SOL     OW25207   3.556   0.140   2.047
 8103SOL    HW125208   3.590   0.212   1.987
 8103SOL    HW225209   3.470   0.169   2.089
 8104SOL     OW25210   1.632   0.276   5.246
 8104SOL    HW125211   1.615   0.288   5.344
 8104SOL    HW225212   1.557   0.225   5.205
 8105SOL     OW25213   0.194   2.627   2.348
 8105SOL    HW125214   0.219   2.596   2.256
 8105SOL    HW225215   0.142   2.555   2.393
 8106SOL     OW25216   2.907   6.241   2.907
 8106SOL    HW125217   2.808   6.232   2.909
 8106SOL    HW225218   2.933   6.336   2.927
 8107SOL     OW25219   1.475   5.821   4.146
 8107SOL    HW125220   1.445   5.902   4.094
 8107SOL    HW225221   1.430   5.740   4.109
 8108SOL     OW25222   6.609   2.079   6.890
 8108SOL    HW125223   6.545   2.048   6.960
 8108SOL    HW225224   6.580   2.045   6.801
 8109SOL     OW25225   0.298   3.611   6.862
 8109SOL    HW125226   0.223   3.641   6.803
 8109SOL    HW225227   0.377   3.589   6.805
 8110SOL     OW25228   4.042   5.081   2.053
 8110SOL    HW125229   3.981   5.114   2.125
 8110SOL    HW225230   4.066   4.985   2.071
 8111SOL     OW25231   4.930   0.792   4.456
 8111SOL    HW125232   4.927   0.886   4.491
 8111SOL    HW225233   5.018   0.776   4.411
 8112SOL     OW25234   2.404   2.727   4.578
 8112SOL    HW125235   2.478   2.669   4.612
 8112SOL    HW225236   2.328   2.669   4.547
 8113SOL     OW25237   6.821   3.699   0.895
 8113SOL    HW125238   6.739   3.655   0.931
 8113SOL    HW225239   6.815   3.798   0.908
 8114SOL     OW25240   1.778   3.704   2.321
 8114SOL    HW125241   1.749   3.631   2.258
 8114SOL    HW225242   1.878   3.710   2.319
 8115SOL     OW25243   3.085   6.565   5.873
 8115SOL    HW125244   3.168   6.565   5.817
 8115SOL    HW225245   3.102   6.516   5.958
 8116SOL     OW25246   4.093   4.808   0.048
 8116SOL    HW125247   4.114   4.731   7.013
 8116SOL    HW225248   4.078   4.775   0.141
 8117SOL     OW25249   2.192   0.228   3.451
 8117SOL    HW125250   2.204   0.225   3.351
 8117SOL    HW225251   2.253   0.297   3.489
 8118SOL     OW25252   5.387   4.142   6.270
 8118SOL    HW125253   5.465   4.174   6.215
 8118SOL    HW225254   5.319   4.215   6.277
 8119SOL     OW25255   5.313   6.663   6.401
 8119SOL    HW125256   5.375   6.741   6.405
 8119SOL    HW225257   5.292   6.641   6.305
 8120SOL     OW25258   3.004   4.965   0.618
 8120SOL    HW125259   2.944   4.911   0.677
 8120SOL    HW225260   3.097   4.928   0.622
 8121SOL     OW25261   0.683   4.759   1.008
 8121SOL    HW125262   0.782   4.753   1.001
 8121SOL    HW225263   0.657   4.804   1.094
 8122SOL     OW25264   0.753   4.220   2.998
 8122SOL    HW125265   0.852   4.209   3.007
 8122SOL    HW225266   0.730   4.317   3.005
 8123SOL     OW25267   0.055   1.956   6.976
 8123SOL    HW125268   0.138   1.905   6.998
 8123SOL    HW225269   0.033   2.018   0.026
 8124SOL     OW25270   5.126   6.246   3.288
 8124SOL    HW125271   5.065   6.167   3.281
 8124SOL    HW225272   5.221   6.215   3.279
 8125SOL     OW25273   0.832   0.994   2.760
 8125SOL    HW125274   0.763   0.971   2.829
 8125SOL    HW225275   0.854   1.092   2.766
 8126SOL     OW25276   5.001   4.923   3.357
 8126SOL    HW125277   4.931   4.957   3.294
 8126SOL    HW225278   5.084   4.901   3.307
 8127SOL     OW25279   2.739   3.323   6.586
 8127SOL    HW125280   2.680   3.249   6.618
 8127SOL    HW225281   2.719   3.343   6.490
 8128SOL     OW25282   2.999   2.128   2.179
 8128SOL    HW125283   3.023   2.153   2.273
 8128SOL    HW225284   2.954   2.205   2.134
 8129SOL     OW25285   3.837   1.862   6.420
 8129SOL    HW125286   3.890   1.858   6.505
 8129SOL    HW225287   3.829   1.957   6.390
 8130SOL     OW25288   0.484   6.124   6.768
 8130SOL    HW125289   0.473   6.025   6.771
 8130SOL    HW225290   0.402   6.166   6.729
 8131SOL     OW25291   2.905   1.394   1.972
 8131SOL    HW125292   2.967   1.317   1.956
 8131SOL    HW225293   2.958   1.474   2.001
 8132SOL     OW25294   5.636   6.463   5.048
 8132SOL    HW125295   5.613   6.538   5.111
 8132SOL    HW225296   5.677   6.388   5.099
 8133SOL     OW25297   3.572   5.329   2.501
 8133SOL    HW125298   3.570   5.344   2.402
 8133SOL    HW225299   3.485   5.289   2.531
 8134SOL     OW25300   7.024   1.910   6.377
 8134SOL    HW125301   0.022   1.890   6.472
 8134SOL    HW225302   0.023   2.005   6.356
 8135SOL     OW25303   2.061   1.207   1.470
 8135SOL    HW125304   1.979   1.251   1.507
 8135SOL    HW225305   2.040   1.166   1.381
 8136SOL     OW25306   5.205   4.848   2.123
 8136SOL    HW125307   5.290   4.810   2.087
 8136SOL    HW225308   5.225   4.930   2.177
 8137SOL     OW25309   3.230   1.488   5.151
 8137SOL    HW125310   3.149   1.434   5.132
 8137SOL    HW225311   3.213   1.546   5.231
 8138SOL     OW25312   5.515   0.984   1.488
 8138SOL    HW125313   5.537   1.065   1.433
 8138SOL    HW225314   5.443   1.007   1.553
 8139SOL     OW25315   0.148   1.037   1.974
 8139SOL    HW125316   0.067   0.980   1.962
 8139SOL    HW225317   0.221   0.982   2.015
 8140SOL     OW25318   5.536   0.716   5.390
 8140SOL    HW125319   5.456   0.684   5.339
 8140SOL    HW225320   5.619   0.687   5.343
 8141SOL     OW25321   4.993   5.248   5.792
 8141SOL    HW125322   5.058   5.312   5.832
 8141SOL    HW225323   5.042   5.184   5.732
 8142SOL     OW25324   6.736   5.164   0.523
 8142SOL    HW125325   6.773   5.157   0.616
 8142SOL    HW225326   6.637   5.180   0.528
 8143SOL     OW25327   6.333   4.557   0.423
 8143SOL    HW125328   6.255   4.617   0.436
 8143SOL    HW225329   6.413   4.611   0.396
 8144SOL     OW25330   5.657   6.603   7.025
 8144SOL    HW125331   5.561   6.610   0.028
 8144SOL    HW225332   5.661   6.597   6.925
 8145SOL     OW25333   5.737   5.809   1.882
 8145SOL    HW125334   5.697   5.869   1.812
 8145SOL    HW225335   5.683   5.816   1.966
 8146SOL     OW25336   3.573   1.398   5.054
 8146SOL    HW125337   3.527   1.487   5.054
 8146SOL    HW225338   3.636   1.393   5.132
 8147SOL     OW25339   5.898   1.979   3.401
 8147SOL    HW125340   5.887   1.881   3.419
 8147SOL    HW225341   5.811   2.018   3.372
 8148SOL     OW25342   5.272   3.817   2.073
 8148SOL    HW125343   5.206   3.746   2.048
 8148SOL    HW225344   5.311   3.796   2.163
 8149SOL     OW25345   2.572   5.415   2.041
 8149SOL    HW125346   2.573   5.333   1.984
 8149SOL    HW225347   2.629   5.399   2.123
 8150SOL     OW25348   7.000   5.109   0.204
 8150SOL    HW125349   0.046   5.163   0.250
 8150SOL    HW225350   7.008   5.121   0.105
 8151SOL     OW25351   0.318   2.480   3.028
 8151SOL    HW125352   0.367   2.396   3.051
 8151SOL    HW225353   0.283   2.523   3.111
 8152SOL     OW25354   0.389   2.474   2.662
 8152SOL    HW125355   0.426   2.479   2.569
 8152SOL    HW225356   0.355   2.381   2.679
 8153SOL     OW25357   3.696   7.004   3.419
 8153SOL    HW125358   3.749   0.035   3.482
 8153SOL    HW225359   3.758   6.943   3.369
 8154SOL     OW25360   1.996   5.937   3.697
 8154SOL    HW125361   2.089   5.924   3.730
 8154SOL    HW225362   1.950   5.848   3.691
 8155SOL     OW25363   2.895   3.652   1.981
 8155SOL    HW125364   2.920   3.558   1.956
 8155SOL    HW225365   2.892   3.660   2.081
 8156SOL     OW25366   5.652   0.194   5.963
 8156SOL    HW125367   5.562   0.202   5.921
 8156SOL    HW225368   5.696   0.110   5.932
 8157SOL     OW25369   5.772   5.473   6.303
 8157SOL    HW125370   5.756   5.524   6.219
 8157SOL    HW225371   5.852   5.415   6.293
 8158SOL     OW25372   0.868   5.605   0.732
 8158SOL    HW125373   0.774   5.619   0.762
 8158SOL    HW225374   0.925   5.682   0.762
 8159SOL     OW25375   2.268   5.843   2.216
 8159SOL    HW125376   2.338   5.908   2.247
 8159SOL    HW225377   2.273   5.833   2.117
 8160SOL     OW25378   4.506   1.585   1.807
 8160SOL    HW125379   4.505   1.610   1.710
 8160SOL    HW225380   4.413   1.563   1.836
 8161SOL     OW25381   4.898   0.392   1.161
 8161SOL    HW125382   4.932   0.365   1.070
 8161SOL    HW225383   4.883   0.310   1.216
 8162SOL     OW25384   6.326   6.877   6.186
 8162SOL    HW125385   6.237   6.918   6.207
 8162SOL    HW225386   6.322   6.779   6.203
 8163SOL     OW25387   2.472   4.352   5.689
 8163SOL    HW125388   2.508   4.290   5.759
 8163SOL    HW225389   2.404   4.303   5.635
 8164SOL     OW25390   5.501   3.672   0.587
 8164SOL    HW125391   5.568   3.674   0.661
 8164SOL    HW225392   5.540   3.712   0.504
 8165SOL     OW25393   1.620   4.622   0.395
 8165SOL    HW125394   1.645   4.528   0.416
 8165SOL    HW225395   1.703   4.675   0.378
 8166SOL     OW25396   2.083   1.273   1.932
 8166SOL    HW125397   2.092   1.203   1.862
 8166SOL    HW225398   2.169   1.280   1.983
 8167SOL     OW25399   5.365   1.465   4.192
 8167SOL    HW125400   5.406   1.529   4.257
 8167SOL    HW225401   5.297   1.513   4.137
 8168SOL     OW25402   3.230   1.771   2.649
 8168SOL    HW125403   3.144   1.812   2.618
 8168SOL    HW225404   3.241   1.787   2.747
 8169SOL     OW25405   4.886   3.195   1.057
 8169SOL    HW125406   4.810   3.130   1.056
 8169SOL    HW225407   4.889   3.241   1.145
 8170SOL     OW25408   1.881   5.867   3.429
 8170SOL    HW125409   1.787   5.837   3.442
 8170SOL    HW225410   1.911   5.918   3.509
 8171SOL     OW25411   0.712   1.827   6.583
 8171SOL    HW125412   0.676   1.859   6.671
 8171SOL    HW225413   0.768   1.898   6.541
 8172SOL     OW25414   0.159   0.941   1.053
 8172SOL    HW125415   0.181   0.879   1.127
 8172SOL    HW225416   0.240   0.957   0.997
 8173SOL     OW25417   3.175   2.235   0.165
 8173SOL    HW125418   3.256   2.186   0.133
 8173SOL    HW225419   3.112   2.171   0.209
 8174SOL     OW25420   5.551   1.895   1.079
 8174SOL    HW125421   5.478   1.950   1.036
 8174SOL    HW225422   5.513   1.806   1.106
 8175SOL     OW25423   0.161   2.886   6.504
 8175SOL    HW125424   0.095   2.832   6.556
 8175SOL    HW225425   0.115   2.966   6.464
 8176SOL     OW25426   2.313   5.808   1.967
 8176SOL    HW125427   2.401   5.768   1.941
 8176SOL    HW225428   2.272   5.852   1.887
 8177SOL     OW25429   1.672   6.114   3.879
 8177SOL    HW125430   1.706   6.148   3.792
 8177SOL    HW225431   1.574   6.097   3.873
 8178SOL     OW25432   1.668   0.194   5.919
 8178SOL    HW125433   1.632   0.105   5.948
 8178SOL    HW225434   1.763   0.182   5.889
 8179SOL     OW25435   3.626   3.512   0.146
 8179SOL    HW125436   3.621   3.471   0.055
 8179SOL    HW225437   3.534   3.533   0.178
 8180SOL     OW25438   6.282   6.884   3.865
 8180SOL    HW125439   6.238   6.959   3.815
 8180SOL    HW225440   6.363   6.853   3.814
 8181SOL     OW25441   2.455   1.763   3.070
 8181SOL    HW125442   2.481   1.857   3.088
 8181SOL    HW225443   2.511   1.701   3.125
 8182SOL     OW25444   3.619   1.737   6.536
 8182SOL    HW125445   3.699   1.784   6.500
 8182SOL    HW225446   3.541   1.800   6.539
 8183SOL     OW25447   0.606   2.849   5.138
 8183SOL    HW125448   0.644   2.895   5.218
 8183SOL    HW225449   0.513   2.816   5.159
 8184SOL     OW25450   5.992   1.431   5.895
 8184SOL    HW125451   6.073   1.465   5.848
 8184SOL    HW225452   5.992   1.462   5.990
 8185SOL     OW25453   2.709   0.417   0.359
 8185SOL    HW125454   2.722   0.395   0.456
 8185SOL    HW225455   2.669   0.338   0.313
 8186SOL     OW25456   3.371   6.451   5.852
 8186SOL    HW125457   3.454   6.427   5.802
 8186SOL    HW225458   3.384   6.540   5.896
 8187SOL     OW25459   1.366   1.667   5.235
 8187SOL    HW125460   1.423   1.709   5.165
 8187SOL    HW225461   1.421   1.649   5.316
 8188SOL     OW25462   4.820   1.785   2.589
 8188SOL    HW125463   4.829   1.863   2.528
 8188SOL    HW225464   4.728   1.783   2.629
 8189SOL     OW25465   4.834   4.235   2.540
 8189SOL    HW125466   4.818   4.140   2.565
 8189SOL    HW225467   4.746   4.282   2.530
 8190SOL     OW25468   5.701   4.378   4.361
 8190SOL    HW125469   5.731   4.310   4.294
 8190SOL    HW225470   5.745   4.466   4.341
 8191SOL     OW25471   1.997   5.336   3.820
 8191SOL    HW125472   1.931   5.411   3.826
 8191SOL    HW225473   1.957   5.253   3.858
 8192SOL     OW25474   3.025   5.598   0.542
 8192SOL    HW125475   2.960   5.658   0.589
 8192SOL    HW225476   3.079   5.548   0.609
 8193SOL     OW25477   6.136   6.373   5.028
 8193SOL    HW125478   6.184   6.285   5.028
 8193SOL    HW225479   6.142   6.415   5.118
 8194SOL     OW25480   6.363   2.731   6.796
 8194SOL    HW125481   6.378   2.652   6.737
 8194SOL    HW225482   6.325   2.806   6.742
 8195SOL     OW25483   0.469   0.336   0.697
 8195SOL    HW125484   0.551   0.285   0.723
 8195SOL    HW225485   0.475   0.429   0.731
 8196SOL     OW25486   4.203   6.650   5.798
 8196SOL    HW125487   4.210   6.718   5.725
 8196SOL    HW225488   4.145   6.684   5.871
 8197SOL     OW25489   5.794   1.256   6.414
 8197SOL    HW125490   5.806   1.162   6.383
 8197SOL    HW225491   5.862   1.276   6.485
 8198SOL     OW25492   2.822   6.529   2.626
 8198SOL    HW125493   2.783   6.572   2.545
 8198SOL    HW225494   2.787   6.575   2.708
 8199SOL     OW25495   0.168   3.826   0.179
 8199SOL    HW125496   0.264   3.829   0.151
 8199SOL    HW225497   0.119   3.902   0.135
 8200SOL     OW25498   4.421   5.100   1.156
 8200SOL    HW125499   4.510   5.054   1.151
 8200SOL    HW225500   4.373   5.072   1.239
 8201SOL     OW25501   5.131   1.024   4.475
 8201SOL    HW125502   5.219   1.067   4.455
 8201SOL    HW225503   5.057   1.083   4.444
 8202SOL     OW25504   1.794   5.062   4.383
 8202SOL    HW125505   1.781   4.965   4.402
 8202SOL    HW225506   1.864   5.073   4.312
 8203SOL     OW25507   4.665   3.579   0.801
 8203SOL    HW125508   4.634   3.493   0.760
 8203SOL    HW225509   4.723   3.559   0.880
 8204SOL     OW25510   3.584   6.564   1.365
 8204SOL    HW125511   3.619   6.495   1.429
 8204SOL    HW225512   3.522   6.520   1.300
 8205SOL     OW25513   5.709   5.179   1.848
 8205SOL    HW125514   5.751   5.269   1.859
 8205SOL    HW225515   5.659   5.175   1.762
 8206SOL     OW25516   3.406   2.569   6.248
 8206SOL    HW125517   3.397   2.474   6.277
 8206SOL    HW225518   3.495   2.583   6.204
 8207SOL     OW25519   2.933   4.621   5.523
 8207SOL    HW125520   2.873   4.631   5.444
 8207SOL    HW225521   2.879   4.633   5.607
 8208SOL     OW25522   2.715   5.812   1.804
 8208SOL    HW125523   2.645   5.754   1.846
 8208SOL    HW225524   2.680   5.851   1.719
 8209SOL     OW25525   1.516   0.881   5.698
 8209SOL    HW125526   1.488   0.788   5.720
 8209SOL    HW225527   1.559   0.923   5.778
 8210SOL     OW25528   2.827   0.702   0.376
 8210SOL    HW125529   2.742   0.754   0.378
 8210SOL    HW225530   2.807   0.604   0.378
 8211SOL     OW25531   3.577   4.176   4.556
 8211SOL    HW125532   3.674   4.153   4.545
 8211SOL    HW225533   3.560   4.204   4.651
 8212SOL     OW25534   2.636   0.261   0.871
 8212SOL    HW125535   2.616   0.171   0.833
 8212SOL    HW225536   2.704   0.253   0.943
 8213SOL     OW25537   4.309   5.474   3.082
 8213SOL    HW125538   4.297   5.544   3.152
 8213SOL    HW225539   4.233   5.408   3.087
 8214SOL     OW25540   2.578   5.628   4.236
 8214SOL    HW125541   2.540   5.719   4.220
 8214SOL    HW225542   2.509   5.559   4.216
 8215SOL     OW25543   4.194   6.474   6.722
 8215SOL    HW125544   4.236   6.448   6.809
 8215SOL    HW225545   4.108   6.521   6.740
 8216SOL     OW25546   4.878   6.132   3.002
 8216SOL    HW125547   4.948   6.160   2.936
 8216SOL    HW225548   4.792   6.115   2.953
 8217SOL     OW25549   2.388   4.397   2.888
 8217SOL    HW125550   2.391   4.380   2.789
 8217SOL    HW225551   2.412   4.492   2.906
 8218SOL     OW25552   2.012   0.527   4.721
 8218SOL    HW125553   2.073   0.451   4.740
 8218SOL    HW225554   1.960   0.508   4.638
 8219SOL     OW25555   3.405   4.086   1.647
 8219SOL    HW125556   3.382   4.012   1.583
 8219SOL    HW225557   3.326   4.104   1.706
 8220SOL     OW25558   3.212   4.189   5.284
 8220SOL    HW125559   3.149   4.267   5.290
 8220SOL    HW225560   3.267   4.184   5.367
 8221SOL     OW25561   5.941   4.114   3.108
 8221SOL    HW125562   6.020   4.169   3.136
 8221SOL    HW225563   5.965   4.017   3.110
 8222SOL     OW25564   6.175   2.983   1.293
 8222SOL    HW125565   6.222   2.913   1.238
 8222SOL    HW225566   6.118   2.938   1.362
 8223SOL     OW25567   7.021   5.616   4.925
 8223SOL    HW125568   7.026   5.549   4.999
 8223SOL    HW225569   6.992   5.571   4.841
 8224SOL     OW25570   5.210   1.840   0.756
 8224SOL    HW125571   5.227   1.764   0.694
 8224SOL    HW225572   5.260   1.825   0.842
 8225SOL     OW25573   4.073   0.276   0.229
 8225SOL    HW125574   3.997   0.278   0.165
 8225SOL    HW225575   4.075   0.361   0.281
 8226SOL     OW25576   3.526   0.622   6.989
 8226SOL    HW125577   3.556   0.680   0.039
 8226SOL    HW225578   3.451   0.666   6.941
 8227SOL     OW25579   5.302   1.391   2.982
 8227SOL    HW125580   5.216   1.442   2.988
 8227SOL    HW225581   5.330   1.383   2.886
 8228SOL     OW25582   0.574   1.387   5.051
 8228SOL    HW125583   0.495   1.327   5.048
 8228SOL    HW225584   0.561   1.464   4.988
 8229SOL     OW25585   3.545   4.547   1.300
 8229SOL    HW125586   3.642   4.550   1.324
 8229SOL    HW225587   3.492   4.593   1.371
 8230SOL     OW25588   4.385   0.387   5.684
 8230SOL    HW125589   4.426   0.434   5.762
 8230SOL    HW225590   4.421   0.424   5.599
 8231SOL     OW25591   3.413   1.010   2.313
 8231SOL    HW125592   3.358   1.029   2.231
 8231SOL    HW225593   3.377   1.063   2.389
 8232SOL     OW25594   4.118   1.000   2.095
 8232SOL    HW125595   4.071   1.085   2.120
 8232SOL    HW225596   4.141   1.002   1.998
 8233SOL     OW25597   0.642   0.891   5.413
 8233SOL    HW125598   0.699   0.814   5.441
 8233SOL    HW225599   0.683   0.936   5.334
 8234SOL     OW25600   2.776   3.663   0.120
 8234SOL    HW125601   2.861   3.629   0.080
 8234SOL    HW225602   2.778   3.763   0.124
 8235SOL     OW25603   6.959   5.244   6.518
 8235SOL    HW125604   6.959   5.296   6.433
 8235SOL    HW225605   0.002   5.280   6.581
 8236SOL     OW25606   0.418   6.150   5.864
 8236SOL    HW125607   0.366   6.091   5.802
 8236SOL    HW225608   0.503   6.104   5.891
 8237SOL     OW25609   4.708   5.716   6.421
 8237SOL    HW125610   4.679   5.747   6.330
 8237SOL    HW225611   4.807   5.701   6.421
 8238SOL     OW25612   2.373   5.494   0.135
 8238SOL    HW125613   2.466   5.457   0.133
 8238SOL    HW225614   2.371   5.581   0.087
 8239SOL     OW25615   0.749   1.777   4.624
 8239SOL    HW125616   0.823   1.717   4.653
 8239SOL    HW225617   0.691   1.799   4.702
 8240SOL     OW25618   3.753   3.003   4.070
 8240SOL    HW125619   3.721   3.020   3.977
 8240SOL    HW225620   3.696   2.931   4.112
 8241SOL     OW25621   1.506   3.056   6.614
 8241SOL    HW125622   1.591   3.011   6.587
 8241SOL    HW225623   1.429   2.993   6.603
 8242SOL     OW25624   1.008   3.714   4.680
 8242SOL    HW125625   1.024   3.665   4.765
 8242SOL    HW225626   0.911   3.710   4.655
 8243SOL     OW25627   0.549   5.038   6.259
 8243SOL    HW125628   0.601   5.116   6.223
 8243SOL    HW225629   0.591   5.007   6.344
 8244SOL     OW25630   0.665   0.508   3.707
 8244SOL    HW125631   0.649   0.493   3.609
 8244SOL    HW225632   0.631   0.599   3.732
 8245SOL     OW25633   5.199   1.219   4.139
 8245SOL    HW125634   5.257   1.293   4.173
 8245SOL    HW225635   5.171   1.239   4.045
 8246SOL     OW25636   1.356   4.064   6.682
 8246SOL    HW125637   1.330   3.978   6.637
 8246SOL    HW225638   1.387   4.044   6.775
 8247SOL     OW25639   2.930   5.029   3.306
 8247SOL    HW125640   2.845   5.021   3.255
 8247SOL    HW225641   2.935   4.956   3.374
 8248SOL     OW25642   0.470   5.474   3.210
 8248SOL    HW125643   0.504   5.530   3.135
 8248SOL    HW225644   0.417   5.397   3.172
 8249SOL     OW25645   2.222   1.958   5.561
 8249SOL    HW125646   2.319   1.945   5.544
 8249SOL    HW225647   2.180   2.009   5.486
 8250SOL     OW25648   2.263   1.717   0.258
 8250SOL    HW125649   2.269   1.806   0.214
 8250SOL    HW225650   2.191   1.663   0.214
 8251SOL     OW25651   6.996   3.077   4.746
 8251SOL    HW125652   0.010   3.168   4.733
 8251SOL    HW225653   0.032   3.020   4.800
 8252SOL     OW25654   2.350   2.243   6.644
 8252SOL    HW125655   2.324   2.177   6.714
 8252SOL    HW225656   2.309   2.332   6.664
 8253SOL     OW25657   3.510   5.843   6.362
 8253SOL    HW125658   3.565   5.882   6.288
 8253SOL    HW225659   3.463   5.761   6.329
 8254SOL     OW25660   6.137   4.860   0.661
 8254SOL    HW125661   6.162   4.793   0.730
 8254SOL    HW225662   6.063   4.918   0.696
 8255SOL     OW25663   0.351   0.183   5.938
 8255SOL    HW125664   0.393   0.166   6.027
 8255SOL    HW225665   0.419   0.169   5.866
 8256SOL     OW25666   1.309   6.166   2.468
 8256SOL    HW125667   1.268   6.085   2.511
 8256SOL    HW225668   1.374   6.136   2.398
 8257SOL     OW25669   5.616   4.072   4.226
 8257SOL    HW125670   5.710   4.077   4.192
 8257SOL    HW225671   5.554   4.108   4.158
 8258SOL     OW25672   5.655   2.738   1.693
 8258SOL    HW125673   5.606   2.816   1.653
 8258SOL    HW225674   5.674   2.671   1.622
 8259SOL     OW25675   4.137   2.162   4.529
 8259SOL    HW125676   4.090   2.242   4.491
 8259SOL    HW225677   4.224   2.150   4.481
 8260SOL     OW25678   2.493   0.075   0.480
 8260SOL    HW125679   2.481   7.018   0.535
 8260SOL    HW225680   2.408   0.127   0.479
 8261SOL     OW25681   5.443   6.180   2.955
 8261SOL    HW125682   5.388   6.210   3.033
 8261SOL    HW225683   5.536   6.159   2.986
 8262SOL     OW25684   0.417   4.467   0.819
 8262SOL    HW125685   0.397   4.472   0.721
 8262SOL    HW225686   0.511   4.435   0.832
 8263SOL     OW25687   6.896   2.203   6.638
 8263SOL    HW125688   6.906   2.234   6.733
 8263SOL    HW225689   6.799   2.188   6.618
 8264SOL     OW25690   1.990   0.086   2.186
 8264SOL    HW125691   2.057   0.032   2.237
 8264SOL    HW225692   1.922   0.025   2.146
 8265SOL     OW25693   4.668   0.301   1.377
 8265SOL    HW125694   4.603   0.373   1.399
 8265SOL    HW225695   4.692   0.251   1.461
 8266SOL     OW25696   2.627   0.021   3.698
 8266SOL    HW125697   2.666   0.020   3.790
 8266SOL    HW225698   2.667   6.973   3.643
 8267SOL     OW25699   1.230   4.445   2.879
 8267SOL    HW125700   1.312   4.501   2.885
 8267SOL    HW225701   1.252   4.358   2.835
 8268SOL     OW25702   3.166   3.725   6.464
 8268SOL    HW125703   3.129   3.812   6.496
 8268SOL    HW225704   3.251   3.705   6.513
 8269SOL     OW25705   4.388   2.233   3.293
 8269SOL    HW125706   4.407   2.295   3.370
 8269SOL    HW225707   4.333   2.156   3.325
 8270SOL     OW25708   3.899   0.040   5.833
 8270SOL    HW125709   3.899   6.966   5.842
 8270SOL    HW225710   3.897   0.081   5.925
 8271SOL     OW25711   5.257   6.044   4.380
 8271SOL    HW125712   5.241   6.143   4.389
 8271SOL    HW225713   5.186   5.994   4.430
 8272SOL     OW25714   0.620   0.593   2.080
 8272SOL    HW125715   0.683   0.668   2.098
 8272SOL    HW225716   0.590   0.553   2.167
 8273SOL     OW25717   2.227   6.622   0.134
 8273SOL    HW125718   2.258   6.703   0.085
 8273SOL    HW225719   2.199   6.648   0.227
 8274SOL     OW25720   5.074   5.480   6.996
 8274SOL    HW125721   5.134   5.410   6.957
 8274SOL    HW225722   5.035   5.447   0.056
 8275SOL     OW25723   6.875   0.525   4.130
 8275SOL    HW125724   6.930   0.443   4.146
 8275SOL    HW225725   6.850   0.567   4.217
 8276SOL     OW25726   0.076   2.758   5.910
 8276SOL    HW125727   0.081   2.840   5.966
 8276SOL    HW225728   7.011   2.716   5.919
 8277SOL     OW25729   1.586   6.275   5.846
 8277SOL    HW125730   1.643   6.326   5.782
 8277SOL    HW225731   1.601   6.177   5.833
 8278SOL     OW25732   3.741   2.224   6.807
 8278SOL    HW125733   3.814   2.177   6.758
 8278SOL    HW225734   3.772   2.315   6.833
 8279SOL     OW25735   4.725   6.011   6.450
 8279SOL    HW125736   4.655   6.057   6.394
 8279SOL    HW225737   4.709   5.912   6.448
 8280SOL     OW25738   5.173   2.469   0.760
 8280SOL    HW125739   5.143   2.495   0.668
 8280SOL    HW225740   5.132   2.532   0.826
 8281SOL     OW25741   1.219   5.250   0.507
 8281SOL    HW125742   1.201   5.317   0.435
 8281SOL    HW225743   1.138   5.193   0.520
 8282SOL     OW25744   2.743   2.648   1.256
 8282SOL    HW125745   2.785   2.645   1.346
 8282SOL    HW225746   2.780   2.726   1.205
 8283SOL     OW25747   0.562   4.661   3.954
 8283SOL    HW125748   0.586   4.737   4.014
 8283SOL    HW225749   0.463   4.659   3.941
 8284SOL     OW25750   2.568   2.291   2.451
 8284SOL    HW125751   2.624   2.322   2.375
 8284SOL    HW225752   2.471   2.292   2.423
 8285SOL     OW25753   2.925   4.096   5.942
 8285SOL    HW125754   3.007   4.038   5.945
 8285SOL    HW225755   2.930   4.156   5.862
 8286SOL     OW25756   5.293   0.842   4.956
 8286SOL    HW125757   5.302   0.940   4.973
 8286SOL    HW225758   5.342   0.818   4.873
 8287SOL     OW25759   1.104   0.150   3.451
 8287SOL    HW125760   1.157   0.219   3.500
 8287SOL    HW225761   1.007   0.160   3.476
 8288SOL     OW25762   2.103   2.104   2.499
 8288SOL    HW125763   2.061   2.192   2.477
 8288SOL    HW225764   2.069   2.071   2.587
 8289SOL     OW25765   6.047   2.176   5.018
 8289SOL    HW125766   6.028   2.274   5.027
 8289SOL    HW225767   6.063   2.137   5.109
 8290SOL     OW25768   3.697   2.558   1.717
 8290SOL    HW125769   3.679   2.469   1.758
 8290SOL    HW225770   3.639   2.569   1.636
 8291SOL     OW25771   5.719   6.835   6.676
 8291SOL    HW125772   5.689   6.741   6.694
 8291SOL    HW225773   5.818   6.837   6.664
 8292SOL     OW25774   0.869   4.896   5.784
 8292SOL    HW125775   0.828   4.805   5.789
 8292SOL    HW225776   0.828   4.946   5.708
 8293SOL     OW25777   2.722   5.132   2.115
 8293SOL    HW125778   2.762   5.129   2.023
 8293SOL    HW225779   2.764   5.205   2.168
 8294SOL     OW25780   0.172   4.165   6.099
 8294SOL    HW125781   0.247   4.229   6.112
 8294SOL    HW225782   0.139   4.171   6.005
 8295SOL     OW25783   5.260   3.783   2.963
 8295SOL    HW125784   5.232   3.745   2.874
 8295SOL    HW225785   5.231   3.720   3.035
 8296SOL     OW25786   3.019   5.657   0.258
 8296SOL    HW125787   3.030   5.650   0.357
 8296SOL    HW225788   2.986   5.749   0.234
 8297SOL     OW25789   6.844   4.450   2.563
 8297SOL    HW125790   6.835   4.420   2.468
 8297SOL    HW225791   6.859   4.549   2.565
 8298SOL     OW25792   0.851   0.975   6.747
 8298SOL    HW125793   0.856   1.049   6.814
 8298SOL    HW225794   0.943   0.942   6.726
 8299SOL     OW25795   0.123   3.731   2.155
 8299SOL    HW125796   0.063   3.796   2.108
 8299SOL    HW225797   0.191   3.781   2.209
 8300SOL     OW25798   6.570   5.370   3.902
 8300SOL    HW125799   6.538   5.464   3.913
 8300SOL    HW225800   6.571   5.346   3.805
 8301SOL     OW25801   3.667   6.841   0.222
 8301SOL    HW125802   3.673   6.885   0.311
 8301SOL    HW225803   3.663   6.742   0.234
 8302SOL     OW25804   3.603   6.312   4.441
 8302SOL    HW125805   3.595   6.358   4.352
 8302SOL    HW225806   3.692   6.267   4.447
 8303SOL     OW25807   6.160   0.221   2.138
 8303SOL    HW125808   6.194   0.278   2.213
 8303SOL    HW225809   6.203   0.131   2.143
 8304SOL     OW25810   6.138   3.131   3.595
 8304SOL    HW125811   6.052   3.183   3.589
 8304SOL    HW225812   6.186   3.156   3.679
 8305SOL     OW25813   4.473   5.394   3.947
 8305SOL    HW125814   4.572   5.396   3.962
 8305SOL    HW225815   4.427   5.422   4.032
 8306SOL     OW25816   6.396   1.015   2.078
 8306SOL    HW125817   6.339   0.965   2.013
 8306SOL    HW225818   6.351   1.019   2.167
 8307SOL     OW25819   1.777   5.094   2.246
 8307SOL    HW125820   1.738   5.080   2.155
 8307SOL    HW225821   1.824   5.011   2.274
 8308SOL     OW25822   1.126   4.626   0.073
 8308SOL    HW125823   1.176   4.553   0.026
 8308SOL    HW225824   1.065   4.586   0.141
 8309SOL     OW25825   6.633   4.672   4.788
 8309SOL    HW125826   6.675   4.587   4.758
 8309SOL    HW225827   6.694   4.719   4.852
 8310SOL     OW25828   0.424   7.009   0.775
 8310SOL    HW125829   0.467   6.931   0.819
 8310SOL    HW225830   0.373   0.037   0.843
 8311SOL     OW25831   5.582   6.356   4.074
 8311SOL    HW125832   5.564   6.325   4.167
 8311SOL    HW225833   5.648   6.295   4.031
 8312SOL     OW25834   4.900   0.236   0.118
 8312SOL    HW125835   4.877   0.317   0.065
 8312SOL    HW225836   4.821   0.209   0.173
 8313SOL     OW25837   4.317   0.414   5.237
 8313SOL    HW125838   4.294   0.402   5.333
 8313SOL    HW225839   4.236   0.398   5.180
 8314SOL     OW25840   5.301   6.465   5.893
 8314SOL    HW125841   5.236   6.397   5.929
 8314SOL    HW225842   5.394   6.429   5.901
 8315SOL     OW25843   3.657   3.170   4.641
 8315SOL    HW125844   3.630   3.118   4.560
 8315SOL    HW225845   3.677   3.107   4.716
 8316SOL     OW25846   0.852   2.868   0.341
 8316SOL    HW125847   0.900   2.825   0.418
 8316SOL    HW225848   0.800   2.798   0.292
 8317SOL     OW25849   2.029   1.871   4.680
 8317SOL    HW125850   2.023   1.971   4.686
 8317SOL    HW225851   1.990   1.841   4.592
 8318SOL     OW25852   3.892   0.244   6.513
 8318SOL    HW125853   3.825   0.274   6.580
 8318SOL    HW225854   3.890   0.305   6.433
 8319SOL     OW25855   1.420   0.242   6.219
 8319SOL    HW125856   1.468   0.266   6.303
 8319SOL    HW225857   1.472   0.275   6.140
 8320SOL     OW25858   3.582   3.849   4.373
 8320SOL    HW125859   3.525   3.899   4.438
 8320SOL    HW225860   3.670   3.897   4.363
 8321SOL     OW25861   0.249   0.492   0.058
 8321SOL    HW125862   0.245   0.444   6.996
 8321SOL    HW225863   0.274   0.588   0.043
 8322SOL     OW25864   6.829   1.130   0.468
 8322SOL    HW125865   6.855   1.048   0.519
 8322SOL    HW225866   6.753   1.108   0.406
 8323SOL     OW25867   4.831   4.673   1.060
 8323SOL    HW125868   4.843   4.747   0.994
 8323SOL    HW225869   4.741   4.680   1.102
 8324SOL     OW25870   6.314   0.249   6.319
 8324SOL    HW125871   6.361   0.279   6.236
 8324SOL    HW225872   6.225   0.294   6.325
 8325SOL     OW25873   1.655   6.027   4.750
 8325SOL    HW125874   1.601   6.048   4.668
 8325SOL    HW225875   1.680   5.931   4.750
 8326SOL     OW25876   2.511   3.666   0.303
 8326SOL    HW125877   2.544   3.726   0.375
 8326SOL    HW225878   2.523   3.571   0.331
 8327SOL     OW25879   0.476   0.669   5.181
 8327SOL    HW125880   0.538   0.610   5.232
 8327SOL    HW225881   0.500   0.666   5.084
 8328SOL     OW25882   0.803   6.418   5.891
 8328SOL    HW125883   0.810   6.467   5.978
 8328SOL    HW225884   0.716   6.440   5.847
 8329SOL     OW25885   0.612   2.682   4.944
 8329SOL    HW125886   0.561   2.606   4.984
 8329SOL    HW225887   0.629   2.751   5.014
 8330SOL     OW25888   3.995   0.935   6.557
 8330SOL    HW125889   4.010   0.979   6.645
 8330SOL    HW225890   3.913   0.879   6.560
 8331SOL     OW25891   1.835   2.105   0.377
 8331SOL    HW125892   1.875   2.021   0.342
 8331SOL    HW225893   1.847   2.109   0.476
 8332SOL     OW25894   5.525   4.788   1.767
 8332SOL    HW125895   5.497   4.692   1.762
 8332SOL    HW225896   5.445   4.844   1.788
 8333SOL     OW25897   2.119   4.882   0.897
 8333SOL    HW125898   2.077   4.882   0.806
 8333SOL    HW225899   2.070   4.946   0.956
 8334SOL     OW25900   2.976   2.467   6.596
 8334SOL    HW125901   2.989   2.452   6.694
 8334SOL    HW225902   2.951   2.563   6.581
 8335SOL     OW25903   4.945   3.115   6.438
 8335SOL    HW125904   4.880   3.043   6.462
 8335SOL    HW225905   4.915   3.160   6.355
 8336SOL     OW25906   1.354   3.456   2.877
 8336SOL    HW125907   1.386   3.458   2.782
 8336SOL    HW225908   1.327   3.547   2.906
 8337SOL     OW25909   0.918   1.537   4.696
 8337SOL    HW125910   0.898   1.484   4.613
 8337SOL    HW225911   1.001   1.501   4.739
 8338SOL     OW25912   3.625   4.918   2.210
 8338SOL    HW125913   3.550   4.972   2.249
 8338SOL    HW225914   3.589   4.859   2.137
 8339SOL     OW25915   0.172   0.607   0.617
 8339SOL    HW125916   0.128   0.598   0.706
 8339SOL    HW225917   0.133   0.539   0.554
 8340SOL     OW25918   5.119   2.030   0.562
 8340SOL    HW125919   5.173   1.960   0.515
 8340SOL    HW225920   5.058   1.986   0.628
 8341SOL     OW25921   3.388   0.364   0.143
 8341SOL    HW125922   3.368   0.266   0.153
 8341SOL    HW225923   3.414   0.383   0.049
 8342SOL     OW25924   3.735   6.443   6.764
 8342SOL    HW125925   3.649   6.486   6.737
 8342SOL    HW225926   3.716   6.351   6.799
 8343SOL     OW25927   6.597   4.271   3.704
 8343SOL    HW125928   6.559   4.180   3.690
 8343SOL    HW225929   6.696   4.269   3.686
 8344SOL     OW25930   0.965   5.337   4.407
 8344SOL    HW125931   1.038   5.339   4.338
 8344SOL    HW225932   1.006   5.345   4.498
 8345SOL     OW25933   5.335   0.847   2.890
 8345SOL    HW125934   5.413   0.884   2.942
 8345SOL    HW225935   5.369   0.788   2.817
 8346SOL     OW25936   4.647   3.243   5.801
 8346SOL    HW125937   4.590   3.282   5.729
 8346SOL    HW225938   4.720   3.188   5.759
 8347SOL     OW25939   2.379   6.984   5.848
 8347SOL    HW125940   2.413   6.920   5.915
 8347SOL    HW225941   2.454   0.016   5.815
 8348SOL     OW25942   3.687   6.364   1.048
 8348SOL    HW125943   3.627   6.442   1.031
 8348SOL    HW225944   3.770   6.395   1.094
 8349SOL     OW25945   0.466   6.552   2.254
 8349SOL    HW125946   0.545   6.593   2.300
 8349SOL    HW225947   0.496   6.506   2.171
 8350SOL     OW25948   2.700   0.044   6.019
 8350SOL    HW125949   2.672   7.016   6.099
 8350SOL    HW225950   2.622   0.099   5.987
 8351SOL     OW25951   6.501   4.856   4.345
 8351SOL    HW125952   6.484   4.920   4.271
 8351SOL    HW225953   6.419   4.846   4.401
 8352SOL     OW25954   2.634   6.354   1.898
 8352SOL    HW125955   2.662   6.352   1.802
 8352SOL    HW225956   2.705   6.312   1.954
 8353SOL     OW25957   0.953   3.920   1.841
 8353SOL    HW125958   0.954   3.857   1.919
 8353SOL    HW225959   1.036   3.975   1.843
 8354SOL     OW25960   3.546   6.441   4.209
 8354SOL    HW125961   3.536   6.528   4.258
 8354SOL    HW225962   3.612   6.452   4.134
 8355SOL     OW25963   1.330   6.862   6.154
 8355SOL    HW125964   1.351   6.912   6.238
 8355SOL    HW225965   1.247   6.900   6.112
 8356SOL     OW25966   1.868   5.552   1.640
 8356SOL    HW125967   1.820   5.632   1.674
 8356SOL    HW225968   1.944   5.530   1.701
 8357SOL     OW25969   4.090   5.396   5.958
 8357SOL    HW125970   4.027   5.360   5.889
 8357SOL    HW225971   4.182   5.358   5.941
 8358SOL     OW25972   1.332   2.399   5.285
 8358SOL    HW125973   1.359   2.317   5.335
 8358SOL    HW225974   1.270   2.453   5.342
 8359SOL     OW25975   3.100   0.937   4.806
 8359SOL    HW125976   3.184   0.882   4.802
 8359SOL    HW225977   3.093   0.980   4.896
 8360SOL     OW25978   4.650   6.405   0.812
 8360SOL    HW125979   4.568   6.430   0.864
 8360SOL    HW225980   4.674   6.479   0.750
 8361SOL     OW25981   2.107   6.831   6.684
 8361SOL    HW125982   2.163   6.888   6.744
 8361SOL    HW225983   2.020   6.877   6.666
 8362SOL     OW25984   6.389   3.013   0.430
 8362SOL    HW125985   6.406   3.037   0.335
 8362SOL    HW225986   6.310   3.065   0.464
 8363SOL     OW25987   4.018   2.191   0.704
 8363SOL    HW125988   3.993   2.271   0.649
 8363SOL    HW225989   4.101   2.212   0.757
 8364SOL     OW25990   0.640   2.683   3.442
 8364SOL    HW125991   0.615   2.778   3.461
 8364SOL    HW225992   0.656   2.634   3.527
 8365SOL     OW25993   1.849   2.627   1.989
 8365SOL    HW125994   1.786   2.568   2.040
 8365SOL    HW225995   1.824   2.625   1.892
 8366SOL     OW25996   4.316   5.575   1.087
 8366SOL    HW125997   4.313   5.571   0.987
 8366SOL    HW225998   4.320   5.482   1.124
 8367SOL     OW25999   3.268   5.171   4.990
 8367SOL    HW126000   3.208   5.150   4.913
 8367SOL    HW226001   3.315   5.088   5.020
 8368SOL     OW26002   0.799   6.443   0.378
 8368SOL    HW126003   0.768   6.405   0.291
 8368SOL    HW226004   0.729   6.426   0.448
 8369SOL     OW26005   1.028   1.654   0.784
 8369SOL    HW126006   1.023   1.736   0.727
 8369SOL    HW226007   0.989   1.674   0.874
 8370SOL     OW26008   2.907   1.903   6.910
 8370SOL    HW126009   2.981   1.916   6.976
 8370SOL    HW226010   2.938   1.930   6.819
 8371SOL     OW26011   1.430   2.835   5.404
 8371SOL    HW126012   1.350   2.853   5.348
 8371SOL    HW226013   1.513   2.865   5.356
 8372SOL     OW26014   2.443   6.606   2.324
 8372SOL    HW126015   2.391   6.637   2.404
 8372SOL    HW226016   2.479   6.514   2.341
 8373SOL     OW26017   1.091   1.886   4.409
 8373SOL    HW126018   1.105   1.866   4.506
 8373SOL    HW226019   1.140   1.819   4.353
 8374SOL     OW26020   1.128   1.051   4.335
 8374SOL    HW126021   1.164   1.097   4.255
 8374SOL    HW226022   1.130   0.952   4.322
 8375SOL     OW26023   4.332   0.902   5.814
 8375SOL    HW126024   4.232   0.910   5.808
 8375SOL    HW226025   4.374   0.941   5.732
 8376SOL     OW26026   1.662   1.080   3.533
 8376SOL    HW126027   1.711   0.999   3.502
 8376SOL    HW226028   1.612   1.121   3.457
 8377SOL     OW26029   5.719   4.994   6.937
 8377SOL    HW126030   5.745   5.090   6.923
 8377SOL    HW226031   5.619   4.988   6.944
 8378SOL     OW26032   5.436   5.449   3.441
 8378SOL    HW126033   5.464   5.358   3.410
 8378SOL    HW226034   5.366   5.485   3.379
 8379SOL     OW26035   4.825   1.887   1.807
 8379SOL    HW126036   4.822   1.889   1.707
 8379SOL    HW226037   4.830   1.792   1.838
 8380SOL     OW26038   0.167   5.950   6.443
 8380SOL    HW126039   0.116   6.027   6.405
 8380SOL    HW226040   0.265   5.968   6.435
 8381SOL     OW26041   0.008   2.224   3.018
 8381SOL    HW126042   6.990   2.303   2.976
 8381SOL    HW226043   0.042   2.248   3.109
 8382SOL     OW26044   2.383   0.267   6.762
 8382SOL    HW126045   2.377   0.336   6.690
 8382SOL    HW226046   2.424   0.307   6.844
 8383SOL     OW26047   2.671   0.143   4.602
 8383SOL    HW126048   2.614   0.120   4.524
 8383SOL    HW226049   2.734   0.217   4.577
 8384SOL     OW26050   6.572   1.757   1.409
 8384SOL    HW126051   6.496   1.788   1.353
 8384SOL    HW226052   6.537   1.699   1.483
 8385SOL     OW26053   4.582   3.062   0.691
 8385SOL    HW126054   4.512   3.022   0.751
 8385SOL    HW226055   4.670   3.061   0.738
 8386SOL     OW26056   2.180   6.631   1.469
 8386SOL    HW126057   2.116   6.705   1.448
 8386SOL    HW226058   2.184   6.617   1.568
 8387SOL     OW26059   2.514   1.389   1.352
 8387SOL    HW126060   2.415   1.375   1.345
 8387SOL    HW226061   2.532   1.480   1.389
 8388SOL     OW26062   1.620   6.950   0.635
 8388SOL    HW126063   1.692   7.014   0.664
 8388SOL    HW226064   1.661   6.874   0.586
 8389SOL     OW26065   1.629   3.308   4.338
 8389SOL    HW126066   1.570   3.317   4.258
 8389SOL    HW226067   1.705   3.247   4.317
 8390SOL     OW26068   2.598   0.611   5.990
 8390SOL    HW126069   2.621   0.678   6.061
 8390SOL    HW226070   2.508   0.572   6.008
 8391SOL     OW26071   5.133   5.584   2.005
 8391SOL    HW126072   5.068   5.524   2.052
 8391SOL    HW226073   5.197   5.622   2.071
 8392SOL     OW26074   6.213   5.868   4.622
 8392SOL    HW126075   6.132   5.910   4.662
 8392SOL    HW226076   6.208   5.769   4.633
 8393SOL     OW26077   6.510   6.905   3.676
 8393SOL    HW126078   6.552   6.993   3.653
 8393SOL    HW226079   6.581   6.835   3.683
 8394SOL     OW26080   0.784   1.315   2.498
 8394SOL    HW126081   0.845   1.325   2.576
 8394SOL    HW226082   0.708   1.255   2.524
 8395SOL     OW26083   0.373   6.359   4.191
 8395SOL    HW126084   0.378   6.264   4.160
 8395SOL    HW226085   0.461   6.403   4.177
 8396SOL     OW26086   4.258   4.660   2.552
 8396SOL    HW126087   4.294   4.619   2.468
 8396SOL    HW226088   4.162   4.684   2.538
 8397SOL     OW26089   2.022   6.675   2.908
 8397SOL    HW126090   2.069   6.643   2.990
 8397SOL    HW226091   1.924   6.685   2.927
 8398SOL     OW26092   4.241   1.782   0.351
 8398SOL    HW126093   4.235   1.838   0.268
 8398SOL    HW226094   4.268   1.840   0.428
 8399SOL     OW26095   5.745   5.769   0.562
 8399SOL    HW126096   5.730   5.750   0.465
 8399SOL    HW226097   5.664   5.744   0.615
 8400SOL     OW26098   6.995   0.198   2.849
 8400SOL    HW126099   6.975   0.170   2.943
 8400SOL    HW226100   6.909   0.215   2.800
 8401SOL     OW26101   4.460   2.826   5.980
 8401SOL    HW126102   4.385   2.884   5.949
 8401SOL    HW226103   4.528   2.817   5.906
 8402SOL     OW26104   3.577   2.161   5.714
 8402SOL    HW126105   3.523   2.104   5.776
 8402SOL    HW226106   3.585   2.114   5.625
 8403SOL     OW26107   0.462   1.388   3.415
 8403SOL    HW126108   0.381   1.440   3.389
 8403SOL    HW226109   0.542   1.448   3.412
 8404SOL     OW26110   5.503   6.847   6.476
 8404SOL    HW126111   5.499   6.945   6.455
 8404SOL    HW226112   5.586   6.827   6.528
 8405SOL     OW26113   1.830   2.073   6.496
 8405SOL    HW126114   1.808   2.134   6.420
 8405SOL    HW226115   1.747   2.027   6.527
 8406SOL     OW26116   4.579   1.758   0.792
 8406SOL    HW126117   4.653   1.732   0.731
 8406SOL    HW226118   4.495   1.711   0.765
 8407SOL     OW26119   5.886   4.525   4.938
 8407SOL    HW126120   5.917   4.534   5.033
 8407SOL    HW226121   5.954   4.473   4.886
 8408SOL     OW26122   5.407   0.303   4.130
 8408SOL    HW126123   5.350   0.285   4.210
 8408SOL    HW226124   5.350   0.307   4.049
 8409SOL     OW26125   0.754   1.893   3.758
 8409SOL    HW126126   0.711   1.951   3.689
 8409SOL    HW226127   0.697   1.891   3.840
 8410SOL     OW26128   5.109   0.889   2.038
 8410SOL    HW126129   5.085   0.810   1.982
 8410SOL    HW226130   5.127   0.859   2.132
 8411SOL     OW26131   1.459   5.105   3.860
 8411SOL    HW126132   1.497   5.066   3.776
 8411SOL    HW226133   1.374   5.153   3.839
 8412SOL     OW26134   4.530   2.021   0.908
 8412SOL    HW126135   4.525   1.931   0.865
 8412SOL    HW226136   4.566   2.087   0.842
 8413SOL     OW26137   4.036   5.075   0.603
 8413SOL    HW126138   3.986   5.158   0.628
 8413SOL    HW226139   4.087   5.091   0.518
 8414SOL     OW26140   3.855   7.010   2.359
 8414SOL    HW126141   3.774   6.957   2.336
 8414SOL    HW226142   3.858   7.026   2.458
 8415SOL     OW26143   7.022   4.765   3.871
 8415SOL    HW126144   6.974   4.763   3.959
 8415SOL    HW226145   0.052   4.848   3.865
 8416SOL     OW26146   5.113   4.071   2.687
 8416SOL    HW126147   5.210   4.094   2.688
 8416SOL    HW226148   5.059   4.154   2.672
 8417SOL     OW26149   3.021   6.407   5.332
 8417SOL    HW126150   2.958   6.472   5.289
 8417SOL    HW226151   3.080   6.366   5.262
 8418SOL     OW26152   5.410   5.591   2.070
 8418SOL    HW126153   5.504   5.558   2.072
 8418SOL    HW226154   5.348   5.514   2.053
 8419SOL     OW26155   4.921   1.078   2.080
 8419SOL    HW126156   4.988   1.005   2.065
 8419SOL    HW226157   4.961   1.148   2.138
 8420SOL     OW26158   3.878   6.898   0.427
 8420SOL    HW126159   3.875   6.813   0.480
 8420SOL    HW226160   3.875   6.976   0.490
 8421SOL     OW26161   2.408   6.690   1.302
 8421SOL    HW126162   2.310   6.682   1.321
 8421SOL    HW226163   2.422   6.726   1.211
 8422SOL     OW26164   5.576   5.790   0.906
 8422SOL    HW126165   5.539   5.794   0.998
 8422SOL    HW226166   5.597   5.883   0.875
 8423SOL     OW26167   4.241   5.035   7.008
 8423SOL    HW126168   4.288   5.012   6.923
 8423SOL    HW226169   4.180   4.960   0.009
 8424SOL     OW26170   3.336   2.133   2.394
 8424SOL    HW126171   3.248   2.175   2.372
 8424SOL    HW226172   3.361   2.157   2.488
 8425SOL     OW26173   0.016   5.414   1.184
 8425SOL    HW126174   7.016   5.437   1.277
 8425SOL    HW226175   7.013   5.487   1.122
 8426SOL     OW26176   3.692   3.125   3.536
 8426SOL    HW126177   3.748   3.155   3.459
 8426SOL    HW226178   3.643   3.203   3.575
 8427SOL     OW26179   1.591   4.335   5.670
 8427SOL    HW126180   1.677   4.288   5.690
 8427SOL    HW226181   1.560   4.384   5.752
 8428SOL     OW26182   6.613   4.655   2.046
 8428SOL    HW126183   6.710   4.641   2.029
 8428SOL    HW226184   6.584   4.601   2.125
 8429SOL     OW26185   2.805   4.863   4.503
 8429SOL    HW126186   2.716   4.822   4.481
 8429SOL    HW226187   2.829   4.839   4.598
 8430SOL     OW26188   4.415   5.546   2.835
 8430SOL    HW126189   4.472   5.472   2.799
 8430SOL    HW226190   4.380   5.520   2.925
 8431SOL     OW26191   2.464   5.290   1.491
 8431SOL    HW126192   2.553   5.269   1.532
 8431SOL    HW226193   2.462   5.255   1.398
 8432SOL     OW26194   4.305   5.216   5.915
 8432SOL    HW126195   4.295   5.119   5.892
 8432SOL    HW226196   4.382   5.227   5.978
 8433SOL     OW26197   0.644   2.780   6.935
 8433SOL    HW126198   0.609   2.857   6.881
 8433SOL    HW226199   0.644   2.697   6.879
 8434SOL     OW26200   3.977   6.866   5.052
 8434SOL    HW126201   3.947   6.869   4.957
 8434SOL    HW226202   4.071   6.900   5.059
 8435SOL     OW26203   4.691   1.571   1.542
 8435SOL    HW126204   4.758   1.518   1.594
 8435SOL    HW226205   4.710   1.669   1.554
 8436SOL     OW26206   3.667   5.832   3.426
 8436SOL    HW126207   3.612   5.844   3.508
 8436SOL    HW226208   3.608   5.827   3.346
 8437SOL     OW26209   0.511   0.371   1.602
 8437SOL    HW126210   0.512   0.279   1.640
 8437SOL    HW226211   0.538   0.436   1.673
 8438SOL     OW26212   3.007   4.812   2.725
 8438SOL    HW126213   3.013   4.768   2.636
 8438SOL    HW226214   2.911   4.824   2.750
 8439SOL     OW26215   6.562   5.707   2.028
 8439SOL    HW126216   6.492   5.644   1.996
 8439SOL    HW226217   6.538   5.800   2.000
 8440SOL     OW26218   6.578   1.086   2.555
 8440SOL    HW126219   6.596   1.185   2.558
 8440SOL    HW226220   6.633   1.044   2.483
 8441SOL     OW26221   5.920   6.043   0.492
 8441SOL    HW126222   6.019   6.048   0.506
 8441SOL    HW226223   5.875   6.021   0.579
 8442SOL     OW26224   3.506   3.512   6.910
 8442SOL    HW126225   3.464   3.455   6.981
 8442SOL    HW226226   3.465   3.490   6.822
 8443SOL     OW26227   1.120   6.966   2.955
 8443SOL    HW126228   1.216   6.971   2.929
 8443SOL    HW226229   1.069   0.011   2.907
 8444SOL     OW26230   3.336   6.096   3.572
 8444SOL    HW126231   3.302   6.189   3.585
 8444SOL    HW226232   3.306   6.062   3.483
 8445SOL     OW26233   3.199   4.882   2.420
 8445SOL    HW126234   3.260   4.863   2.497
 8445SOL    HW226235   3.146   4.964   2.439
 8446SOL     OW26236   5.195   5.824   2.447
 8446SOL    HW126237   5.127   5.802   2.376
 8446SOL    HW226238   5.148   5.857   2.529
 8447SOL     OW26239   5.634   2.525   2.753
 8447SOL    HW126240   5.591   2.511   2.664
 8447SOL    HW226241   5.635   2.623   2.774
 8448SOL     OW26242   0.465   4.072   5.956
 8448SOL    HW126243   0.534   4.112   6.017
 8448SOL    HW226244   0.426   3.992   6.000
 8449SOL     OW26245   0.522   3.543   4.643
 8449SOL    HW126246   0.560   3.451   4.632
 8449SOL    HW226247   0.502   3.582   4.554
 8450SOL     OW26248   1.861   5.826   2.562
 8450SOL    HW126249   1.838   5.854   2.656
 8450SOL    HW226250   1.778   5.825   2.506
 8451SOL     OW26251   3.552   2.490   1.221
 8451SOL    HW126252   3.610   2.494   1.139
 8451SOL    HW226253   3.601   2.443   1.294
 8452SOL     OW26254   6.776   0.022   1.387
 8452SOL    HW126255   6.676   0.025   1.386
 8452SOL    HW226256   6.809   0.046   1.478
 8453SOL     OW26257   0.193   4.860   6.079
 8453SOL    HW126258   0.132   4.939   6.076
 8453SOL    HW226259   0.288   4.890   6.068
 8454SOL     OW26260   1.791   6.140   2.145
 8454SOL    HW126261   1.882   6.102   2.160
 8454SOL    HW226262   1.799   6.221   2.087
 8455SOL     OW26263   4.848   1.379   1.312
 8455SOL    HW126264   4.884   1.290   1.284
 8455SOL    HW226265   4.882   1.402   1.403
 8456SOL     OW26266   6.039   5.661   3.747
 8456SOL    HW126267   6.128   5.698   3.721
 8456SOL    HW226268   5.973   5.677   3.674
 8457SOL     OW26269   6.827   6.920   5.842
 8457SOL    HW126270   6.887   6.844   5.866
 8457SOL    HW226271   6.745   6.884   5.797
 8458SOL     OW26272   1.771   0.993   6.643
 8458SOL    HW126273   1.680   1.019   6.676
 8458SOL    HW226274   1.785   0.895   6.658
 8459SOL     OW26275   3.715   6.712   1.627
 8459SOL    HW126276   3.656   6.775   1.679
 8459SOL    HW226277   3.804   6.705   1.673
 8460SOL     OW26278   3.938   3.026   6.780
 8460SOL    HW126279   4.012   2.970   6.819
 8460SOL    HW226280   3.954   3.122   6.802
 8461SOL     OW26281   0.537   3.374   1.637
 8461SOL    HW126282   0.599   3.301   1.665
 8461SOL    HW226283   0.447   3.335   1.617
 8462SOL     OW26284   3.958   3.245   0.103
 8462SOL    HW126285   3.930   3.256   0.198
 8462SOL    HW226286   3.877   3.249   0.044
 8463SOL     OW26287   0.555   2.042   0.068
 8463SOL    HW126288   0.576   1.947   0.088
 8463SOL    HW226289   0.457   2.058   0.082
 8464SOL     OW26290   0.114   4.049   5.470
 8464SOL    HW126291   0.211   4.037   5.446
 8464SOL    HW226292   0.099   4.143   5.500
 8465SOL     OW26293   2.479   2.053   1.025
 8465SOL    HW126294   2.490   2.127   0.959
 8465SOL    HW226295   2.543   1.979   1.004
 8466SOL     OW26296   6.545   0.664   5.667
 8466SOL    HW126297   6.550   0.673   5.766
 8466SOL    HW226298   6.484   0.735   5.630
 8467SOL     OW26299   3.889   0.736   0.726
 8467SOL    HW126300   3.956   0.810   0.734
 8467SOL    HW226301   3.797   0.774   0.733
 8468SOL     OW26302   6.074   3.959   6.367
 8468SOL    HW126303   5.988   4.012   6.366
 8468SOL    HW226304   6.149   4.019   6.393
 8469SOL     OW26305   2.910   2.771   5.706
 8469SOL    HW126306   2.927   2.758   5.803
 8469SOL    HW226307   2.994   2.753   5.655
 8470SOL     OW26308   1.061   4.991   0.680
 8470SOL    HW126309   1.112   4.933   0.616
 8470SOL    HW226310   0.963   4.985   0.660
 8471SOL     OW26311   3.878   0.187   5.452
 8471SOL    HW126312   3.900   0.089   5.452
 8471SOL    HW226313   3.780   0.199   5.462
 8472SOL     OW26314   5.695   1.823   5.435
 8472SOL    HW126315   5.667   1.918   5.451
 8472SOL    HW226316   5.747   1.818   5.349
 8473SOL     OW26317   4.365   4.522   0.491
 8473SOL    HW126318   4.342   4.495   0.584
 8473SOL    HW226319   4.306   4.474   0.426
 8474SOL     OW26320   2.975   3.733   2.481
 8474SOL    HW126321   2.945   3.742   2.386
 8474SOL    HW226322   2.933   3.652   2.522
 8475SOL     OW26323   0.255   3.061   1.703
 8475SOL    HW126324   0.331   3.022   1.755
 8475SOL    HW226325   0.179   3.080   1.765
 8476SOL     OW26326   0.160   0.837   1.672
 8476SOL    HW126327   0.101   0.802   1.744
 8476SOL    HW226328   0.146   0.936   1.662
 8477SOL     OW26329   5.331   6.012   1.935
 8477SOL    HW126330   5.430   6.020   1.921
 8477SOL    HW226331   5.308   6.034   2.030
 8478SOL     OW26332   1.024   1.195   5.937
 8478SOL    HW126333   1.050   1.156   6.025
 8478SOL    HW226334   1.025   1.123   5.868
 8479SOL     OW26335   1.108   2.555   1.617
 8479SOL    HW126336   1.204   2.531   1.607
 8479SOL    HW226337   1.067   2.570   1.527
 8480SOL     OW26338   5.009   2.606   6.677
 8480SOL    HW126339   5.050   2.515   6.681
 8480SOL    HW226340   4.962   2.617   6.589
 8481SOL     OW26341   4.081   2.156   5.024
 8481SOL    HW126342   4.067   2.063   5.060
 8481SOL    HW226343   4.126   2.212   5.094
 8482SOL     OW26344   4.597   0.415   0.920
 8482SOL    HW126345   4.564   0.482   0.987
 8482SOL    HW226346   4.603   0.458   0.830
 8483SOL     OW26347   2.569   5.774   3.404
 8483SOL    HW126348   2.504   5.828   3.459
 8483SOL    HW226349   2.661   5.785   3.441
 8484SOL     OW26350   6.824   5.857   4.745
 8484SOL    HW126351   6.823   5.908   4.831
 8484SOL    HW226352   6.836   5.920   4.668
 8485SOL     OW26353   3.839   2.351   0.311
 8485SOL    HW126354   3.936   2.327   0.306
 8485SOL    HW226355   3.825   2.441   0.270
 8486SOL     OW26356   1.552   1.194   2.581
 8486SOL    HW126357   1.472   1.156   2.534
 8486SOL    HW226358   1.618   1.227   2.514
 8487SOL     OW26359   5.424   1.496   6.363
 8487SOL    HW126360   5.410   1.481   6.265
 8487SOL    HW226361   5.390   1.417   6.414
 8488SOL     OW26362   5.294   5.512   3.203
 8488SOL    HW126363   5.224   5.441   3.209
 8488SOL    HW226364   5.265   5.581   3.137
 8489SOL     OW26365   6.768   0.448   1.454
 8489SOL    HW126366   6.690   0.505   1.430
 8489SOL    HW226367   6.739   0.379   1.522
 8490SOL     OW26368   3.420   6.799   5.498
 8490SOL    HW126369   3.372   6.722   5.457
 8490SOL    HW226370   3.451   6.860   5.425
 8491SOL     OW26371   2.256   5.575   2.897
 8491SOL    HW126372   2.277   5.667   2.930
 8491SOL    HW226373   2.222   5.580   2.803
 8492SOL     OW26374   6.264   4.877   3.692
 8492SOL    HW126375   6.176   4.883   3.645
 8492SOL    HW226376   6.327   4.943   3.651
 8493SOL     OW26377   2.648   1.149   0.171
 8493SOL    HW126378   2.561   1.099   0.169
 8493SOL    HW226379   2.654   1.201   0.257
 8494SOL     OW26380   4.937   5.052   2.053
 8494SOL    HW126381   4.994   4.999   2.115
 8494SOL    HW226382   4.995   5.107   1.992
 8495SOL     OW26383   0.030   5.739   0.706
 8495SOL    HW126384   0.070   5.817   0.658
 8495SOL    HW226385   0.043   5.751   0.805
 8496SOL     OW26386   5.051   1.269   2.225
 8496SOL    HW126387   5.059   1.331   2.303
 8496SOL    HW226388   5.096   1.309   2.145
 8497SOL     OW26389   0.579   6.790   4.034
 8497SOL    HW126390   0.592   6.778   3.936
 8497SOL    HW226391   0.659   6.834   4.074
 8498SOL     OW26392   6.016   6.512   3.485
 8498SOL    HW126393   6.086   6.583   3.477
 8498SOL    HW226394   6.050   6.426   3.447
 8499SOL     OW26395   0.916   5.045   0.275
 8499SOL    HW126396   0.907   5.047   0.374
 8499SOL    HW226397   0.826   5.048   0.233
 8500SOL     OW26398   2.217   6.454   6.273
 8500SOL    HW126399   2.261   6.413   6.352
 8500SOL    HW226400   2.175   6.382   6.217
 8501SOL     OW26401   0.784   2.459   0.278
 8501SOL    HW126402   0.804   2.384   0.214
 8501SOL    HW226403   0.776   2.422   0.370
 8502SOL     OW26404   0.763   2.459   0.621
 8502SOL    HW126405   0.766   2.360   0.605
 8502SOL    HW226406   0.853   2.490   0.651
 8503SOL     OW26407   6.439   5.886   5.148
 8503SOL    HW126408   6.505   5.840   5.089
 8503SOL    HW226409   6.404   5.821   5.216
 8504SOL     OW26410   1.825   5.546   2.144
 8504SOL    HW126411   1.878   5.462   2.132
 8504SOL    HW226412   1.733   5.523   2.177
 8505SOL     OW26413   5.554   3.600   2.780
 8505SOL    HW126414   5.514   3.601   2.872
 8505SOL    HW226415   5.482   3.582   2.713
 8506SOL     OW26416   1.203   0.875   6.903
 8506SOL    HW126417   1.181   0.823   6.986
 8506SOL    HW226418   1.200   0.973   6.923
 8507SOL     OW26419   4.556   0.146   4.566
 8507SOL    HW126420   4.539   0.237   4.602
 8507SOL    HW226421   4.613   0.153   4.484
 8508SOL     OW26422   3.838   1.719   5.734
 8508SOL    HW126423   3.880   1.753   5.650
 8508SOL    HW226424   3.800   1.628   5.718
 8509SOL     OW26425   5.786   6.544   4.142
 8509SOL    HW126426   5.738   6.521   4.057
 8509SOL    HW226427   5.853   6.616   4.123
 8510SOL     OW26428   5.327   3.284   3.700
 8510SOL    HW126429   5.307   3.382   3.701
 8510SOL    HW226430   5.290   3.243   3.616
 8511SOL     OW26431   6.492   3.001   2.445
 8511SOL    HW126432   6.458   2.970   2.357
 8511SOL    HW226433   6.420   2.992   2.514
 8512SOL     OW26434   2.439   6.973   2.836
 8512SOL    HW126435   2.457   6.875   2.830
 8512SOL    HW226436   2.371   6.999   2.768
 8513SOL     OW26437   6.832   6.104   0.691
 8513SOL    HW126438   6.795   6.147   0.773
 8513SOL    HW226439   6.794   6.149   0.610
 8514SOL     OW26440   3.465   6.881   3.203
 8514SOL    HW126441   3.444   6.789   3.236
 8514SOL    HW226442   3.563   6.889   3.186
 8515SOL     OW26443   4.784   2.428   0.836
 8515SOL    HW126444   4.802   2.451   0.932
 8515SOL    HW226445   4.850   2.475   0.777
 8516SOL     OW26446   6.503   1.585   2.798
 8516SOL    HW126447   6.413   1.556   2.830
 8516SOL    HW226448   6.510   1.684   2.805
 8517SOL     OW26449   1.094   2.943   6.738
 8517SOL    HW126450   1.064   3.021   6.684
 8517SOL    HW226451   1.014   2.889   6.766
 8518SOL     OW26452   4.424   4.853   0.115
 8518SOL    HW126453   4.410   4.824   0.210
 8518SOL    HW226454   4.368   4.934   0.096
 8519SOL     OW26455   1.978   5.763   1.992
 8519SOL    HW126456   1.882   5.789   2.005
 8519SOL    HW226457   1.993   5.671   2.028
 8520SOL     OW26458   3.890   1.227   0.294
 8520SOL    HW126459   3.861   1.310   0.246
 8520SOL    HW226460   3.812   1.187   0.341
 8521SOL     OW26461   1.320   6.211   5.758
 8521SOL    HW126462   1.418   6.225   5.774
 8521SOL    HW226463   1.307   6.158   5.675
 8522SOL     OW26464   1.636   5.824   2.440
 8522SOL    HW126465   1.576   5.895   2.476
 8522SOL    HW226466   1.625   5.818   2.341
 8523SOL     OW26467   2.170   0.324   5.643
 8523SOL    HW126468   2.078   0.349   5.612
 8523SOL    HW226469   2.192   0.374   5.726
 8524SOL     OW26470   1.141   3.434   4.589
 8524SOL    HW126471   1.082   3.500   4.635
 8524SOL    HW226472   1.236   3.449   4.615
 8525SOL     OW26473   5.964   3.430   2.857
 8525SOL    HW126474   5.936   3.359   2.921
 8525SOL    HW226475   6.062   3.420   2.838
 8526SOL     OW26476   2.956   3.205   1.720
 8526SOL    HW126477   2.857   3.198   1.729
 8526SOL    HW226478   2.982   3.184   1.626
 8527SOL     OW26479   4.006   0.742   3.986
 8527SOL    HW126480   3.907   0.737   3.990
 8527SOL    HW226481   4.040   0.788   4.068
 8528SOL     OW26482   5.148   4.278   6.321
 8528SOL    HW126483   5.133   4.366   6.368
 8528SOL    HW226484   5.105   4.205   6.374
 8529SOL     OW26485   1.305   5.899   0.046
 8529SOL    HW126486   1.380   5.834   0.055
 8529SOL    HW226487   1.341   5.993   0.050
 8530SOL     OW26488   1.397   5.268   5.165
 8530SOL    HW126489   1.334   5.245   5.240
 8530SOL    HW226490   1.462   5.337   5.197
 8531SOL     OW26491   5.741   3.972   2.910
 8531SOL    HW126492   5.727   4.062   2.951
 8531SOL    HW226493   5.696   3.969   2.821
 8532SOL     OW26494   4.150   5.022   4.682
 8532SOL    HW126495   4.162   4.926   4.706
 8532SOL    HW226496   4.174   5.079   4.761
 8533SOL     OW26497   2.169   1.102   5.183
 8533SOL    HW126498   2.233   1.108   5.260
 8533SOL    HW226499   2.171   1.187   5.131
 8534SOL     OW26500   0.610   4.410   2.762
 8534SOL    HW126501   0.567   4.326   2.728
 8534SOL    HW226502   0.709   4.404   2.752
 8535SOL     OW26503   1.111   2.185   4.375
 8535SOL    HW126504   1.162   2.250   4.431
 8535SOL    HW226505   1.123   2.092   4.411
 8536SOL     OW26506   6.713   2.649   4.990
 8536SOL    HW126507   6.666   2.566   4.959
 8536SOL    HW226508   6.736   2.705   4.911
 8537SOL     OW26509   6.097   1.075   0.706
 8537SOL    HW126510   6.025   1.068   0.775
 8537SOL    HW226511   6.155   1.154   0.726
 8538SOL     OW26512   0.106   0.633   4.909
 8538SOL    HW126513   0.184   0.666   4.856
 8538SOL    HW226514   0.137   0.611   5.002
 8539SOL     OW26515   6.680   2.504   2.575
 8539SOL    HW126516   6.680   2.521   2.674
 8539SOL    HW226517   6.733   2.574   2.529
 8540SOL     OW26518   3.350   1.110   0.891
 8540SOL    HW126519   3.264   1.074   0.856
 8540SOL    HW226520   3.402   1.037   0.934
 8541SOL     OW26521   2.977   1.393   5.153
 8541SOL    HW126522   2.912   1.350   5.215
 8541SOL    HW226523   2.947   1.379   5.059
 8542SOL     OW26524   2.757   4.645   6.601
 8542SOL    HW126525   2.786   4.549   6.597
 8542SOL    HW226526   2.733   4.677   6.509
 8543SOL     OW26527   2.679   1.826   5.600
 8543SOL    HW126528   2.678   1.768   5.681
 8543SOL    HW226529   2.613   1.900   5.610
 8544SOL     OW26530   4.908   3.670   5.291
 8544SOL    HW126531   4.973   3.595   5.306
 8544SOL    HW226532   4.828   3.635   5.243
 8545SOL     OW26533   3.598   6.518   4.629
 8545SOL    HW126534   3.514   6.573   4.629
 8545SOL    HW226535   3.581   6.430   4.584
 8546SOL     OW26536   5.634   0.314   1.303
 8546SOL    HW126537   5.578   0.387   1.264
 8546SOL    HW226538   5.622   0.312   1.402
 8547SOL     OW26539   6.935   0.395   5.351
 8547SOL    HW126540   6.864   0.404   5.282
 8547SOL    HW226541   6.929   0.470   5.417
 8548SOL     OW26542   0.700   2.703   5.747
 8548SOL    HW126543   0.641   2.779   5.772
 8548SOL    HW226544   0.791   2.716   5.787
 8549SOL     OW26545   1.311   1.914   3.664
 8549SOL    HW126546   1.399   1.867   3.671
 8549SOL    HW226547   1.307   1.967   3.579
 8550SOL     OW26548   0.781   4.296   6.695
 8550SOL    HW126549   0.817   4.388   6.712
 8550SOL    HW226550   0.838   4.229   6.744
 8551SOL     OW26551   1.945   2.480   6.463
 8551SOL    HW126552   2.039   2.464   6.433
 8551SOL    HW226553   1.890   2.398   6.446
 8552SOL     OW26554   3.298   0.514   1.990
 8552SOL    HW126555   3.276   0.531   1.894
 8552SOL    HW226556   3.252   0.581   2.048
 8553SOL     OW26557   3.884   3.163   0.844
 8553SOL    HW126558   3.899   3.104   0.923
 8553SOL    HW226559   3.953   3.235   0.843
 8554SOL     OW26560   0.958   6.959   1.275
 8554SOL    HW126561   0.983   0.029   1.266
 8554SOL    HW226562   0.978   6.928   1.368
 8555SOL     OW26563   4.090   1.216   3.595
 8555SOL    HW126564   4.049   1.152   3.530
 8555SOL    HW226565   4.098   1.306   3.553
 8556SOL     OW26566   2.102   6.294   6.067
 8556SOL    HW126567   2.085   6.382   6.022
 8556SOL    HW226568   2.151   6.233   6.004
 8557SOL     OW26569   6.451   1.084   0.583
 8557SOL    HW126570   6.420   1.179   0.586
 8557SOL    HW226571   6.449   1.051   0.488
 8558SOL     OW26572   2.281   4.573   3.200
 8558SOL    HW126573   2.219   4.513   3.251
 8558SOL    HW226574   2.334   4.518   3.135
 8559SOL     OW26575   0.397   6.291   2.415
 8559SOL    HW126576   0.430   6.379   2.379
 8559SOL    HW226577   0.348   6.307   2.501
 8560SOL     OW26578   1.725   5.269   1.201
 8560SOL    HW126579   1.783   5.336   1.249
 8560SOL    HW226580   1.682   5.313   1.123
 8561SOL     OW26581   3.535   0.549   2.879
 8561SOL    HW126582   3.488   0.476   2.828
 8561SOL    HW226583   3.481   0.574   2.959
 8562SOL     OW26584   3.828   1.468   0.165
 8562SOL    HW126585   3.878   1.544   0.125
 8562SOL    HW226586   3.739   1.459   0.120
 8563SOL     OW26587   1.560   5.508   2.731
 8563SOL    HW126588   1.532   5.591   2.684
 8563SOL    HW226589   1.600   5.444   2.666
 8564SOL     OW26590   4.041   6.278   0.035
 8564SOL    HW126591   4.122   6.253   7.007
 8564SOL    HW226592   4.020   6.205   0.099
 8565SOL     OW26593   3.454   5.393   1.487
 8565SOL    HW126594   3.494   5.484   1.471
 8565SOL    HW226595   3.355   5.397   1.475
 8566SOL     OW26596   2.498   0.972   2.408
 8566SOL    HW126597   2.536   1.012   2.324
 8566SOL    HW226598   2.406   0.938   2.389
 8567SOL     OW26599   1.033   1.831   1.483
 8567SOL    HW126600   1.115   1.773   1.481
 8567SOL    HW226601   1.026   1.880   1.396
 8568SOL     OW26602   0.165   1.365   0.585
 8568SOL    HW126603   0.227   1.331   0.514
 8568SOL    HW226604   0.071   1.359   0.551
 8569SOL     OW26605   5.415   2.458   5.881
 8569SOL    HW126606   5.349   2.387   5.856
 8569SOL    HW226607   5.475   2.477   5.803
 8570SOL     OW26608   1.805   1.804   4.466
 8570SOL    HW126609   1.822   1.899   4.492
 8570SOL    HW226610   1.766   1.801   4.374
 8571SOL     OW26611   1.773   1.323   4.283
 8571SOL    HW126612   1.713   1.391   4.326
 8571SOL    HW226613   1.758   1.234   4.325
 8572SOL     OW26614   2.902   4.088   5.461
 8572SOL    HW126615   2.863   4.021   5.398
 8572SOL    HW226616   2.898   4.179   5.419
 8573SOL     OW26617   2.945   6.230   6.897
 8573SOL    HW126618   2.861   6.218   6.845
 8573SOL    HW226619   3.020   6.250   6.834
 8574SOL     OW26620   6.950   0.030   6.477
 8574SOL    HW126621   6.957   6.987   6.550
 8574SOL    HW226622   6.854   0.053   6.461
 8575SOL     OW26623   3.648   0.478   2.371
 8575SOL    HW126624   3.634   0.483   2.272
 8575SOL    HW226625   3.582   0.414   2.411
 8576SOL     OW26626   0.769   3.801   4.258
 8576SOL    HW126627   0.852   3.836   4.301
 8576SOL    HW226628   0.736   3.866   4.189
 8577SOL     OW26629   1.856   0.719   6.108
 8577SOL    HW126630   1.873   0.640   6.166
 8577SOL    HW226631   1.919   0.793   6.133
 8578SOL     OW26632   6.694   6.341   5.848
 8578SOL    HW126633   6.615   6.328   5.907
 8578SOL    HW226634   6.667   6.335   5.752
 8579SOL     OW26635   2.195   6.421   2.209
 8579SOL    HW126636   2.256   6.466   2.142
 8579SOL    HW226637   2.225   6.327   2.223
 8580SOL     OW26638   1.118   6.332   1.525
 8580SOL    HW126639   1.033   6.384   1.519
 8580SOL    HW226640   1.188   6.376   1.469
 8581SOL     OW26641   3.593   5.312   1.727
 8581SOL    HW126642   3.533   5.345   1.654
 8581SOL    HW226643   3.688   5.325   1.701
 8582SOL     OW26644   4.135   4.560   5.658
 8582SOL    HW126645   4.046   4.599   5.636
 8582SOL    HW226646   4.195   4.631   5.694
 8583SOL     OW26647   3.977   0.407   3.135
 8583SOL    HW126648   3.883   0.378   3.117
 8583SOL    HW226649   4.035   0.386   3.057
 8584SOL     OW26650   6.534   1.068   4.620
 8584SOL    HW126651   6.582   1.152   4.594
 8584SOL    HW226652   6.443   1.068   4.578
 8585SOL     OW26653   5.885   1.919   1.028
 8585SOL    HW126654   5.797   1.881   0.996
 8585SOL    HW226655   5.916   1.869   1.108
 8586SOL     OW26656   5.700   6.456   1.367
 8586SOL    HW126657   5.626   6.487   1.425
 8586SOL    HW226658   5.716   6.523   1.294
 8587SOL     OW26659   0.916   2.019   4.665
 8587SOL    HW126660   0.845   1.964   4.622
 8587SOL    HW226661   1.005   1.976   4.651
 8588SOL     OW26662   3.994   1.708   0.111
 8588SOL    HW126663   4.084   1.750   0.123
 8588SOL    HW226664   3.969   1.710   0.015
 8589SOL     OW26665   6.664   2.895   5.111
 8589SOL    HW126666   6.692   2.960   5.041
 8589SOL    HW226667   6.680   2.802   5.078
 8590SOL     OW26668   6.902   0.067   3.077
 8590SOL    HW126669   6.827   0.037   3.017
 8590SOL    HW226670   6.866   0.130   3.145
 8591SOL     OW26671   6.337   4.710   0.844
 8591SOL    HW126672   6.321   4.633   0.906
 8591SOL    HW226673   6.433   4.711   0.816
 8592SOL     OW26674   0.333   2.355   6.954
 8592SOL    HW126675   0.265   2.282   6.939
 8592SOL    HW226676   0.296   2.442   6.923
 8593SOL     OW26677   3.102   0.493   6.677
 8593SOL    HW126678   3.075   0.588   6.661
 8593SOL    HW226679   3.022   0.434   6.676
 8594SOL     OW26680   6.248   2.861   6.025
 8594SOL    HW126681   6.213   2.775   5.988
 8594SOL    HW226682   6.188   2.893   6.099
 8595SOL     OW26683   5.453   6.961   3.041
 8595SOL    HW126684   5.361   6.996   3.059
 8595SOL    HW226685   5.446   6.869   3.003
 8596SOL     OW26686   1.497   3.919   3.402
 8596SOL    HW126687   1.488   3.902   3.304
 8596SOL    HW226688   1.410   3.901   3.447
 8597SOL     OW26689   6.314   2.580   0.423
 8597SOL    HW126690   6.323   2.591   0.324
 8597SOL    HW226691   6.234   2.632   0.455
 8598SOL     OW26692   5.692   1.083   4.808
 8598SOL    HW126693   5.683   1.058   4.904
 8598SOL    HW226694   5.788   1.084   4.782
 8599SOL     OW26695   1.674   3.078   3.804
 8599SOL    HW126696   1.738   3.060   3.878
 8599SOL    HW226697   1.636   2.992   3.771
 8600SOL     OW26698   4.794   3.531   1.042
 8600SOL    HW126699   4.759   3.618   1.076
 8600SOL    HW226700   4.885   3.514   1.081
 8601SOL     OW26701   0.383   0.735   3.642
 8601SOL    HW126702   0.333   0.817   3.612
 8601SOL    HW226703   0.455   0.762   3.706
 8602SOL     OW26704   2.555   6.705   3.101
 8602SOL    HW126705   2.481   6.660   3.052
 8602SOL    HW226706   2.518   6.759   3.176
 8603SOL     OW26707   5.821   1.146   6.781
 8603SOL    HW126708   5.778   1.236   6.779
 8603SOL    HW226709   5.772   1.087   6.845
 8604SOL     OW26710   0.902   2.936   6.311
 8604SOL    HW126711   0.868   3.030   6.298
 8604SOL    HW226712   0.825   2.876   6.333
 8605SOL     OW26713   0.739   4.495   4.232
 8605SOL    HW126714   0.776   4.561   4.298
 8605SOL    HW226715   0.767   4.522   4.140
 8606SOL     OW26716   2.606   2.359   6.685
 8606SOL    HW126717   2.525   2.301   6.676
 8606SOL    HW226718   2.673   2.334   6.616
 8607SOL     OW26719   1.818   4.792   0.352
 8607SOL    HW126720   1.823   4.838   0.264
 8607SOL    HW226721   1.799   4.859   0.424
 8608SOL     OW26722   2.087   4.816   2.458
 8608SOL    HW126723   2.022   4.864   2.400
 8608SOL    HW226724   2.098   4.722   2.425
 8609SOL     OW26725   4.941   0.878   3.710
 8609SOL    HW126726   4.864   0.843   3.659
 8609SOL    HW226727   4.910   0.948   3.775
 8610SOL     OW26728   6.927   6.220   3.025
 8610SOL    HW126729   6.874   6.253   2.947
 8610SOL    HW226730   6.870   6.221   3.107
 8611SOL     OW26731   2.867   0.752   4.171
 8611SOL    HW126732   2.896   0.742   4.266
 8611SOL    HW226733   2.774   0.718   4.160
 8612SOL     OW26734   3.078   3.438   2.493
 8612SOL    HW126735   3.005   3.446   2.561
 8612SOL    HW226736   3.165   3.460   2.536
 8613SOL     OW26737   2.464   2.516   1.513
 8613SOL    HW126738   2.482   2.528   1.611
 8613SOL    HW226739   2.381   2.566   1.488
 8614SOL     OW26740   0.807   2.534   2.617
 8614SOL    HW126741   0.898   2.537   2.577
 8614SOL    HW226742   0.755   2.614   2.588
 8615SOL     OW26743   4.867   1.945   4.721
 8615SOL    HW126744   4.786   1.897   4.753
 8615SOL    HW226745   4.840   2.015   4.654
 8616SOL     OW26746   2.923   4.792   2.436
 8616SOL    HW126747   3.021   4.782   2.418
 8616SOL    HW226748   2.873   4.793   2.350
 8617SOL     OW26749   5.595   0.067   3.968
 8617SOL    HW126750   5.610   0.090   3.872
 8617SOL    HW226751   5.536   0.135   4.010
 8618SOL     OW26752   6.468   3.763   0.857
 8618SOL    HW126753   6.510   3.701   0.924
 8618SOL    HW226754   6.537   3.826   0.822
 8619SOL     OW26755   4.314   5.141   2.726
 8619SOL    HW126756   4.270   5.126   2.638
 8619SOL    HW226757   4.400   5.089   2.730
 8620SOL     OW26758   1.473   0.297   4.370
 8620SOL    HW126759   1.427   0.377   4.330
 8620SOL    HW226760   1.499   0.235   4.296
 8621SOL     OW26761   4.792   2.791   2.006
 8621SOL    HW126762   4.810   2.787   2.105
 8621SOL    HW226763   4.763   2.883   1.981
 8622SOL     OW26764   6.177   5.016   2.325
 8622SOL    HW126765   6.273   5.017   2.299
 8622SOL    HW226766   6.169   5.003   2.423
 8623SOL     OW26767   0.032   3.344   4.743
 8623SOL    HW126768   0.113   3.402   4.732
 8623SOL    HW226769   7.007   3.374   4.824
 8624SOL     OW26770   3.856   3.507   6.222
 8624SOL    HW126771   3.880   3.411   6.233
 8624SOL    HW226772   3.885   3.559   6.302
 8625SOL     OW26773   4.140   1.255   5.756
 8625SOL    HW126774   4.115   1.160   5.736
 8625SOL    HW226775   4.228   1.257   5.802
 8626SOL     OW26776   3.642   2.697   0.772
 8626SOL    HW126777   3.731   2.718   0.733
 8626SOL    HW226778   3.647   2.699   0.872
 8627SOL     OW26779   1.979   1.667   2.456
 8627SOL    HW126780   1.954   1.685   2.551
 8627SOL    HW226781   1.987   1.754   2.407
 8628SOL     OW26782   6.710   7.007   0.236
 8628SOL    HW126783   6.727   6.910   0.219
 8628SOL    HW226784   6.612   7.025   0.226
 8629SOL     OW26785   0.856   6.949   4.655
 8629SOL    HW126786   0.812   6.884   4.718
 8629SOL    HW226787   0.825   6.930   4.562
 8630SOL     OW26788   4.903   3.285   3.563
 8630SOL    HW126789   4.996   3.265   3.594
 8630SOL    HW226790   4.866   3.361   3.616
 8631SOL     OW26791   2.325   5.808   6.382
 8631SOL    HW126792   2.240   5.807   6.329
 8631SOL    HW226793   2.303   5.797   6.479
 8632SOL     OW26794   4.090   4.530   5.319
 8632SOL    HW126795   4.127   4.606   5.373
 8632SOL    HW226796   4.157   4.503   5.250
 8633SOL     OW26797   5.536   3.593   5.835
 8633SOL    HW126798   5.486   3.666   5.788
 8633SOL    HW226799   5.568   3.526   5.768
 8634SOL     OW26800   5.402   4.801   0.314
 8634SOL    HW126801   5.352   4.766   0.394
 8634SOL    HW226802   5.497   4.817   0.338
 8635SOL     OW26803   6.358   2.444   6.652
 8635SOL    HW126804   6.302   2.514   6.607
 8635SOL    HW226805   6.328   2.354   6.623
 8636SOL     OW26806   4.134   5.706   0.303
 8636SOL    HW126807   4.041   5.705   0.337
 8636SOL    HW226808   4.137   5.663   0.212
 8637SOL     OW26809   2.076   1.408   6.041
 8637SOL    HW126810   2.086   1.507   6.055
 8637SOL    HW226811   1.979   1.385   6.031
 8638SOL     OW26812   3.974   2.704   5.376
 8638SOL    HW126813   4.048   2.666   5.320
 8638SOL    HW226814   3.990   2.802   5.389
 8639SOL     OW26815   4.966   3.421   0.035
 8639SOL    HW126816   4.905   3.495   0.064
 8639SOL    HW226817   4.919   3.334   0.042
 8640SOL     OW26818   3.916   3.220   1.596
 8640SOL    HW126819   3.982   3.184   1.662
 8640SOL    HW226820   3.879   3.145   1.542
 8641SOL     OW26821   4.237   5.213   3.672
 8641SOL    HW126822   4.265   5.185   3.764
 8641SOL    HW226823   4.278   5.151   3.604
 8642SOL     OW26824   6.939   6.626   3.586
 8642SOL    HW126825   6.972   6.547   3.638
 8642SOL    HW226826   7.012   6.660   3.527
 8643SOL     OW26827   1.990   6.854   0.455
 8643SOL    HW126828   1.972   6.856   0.553
 8643SOL    HW226829   2.058   6.783   0.435
 8644SOL     OW26830   6.103   2.396   6.321
 8644SOL    HW126831   6.077   2.302   6.301
 8644SOL    HW226832   6.040   2.459   6.274
 8645SOL     OW26833   5.125   4.836   1.570
 8645SOL    HW126834   5.054   4.840   1.499
 8645SOL    HW226835   5.153   4.741   1.583
 8646SOL     OW26836   0.356   2.056   6.346
 8646SOL    HW126837   0.322   2.055   6.440
 8646SOL    HW226838   0.279   2.056   6.282
 8647SOL     OW26839   2.966   5.544   1.131
 8647SOL    HW126840   2.941   5.464   1.076
 8647SOL    HW226841   2.904   5.550   1.210
 8648SOL     OW26842   5.751   6.595   1.076
 8648SOL    HW126843   5.774   6.503   1.044
 8648SOL    HW226844   5.824   6.629   1.135
 8649SOL     OW26845   4.688   6.659   6.916
 8649SOL    HW126846   4.726   6.664   6.824
 8649SOL    HW226847   4.589   6.664   6.911
 8650SOL     OW26848   1.397   6.938   4.223
 8650SOL    HW126849   1.416   6.947   4.125
 8650SOL    HW226850   1.451   6.863   4.261
 8651SOL     OW26851   3.028   1.366   0.976
 8651SOL    HW126852   3.000   1.321   0.891
 8651SOL    HW226853   3.069   1.455   0.955
 8652SOL     OW26854   0.802   4.955   4.135
 8652SOL    HW126855   0.779   5.047   4.104
 8652SOL    HW226856   0.718   4.906   4.160
 8653SOL     OW26857   6.384   1.524   5.587
 8653SOL    HW126858   6.341   1.576   5.513
 8653SOL    HW226859   6.475   1.560   5.605
 8654SOL     OW26860   0.837   5.066   1.331
 8654SOL    HW126861   0.789   4.981   1.353
 8654SOL    HW226862   0.930   5.045   1.303
 8655SOL     OW26863   6.461   0.854   5.046
 8655SOL    HW126864   6.469   0.757   5.023
 8655SOL    HW226865   6.537   0.881   5.105
 8656SOL     OW26866   5.543   0.426   2.284
 8656SOL    HW126867   5.528   0.495   2.213
 8656SOL    HW226868   5.456   0.408   2.331
 8657SOL     OW26869   6.103   5.965   0.239
 8657SOL    HW126870   6.048   5.907   0.179
 8657SOL    HW226871   6.060   6.055   0.247
 8658SOL     OW26872   5.782   5.599   0.943
 8658SOL    HW126873   5.813   5.603   1.038
 8658SOL    HW226874   5.704   5.660   0.930
 8659SOL     OW26875   4.426   2.467   3.061
 8659SOL    HW126876   4.448   2.556   3.100
 8659SOL    HW226877   4.356   2.423   3.116
 8660SOL     OW26878   0.424   2.237   2.013
 8660SOL    HW126879   0.519   2.227   1.985
 8660SOL    HW226880   0.364   2.219   1.934
 8661SOL     OW26881   5.914   3.142   2.692
 8661SOL    HW126882   6.007   3.108   2.705
 8661SOL    HW226883   5.916   3.224   2.635
 8662SOL     OW26884   3.254   6.256   2.068
 8662SOL    HW126885   3.220   6.267   2.161
 8662SOL    HW226886   3.352   6.236   2.070
 8663SOL     OW26887   2.589   5.455   3.069
 8663SOL    HW126888   2.586   5.378   3.133
 8663SOL    HW226889   2.624   5.423   2.981
 8664SOL     OW26890   2.427   5.699   3.177
 8664SOL    HW126891   2.473   5.617   3.144
 8664SOL    HW226892   2.472   5.730   3.261
 8665SOL     OW26893   6.650   5.344   5.538
 8665SOL    HW126894   6.561   5.313   5.507
 8665SOL    HW226895   6.712   5.266   5.549
 8666SOL     OW26896   5.601   7.000   4.372
 8666SOL    HW126897   5.677   6.957   4.323
 8666SOL    HW226898   5.634   0.007   4.461
 8667SOL     OW26899   5.012   1.038   4.752
 8667SOL    HW126900   5.082   1.062   4.819
 8667SOL    HW226901   5.051   1.041   4.660
 8668SOL     OW26902   5.103   3.145   4.675
 8668SOL    HW126903   5.094   3.131   4.773
 8668SOL    HW226904   5.159   3.071   4.636
 8669SOL     OW26905   6.701   6.913   6.679
 8669SOL    HW126906   6.712   6.987   6.745
 8669SOL    HW226907   6.792   6.880   6.651
 8670SOL     OW26908   5.658   5.260   5.943
 8670SOL    HW126909   5.672   5.339   6.002
 8670SOL    HW226910   5.664   5.176   5.998
 8671SOL     OW26911   0.673   1.643   2.059
 8671SOL    HW126912   0.573   1.633   2.065
 8671SOL    HW226913   0.704   1.705   2.131
 8672SOL     OW26914   0.224   6.943   3.661
 8672SOL    HW126915   0.153   6.961   3.730
 8672SOL    HW226916   0.280   7.024   3.650
 8673SOL     OW26917   6.771   1.890   0.086
 8673SOL    HW126918   6.716   1.826   0.032
 8673SOL    HW226919   6.850   1.919   0.033
 8674SOL     OW26920   6.556   4.172   2.947
 8674SOL    HW126921   6.509   4.085   2.935
 8674SOL    HW226922   6.637   4.159   3.005
 8675SOL     OW26923   3.743   1.221   5.891
 8675SOL    HW126924   3.714   1.276   5.813
 8675SOL    HW226925   3.779   1.133   5.858
 8676SOL     OW26926   5.551   0.868   1.255
 8676SOL    HW126927   5.544   0.881   1.354
 8676SOL    HW226928   5.463   0.889   1.213
 8677SOL     OW26929   2.081   6.141   5.461
 8677SOL    HW126930   2.044   6.062   5.509
 8677SOL    HW226931   2.178   6.128   5.444
 8678SOL     OW26932   0.893   6.949   0.615
 8678SOL    HW126933   0.906   6.907   0.525
 8678SOL    HW226934   0.798   6.978   0.625
 8679SOL     OW26935   1.894   1.384   4.050
 8679SOL    HW126936   1.840   1.373   4.135
 8679SOL    HW226937   1.832   1.381   3.972
 8680SOL     OW26938   6.639   2.776   6.505
 8680SOL    HW126939   6.647   2.688   6.551
 8680SOL    HW226940   6.624   2.848   6.573
 8681SOL     OW26941   4.232   5.606   1.552
 8681SOL    HW126942   4.300   5.536   1.530
 8681SOL    HW226943   4.239   5.630   1.648
 8682SOL     OW26944   6.815   0.434   1.181
 8682SOL    HW126945   6.874   0.495   1.129
 8682SOL    HW226946   6.845   0.431   1.277
 8683SOL     OW26947   1.421   3.438   4.659
 8683SOL    HW126948   1.441   3.453   4.756
 8683SOL    HW226949   1.455   3.348   4.632
 8684SOL     OW26950   6.998   3.409   4.490
 8684SOL    HW126951   6.987   3.364   4.579
 8684SOL    HW226952   7.019   3.505   4.504
 8685SOL     OW26953   5.422   2.667   6.930
 8685SOL    HW126954   5.349   2.730   6.902
 8685SOL    HW226955   5.493   2.665   6.859
 8686SOL     OW26956   6.028   6.550   2.958
 8686SOL    HW126957   5.931   6.555   2.983
 8686SOL    HW226958   6.048   6.461   2.919
 8687SOL     OW26959   6.146   4.148   2.876
 8687SOL    HW126960   6.178   4.110   2.963
 8687SOL    HW226961   6.132   4.074   2.811
 8688SOL     OW26962   1.793   4.308   6.521
 8688SOL    HW126963   1.811   4.368   6.443
 8688SOL    HW226964   1.871   4.311   6.585
 8689SOL     OW26965   4.691   3.145   0.456
 8689SOL    HW126966   4.655   3.096   0.535
 8689SOL    HW226967   4.633   3.225   0.437
 8690SOL     OW26968   1.189   2.474   2.818
 8690SOL    HW126969   1.204   2.376   2.814
 8690SOL    HW226970   1.091   2.493   2.818
 8691SOL     OW26971   3.723   1.550   5.244
 8691SOL    HW126972   3.640   1.576   5.294
 8691SOL    HW226973   3.748   1.623   5.181
 8692SOL     OW26974   3.896   2.030   5.594
 8692SOL    HW126975   3.975   2.086   5.569
 8692SOL    HW226976   3.847   2.073   5.670
 8693SOL     OW26977   6.755   1.322   6.453
 8693SOL    HW126978   6.847   1.316   6.413
 8693SOL    HW226979   6.692   1.265   6.400
 8694SOL     OW26980   6.255   2.120   4.853
 8694SOL    HW126981   6.198   2.132   4.771
 8694SOL    HW226982   6.198   2.132   4.935
 8695SOL     OW26983   4.187   3.205   6.392
 8695SOL    HW126984   4.184   3.305   6.391
 8695SOL    HW226985   4.239   3.174   6.472
 8696SOL     OW26986   2.427   5.977   4.936
 8696SOL    HW126987   2.471   6.010   4.852
 8696SOL    HW226988   2.328   5.990   4.929
 8697SOL     OW26989   1.518   4.440   5.900
 8697SOL    HW126990   1.541   4.528   5.943
 8697SOL    HW226991   1.509   4.370   5.970
 8698SOL     OW26992   5.074   5.893   6.198
 8698SOL    HW126993   5.065   5.949   6.281
 8698SOL    HW226994   4.987   5.892   6.149
 8699SOL     OW26995   2.277   3.204   6.348
 8699SOL    HW126996   2.274   3.169   6.254
 8699SOL    HW226997   2.339   3.283   6.352
 8700SOL     OW26998   1.063   0.763   5.435
 8700SOL    HW126999   1.088   0.746   5.531
 8700SOL    HW227000   0.966   0.742   5.422
 8701SOL     OW27001   1.723   1.503   6.902
 8701SOL    HW127002   1.756   1.594   6.927
 8701SOL    HW227003   1.715   1.496   6.803
 8702SOL     OW27004   5.208   5.186   2.118
 8702SOL    HW127005   5.307   5.184   2.130
 8702SOL    HW227006   5.186   5.194   2.021
 8703SOL     OW27007   2.850   4.575   6.973
 8703SOL    HW127008   2.834   4.495   6.914
 8703SOL    HW227009   2.835   4.658   6.920
 8704SOL     OW27010   7.001   2.850   4.166
 8704SOL    HW127011   0.063   2.896   4.152
 8704SOL    HW227012   7.012   2.776   4.233
 8705SOL     OW27013   4.762   2.128   6.753
 8705SOL    HW127014   4.801   2.181   6.828
 8705SOL    HW227015   4.696   2.062   6.790
 8706SOL     OW27016   5.743   2.884   0.240
 8706SOL    HW127017   5.661   2.936   0.265
 8706SOL    HW227018   5.754   2.886   0.140
 8707SOL     OW27019   0.990   2.208   3.857
 8707SOL    HW127020   0.950   2.119   3.876
 8707SOL    HW227021   0.950   2.277   3.918
 8708SOL     OW27022   4.896   1.888   4.132
 8708SOL    HW127023   4.890   1.891   4.033
 8708SOL    HW227024   4.910   1.981   4.168
 8709SOL     OW27025   6.912   0.311   6.979
 8709SOL    HW127026   6.903   0.216   7.010
 8709SOL    HW227027   6.947   0.312   6.885
 8710SOL     OW27028   2.203   2.141   3.549
 8710SOL    HW127029   2.278   2.095   3.501
 8710SOL    HW227030   2.212   2.126   3.647
 8711SOL     OW27031   1.037   0.753   1.777
 8711SOL    HW127032   1.076   0.833   1.822
 8711SOL    HW227033   1.097   0.675   1.791
 8712SOL     OW27034   2.795   1.781   5.041
 8712SOL    HW127035   2.710   1.734   5.064
 8712SOL    HW227036   2.810   1.858   5.103
 8713SOL     OW27037   0.697   4.073   1.391
 8713SOL    HW127038   0.680   4.158   1.441
 8713SOL    HW227039   0.653   3.997   1.438
 8714SOL     OW27040   0.487   6.696   0.488
 8714SOL    HW127041   0.392   6.666   0.478
 8714SOL    HW227042   0.543   6.619   0.519
 8715SOL     OW27043   3.129   1.936   0.066
 8715SOL    HW127044   3.175   2.004   0.007
 8715SOL    HW227045   3.184   1.922   0.148
 8716SOL     OW27046   0.174   6.426   1.164
 8716SOL    HW127047   0.082   6.445   1.128
 8716SOL    HW227048   0.178   6.331   1.195
 8717SOL     OW27049   2.441   3.417   6.321
 8717SOL    HW127050   2.415   3.513   6.323
 8717SOL    HW227051   2.537   3.408   6.347
 8718SOL     OW27052   1.369   2.944   6.294
 8718SOL    HW127053   1.321   2.953   6.381
 8718SOL    HW227054   1.351   2.854   6.255
 8719SOL     OW27055   4.337   1.303   0.233
 8719SOL    HW127056   4.338   1.356   0.318
 8719SOL    HW227057   4.267   1.231   0.239
 8720SOL     OW27058   6.993   5.324   5.417
 8720SOL    HW127059   7.010   5.419   5.392
 8720SOL    HW227060   0.032   5.296   5.487
 8721SOL     OW27061   6.467   6.906   6.535
 8721SOL    HW127062   6.495   6.900   6.439
 8721SOL    HW227063   6.547   6.895   6.594
 8722SOL     OW27064   2.831   0.435   0.620
 8722SOL    HW127065   2.874   0.402   0.704
 8722SOL    HW227066   2.901   0.473   0.560
 8723SOL     OW27067   5.450   6.652   1.982
 8723SOL    HW127068   5.381   6.701   2.036
 8723SOL    HW227069   5.534   6.707   1.978
 8724SOL     OW27070   5.341   0.130   4.413
 8724SOL    HW127071   5.409   0.068   4.372
 8724SOL    HW227072   5.327   0.104   4.508
 8725SOL     OW27073   0.031   6.228   4.477
 8725SOL    HW127074   0.118   6.275   4.490
 8725SOL    HW227075   7.008   6.268   4.400
 8726SOL     OW27076   6.927   1.385   0.521
 8726SOL    HW127077   6.891   1.291   0.517
 8726SOL    HW227078   6.859   1.447   0.482
 8727SOL     OW27079   6.192   0.208   6.839
 8727SOL    HW127080   6.223   0.249   6.925
 8727SOL    HW227081   6.270   0.195   6.778
 8728SOL     OW27082   5.379   1.310   2.689
 8728SOL    HW127083   5.287   1.349   2.691
 8728SOL    HW227084   5.431   1.349   2.614
 8729SOL     OW27085   3.009   5.044   5.221
 8729SOL    HW127086   2.975   5.121   5.276
 8729SOL    HW227087   3.107   5.035   5.234
 8730SOL     OW27088   5.470   4.235   3.143
 8730SOL    HW127089   5.404   4.170   3.106
 8730SOL    HW227090   5.434   4.273   3.228
 8731SOL     OW27091   0.137   2.592   2.852
 8731SOL    HW127092   0.196   2.552   2.923
 8731SOL    HW227093   0.187   2.597   2.766
 8732SOL     OW27094   5.078   4.595   1.239
 8732SOL    HW127095   5.010   4.525   1.261
 8732SOL    HW227096   5.092   4.654   1.318
 8733SOL     OW27097   0.657   5.681   1.189
 8733SOL    HW127098   0.675   5.716   1.281
 8733SOL    HW227099   0.682   5.584   1.185
 8734SOL     OW27100   6.655   3.645   1.738
 8734SOL    HW127101   6.620   3.708   1.669
 8734SOL    HW227102   6.666   3.554   1.699
 8735SOL     OW27103   1.241   3.579   5.248
 8735SOL    HW127104   1.192   3.493   5.262
 8735SOL    HW227105   1.205   3.626   5.167
 8736SOL     OW27106   0.728   5.488   1.894
 8736SOL    HW127107   0.643   5.489   1.841
 8736SOL    HW227108   0.806   5.489   1.832
 8737SOL     OW27109   2.883   5.655   6.225
 8737SOL    HW127110   2.803   5.644   6.283
 8737SOL    HW227111   2.952   5.586   6.249
 8738SOL     OW27112   1.568   4.022   3.736
 8738SOL    HW127113   1.573   4.048   3.832
 8738SOL    HW227114   1.655   3.979   3.709
 8739SOL     OW27115   5.267   3.890   5.258
 8739SOL    HW127116   5.281   3.809   5.315
 8739SOL    HW227117   5.343   3.898   5.193
 8740SOL     OW27118   3.833   2.162   2.892
 8740SOL    HW127119   3.918   2.187   2.938
 8740SOL    HW227120   3.845   2.169   2.793
 8741SOL     OW27121   2.205   6.940   2.588
 8741SOL    HW127122   2.119   6.932   2.639
 8741SOL    HW227123   2.246   0.004   2.604
 8742SOL     OW27124   3.777   0.843   2.586
 8742SOL    HW127125   3.684   0.877   2.595
 8742SOL    HW227126   3.841   0.914   2.616
 8743SOL     OW27127   1.900   1.051   1.741
 8743SOL    HW127128   1.998   1.029   1.746
 8743SOL    HW227129   1.888   1.135   1.689
 8744SOL     OW27130   4.805   2.891   6.825
 8744SOL    HW127131   4.838   2.832   6.899
 8744SOL    HW227132   4.706   2.876   6.813
 8745SOL     OW27133   6.554   2.255   6.385
 8745SOL    HW127134   6.633   2.216   6.340
 8745SOL    HW227135   6.584   2.322   6.453
 8746SOL     OW27136   4.906   4.834   4.094
 8746SOL    HW127137   4.920   4.769   4.019
 8746SOL    HW227138   4.993   4.876   4.120
 8747SOL     OW27139   6.307   1.088   2.495
 8747SOL    HW127140   6.403   1.094   2.522
 8747SOL    HW227141   6.279   0.991   2.493
 8748SOL     OW27142   1.057   1.598   3.922
 8748SOL    HW127143   1.068   1.515   3.868
 8748SOL    HW227144   0.983   1.654   3.884
 8749SOL     OW27145   2.347   1.177   5.374
 8749SOL    HW127146   2.332   1.245   5.446
 8749SOL    HW227147   2.420   1.115   5.402
 8750SOL     OW27148   4.027   2.757   5.857
 8750SOL    HW127149   4.090   2.686   5.825
 8750SOL    HW227150   4.059   2.793   5.944
 8751SOL     OW27151   6.843   0.113   0.550
 8751SOL    HW127152   6.883   0.161   0.472
 8751SOL    HW227153   6.743   0.113   0.542
 8752SOL     OW27154   5.278   2.998   6.976
 8752SOL    HW127155   5.245   2.936   6.905
 8752SOL    HW227156   5.206   3.012   0.018
 8753SOL     OW27157   2.097   3.321   6.798
 8753SOL    HW127158   2.165   3.350   6.864
 8753SOL    HW227159   2.033   3.258   6.841
 8754SOL     OW27160   2.786   5.126   6.122
 8754SOL    HW127161   2.833   5.191   6.062
 8754SOL    HW227162   2.704   5.169   6.160
 8755SOL     OW27163   1.098   1.214   0.822
 8755SOL    HW127164   1.174   1.149   0.827
 8755SOL    HW227165   1.032   1.183   0.754
 8756SOL     OW27166   2.238   3.058   3.651
 8756SOL    HW127167   2.158   3.109   3.619
 8756SOL    HW227168   2.319   3.116   3.643
 8757SOL     OW27169   5.125   6.293   5.692
 8757SOL    HW127170   5.131   6.375   5.749
 8757SOL    HW227171   5.047   6.300   5.630
 8758SOL     OW27172   4.344   6.944   3.418
 8758SOL    HW127173   4.285   6.893   3.355
 8758SOL    HW227174   4.426   6.890   3.438
 8759SOL     OW27175   6.368   1.718   7.010
 8759SOL    HW127176   6.463   1.745   7.024
 8759SOL    HW227177   6.358   1.677   6.919
 8760SOL     OW27178   2.276   2.061   3.809
 8760SOL    HW127179   2.271   2.059   3.909
 8760SOL    HW227180   2.346   1.996   3.778
 8761SOL     OW27181   5.139   1.716   2.190
 8761SOL    HW127182   5.192   1.633   2.206
 8761SOL    HW227183   5.052   1.692   2.146
 8762SOL     OW27184   1.872   5.995   4.023
 8762SOL    HW127185   1.796   6.025   3.965
 8762SOL    HW227186   1.843   5.917   4.078
 8763SOL     OW27187   6.627   0.912   4.837
 8763SOL    HW127188   6.605   0.959   4.751
 8763SOL    HW227189   6.572   0.950   4.911
 8764SOL     OW27190   4.216   5.931   6.195
 8764SOL    HW127191   4.201   5.884   6.108
 8764SOL    HW227192   4.252   6.023   6.178
 8765SOL     OW27193   5.923   1.209   5.407
 8765SOL    HW127194   5.849   1.210   5.341
 8765SOL    HW227195   5.975   1.124   5.397
 8766SOL     OW27196   4.446   4.275   5.627
 8766SOL    HW127197   4.395   4.336   5.689
 8766SOL    HW227198   4.417   4.290   5.533
 8767SOL     OW27199   3.308   0.123   3.677
 8767SOL    HW127200   3.346   0.054   3.739
 8767SOL    HW227201   3.359   0.123   3.591
 8768SOL     OW27202   0.798   2.094   6.754
 8768SOL    HW127203   0.723   2.102   6.820
 8768SOL    HW227204   0.858   2.020   6.782
 8769SOL     OW27205   6.301   1.245   1.463
 8769SOL    HW127206   6.345   1.163   1.500
 8769SOL    HW227207   6.228   1.219   1.400
 8770SOL     OW27208   5.356   4.089   2.076
 8770SOL    HW127209   5.334   3.993   2.061
 8770SOL    HW227210   5.287   4.131   2.134
 8771SOL     OW27211   0.443   3.370   6.447
 8771SOL    HW127212   0.476   3.446   6.390
 8771SOL    HW227213   0.449   3.285   6.395
 8772SOL     OW27214   5.446   0.809   4.730
 8772SOL    HW127215   5.533   0.826   4.683
 8772SOL    HW227216   5.381   0.768   4.666
 8773SOL     OW27217   5.886   2.537   3.731
 8773SOL    HW127218   5.884   2.583   3.643
 8773SOL    HW227219   5.810   2.568   3.788
 8774SOL     OW27220   0.618   6.736   6.960
 8774SOL    HW127221   0.651   6.807   6.898
 8774SOL    HW227222   0.624   6.768   0.029
 8775SOL     OW27223   5.685   1.829   4.968
 8775SOL    HW127224   5.773   1.796   5.003
 8775SOL    HW227225   5.673   1.799   4.874
 8776SOL     OW27226   4.553   3.410   1.065
 8776SOL    HW127227   4.637   3.464   1.057
 8776SOL    HW227228   4.555   3.356   1.149
 8777SOL     OW27229   0.754   3.472   2.935
 8777SOL    HW127230   0.723   3.416   2.858
 8777SOL    HW227231   0.805   3.414   2.999
 8778SOL     OW27232   4.339   4.176   6.045
 8778SOL    HW127233   4.396   4.192   5.965
 8778SOL    HW227234   4.359   4.246   6.114
 8779SOL     OW27235   3.038   5.105   2.396
 8779SOL    HW127236   3.023   5.060   2.307
 8779SOL    HW227237   2.965   5.078   2.459
 8780SOL     OW27238   0.176   5.447   2.363
 8780SOL    HW127239   0.108   5.489   2.423
 8780SOL    HW227240   0.216   5.517   2.303
 8781SOL     OW27241   4.523   0.148   2.816
 8781SOL    HW127242   4.426   0.137   2.837
 8781SOL    HW227243   4.534   0.209   2.737
 8782SOL     OW27244   5.638   1.397   1.728
 8782SOL    HW127245   5.704   1.352   1.667
 8782SOL    HW227246   5.677   1.401   1.820
 8783SOL     OW27247   5.444   2.862   4.279
 8783SOL    HW127248   5.463   2.767   4.304
 8783SOL    HW227249   5.476   2.923   4.352
 8784SOL     OW27250   6.215   6.009   0.846
 8784SOL    HW127251   6.230   5.933   0.784
 8784SOL    HW227252   6.235   6.095   0.800
 8785SOL     OW27253   0.650   5.282   6.164
 8785SOL    HW127254   0.632   5.342   6.242
 8785SOL    HW227255   0.634   5.333   6.079
 8786SOL     OW27256   3.935   1.985   2.652
 8786SOL    HW127257   4.010   1.987   2.586
 8786SOL    HW227258   3.851   2.017   2.607
 8787SOL     OW27259   3.726   0.575   1.383
 8787SOL    HW127260   3.740   0.630   1.300
 8787SOL    HW227261   3.679   0.491   1.359
 8788SOL     OW27262   6.940   0.840   5.029
 8788SOL    HW127263   6.861   0.780   5.017
 8788SOL    HW227264   6.996   0.839   4.946
 8789SOL     OW27265   0.037   3.878   5.273
 8789SOL    HW127266   0.106   3.829   5.220
 8789SOL    HW227267   0.080   3.920   5.353
 8790SOL     OW27268   6.265   2.248   0.214
 8790SOL    HW127269   6.194   2.305   0.257
 8790SOL    HW227270   6.316   2.199   0.285
 8791SOL     OW27271   4.683   6.135   5.289
 8791SOL    HW127272   4.701   6.046   5.330
 8791SOL    HW227273   4.631   6.124   5.205
 8792SOL     OW27274   4.098   5.337   1.947
 8792SOL    HW127275   4.079   5.243   1.974
 8792SOL    HW227276   4.027   5.397   1.983
 8793SOL     OW27277   1.165   4.982   4.274
 8793SOL    HW127278   1.241   5.034   4.313
 8793SOL    HW227279   1.118   4.932   4.346
 8794SOL     OW27280   5.967   1.317   3.596
 8794SOL    HW127281   6.014   1.403   3.576
 8794SOL    HW227282   5.892   1.305   3.532
 8795SOL     OW27283   1.162   5.228   5.339
 8795SOL    HW127284   1.156   5.134   5.374
 8795SOL    HW227285   1.090   5.244   5.272
 8796SOL     OW27286   6.036   3.848   3.197
 8796SOL    HW127287   6.007   3.752   3.203
 8796SOL    HW227288   6.117   3.862   3.254
 8797SOL     OW27289   0.089   7.004   3.917
 8797SOL    HW127290   0.080   6.906   3.937
 8797SOL    HW227291   0.172   0.014   3.959
 8798SOL     OW27292   4.916   6.622   5.273
 8798SOL    HW127293   4.913   6.524   5.250
 8798SOL    HW227294   4.823   6.655   5.289
 8799SOL     OW27295   2.164   4.897   2.180
 8799SOL    HW127296   2.171   4.803   2.215
 8799SOL    HW227297   2.184   4.897   2.082
 8800SOL     OW27298   6.578   6.126   5.243
 8800SOL    HW127299   6.589   6.098   5.148
 8800SOL    HW227300   6.628   6.063   5.302
 8801SOL     OW27301   5.970   1.931   5.305
 8801SOL    HW127302   6.008   1.846   5.270
 8801SOL    HW227303   6.039   2.003   5.301
 8802SOL     OW27304   1.307   5.798   5.643
 8802SOL    HW127305   1.399   5.803   5.682
 8802SOL    HW227306   1.313   5.767   5.548
 8803SOL     OW27307   6.689   0.969   0.280
 8803SOL    HW127308   6.590   0.956   0.272
 8803SOL    HW227309   6.735   0.883   0.258
 8804SOL     OW27310   1.965   5.924   1.436
 8804SOL    HW127311   1.953   5.950   1.340
 8804SOL    HW227312   1.918   5.991   1.494
 8805SOL     OW27313   4.364   5.627   3.806
 8805SOL    HW127314   4.363   5.527   3.805
 8805SOL    HW227315   4.459   5.659   3.808
 8806SOL     OW27316   2.264   6.239   0.363
 8806SOL    HW127317   2.214   6.240   0.276
 8806SOL    HW227318   2.362   6.239   0.345
 8807SOL     OW27319   4.750   2.275   0.208
 8807SOL    HW127320   4.697   2.258   0.291
 8807SOL    HW227321   4.690   2.314   0.138
 8808SOL     OW27322   1.640   2.622   0.647
 8808SOL    HW127323   1.588   2.536   0.644
 8808SOL    HW227324   1.706   2.618   0.722
 8809SOL     OW27325   2.071   4.006   3.574
 8809SOL    HW127326   2.025   4.051   3.498
 8809SOL    HW227327   2.101   4.074   3.641
 8810SOL     OW27328   5.888   1.621   5.085
 8810SOL    HW127329   5.911   1.530   5.051
 8810SOL    HW227330   5.791   1.623   5.110
 8811SOL     OW27331   4.419   6.898   2.403
 8811SOL    HW127332   4.370   6.985   2.406
 8811SOL    HW227333   4.517   6.915   2.419
 8812SOL     OW27334   3.353   0.406   6.631
 8812SOL    HW127335   3.343   0.353   6.546
 8812SOL    HW227336   3.263   0.436   6.662
 8813SOL     OW27337   2.289   4.361   2.626
 8813SOL    HW127338   2.214   4.426   2.635
 8813SOL    HW227339   2.353   4.394   2.556
 8814SOL     OW27340   5.844   6.820   0.528
 8814SOL    HW127341   5.766   6.800   0.469
 8814SOL    HW227342   5.883   6.735   0.563
 8815SOL     OW27343   5.615   0.939   0.568
 8815SOL    HW127344   5.661   0.945   0.656
 8815SOL    HW227345   5.683   0.947   0.495
 8816SOL     OW27346   0.112   6.394   6.536
 8816SOL    HW127347   0.130   6.381   6.438
 8816SOL    HW227348   0.037   6.335   6.564
 8817SOL     OW27349   0.564   3.751   4.431
 8817SOL    HW127350   0.619   3.757   4.515
 8817SOL    HW227351   0.625   3.742   4.352
 8818SOL     OW27352   1.534   6.864   3.772
 8818SOL    HW127353   1.456   6.848   3.712
 8818SOL    HW227354   1.614   6.887   3.717
 8819SOL     OW27355   5.645   4.317   5.522
 8819SOL    HW127356   5.577   4.390   5.525
 8819SOL    HW227357   5.611   4.237   5.572
 8820SOL     OW27358   3.495   1.179   4.529
 8820SOL    HW127359   3.435   1.141   4.600
 8820SOL    HW227360   3.567   1.232   4.573
 8821SOL     OW27361   0.852   5.112   0.526
 8821SOL    HW127362   0.886   5.204   0.544
 8821SOL    HW227363   0.756   5.117   0.498
 8822SOL     OW27364   6.934   7.004   3.540
 8822SOL    HW127365   6.872   0.056   3.554
 8822SOL    HW227366   6.912   6.932   3.606
 8823SOL     OW27367   2.668   0.773   2.470
 8823SOL    HW127368   2.666   0.746   2.566
 8823SOL    HW227369   2.610   0.853   2.457
 8824SOL     OW27370   1.389   0.230   1.425
 8824SOL    HW127371   1.401   0.258   1.330
 8824SOL    HW227372   1.337   0.146   1.429
 8825SOL     OW27373   0.307   0.591   1.694
 8825SOL    HW127374   0.265   0.681   1.700
 8825SOL    HW227375   0.259   0.537   1.624
 8826SOL     OW27376   0.940   3.427   0.682
 8826SOL    HW127377   1.017   3.409   0.742
 8826SOL    HW227378   0.861   3.374   0.712
 8827SOL     OW27379   3.895   0.297   2.249
 8827SOL    HW127380   3.944   0.335   2.327
 8827SOL    HW227381   3.809   0.257   2.279
 8828SOL     OW27382   3.945   4.427   6.240
 8828SOL    HW127383   3.853   4.421   6.280
 8828SOL    HW227384   3.960   4.348   6.180
 8829SOL     OW27385   6.625   1.892   2.153
 8829SOL    HW127386   6.614   1.802   2.196
 8829SOL    HW227387   6.540   1.944   2.162
 8830SOL     OW27388   2.182   1.461   1.600
 8830SOL    HW127389   2.185   1.407   1.516
 8830SOL    HW227390   2.264   1.444   1.654
 8831SOL     OW27391   0.258   2.968   2.076
 8831SOL    HW127392   0.165   2.980   2.041
 8831SOL    HW227393   0.254   2.930   2.168
 8832SOL     OW27394   6.699   6.583   4.233
 8832SOL    HW127395   6.775   6.518   4.235
 8832SOL    HW227396   6.634   6.555   4.162
 8833SOL     OW27397   3.856   3.028   1.074
 8833SOL    HW127398   3.926   2.987   1.133
 8833SOL    HW227399   3.774   2.972   1.078
 8834SOL     OW27400   5.893   3.945   5.167
 8834SOL    HW127401   5.917   3.880   5.095
 8834SOL    HW227402   5.820   4.005   5.134
 8835SOL     OW27403   6.039   0.917   6.114
 8835SOL    HW127404   6.068   0.932   6.019
 8835SOL    HW227405   6.019   0.820   6.127
 8836SOL     OW27406   5.916   2.776   7.021
 8836SOL    HW127407   5.974   2.704   6.982
 8836SOL    HW227408   5.972   2.853   0.025
 8837SOL     OW27409   7.011   6.332   1.990
 8837SOL    HW127410   6.989   6.238   2.019
 8837SOL    HW227411   6.977   6.396   2.058
 8838SOL     OW27412   0.877   3.736   2.891
 8838SOL    HW127413   0.883   3.636   2.882
 8838SOL    HW227414   0.781   3.762   2.898
 8839SOL     OW27415   5.196   5.332   2.351
 8839SOL    HW127416   5.178   5.287   2.263
 8839SOL    HW227417   5.263   5.405   2.337
 8840SOL     OW27418   6.300   0.641   2.069
 8840SOL    HW127419   6.259   0.709   2.008
 8840SOL    HW227420   6.277   0.550   2.036
 8841SOL     OW27421   3.747   0.924   2.098
 8841SOL    HW127422   3.753   0.851   2.166
 8841SOL    HW227423   3.755   1.013   2.144
 8842SOL     OW27424   3.237   4.065   4.058
 8842SOL    HW127425   3.265   4.073   4.154
 8842SOL    HW227426   3.314   4.032   4.003
 8843SOL     OW27427   2.175   3.378   5.023
 8843SOL    HW127428   2.117   3.297   5.031
 8843SOL    HW227429   2.240   3.382   5.098
 8844SOL     OW27430   6.404   2.009   5.335
 8844SOL    HW127431   6.354   1.965   5.410
 8844SOL    HW227432   6.485   2.055   5.371
 8845SOL     OW27433   2.066   5.451   1.069
 8845SOL    HW127434   2.087   5.372   1.011
 8845SOL    HW227435   2.150   5.488   1.108
 8846SOL     OW27436   5.587   4.745   4.420
 8846SOL    HW127437   5.675   4.705   4.393
 8846SOL    HW227438   5.513   4.693   4.376
 8847SOL     OW27439   1.423   1.524   2.505
 8847SOL    HW127440   1.488   1.550   2.434
 8847SOL    HW227441   1.471   1.512   2.592
 8848SOL     OW27442   3.386   1.766   1.901
 8848SOL    HW127443   3.347   1.751   1.811
 8848SOL    HW227444   3.433   1.854   1.903
 8849SOL     OW27445   2.789   5.339   4.085
 8849SOL    HW127446   2.699   5.317   4.046
 8849SOL    HW227447   2.858   5.281   4.042
 8850SOL     OW27448   2.705   1.332   0.386
 8850SOL    HW127449   2.799   1.298   0.382
 8850SOL    HW227450   2.682   1.353   0.482
 8851SOL     OW27451   0.586   4.670   2.865
 8851SOL    HW127452   0.627   4.698   2.952
 8851SOL    HW227453   0.614   4.577   2.844
 8852SOL     OW27454   5.188   3.002   6.254
 8852SOL    HW127455   5.098   2.964   6.274
 8852SOL    HW227456   5.196   3.092   6.297
 8853SOL     OW27457   3.241   1.012   5.218
 8853SOL    HW127458   3.250   1.049   5.310
 8853SOL    HW227459   3.288   1.072   5.153
 8854SOL     OW27460   1.925   0.206   5.816
 8854SOL    HW127461   1.986   0.142   5.862
 8854SOL    HW227462   1.941   0.299   5.851
 8855SOL     OW27463   5.930   5.485   6.753
 8855SOL    HW127464   5.922   5.424   6.674
 8855SOL    HW227465   5.940   5.430   6.836
 8856SOL     OW27466   6.473   0.200   4.703
 8856SOL    HW127467   6.545   0.265   4.678
 8856SOL    HW227468   6.499   0.152   4.787
 8857SOL     OW27469   6.103   1.940   3.199
 8857SOL    HW127470   6.049   1.948   3.283
 8857SOL    HW227471   6.192   1.900   3.221
 8858SOL     OW27472   1.218   3.566   5.723
 8858SOL    HW127473   1.287   3.633   5.697
 8858SOL    HW227474   1.223   3.549   5.822
 8859SOL     OW27475   1.137   6.782   5.137
 8859SOL    HW127476   1.188   6.865   5.160
 8859SOL    HW227477   1.039   6.800   5.149
 8860SOL     OW27478   1.531   3.761   2.421
 8860SOL    HW127479   1.515   3.666   2.446
 8860SOL    HW227480   1.612   3.767   2.362
 8861SOL     OW27481   3.182   2.709   6.190
 8861SOL    HW127482   3.208   2.763   6.109
 8861SOL    HW227483   3.256   2.646   6.212
 8862SOL     OW27484   5.805   1.594   4.449
 8862SOL    HW127485   5.826   1.553   4.360
 8862SOL    HW227486   5.890   1.619   4.495
 8863SOL     OW27487   2.209   5.772   4.455
 8863SOL    HW127488   2.231   5.864   4.488
 8863SOL    HW227489   2.258   5.704   4.509
 8864SOL     OW27490   2.267   3.067   6.099
 8864SOL    HW127491   2.318   2.981   6.105
 8864SOL    HW227492   2.267   3.099   6.004
 8865SOL     OW27493   3.146   0.971   4.312
 8865SOL    HW127494   3.085   0.891   4.308
 8865SOL    HW227495   3.135   1.016   4.400
 8866SOL     OW27496   4.276   6.627   3.178
 8866SOL    HW127497   4.190   6.596   3.218
 8866SOL    HW227498   4.352   6.584   3.226
 8867SOL     OW27499   5.404   2.353   2.796
 8867SOL    HW127500   5.351   2.336   2.713
 8867SOL    HW227501   5.501   2.360   2.772
 8868SOL     OW27502   5.356   3.446   0.221
 8868SOL    HW127503   5.397   3.405   0.303
 8868SOL    HW227504   5.426   3.460   0.152
 8869SOL     OW27505   4.663   4.185   3.131
 8869SOL    HW127506   4.612   4.269   3.147
 8869SOL    HW227507   4.687   4.177   3.035
 8870SOL     OW27508   3.496   0.342   1.023
 8870SOL    HW127509   3.479   0.245   1.042
 8870SOL    HW227510   3.593   0.356   1.003
 8871SOL     OW27511   2.605   1.683   3.936
 8871SOL    HW127512   2.705   1.685   3.926
 8871SOL    HW227513   2.580   1.697   4.031
 8872SOL     OW27514   1.705   4.305   4.491
 8872SOL    HW127515   1.674   4.328   4.399
 8872SOL    HW227516   1.779   4.238   4.485
 8873SOL     OW27517   6.615   5.811   2.583
 8873SOL    HW127518   6.637   5.713   2.581
 8873SOL    HW227519   6.628   5.849   2.492
 8874SOL     OW27520   2.007   6.995   1.166
 8874SOL    HW127521   2.071   7.023   1.238
 8874SOL    HW227522   1.922   0.021   1.174
 8875SOL     OW27523   1.488   2.941   4.529
 8875SOL    HW127524   1.419   2.869   4.521
 8875SOL    HW227525   1.452   3.026   4.493
 8876SOL     OW27526   0.018   0.366   4.584
 8876SOL    HW127527   6.971   0.400   4.523
 8876SOL    HW227528   0.054   0.280   4.548
 8877SOL     OW27529   2.729   0.372   4.465
 8877SOL    HW127530   2.760   0.374   4.369
 8877SOL    HW227531   2.782   0.438   4.518
 8878SOL     OW27532   0.311   4.983   1.141
 8878SOL    HW127533   0.232   5.012   1.195
 8878SOL    HW227534   0.342   4.893   1.173
 8879SOL     OW27535   4.968   5.346   1.129
 8879SOL    HW127536   4.933   5.397   1.051
 8879SOL    HW227537   5.006   5.410   1.196
 8880SOL     OW27538   0.569   5.506   4.693
 8880SOL    HW127539   0.477   5.500   4.655
 8880SOL    HW227540   0.576   5.585   4.753
 8881SOL     OW27541   6.020   0.519   3.336
 8881SOL    HW127542   6.025   0.479   3.427
 8881SOL    HW227543   6.038   0.617   3.342
 8882SOL     OW27544   5.256   0.886   0.203
 8882SOL    HW127545   5.335   0.831   0.177
 8882SOL    HW227546   5.193   0.892   0.126
 8883SOL     OW27547   0.527   1.274   5.979
 8883SOL    HW127548   0.531   1.242   5.885
 8883SOL    HW227549   0.564   1.205   6.040
 8884SOL     OW27550   5.667   6.575   6.740
 8884SOL    HW127551   5.741   6.539   6.683
 8884SOL    HW227552   5.579   6.551   6.699
 8885SOL     OW27553   6.095   3.847   1.465
 8885SOL    HW127554   6.143   3.934   1.473
 8885SOL    HW227555   5.996   3.862   1.475
 8886SOL     OW27556   3.030   5.988   5.301
 8886SOL    HW127557   3.116   5.982   5.353
 8886SOL    HW227558   2.975   6.063   5.336
 8887SOL     OW27559   3.008   0.914   1.001
 8887SOL    HW127560   3.055   0.934   0.915
 8887SOL    HW227561   3.032   0.822   1.032
 8888SOL     OW27562   1.026   2.040   0.925
 8888SOL    HW127563   1.059   2.117   0.979
 8888SOL    HW227564   0.955   2.072   0.862
 8889SOL     OW27565   5.319   6.572   5.441
 8889SOL    HW127566   5.336   6.654   5.387
 8889SOL    HW227567   5.296   6.597   5.535
 8890SOL     OW27568   6.570   6.171   4.914
 8890SOL    HW127569   6.541   6.170   4.819
 8890SOL    HW227570   6.654   6.226   4.922
 8891SOL     OW27571   6.037   3.054   6.165
 8891SOL    HW127572   5.965   3.105   6.118
 8891SOL    HW227573   5.999   3.012   6.248
 8892SOL     OW27574   3.071   6.590   3.596
 8892SOL    HW127575   3.096   6.567   3.502
 8892SOL    HW227576   3.051   6.688   3.601
 8893SOL     OW27577   0.322   0.909   2.424
 8893SOL    HW127578   0.416   0.910   2.460
 8893SOL    HW227579   0.261   0.872   2.494
 8894SOL     OW27580   4.305   2.999   6.267
 8894SOL    HW127581   4.264   3.077   6.315
 8894SOL    HW227582   4.403   3.014   6.259
 8895SOL     OW27583   0.144   0.422   2.028
 8895SOL    HW127584   0.208   0.499   2.026
 8895SOL    HW227585   0.134   0.389   2.122
 8896SOL     OW27586   1.027   3.541   4.910
 8896SOL    HW127587   1.017   3.444   4.932
 8896SOL    HW227588   1.023   3.595   4.993
 8897SOL     OW27589   1.717   1.642   1.879
 8897SOL    HW127590   1.697   1.545   1.871
 8897SOL    HW227591   1.809   1.655   1.916
 8898SOL     OW27592   6.316   3.217   4.669
 8898SOL    HW127593   6.259   3.136   4.678
 8898SOL    HW227594   6.258   3.296   4.647
 8899SOL     OW27595   1.969   4.066   6.616
 8899SOL    HW127596   2.021   3.981   6.606
 8899SOL    HW227597   1.891   4.050   6.676
 8900SOL     OW27598   5.537   3.111   3.273
 8900SOL    HW127599   5.597   3.180   3.233
 8900SOL    HW227600   5.445   3.120   3.235
 8901SOL     OW27601   2.457   0.665   3.643
 8901SOL    HW127602   2.464   0.744   3.704
 8901SOL    HW227603   2.440   0.696   3.550
 8902SOL     OW27604   2.894   5.888   6.028
 8902SOL    HW127605   2.886   5.836   6.113
 8902SOL    HW227606   2.906   5.825   5.951
 8903SOL     OW27607   2.360   1.427   3.712
 8903SOL    HW127608   2.334   1.332   3.692
 8903SOL    HW227609   2.456   1.440   3.690
 8904SOL     OW27610   0.001   5.033   3.590
 8904SOL    HW127611   0.040   4.949   3.626
 8904SOL    HW227612   6.950   5.062   3.648
 8905SOL     OW27613   1.977   4.099   5.243
 8905SOL    HW127614   1.891   4.082   5.291
 8905SOL    HW227615   1.978   4.046   5.158
 8906SOL     OW27616   0.007   0.286   6.724
 8906SOL    HW127617   0.054   0.300   6.636
 8906SOL    HW227618   6.971   0.208   6.717
 8907SOL     OW27619   3.407   2.096   5.166
 8907SOL    HW127620   3.413   2.136   5.257
 8907SOL    HW227621   3.346   2.152   5.109
 8908SOL     OW27622   1.515   2.864   0.670
 8908SOL    HW127623   1.447   2.855   0.743
 8908SOL    HW227624   1.559   2.776   0.654
 8909SOL     OW27625   2.285   0.588   4.938
 8909SOL    HW127626   2.371   0.549   4.905
 8909SOL    HW227627   2.219   0.514   4.954
 8910SOL     OW27628   2.022   3.011   5.894
 8910SOL    HW127629   2.068   2.924   5.915
 8910SOL    HW227630   2.090   3.084   5.888
 8911SOL     OW27631   3.706   2.122   4.837
 8911SOL    HW127632   3.802   2.148   4.844
 8911SOL    HW227633   3.680   2.068   4.917
 8912SOL     OW27634   3.823   1.718   6.911
 8912SOL    HW127635   3.783   1.662   6.838
 8912SOL    HW227636   3.751   1.763   6.962
 8913SOL     OW27637   5.182   4.169   1.697
 8913SOL    HW127638   5.239   4.140   1.620
 8913SOL    HW227639   5.105   4.222   1.662
 8914SOL     OW27640   4.426   1.325   5.939
 8914SOL    HW127641   4.453   1.248   5.998
 8914SOL    HW227642   4.499   1.345   5.874
 8915SOL     OW27643   1.466   2.415   3.832
 8915SOL    HW127644   1.437   2.393   3.926
 8915SOL    HW227645   1.509   2.505   3.831
 8916SOL     OW27646   0.323   3.648   1.519
 8916SOL    HW127647   0.256   3.591   1.472
 8916SOL    HW227648   0.283   3.738   1.537
 8917SOL     OW27649   6.195   4.855   6.087
 8917SOL    HW127650   6.279   4.838   6.035
 8917SOL    HW227651   6.215   4.850   6.185
 8918SOL     OW27652   6.558   6.136   0.196
 8918SOL    HW127653   6.570   6.045   0.155
 8918SOL    HW227654   6.471   6.175   0.166
 8919SOL     OW27655   4.189   3.610   0.433
 8919SOL    HW127656   4.222   3.575   0.521
 8919SOL    HW227657   4.232   3.558   0.359
 8920SOL     OW27658   6.823   6.340   6.340
 8920SOL    HW127659   6.777   6.251   6.340
 8920SOL    HW227660   6.819   6.380   6.248
 8921SOL     OW27661   1.251   1.338   2.818
 8921SOL    HW127662   1.253   1.238   2.823
 8921SOL    HW227663   1.344   1.373   2.810
 8922SOL     OW27664   2.115   5.294   0.618
 8922SOL    HW127665   2.046   5.298   0.546
 8922SOL    HW227666   2.200   5.259   0.581
 8923SOL     OW27667   2.455   3.749   6.475
 8923SOL    HW127668   2.516   3.787   6.545
 8923SOL    HW227669   2.505   3.738   6.389
 8924SOL     OW27670   3.220   5.563   5.360
 8924SOL    HW127671   3.251   5.583   5.267
 8924SOL    HW227672   3.238   5.467   5.381
 8925SOL     OW27673   0.848   0.953   2.347
 8925SOL    HW127674   0.792   0.870   2.353
 8925SOL    HW227675   0.934   0.939   2.395
 8926SOL     OW27676   5.852   2.321   1.425
 8926SOL    HW127677   5.943   2.310   1.466
 8926SOL    HW227678   5.859   2.314   1.326
 8927SOL     OW27679   2.547   2.359   4.843
 8927SOL    HW127680   2.483   2.355   4.919
 8927SOL    HW227681   2.622   2.296   4.859
 8928SOL     OW27682   0.015   1.234   5.255
 8928SOL    HW127683   6.963   1.278   5.211
 8928SOL    HW227684   0.050   1.162   5.195
 8929SOL     OW27685   0.110   3.276   3.970
 8929SOL    HW127686   0.193   3.279   4.026
 8929SOL    HW227687   0.135   3.281   3.873
 8930SOL     OW27688   1.725   5.030   5.145
 8930SOL    HW127689   1.756   5.018   5.050
 8930SOL    HW227690   1.782   4.975   5.206
 8931SOL     OW27691   4.099   2.604   0.803
 8931SOL    HW127692   4.090   2.640   0.896
 8931SOL    HW227693   4.043   2.659   0.740
 8932SOL     OW27694   5.339   0.098   6.956
 8932SOL    HW127695   5.271   0.121   7.025
 8932SOL    HW227696   5.323   0.153   6.874
 8933SOL     OW27697   0.921   1.820   5.533
 8933SOL    HW127698   0.879   1.848   5.619
 8933SOL    HW227699   0.967   1.732   5.544
 8934SOL     OW27700   3.106   5.382   2.986
 8934SOL    HW127701   3.179   5.344   3.043
 8934SOL    HW227702   3.018   5.344   3.014
 8935SOL     OW27703   5.067   3.329   2.233
 8935SOL    HW127704   5.043   3.234   2.212
 8935SOL    HW227705   5.039   3.388   2.158
 8936SOL     OW27706   0.764   3.257   0.795
 8936SOL    HW127707   0.672   3.239   0.758
 8936SOL    HW227708   0.762   3.250   0.895
 8937SOL     OW27709   0.423   0.823   3.996
 8937SOL    HW127710   0.458   0.904   4.043
 8937SOL    HW227711   0.477   0.805   3.914
 8938SOL     OW27712   6.058   1.107   0.444
 8938SOL    HW127713   6.076   1.082   0.539
 8938SOL    HW227714   6.132   1.163   0.409
 8939SOL     OW27715   6.411   3.038   4.940
 8939SOL    HW127716   6.326   3.053   4.890
 8939SOL    HW227717   6.470   2.977   4.888
 8940SOL     OW27718   6.156   2.875   0.118
 8940SOL    HW127719   6.208   2.795   0.146
 8940SOL    HW227720   6.214   2.957   0.124
 8941SOL     OW27721   5.116   1.930   1.871
 8941SOL    HW127722   5.097   2.016   1.920
 8941SOL    HW227723   5.032   1.895   1.831
 8942SOL     OW27724   0.087   4.462   4.018
 8942SOL    HW127725   0.120   4.427   4.106
 8942SOL    HW227726   7.024   4.506   4.031
 8943SOL     OW27727   4.343   4.164   0.005
 8943SOL    HW127728   4.385   4.076   7.007
 8943SOL    HW227729   4.412   4.236   7.025
 8944SOL     OW27730   4.637   4.615   4.212
 8944SOL    HW127731   4.705   4.663   4.268
 8944SOL    HW227732   4.563   4.581   4.270
 8945SOL     OW27733   6.517   3.282   5.062
 8945SOL    HW127734   6.575   3.345   5.010
 8945SOL    HW227735   6.492   3.205   5.003
 8946SOL     OW27736   4.445   0.368   4.622
 8946SOL    HW127737   4.348   0.369   4.598
 8946SOL    HW227738   4.493   0.437   4.569
 8947SOL     OW27739   1.513   4.640   6.590
 8947SOL    HW127740   1.557   4.590   6.515
 8947SOL    HW227741   1.414   4.639   6.577
 8948SOL     OW27742   6.753   5.908   3.994
 8948SOL    HW127743   6.766   6.001   4.029
 8948SOL    HW227744   6.841   5.869   3.969
 8949SOL     OW27745   4.020   6.035   0.197
 8949SOL    HW127746   4.102   6.062   0.247
 8949SOL    HW227747   3.941   6.037   0.259
 8950SOL     OW27748   4.851   4.051   1.085
 8950SOL    HW127749   4.764   4.100   1.087
 8950SOL    HW227750   4.837   3.958   1.121
 8951SOL     OW27751   2.204   0.913   3.945
 8951SOL    HW127752   2.227   0.940   4.039
 8951SOL    HW227753   2.289   0.898   3.893
 8952SOL     OW27754   2.105   4.335   3.616
 8952SOL    HW127755   2.164   4.371   3.543
 8952SOL    HW227756   2.029   4.398   3.631
 8953SOL     OW27757   2.722   5.230   1.571
 8953SOL    HW127758   2.783   5.298   1.610
 8953SOL    HW227759   2.773   5.169   1.510
 8954SOL     OW27760   1.082   5.800   4.149
 8954SOL    HW127761   1.119   5.888   4.179
 8954SOL    HW227762   0.983   5.802   4.154
 8955SOL     OW27763   6.307   2.929   2.638
 8955SOL    HW127764   6.264   2.992   2.703
 8955SOL    HW227765   6.333   2.845   2.685
 8956SOL     OW27766   0.211   6.786   6.800
 8956SOL    HW127767   0.162   6.870   6.778
 8956SOL    HW227768   0.211   6.726   6.720
 8957SOL     OW27769   1.674   5.493   1.859
 8957SOL    HW127770   1.746   5.442   1.904
 8957SOL    HW227771   1.714   5.557   1.793
 8958SOL     OW27772   1.389   3.263   5.217
 8958SOL    HW127773   1.300   3.281   5.259
 8958SOL    HW227774   1.459   3.317   5.262
 8959SOL     OW27775   0.917   3.718   2.054
 8959SOL    HW127776   0.862   3.727   2.138
 8959SOL    HW227777   0.933   3.621   2.036
 8960SOL     OW27778   6.716   4.046   4.080
 8960SOL    HW127779   6.788   4.107   4.047
 8960SOL    HW227780   6.645   4.100   4.125
 8961SOL     OW27781   3.181   0.143   4.212
 8961SOL    HW127782   3.090   0.149   4.170
 8961SOL    HW227783   3.247   0.112   4.144
 8962SOL     OW27784   1.141   6.222   1.770
 8962SOL    HW127785   1.219   6.159   1.775
 8962SOL    HW227786   1.137   6.263   1.679
 8963SOL     OW27787   3.414   5.667   4.579
 8963SOL    HW127788   3.316   5.646   4.584
 8963SOL    HW227789   3.447   5.692   4.669
 8964SOL     OW27790   5.531   3.808   3.162
 8964SOL    HW127791   5.583   3.725   3.144
 8964SOL    HW227792   5.593   3.881   3.191
 8965SOL     OW27793   3.579   4.619   0.505
 8965SOL    HW127794   3.570   4.539   0.564
 8965SOL    HW227795   3.629   4.691   0.554
 8966SOL     OW27796   6.415   5.369   5.995
 8966SOL    HW127797   6.323   5.408   5.991
 8966SOL    HW227798   6.483   5.443   5.997
 8967SOL     OW27799   3.693   0.981   3.398
 8967SOL    HW127800   3.598   1.004   3.420
 8967SOL    HW227801   3.711   1.001   3.302
 8968SOL     OW27802   2.442   4.731   1.660
 8968SOL    HW127803   2.431   4.633   1.677
 8968SOL    HW227804   2.530   4.761   1.697
 8969SOL     OW27805   0.119   6.739   3.439
 8969SOL    HW127806   0.084   6.796   3.364
 8969SOL    HW227807   0.175   6.796   3.499
 8970SOL     OW27808   1.433   2.453   5.896
 8970SOL    HW127809   1.530   2.476   5.886
 8970SOL    HW227810   1.384   2.532   5.932
 8971SOL     OW27811   4.232   6.731   1.188
 8971SOL    HW127812   4.297   6.807   1.183
 8971SOL    HW227813   4.155   6.756   1.247
 8972SOL     OW27814   5.662   4.880   0.366
 8972SOL    HW127815   5.651   4.945   0.290
 8972SOL    HW227816   5.721   4.805   0.336
 8973SOL     OW27817   0.610   2.501   2.215
 8973SOL    HW127818   0.524   2.502   2.164
 8973SOL    HW227819   0.686   2.488   2.152
 8974SOL     OW27820   2.175   3.786   4.311
 8974SOL    HW127821   2.110   3.711   4.302
 8974SOL    HW227822   2.227   3.775   4.396
 8975SOL     OW27823   0.432   6.886   6.663
 8975SOL    HW127824   0.498   6.828   6.615
 8975SOL    HW227825   0.377   6.830   6.726
 8976SOL     OW27826   5.817   6.006   1.030
 8976SOL    HW127827   5.813   5.921   1.084
 8976SOL    HW227828   5.871   6.074   1.079
 8977SOL     OW27829   0.034   5.533   6.072
 8977SOL    HW127830   0.056   5.630   6.057
 8977SOL    HW227831   0.080   5.501   6.154
 8978SOL     OW27832   5.897   6.170   5.006
 8978SOL    HW127833   5.968   6.237   4.987
 8978SOL    HW227834   5.845   6.199   5.087
 8979SOL     OW27835   0.918   5.186   6.112
 8979SOL    HW127836   0.832   5.227   6.141
 8979SOL    HW227837   0.921   5.090   6.140
 8980SOL     OW27838   4.380   2.091   6.031
 8980SOL    HW127839   4.412   2.185   6.045
 8980SOL    HW227840   4.291   2.079   6.076
 8981SOL     OW27841   4.635   2.193   5.947
 8981SOL    HW127842   4.596   2.102   5.931
 8981SOL    HW227843   4.592   2.234   6.027
 8982SOL     OW27844   5.939   1.403   1.652
 8982SOL    HW127845   6.036   1.407   1.626
 8982SOL    HW227846   5.899   1.317   1.621
 8983SOL     OW27847   1.267   5.192   2.300
 8983SOL    HW127848   1.243   5.150   2.388
 8983SOL    HW227849   1.184   5.229   2.257
 8984SOL     OW27850   5.781   0.311   4.534
 8984SOL    HW127851   5.752   0.406   4.546
 8984SOL    HW227852   5.803   0.294   4.438
 8985SOL     OW27853   4.962   1.943   0.782
 8985SOL    HW127854   5.050   1.897   0.786
 8985SOL    HW227855   4.897   1.886   0.733
 8986SOL     OW27856   5.632   4.178   1.604
 8986SOL    HW127857   5.653   4.183   1.702
 8986SOL    HW227858   5.715   4.195   1.551
 8987SOL     OW27859   2.666   0.418   1.256
 8987SOL    HW127860   2.682   0.513   1.281
 8987SOL    HW227861   2.629   0.368   1.334
 8988SOL     OW27862   1.855   5.788   0.970
 8988SOL    HW127863   1.919   5.839   0.911
 8988SOL    HW227864   1.860   5.691   0.948
 8989SOL     OW27865   5.092   2.963   3.009
 8989SOL    HW127866   5.154   3.037   2.985
 8989SOL    HW227867   5.109   2.884   2.949
 8990SOL     OW27868   2.811   6.220   0.454
 8990SOL    HW127869   2.722   6.202   0.413
 8990SOL    HW227870   2.799   6.247   0.549
 8991SOL     OW27871   2.242   2.804   0.639
 8991SOL    HW127872   2.311   2.850   0.695
 8991SOL    HW227873   2.155   2.852   0.648
 8992SOL     OW27874   0.332   3.244   0.611
 8992SOL    HW127875   0.425   3.240   0.574
 8992SOL    HW227876   0.281   3.316   0.564
 8993SOL     OW27877   5.361   1.790   3.859
 8993SOL    HW127878   5.344   1.736   3.942
 8993SOL    HW227879   5.274   1.811   3.815
 8994SOL     OW27880   1.611   5.234   4.530
 8994SOL    HW127881   1.678   5.192   4.469
 8994SOL    HW227882   1.646   5.234   4.624
 8995SOL     OW27883   1.278   2.807   4.785
 8995SOL    HW127884   1.184   2.793   4.816
 8995SOL    HW227885   1.291   2.903   4.759
 8996SOL     OW27886   0.215   3.676   1.206
 8996SOL    HW127887   0.179   3.642   1.119
 8996SOL    HW227888   0.286   3.744   1.189
 8997SOL     OW27889   4.876   1.289   5.938
 8997SOL    HW127890   4.854   1.224   5.864
 8997SOL    HW227891   4.797   1.348   5.955
 8998SOL     OW27892   0.571   2.569   5.361
 8998SOL    HW127893   0.637   2.544   5.289
 8998SOL    HW227894   0.478   2.553   5.328
 8999SOL     OW27895   4.613   1.338   6.370
 8999SOL    HW127896   4.540   1.377   6.426
 8999SOL    HW227897   4.635   1.246   6.403
 9000SOL     OW27898   3.119   3.795   6.884
 9000SOL    HW127899   3.188   3.785   6.956
 9000SOL    HW227900   3.045   3.730   6.900
 9001SOL     OW27901   1.680   4.898   3.369
 9001SOL    HW127902   1.774   4.905   3.334
 9001SOL    HW227903   1.630   4.829   3.316
 9002SOL     OW27904   6.862   5.126   5.636
 9002SOL    HW127905   6.830   5.032   5.647
 9002SOL    HW227906   6.962   5.126   5.623
 9003SOL     OW27907   6.323   2.620   0.136
 9003SOL    HW127908   6.280   2.554   0.075
 9003SOL    HW227909   6.422   2.622   0.119
 9004SOL     OW27910   5.202   6.509   1.424
 9004SOL    HW127911   5.250   6.421   1.418
 9004SOL    HW227912   5.143   6.520   1.344
 9005SOL     OW27913   4.905   1.943   3.846
 9005SOL    HW127914   4.840   1.962   3.772
 9005SOL    HW227915   4.957   1.861   3.824
 9006SOL     OW27916   1.445   5.559   1.476
 9006SOL    HW127917   1.360   5.606   1.499
 9006SOL    HW227918   1.466   5.573   1.379
 9007SOL     OW27919   2.788   5.110   3.547
 9007SOL    HW127920   2.852   5.128   3.621
 9007SOL    HW227921   2.838   5.099   3.461
 9008SOL     OW27922   6.786   4.347   2.296
 9008SOL    HW127923   6.837   4.317   2.215
 9008SOL    HW227924   6.703   4.395   2.267
 9009SOL     OW27925   2.513   0.046   1.074
 9009SOL    HW127926   2.494   0.142   1.094
 9009SOL    HW227927   2.531   0.035   0.977
 9010SOL     OW27928   0.966   6.581   4.789
 9010SOL    HW127929   1.014   6.544   4.709
 9010SOL    HW227930   0.876   6.612   4.762
 9011SOL     OW27931   3.999   1.990   1.317
 9011SOL    HW127932   3.939   1.980   1.396
 9011SOL    HW227933   4.086   2.030   1.346
 9012SOL     OW27934   1.074   4.989   1.166
 9012SOL    HW127935   1.079   4.958   1.071
 9012SOL    HW227936   1.130   4.929   1.223
 9013SOL     OW27937   6.554   5.835   4.353
 9013SOL    HW127938   6.586   5.775   4.427
 9013SOL    HW227939   6.629   5.896   4.325
 9014SOL     OW27940   1.445   1.400   6.876
 9014SOL    HW127941   1.373   1.462   6.845
 9014SOL    HW227942   1.507   1.450   6.937
 9015SOL     OW27943   0.195   1.409   6.517
 9015SOL    HW127944   0.222   1.365   6.602
 9015SOL    HW227945   0.269   1.469   6.485
 9016SOL     OW27946   6.868   6.448   6.041
 9016SOL    HW127947   6.815   6.386   5.984
 9016SOL    HW227948   6.807   6.497   6.103
 9017SOL     OW27949   6.195   2.032   4.158
 9017SOL    HW127950   6.202   2.083   4.244
 9017SOL    HW227951   6.125   1.960   4.168
 9018SOL     OW27952   3.732   0.802   4.803
 9018SOL    HW127953   3.702   0.818   4.709
 9018SOL    HW227954   3.801   0.870   4.828
 9019SOL     OW27955   2.661   6.300   6.499
 9019SOL    HW127956   2.675   6.237   6.575
 9019SOL    HW227957   2.659   6.249   6.413
 9020SOL     OW27958   1.855   4.614   2.493
 9020SOL    HW127959   1.879   4.521   2.466
 9020SOL    HW227960   1.756   4.626   2.486
 9021SOL     OW27961   6.769   6.487   3.894
 9021SOL    HW127962   6.691   6.470   3.953
 9021SOL    HW227963   6.748   6.459   3.801
 9022SOL     OW27964   2.339   0.237   0.159
 9022SOL    HW127965   2.278   0.159   0.151
 9022SOL    HW227966   2.289   0.316   0.193
 9023SOL     OW27967   3.180   3.397   3.861
 9023SOL    HW127968   3.206   3.424   3.953
 9023SOL    HW227969   3.082   3.416   3.847
 9024SOL     OW27970   1.857   5.984   5.950
 9024SOL    HW127971   1.954   6.002   5.939
 9024SOL    HW227972   1.806   6.022   5.873
 9025SOL     OW27973   6.335   5.364   1.265
 9025SOL    HW127974   6.401   5.423   1.220
 9025SOL    HW227975   6.364   5.269   1.256
 9026SOL     OW27976   4.018   3.257   4.362
 9026SOL    HW127977   3.953   3.291   4.430
 9026SOL    HW227978   4.100   3.223   4.409
 9027SOL     OW27979   2.917   2.059   2.968
 9027SOL    HW127980   2.890   2.091   2.877
 9027SOL    HW227981   2.874   2.118   3.037
 9028SOL     OW27982   2.121   4.190   6.149
 9028SOL    HW127983   2.084   4.107   6.106
 9028SOL    HW227984   2.202   4.167   6.203
 9029SOL     OW27985   4.299   4.747   4.490
 9029SOL    HW127986   4.218   4.756   4.431
 9029SOL    HW227987   4.272   4.758   4.585
 9030SOL     OW27988   2.207   0.988   2.735
 9030SOL    HW127989   2.159   1.020   2.653
 9030SOL    HW227990   2.263   1.062   2.771
 9031SOL     OW27991   2.885   6.100   5.525
 9031SOL    HW127992   2.871   6.153   5.608
 9031SOL    HW227993   2.821   6.130   5.455
 9032SOL     OW27994   2.965   2.572   1.443
 9032SOL    HW127995   2.895   2.519   1.492
 9032SOL    HW227996   3.052   2.522   1.445
 9033SOL     OW27997   2.032   3.535   4.337
 9033SOL    HW127998   2.038   3.468   4.263
 9033SOL    HW227999   1.936   3.554   4.357
 9034SOL     OW28000   3.122   6.968   5.261
 9034SOL    HW128001   3.216   7.000   5.268
 9034SOL    HW228002   3.090   6.980   5.167
 9035SOL     OW28003   6.985   6.858   5.119
 9035SOL    HW128004   6.908   6.915   5.089
 9035SOL    HW228005   6.963   6.816   5.207
 9036SOL     OW28006   2.089   2.646   5.309
 9036SOL    HW128007   2.178   2.601   5.298
 9036SOL    HW228008   2.103   2.739   5.343
 9037SOL     OW28009   2.196   3.896   6.366
 9037SOL    HW128010   2.108   3.862   6.331
 9037SOL    HW228011   2.211   3.860   6.458
 9038SOL     OW28012   5.101   0.871   6.237
 9038SOL    HW128013   5.007   0.839   6.248
 9038SOL    HW228014   5.120   0.885   6.140
 9039SOL     OW28015   1.465   4.579   5.419
 9039SOL    HW128016   1.373   4.618   5.422
 9039SOL    HW228017   1.506   4.583   5.510
 9040SOL     OW28018   2.989   0.833   2.696
 9040SOL    HW128019   2.938   0.893   2.757
 9040SOL    HW228020   3.087   0.852   2.704
 9041SOL     OW28021   0.168   1.851   2.015
 9041SOL    HW128022   0.252   1.887   1.976
 9041SOL    HW228023   0.104   1.927   2.030
 9042SOL     OW28024   2.575   6.452   3.363
 9042SOL    HW128025   2.487   6.496   3.378
 9042SOL    HW228026   2.568   6.354   3.384
 9043SOL     OW28027   1.758   2.255   6.043
 9043SOL    HW128028   1.810   2.237   5.960
 9043SOL    HW228029   1.732   2.351   6.046
 9044SOL     OW28030   6.086   0.637   0.916
 9044SOL    HW128031   6.120   0.731   0.918
 9044SOL    HW228032   6.010   0.630   0.851
 9045SOL     OW28033   3.714   0.309   3.211
 9045SOL    HW128034   3.726   0.360   3.297
 9045SOL    HW228035   3.617   0.307   3.188
 9046SOL     OW28036   3.543   4.507   5.359
 9046SOL    HW128037   3.529   4.605   5.376
 9046SOL    HW228038   3.483   4.478   5.284
 9047SOL     OW28039   1.749   4.376   5.284
 9047SOL    HW128040   1.732   4.474   5.289
 9047SOL    HW228041   1.778   4.352   5.192
 9048SOL     OW28042   1.409   3.766   5.679
 9048SOL    HW128043   1.418   3.798   5.585
 9048SOL    HW228044   1.442   3.837   5.742
 9049SOL     OW28045   5.228   6.392   6.364
 9049SOL    HW128046   5.294   6.466   6.378
 9049SOL    HW228047   5.151   6.403   6.426
 9050SOL     OW28048   0.511   5.297   6.965
 9050SOL    HW128049   0.585   5.234   6.985
 9050SOL    HW228050   0.548   5.379   6.922
 9051SOL     OW28051   4.452   6.013   0.640
 9051SOL    HW128052   4.441   6.113   0.633
 9051SOL    HW228053   4.364   5.969   0.622
 9052SOL     OW28054   2.884   4.812   4.765
 9052SOL    HW128055   2.913   4.903   4.795
 9052SOL    HW228056   2.887   4.748   4.842
 9053SOL     OW28057   2.282   2.726   3.838
 9053SOL    HW128058   2.280   2.645   3.779
 9053SOL    HW228059   2.283   2.698   3.934
 9054SOL     OW28060   1.523   0.428   1.717
 9054SOL    HW128061   1.610   0.414   1.670
 9054SOL    HW228062   1.494   0.343   1.761
 9055SOL     OW28063   0.518   3.098   3.813
 9055SOL    HW128064   0.586   3.169   3.830
 9055SOL    HW228065   0.507   3.043   3.896
 9056SOL     OW28066   5.421   0.437   1.849
 9056SOL    HW128067   5.363   0.388   1.784
 9056SOL    HW228068   5.459   0.518   1.805
 9057SOL     OW28069   6.132   4.929   6.850
 9057SOL    HW128070   6.173   4.979   6.775
 9057SOL    HW228071   6.198   4.863   6.887
 9058SOL     OW28072   1.888   2.061   4.512
 9058SOL    HW128073   1.960   2.098   4.570
 9058SOL    HW228074   1.825   2.134   4.485
 9059SOL     OW28075   5.975   1.043   3.635
 9059SOL    HW128076   5.984   1.143   3.631
 9059SOL    HW228077   5.896   1.015   3.579
 9060SOL     OW28078   6.603   3.571   2.374
 9060SOL    HW128079   6.636   3.486   2.334
 9060SOL    HW228080   6.648   3.648   2.330
 9061SOL     OW28081   4.621   5.439   3.226
 9061SOL    HW128082   4.620   5.521   3.283
 9061SOL    HW228083   4.540   5.439   3.167
 9062SOL     OW28084   1.340   4.808   2.052
 9062SOL    HW128085   1.251   4.785   2.092
 9062SOL    HW228086   1.412   4.761   2.103
 9063SOL     OW28087   2.799   1.704   2.551
 9063SOL    HW128088   2.709   1.720   2.511
 9063SOL    HW228089   2.850   1.640   2.493
 9064SOL     OW28090   6.873   4.212   4.246
 9064SOL    HW128091   6.823   4.169   4.321
 9064SOL    HW228092   6.833   4.301   4.226
 9065SOL     OW28093   2.736   6.180   5.322
 9065SOL    HW128094   2.745   6.277   5.300
 9065SOL    HW228095   2.656   6.142   5.276
 9066SOL     OW28096   6.593   6.960   6.287
 9066SOL    HW128097   6.641   6.898   6.226
 9066SOL    HW228098   6.495   6.957   6.268
 9067SOL     OW28099   6.718   6.301   4.588
 9067SOL    HW128100   6.773   6.219   4.570
 9067SOL    HW228101   6.778   6.380   4.600
 9068SOL     OW28102   4.313   0.127   4.724
 9068SOL    HW128103   4.369   0.131   4.807
 9068SOL    HW228104   4.372   0.135   4.644
 9069SOL     OW28105   5.005   2.577   2.053
 9069SOL    HW128106   4.989   2.665   2.098
 9069SOL    HW228107   4.943   2.568   1.974
 9070SOL     OW28108   1.733   2.269   6.302
 9070SOL    HW128109   1.724   2.244   6.205
 9070SOL    HW228110   1.666   2.340   6.324
 9071SOL     OW28111   4.725   0.943   6.023
 9071SOL    HW128112   4.787   0.963   5.948
 9071SOL    HW228113   4.667   1.023   6.040
 9072SOL     OW28114   5.096   6.769   1.542
 9072SOL    HW128115   5.146   6.683   1.546
 9072SOL    HW228116   5.020   6.766   1.607
 9073SOL     OW28117   4.322   6.967   0.738
 9073SOL    HW128118   4.257   6.903   0.697
 9073SOL    HW228119   4.345   6.936   0.831
 9074SOL     OW28120   1.385   0.794   1.192
 9074SOL    HW128121   1.342   0.767   1.106
 9074SOL    HW228122   1.345   0.742   1.268
 9075SOL     OW28123   6.707   0.689   2.480
 9075SOL    HW128124   6.775   0.673   2.551
 9075SOL    HW228125   6.743   0.754   2.413
 9076SOL     OW28126   4.710   1.491   3.816
 9076SOL    HW128127   4.636   1.541   3.859
 9076SOL    HW228128   4.695   1.485   3.718
 9077SOL     OW28129   4.547   1.625   6.180
 9077SOL    HW128130   4.566   1.722   6.197
 9077SOL    HW228131   4.498   1.587   6.259
 9078SOL     OW28132   5.729   4.885   6.130
 9078SOL    HW128133   5.818   4.927   6.119
 9078SOL    HW228134   5.668   4.947   6.180
 9079SOL     OW28135   1.308   0.377   5.176
 9079SOL    HW128136   1.298   0.277   5.167
 9079SOL    HW228137   1.299   0.419   5.086
 9080SOL     OW28138   6.257   3.151   6.716
 9080SOL    HW128139   6.249   3.077   6.649
 9080SOL    HW228140   6.332   3.212   6.689
 9081SOL     OW28141   3.783   1.723   1.693
 9081SOL    HW128142   3.801   1.798   1.756
 9081SOL    HW228143   3.686   1.723   1.669
 9082SOL     OW28144   2.727   6.684   4.635
 9082SOL    HW128145   2.754   6.612   4.699
 9082SOL    HW228146   2.780   6.674   4.550
 9083SOL     OW28147   4.820   4.553   6.297
 9083SOL    HW128148   4.858   4.591   6.381
 9083SOL    HW228149   4.892   4.505   6.247
 9084SOL     OW28150   0.385   2.327   6.034
 9084SOL    HW128151   0.433   2.414   6.029
 9084SOL    HW228152   0.435   2.265   6.095
 9085SOL     OW28153   2.905   5.351   0.959
 9085SOL    HW128154   2.851   5.369   0.877
 9085SOL    HW228155   2.979   5.286   0.937
 9086SOL     OW28156   6.056   4.220   1.062
 9086SOL    HW128157   5.971   4.258   1.026
 9086SOL    HW228158   6.114   4.191   0.986
 9087SOL     OW28159   5.508   3.287   2.626
 9087SOL    HW128160   5.474   3.262   2.716
 9087SOL    HW228161   5.590   3.344   2.635
 9088SOL     OW28162   5.682   6.757   1.891
 9088SOL    HW128163   5.657   6.694   1.817
 9088SOL    HW228164   5.740   6.708   1.957
 9089SOL     OW28165   4.605   5.649   4.709
 9089SOL    HW128166   4.589   5.559   4.750
 9089SOL    HW228167   4.700   5.655   4.678
 9090SOL     OW28168   5.116   6.312   4.721
 9090SOL    HW128169   5.184   6.254   4.765
 9090SOL    HW228170   5.076   6.373   4.789
 9091SOL     OW28171   2.849   2.467   0.778
 9091SOL    HW128172   2.865   2.469   0.680
 9091SOL    HW228173   2.774   2.529   0.801
 9092SOL     OW28174   1.487   0.671   6.197
 9092SOL    HW128175   1.482   0.628   6.106
 9092SOL    HW228176   1.577   0.713   6.209
 9093SOL     OW28177   1.740   6.287   6.873
 9093SOL    HW128178   1.730   6.380   6.909
 9093SOL    HW228179   1.650   6.249   6.852
 9094SOL     OW28180   0.727   5.601   2.844
 9094SOL    HW128181   0.740   5.588   2.746
 9094SOL    HW228182   0.676   5.524   2.882
 9095SOL     OW28183   5.463   4.050   6.531
 9095SOL    HW128184   5.382   3.993   6.546
 9095SOL    HW228185   5.446   4.111   6.454
 9096SOL     OW28186   5.131   3.237   2.644
 9096SOL    HW128187   5.065   3.312   2.632
 9096SOL    HW228188   5.200   3.242   2.572
 9097SOL     OW28189   0.068   3.162   0.057
 9097SOL    HW128190   0.087   3.122   0.147
 9097SOL    HW228191   0.042   3.258   0.067
 9098SOL     OW28192   3.406   3.047   0.904
 9098SOL    HW128193   3.405   2.954   0.868
 9098SOL    HW228194   3.494   3.090   0.883
 9099SOL     OW28195   3.074   3.264   0.469
 9099SOL    HW128196   3.149   3.210   0.506
 9099SOL    HW228197   2.994   3.206   0.456
 9100SOL     OW28198   1.056   2.241   2.411
 9100SOL    HW128199   0.958   2.223   2.412
 9100SOL    HW228200   1.104   2.169   2.461
 9101SOL     OW28201   2.089   3.244   2.665
 9101SOL    HW128202   2.082   3.320   2.729
 9101SOL    HW228203   2.093   3.280   2.571
 9102SOL     OW28204   3.522   6.254   1.836
 9102SOL    HW128205   3.591   6.183   1.824
 9102SOL    HW228206   3.513   6.275   1.934
 9103SOL     OW28207   0.047   3.597   0.306
 9103SOL    HW128208   0.048   3.520   0.242
 9103SOL    HW228209   0.081   3.679   0.259
 9104SOL     OW28210   3.782   6.192   2.083
 9104SOL    HW128211   3.796   6.096   2.107
 9104SOL    HW228212   3.857   6.223   2.024
 9105SOL     OW28213   1.490   0.796   0.178
 9105SOL    HW128214   1.537   0.750   0.102
 9105SOL    HW228215   1.507   0.894   0.173
 9106SOL     OW28216   5.532   3.955   0.067
 9106SOL    HW128217   5.568   3.862   0.075
 9106SOL    HW228218   5.487   3.965   7.004
 9107SOL     OW28219   4.212   0.361   6.356
 9107SOL    HW128220   4.239   0.355   6.260
 9107SOL    HW228221   4.116   0.387   6.362
 9108SOL     OW28222   4.712   4.640   5.918
 9108SOL    HW128223   4.761   4.553   5.925
 9108SOL    HW228224   4.647   4.648   5.994
 9109SOL     OW28225   1.266   2.816   3.185
 9109SOL    HW128226   1.293   2.889   3.122
 9109SOL    HW228227   1.317   2.825   3.271
 9110SOL     OW28228   2.061   4.375   4.084
 9110SOL    HW128229   2.135   4.351   4.147
 9110SOL    HW228230   2.038   4.296   4.028
 9111SOL     OW28231   4.550   3.600   0.411
 9111SOL    HW128232   4.649   3.594   0.416
 9111SOL    HW228233   4.523   3.691   0.379
 9112SOL     OW28234   0.505   4.565   4.517
 9112SOL    HW128235   0.450   4.611   4.447
 9112SOL    HW228236   0.551   4.633   4.573
 9113SOL     OW28237   4.468   6.293   0.613
 9113SOL    HW128238   4.533   6.289   0.689
 9113SOL    HW228239   4.517   6.314   0.528
 9114SOL     OW28240   1.635   5.089   2.013
 9114SOL    HW128241   1.676   5.143   1.940
 9114SOL    HW228242   1.541   5.066   1.989
 9115SOL     OW28243   0.892   5.938   5.551
 9115SOL    HW128244   0.881   5.921   5.453
 9115SOL    HW228245   0.803   5.931   5.596
 9116SOL     OW28246   6.564   2.347   0.376
 9116SOL    HW128247   6.495   2.417   0.358
 9116SOL    HW228248   6.519   2.259   0.390
 9117SOL     OW28249   5.759   2.858   6.821
 9117SOL    HW128250   5.808   2.817   6.899
 9117SOL    HW228251   5.765   2.957   6.827
 9118SOL     OW28252   6.462   5.727   0.547
 9118SOL    HW128253   6.502   5.801   0.600
 9118SOL    HW228254   6.487   5.737   0.451
 9119SOL     OW28255   5.117   1.446   2.710
 9119SOL    HW128256   5.038   1.395   2.743
 9119SOL    HW228257   5.120   1.535   2.754
 9120SOL     OW28258   5.622   3.190   5.893
 9120SOL    HW128259   5.541   3.247   5.884
 9120SOL    HW228260   5.620   3.117   5.825
 9121SOL     OW28261   1.650   2.749   6.857
 9121SOL    HW128262   1.604   2.762   6.769
 9121SOL    HW228263   1.691   2.658   6.859
 9122SOL     OW28264   1.824   2.991   1.834
 9122SOL    HW128265   1.891   3.055   1.798
 9122SOL    HW228266   1.819   2.910   1.774
 9123SOL     OW28267   4.026   0.157   4.541
 9123SOL    HW128268   4.110   0.111   4.571
 9123SOL    HW228269   4.017   0.244   4.589
 9124SOL     OW28270   5.669   0.013   5.671
 9124SOL    HW128271   5.705   7.012   5.761
 9124SOL    HW228272   5.735   0.073   5.625
 9125SOL     OW28273   5.252   3.518   2.324
 9125SOL    HW128274   5.210   3.600   2.286
 9125SOL    HW228275   5.188   3.442   2.320
 9126SOL     OW28276   5.711   2.335   2.366
 9126SOL    HW128277   5.679   2.280   2.288
 9126SOL    HW228278   5.631   2.368   2.417
 9127SOL     OW28279   6.438   0.989   5.854
 9127SOL    HW128280   6.402   1.065   5.907
 9127SOL    HW228281   6.522   0.954   5.897
 9128SOL     OW28282   3.993   1.409   5.253
 9128SOL    HW128283   3.906   1.458   5.242
 9128SOL    HW228284   4.016   1.403   5.350
 9129SOL     OW28285   0.833   2.989   1.446
 9129SOL    HW128286   0.929   2.962   1.455
 9129SOL    HW228287   0.788   2.930   1.379
 9130SOL     OW28288   6.803   3.388   0.384
 9130SOL    HW128289   6.719   3.361   0.431
 9130SOL    HW228290   6.818   3.486   0.396
 9131SOL     OW28291   0.260   3.427   5.898
 9131SOL    HW128292   0.232   3.517   5.864
 9131SOL    HW228293   0.331   3.438   5.968
 9132SOL     OW28294   0.425   5.002   4.570
 9132SOL    HW128295   0.434   4.950   4.655
 9132SOL    HW228296   0.490   5.078   4.571
 9133SOL     OW28297   3.334   6.025   1.483
 9133SOL    HW128298   3.317   6.110   1.532
 9133SOL    HW228299   3.432   6.017   1.463
 9134SOL     OW28300   4.144   5.869   0.009
 9134SOL    HW128301   4.235   5.892   7.002
 9134SOL    HW228302   4.116   5.932   0.081
 9135SOL     OW28303   6.428   5.977   2.020
 9135SOL    HW128304   6.375   5.940   1.945
 9135SOL    HW228305   6.503   6.033   1.984
 9136SOL     OW28306   5.503   5.348   5.401
 9136SOL    HW128307   5.518   5.447   5.396
 9136SOL    HW228308   5.463   5.316   5.316
 9137SOL     OW28309   5.169   2.075   1.385
 9137SOL    HW128310   5.247   2.028   1.425
 9137SOL    HW228311   5.201   2.142   1.318
 9138SOL     OW28312   6.303   5.274   5.673
 9138SOL    HW128313   6.321   5.286   5.770
 9138SOL    HW228314   6.204   5.280   5.656
 9139SOL     OW28315   2.380   1.736   4.775
 9139SOL    HW128316   2.454   1.670   4.788
 9139SOL    HW228317   2.292   1.694   4.799
 9140SOL     OW28318   6.084   2.919   2.443
 9140SOL    HW128319   6.147   2.967   2.504
 9140SOL    HW228320   6.017   2.868   2.497
 9141SOL     OW28321   5.860   0.210   6.551
 9141SOL    HW128322   5.772   0.202   6.504
 9141SOL    HW228323   5.854   0.167   6.641
 9142SOL     OW28324   0.876   2.282   0.836
 9142SOL    HW128325   0.786   2.322   0.818
 9142SOL    HW228326   0.923   2.335   0.906
 9143SOL     OW28327   5.232   2.912   1.231
 9143SOL    HW128328   5.304   2.953   1.175
 9143SOL    HW228329   5.251   2.814   1.242
 9144SOL     OW28330   2.725   5.595   5.476
 9144SOL    HW128331   2.682   5.579   5.565
 9144SOL    HW228332   2.654   5.598   5.405
 9145SOL     OW28333   6.435   5.506   6.947
 9145SOL    HW128334   6.507   5.464   7.003
 9145SOL    HW228335   6.354   5.522   7.003
 9146SOL     OW28336   5.096   2.734   2.851
 9146SOL    HW128337   5.179   2.684   2.877
 9146SOL    HW228338   5.089   2.737   2.751
 9147SOL     OW28339   6.055   0.170   3.817
 9147SOL    HW128340   6.064   0.269   3.829
 9147SOL    HW228341   6.131   0.137   3.759
 9148SOL     OW28342   4.956   6.646   0.634
 9148SOL    HW128343   4.857   6.644   0.651
 9148SOL    HW228344   4.973   6.686   0.543
 9149SOL     OW28345   5.176   3.161   3.500
 9149SOL    HW128346   5.203   3.071   3.533
 9149SOL    HW228347   5.113   3.152   3.423
 9150SOL     OW28348   2.878   5.276   2.675
 9150SOL    HW128349   2.939   5.240   2.747
 9150SOL    HW228350   2.856   5.203   2.611
 9151SOL     OW28351   1.332   4.600   3.785
 9151SOL    HW128352   1.284   4.685   3.763
 9151SOL    HW228353   1.429   4.620   3.800
 9152SOL     OW28354   2.233   4.593   5.040
 9152SOL    HW128355   2.265   4.512   4.992
 9152SOL    HW228356   2.156   4.568   5.099
 9153SOL     OW28357   1.018   3.091   1.127
 9153SOL    HW128358   1.092   3.105   1.193
 9153SOL    HW228359   0.979   3.179   1.101
 9154SOL     OW28360   4.542   5.184   6.085
 9154SOL    HW128361   4.552   5.269   6.138
 9154SOL    HW228362   4.600   5.189   6.004
 9155SOL     OW28363   1.164   3.342   1.643
 9155SOL    HW128364   1.072   3.363   1.612
 9155SOL    HW228365   1.230   3.363   1.571
 9156SOL     OW28366   1.643   2.544   0.978
 9156SOL    HW128367   1.723   2.574   0.925
 9156SOL    HW228368   1.570   2.612   0.970
 9157SOL     OW28369   6.793   4.635   6.350
 9157SOL    HW128370   6.772   4.612   6.445
 9157SOL    HW228371   6.786   4.552   6.294
 9158SOL     OW28372   5.611   3.611   4.296
 9158SOL    HW128373   5.540   3.653   4.351
 9158SOL    HW228374   5.632   3.669   4.217
 9159SOL     OW28375   1.753   0.179   2.605
 9159SOL    HW128376   1.731   0.083   2.624
 9159SOL    HW228377   1.806   0.216   2.681
 9160SOL     OW28378   6.325   0.503   4.985
 9160SOL    HW128379   6.259   0.428   4.987
 9160SOL    HW228380   6.343   0.529   4.890
 9161SOL     OW28381   4.571   4.577   4.873
 9161SOL    HW128382   4.547   4.551   4.780
 9161SOL    HW228383   4.488   4.601   4.923
 9162SOL     OW28384   4.792   0.446   4.673
 9162SOL    HW128385   4.728   0.462   4.748
 9162SOL    HW228386   4.742   0.444   4.586
 9163SOL     OW28387   1.827   3.121   4.320
 9163SOL    HW128388   1.812   3.029   4.355
 9163SOL    HW228389   1.880   3.174   4.386
 9164SOL     OW28390   2.471   1.270   6.758
 9164SOL    HW128391   2.536   1.233   6.823
 9164SOL    HW228392   2.382   1.283   6.803
 9165SOL     OW28393   5.740   2.069   5.297
 9165SOL    HW128394   5.830   2.026   5.306
 9165SOL    HW228395   5.741   2.157   5.345
 9166SOL     OW28396   3.965   6.149   0.768
 9166SOL    HW128397   3.871   6.184   0.766
 9166SOL    HW228398   3.973   6.074   0.703
 9167SOL     OW28399   2.248   2.739   0.078
 9167SOL    HW128400   2.170   2.796   0.052
 9167SOL    HW228401   2.242   2.716   0.175
 9168SOL     OW28402   0.189   0.329   6.502
 9168SOL    HW128403   0.287   0.347   6.503
 9168SOL    HW228404   0.150   0.359   6.414
 9169SOL     OW28405   5.951   1.520   4.760
 9169SOL    HW128406   6.014   1.454   4.801
 9169SOL    HW228407   6.003   1.588   4.708
 9170SOL     OW28408   1.423   5.413   6.805
 9170SOL    HW128409   1.342   5.456   6.765
 9170SOL    HW228410   1.484   5.383   6.731
 9171SOL     OW28411   4.014   5.282   0.917
 9171SOL    HW128412   4.030   5.348   0.844
 9171SOL    HW228413   4.080   5.207   0.911
 9172SOL     OW28414   3.449   0.785   3.993
 9172SOL    HW128415   3.353   0.813   3.991
 9172SOL    HW228416   3.503   0.854   4.041
 9173SOL     OW28417   6.474   3.674   4.836
 9173SOL    HW128418   6.488   3.675   4.737
 9173SOL    HW228419   6.523   3.750   4.878
 9174SOL     OW28420   5.550   3.435   1.712
 9174SOL    HW128421   5.576   3.480   1.797
 9174SOL    HW228422   5.456   3.402   1.719
 9175SOL     OW28423   0.391   0.280   4.553
 9175SOL    HW128424   0.322   0.223   4.598
 9175SOL    HW228425   0.481   0.238   4.566
 9176SOL     OW28426   2.826   0.974   5.459
 9176SOL    HW128427   2.884   1.047   5.422
 9176SOL    HW228428   2.880   0.913   5.517
 9177SOL     OW28429   0.700   5.225   5.055
 9177SOL    HW128430   0.637   5.160   5.014
 9177SOL    HW228431   0.680   5.235   5.153
 9178SOL     OW28432   1.696   5.474   0.397
 9178SOL    HW128433   1.708   5.425   0.311
 9178SOL    HW228434   1.627   5.427   0.453
 9179SOL     OW28435   3.029   5.232   4.487
 9179SOL    HW128436   3.048   5.140   4.521
 9179SOL    HW228437   2.991   5.288   4.561
 9180SOL     OW28438   6.243   2.602   2.946
 9180SOL    HW128439   6.314   2.641   2.887
 9180SOL    HW228440   6.155   2.605   2.899
 9181SOL     OW28441   4.333   1.993   4.921
 9181SOL    HW128442   4.258   2.058   4.907
 9181SOL    HW228443   4.315   1.939   5.003
 9182SOL     OW28444   2.381   6.832   2.195
 9182SOL    HW128445   2.477   6.856   2.180
 9182SOL    HW228446   2.375   6.751   2.253
 9183SOL     OW28447   4.767   5.707   0.778
 9183SOL    HW128448   4.835   5.751   0.719
 9183SOL    HW228449   4.717   5.776   0.829
 9184SOL     OW28450   5.003   1.411   0.768
 9184SOL    HW128451   5.102   1.423   0.778
 9184SOL    HW228452   4.981   1.396   0.672
 9185SOL     OW28453   4.302   6.801   4.354
 9185SOL    HW128454   4.351   6.757   4.279
 9185SOL    HW228455   4.251   6.732   4.405
 9186SOL     OW28456   5.899   6.061   4.381
 9186SOL    HW128457   5.947   6.040   4.467
 9186SOL    HW228458   5.916   6.156   4.356
 9187SOL     OW28459   2.689   1.394   0.659
 9187SOL    HW128460   2.688   1.298   0.685
 9187SOL    HW228461   2.658   1.450   0.737
 9188SOL     OW28462   1.259   6.784   1.623
 9188SOL    HW128463   1.236   6.868   1.673
 9188SOL    HW228464   1.316   6.726   1.682
 9189SOL     OW28465   4.585   5.842   1.582
 9189SOL    HW128466   4.670   5.893   1.584
 9189SOL    HW228467   4.510   5.902   1.553
 9190SOL     OW28468   2.670   4.741   6.333
 9190SOL    HW128469   2.576   4.761   6.361
 9190SOL    HW228470   2.682   4.764   6.237
 9191SOL     OW28471   6.700   2.816   5.614
 9191SOL    HW128472   6.644   2.877   5.558
 9191SOL    HW228473   6.719   2.732   5.564
 9192SOL     OW28474   0.600   3.284   6.102
 9192SOL    HW128475   0.591   3.213   6.172
 9192SOL    HW228476   0.696   3.292   6.075
 9193SOL     OW28477   4.505   4.387   7.004
 9193SOL    HW128478   4.565   4.386   6.924
 9193SOL    HW228479   4.549   4.337   0.053
 9194SOL     OW28480   3.017   0.576   3.504
 9194SOL    HW128481   3.054   0.626   3.426
 9194SOL    HW228482   2.917   0.575   3.499
 9195SOL     OW28483   1.668   1.687   3.831
 9195SOL    HW128484   1.619   1.772   3.849
 9195SOL    HW228485   1.738   1.703   3.762
 9196SOL     OW28486   4.979   6.861   2.428
 9196SOL    HW128487   4.962   6.927   2.501
 9196SOL    HW228488   4.893   6.819   2.400
 9197SOL     OW28489   1.729   5.217   1.780
 9197SOL    HW128490   1.806   5.186   1.725
 9197SOL    HW228491   1.685   5.295   1.735
 9198SOL     OW28492   6.721   5.018   6.819
 9198SOL    HW128493   6.718   5.118   6.818
 9198SOL    HW228494   6.648   4.982   6.761
 9199SOL     OW28495   0.931   4.331   6.094
 9199SOL    HW128496   0.940   4.275   6.176
 9199SOL    HW228497   1.021   4.366   6.067
 9200SOL     OW28498   2.631   6.805   6.720
 9200SOL    HW128499   2.649   6.724   6.665
 9200SOL    HW228500   2.647   6.887   6.666
 9201SOL     OW28501   0.296   2.329   0.991
 9201SOL    HW128502   0.219   2.277   0.953
 9201SOL    HW228503   0.261   2.412   1.035
 9202SOL     OW28504   1.296   6.706   2.265
 9202SOL    HW128505   1.333   6.619   2.234
 9202SOL    HW228506   1.196   6.702   2.266
 9203SOL     OW28507   0.909   4.063   6.560
 9203SOL    HW128508   0.973   4.067   6.637
 9203SOL    HW228509   0.888   3.967   6.540
 9204SOL     OW28510   4.782   2.833   6.139
 9204SOL    HW128511   4.766   2.751   6.084
 9204SOL    HW228512   4.801   2.910   6.079
 9205SOL     OW28513   5.922   4.678   3.271
 9205SOL    HW128514   5.976   4.754   3.234
 9205SOL    HW228515   5.970   4.592   3.255
 9206SOL     OW28516   3.992   5.853   2.815
 9206SOL    HW128517   4.091   5.836   2.821
 9206SOL    HW228518   3.956   5.872   2.906
 9207SOL     OW28519   5.261   3.708   5.964
 9207SOL    HW128520   5.244   3.789   5.907
 9207SOL    HW228521   5.328   3.731   6.034
 9208SOL     OW28522   5.733   4.372   3.728
 9208SOL    HW128523   5.796   4.437   3.771
 9208SOL    HW228524   5.674   4.420   3.664
 9209SOL     OW28525   4.016   0.593   6.709
 9209SOL    HW128526   4.010   0.501   6.747
 9209SOL    HW228527   3.932   0.643   6.731
 9210SOL     OW28528   0.104   0.613   2.746
 9210SOL    HW128529   0.139   0.530   2.702
 9210SOL    HW228530   0.012   0.632   2.712
 9211SOL     OW28531   0.631   2.098   6.088
 9211SOL    HW128532   0.665   2.188   6.061
 9211SOL    HW228533   0.704   2.031   6.080
 9212SOL     OW28534   5.277   5.310   4.178
 9212SOL    HW128535   5.349   5.241   4.173
 9212SOL    HW228536   5.314   5.395   4.215
 9213SOL     OW28537   5.303   3.482   5.316
 9213SOL    HW128538   5.242   3.407   5.292
 9213SOL    HW228539   5.303   3.494   5.416
 9214SOL     OW28540   6.857   3.228   6.812
 9214SOL    HW128541   6.894   3.143   6.850
 9214SOL    HW228542   6.828   3.288   6.886
 9215SOL     OW28543   0.749   2.637   1.478
 9215SOL    HW128544   0.699   2.710   1.524
 9215SOL    HW228545   0.714   2.549   1.507
 9216SOL     OW28546   3.038   0.321   2.378
 9216SOL    HW128547   3.128   0.355   2.353
 9216SOL    HW228548   3.015   0.241   2.322
 9217SOL     OW28549   0.492   2.481   0.200
 9217SOL    HW128550   0.517   2.427   0.120
 9217SOL    HW228551   0.392   2.494   0.201
 9218SOL     OW28552   1.886   0.099   0.161
 9218SOL    HW128553   1.883   0.109   0.261
 9218SOL    HW228554   1.815   0.157   0.120
 9219SOL     OW28555   6.382   2.734   1.074
 9219SOL    HW128556   6.408   2.830   1.080
 9219SOL    HW228557   6.364   2.710   0.979
 9220SOL     OW28558   1.533   6.529   1.453
 9220SOL    HW128559   1.612   6.468   1.442
 9220SOL    HW228560   1.552   6.616   1.407
 9221SOL     OW28561   3.290   0.565   3.072
 9221SOL    HW128562   3.250   0.534   2.985
 9221SOL    HW228563   3.302   0.664   3.070
 9222SOL     OW28564   2.029   6.651   6.209
 9222SOL    HW128565   2.110   6.596   6.230
 9222SOL    HW228566   1.981   6.612   6.131
 9223SOL     OW28567   0.610   1.113   3.697
 9223SOL    HW128568   0.703   1.148   3.684
 9223SOL    HW228569   0.588   1.115   3.795
 9224SOL     OW28570   1.253   4.956   5.109
 9224SOL    HW128571   1.258   5.031   5.175
 9224SOL    HW228572   1.345   4.918   5.097
 9225SOL     OW28573   3.102   6.862   5.913
 9225SOL    HW128574   3.090   6.871   5.814
 9225SOL    HW228575   3.118   6.766   5.936
 9226SOL     OW28576   5.832   6.357   0.956
 9226SOL    HW128577   5.817   6.318   0.865
 9226SOL    HW228578   5.893   6.298   1.008
 9227SOL     OW28579   0.977   5.347   0.580
 9227SOL    HW128580   0.961   5.430   0.634
 9227SOL    HW228581   1.016   5.372   0.492
 9228SOL     OW28582   1.498   1.920   5.535
 9228SOL    HW128583   1.414   1.882   5.572
 9228SOL    HW228584   1.566   1.847   5.526
 9229SOL     OW28585   0.666   5.711   4.877
 9229SOL    HW128586   0.740   5.771   4.849
 9229SOL    HW228587   0.702   5.619   4.892
 9230SOL     OW28588   4.398   1.236   3.639
 9230SOL    HW128589   4.309   1.191   3.628
 9230SOL    HW228590   4.466   1.189   3.584
 9231SOL     OW28591   0.498   4.262   4.602
 9231SOL    HW128592   0.580   4.208   4.586
 9231SOL    HW228593   0.512   4.355   4.568
 9232SOL     OW28594   3.740   5.028   0.558
 9232SOL    HW128595   3.839   5.031   0.543
 9232SOL    HW228596   3.722   5.004   0.653
 9233SOL     OW28597   5.510   5.264   2.156
 9233SOL    HW128598   5.518   5.214   2.242
 9233SOL    HW228599   5.563   5.349   2.162
 9234SOL     OW28600   3.696   6.038   5.855
 9234SOL    HW128601   3.795   6.020   5.849
 9234SOL    HW228602   3.646   5.952   5.848
 9235SOL     OW28603   1.513   3.468   3.181
 9235SOL    HW128604   1.613   3.470   3.187
 9235SOL    HW228605   1.481   3.546   3.126
 9236SOL     OW28606   2.759   4.323   5.607
 9236SOL    HW128607   2.662   4.323   5.630
 9236SOL    HW228608   2.771   4.356   5.513
 9237SOL     OW28609   1.783   5.731   4.589
 9237SOL    HW128610   1.738   5.655   4.540
 9237SOL    HW228611   1.878   5.708   4.606
 9238SOL     OW28612   3.330   1.298   0.015
 9238SOL    HW128613   3.405   1.363   0.030
 9238SOL    HW228614   3.258   1.315   0.083
 9239SOL     OW28615   6.730   4.615   0.729
 9239SOL    HW128616   6.743   4.615   0.630
 9239SOL    HW228617   6.793   4.551   0.771
 9240SOL     OW28618   5.184   1.683   1.376
 9240SOL    HW128619   5.097   1.728   1.353
 9240SOL    HW228620   5.259   1.736   1.338
 9241SOL     OW28621   0.798   5.077   5.564
 9241SOL    HW128622   0.840   5.162   5.534
 9241SOL    HW228623   0.742   5.039   5.490
 9242SOL     OW28624   0.360   5.486   0.269
 9242SOL    HW128625   0.378   5.584   0.260
 9242SOL    HW228626   0.435   5.443   0.320
 9243SOL     OW28627   5.679   6.618   1.647
 9243SOL    HW128628   5.605   6.571   1.598
 9243SOL    HW228629   5.712   6.694   1.592
 9244SOL     OW28630   3.966   5.478   6.557
 9244SOL    HW128631   4.032   5.552   6.540
 9244SOL    HW228632   3.936   5.441   6.469
 9245SOL     OW28633   1.359   5.000   3.394
 9245SOL    HW128634   1.329   4.998   3.299
 9245SOL    HW228635   1.306   4.934   3.447
 9246SOL     OW28636   0.185   4.983   2.770
 9246SOL    HW128637   0.090   4.996   2.796
 9246SOL    HW228638   0.229   4.920   2.834
 9247SOL     OW28639   1.180   6.518   2.911
 9247SOL    HW128640   1.119   6.575   2.966
 9247SOL    HW228641   1.147   6.514   2.817
 9248SOL     OW28642   1.654   2.413   4.955
 9248SOL    HW128643   1.558   2.441   4.960
 9248SOL    HW228644   1.660   2.313   4.952
 9249SOL     OW28645   4.771   3.993   6.951
 9249SOL    HW128646   4.825   3.911   6.973
 9249SOL    HW228647   4.677   3.967   6.932
 9250SOL     OW28648   5.753   3.091   4.613
 9250SOL    HW128649   5.824   3.087   4.542
 9250SOL    HW228650   5.745   3.185   4.646
 9251SOL     OW28651   4.017   2.008   3.247
 9251SOL    HW128652   4.025   2.067   3.327
 9251SOL    HW228653   4.067   1.922   3.264
 9252SOL     OW28654   5.816   0.259   4.268
 9252SOL    HW128655   5.902   0.253   4.218
 9252SOL    HW228656   5.759   0.180   4.246
 9253SOL     OW28657   5.967   6.379   5.814
 9253SOL    HW128658   5.904   6.409   5.742
 9253SOL    HW228659   6.010   6.293   5.787
 9254SOL     OW28660   6.354   4.337   2.805
 9254SOL    HW128661   6.436   4.300   2.850
 9254SOL    HW228662   6.276   4.278   2.827
 9255SOL     OW28663   4.636   3.890   0.304
 9255SOL    HW128664   4.565   3.950   0.341
 9255SOL    HW228665   4.725   3.934   0.314
 9256SOL     OW28666   4.098   6.591   2.411
 9256SOL    HW128667   4.137   6.646   2.485
 9256SOL    HW228668   4.059   6.507   2.448
 9257SOL     OW28669   0.912   3.944   3.083
 9257SOL    HW128670   0.894   3.871   3.017
 9257SOL    HW228671   0.826   3.992   3.103
 9258SOL     OW28672   3.289   3.480   3.588
 9258SOL    HW128673   3.268   3.467   3.685
 9258SOL    HW228674   3.364   3.419   3.562
 9259SOL     OW28675   1.220   2.500   0.059
 9259SOL    HW128676   1.290   2.471   7.020
 9259SOL    HW228677   1.254   2.578   0.112
 9260SOL     OW28678   4.915   1.933   5.057
 9260SOL    HW128679   4.942   1.865   4.988
 9260SOL    HW228680   4.949   2.023   5.029
 9261SOL     OW28681   4.716   0.601   6.309
 9261SOL    HW128682   4.740   0.698   6.307
 9261SOL    HW228683   4.621   0.590   6.337
 9262SOL     OW28684   0.112   3.521   5.511
 9262SOL    HW128685   0.186   3.495   5.449
 9262SOL    HW228686   0.062   3.439   5.539
 9263SOL     OW28687   5.844   5.470   1.878
 9263SOL    HW128688   5.851   5.512   1.788
 9263SOL    HW228689   5.931   5.480   1.926
 9264SOL     OW28690   5.737   4.390   0.275
 9264SOL    HW128691   5.751   4.486   0.296
 9264SOL    HW228692   5.823   4.340   0.283
 9265SOL     OW28693   3.563   1.535   0.015
 9265SOL    HW128694   3.505   1.615   0.028
 9265SOL    HW228695   3.581   1.522   6.944
 9266SOL     OW28696   2.177   6.693   2.001
 9266SOL    HW128697   2.253   6.751   2.033
 9266SOL    HW228698   2.107   6.688   2.072
 9267SOL     OW28699   0.568   3.946   5.572
 9267SOL    HW128700   0.615   4.027   5.608
 9267SOL    HW228701   0.634   3.870   5.564
 9268SOL     OW28702   1.280   4.916   1.507
 9268SOL    HW128703   1.368   4.941   1.548
 9268SOL    HW228704   1.292   4.903   1.409
 9269SOL     OW28705   3.128   1.854   5.857
 9269SOL    HW128706   3.033   1.870   5.885
 9269SOL    HW228707   3.173   1.796   5.925
 9270SOL     OW28708   4.613   6.771   5.844
 9270SOL    HW128709   4.572   6.844   5.898
 9270SOL    HW228710   4.547   6.697   5.831
 9271SOL     OW28711   1.189   6.403   6.808
 9271SOL    HW128712   1.224   6.406   6.902
 9271SOL    HW228713   1.245   6.463   6.750
 9272SOL     OW28714   1.719   5.356   5.196
 9272SOL    HW128715   1.728   5.280   5.131
 9272SOL    HW228716   1.782   5.342   5.272
 9273SOL     OW28717   5.358   6.154   3.666
 9273SOL    HW128718   5.280   6.092   3.669
 9273SOL    HW228719   5.406   6.152   3.753
 9274SOL     OW28720   6.657   2.676   0.124
 9274SOL    HW128721   6.747   2.636   0.106
 9274SOL    HW228722   6.664   2.740   0.201
 9275SOL     OW28723   7.026   2.179   0.095
 9275SOL    HW128724   0.077   2.242   0.103
 9275SOL    HW228725   6.991   2.156   0.186
 9276SOL     OW28726   2.080   4.546   2.627
 9276SOL    HW128727   1.990   4.559   2.586
 9276SOL    HW228728   2.112   4.634   2.663
 9277SOL     OW28729   5.471   3.141   0.598
 9277SOL    HW128730   5.510   3.101   0.681
 9277SOL    HW228731   5.438   3.068   0.539
 9278SOL     OW28732   1.321   0.415   5.476
 9278SOL    HW128733   1.325   0.382   5.381
 9278SOL    HW228734   1.226   0.412   5.508
 9279SOL     OW28735   4.870   0.469   2.223
 9279SOL    HW128736   4.915   0.440   2.139
 9279SOL    HW228737   4.926   0.445   2.302
 9280SOL     OW28738   1.267   1.118   2.444
 9280SOL    HW128739   1.240   1.210   2.418
 9280SOL    HW228740   1.188   1.057   2.439
 9281SOL     OW28741   2.859   4.461   1.047
 9281SOL    HW128742   2.952   4.441   1.016
 9281SOL    HW228743   2.856   4.455   1.147
 9282SOL     OW28744   5.422   1.029   4.504
 9282SOL    HW128745   5.502   1.070   4.460
 9282SOL    HW228746   5.424   1.050   4.602
 9283SOL     OW28747   5.774   0.183   3.734
 9283SOL    HW128748   5.727   0.271   3.749
 9283SOL    HW228749   5.873   0.197   3.737
 9284SOL     OW28750   3.322   4.582   5.998
 9284SOL    HW128751   3.237   4.610   6.042
 9284SOL    HW228752   3.371   4.663   5.965
 9285SOL     OW28753   5.250   2.788   0.887
 9285SOL    HW128754   5.165   2.783   0.939
 9285SOL    HW228755   5.232   2.765   0.791
 9286SOL     OW28756   5.234   6.701   6.651
 9286SOL    HW128757   5.267   6.703   6.557
 9286SOL    HW228758   5.282   6.771   6.704
 9287SOL     OW28759   3.063   5.264   6.803
 9287SOL    HW128760   2.986   5.303   6.852
 9287SOL    HW228761   3.035   5.178   6.760
 9288SOL     OW28762   3.694   1.446   4.290
 9288SOL    HW128763   3.634   1.367   4.280
 9288SOL    HW228764   3.789   1.416   4.288
 9289SOL     OW28765   3.432   1.610   2.595
 9289SOL    HW128766   3.367   1.686   2.605
 9289SOL    HW228767   3.513   1.643   2.546
 9290SOL     OW28768   4.705   1.477   3.531
 9290SOL    HW128769   4.726   1.410   3.460
 9290SOL    HW228770   4.624   1.530   3.505
 9291SOL     OW28771   2.050   6.968   4.203
 9291SOL    HW128772   2.023   0.013   4.269
 9291SOL    HW228773   2.092   6.891   4.252
 9292SOL     OW28774   0.781   3.476   6.614
 9292SOL    HW128775   0.759   3.488   6.711
 9292SOL    HW228776   0.779   3.379   6.590
 9293SOL     OW28777   5.398   4.249   6.999
 9293SOL    HW128778   5.430   4.165   6.955
 9293SOL    HW228779   5.323   4.288   6.945
 9294SOL     OW28780   3.379   6.664   4.633
 9294SOL    HW128781   3.336   6.744   4.591
 9294SOL    HW228782   3.309   6.594   4.650
 9295SOL     OW28783   5.339   2.594   4.079
 9295SOL    HW128784   5.267   2.561   4.140
 9295SOL    HW228785   5.299   2.651   4.007
 9296SOL     OW28786   0.723   6.897   6.377
 9296SOL    HW128787   0.687   6.822   6.432
 9296SOL    HW228788   0.806   6.934   6.419
 9297SOL     OW28789   6.214   1.526   0.442
 9297SOL    HW128790   6.219   1.621   0.411
 9297SOL    HW228791   6.236   1.522   0.540
 9298SOL     OW28792   1.721   0.664   4.690
 9298SOL    HW128793   1.663   0.731   4.736
 9298SOL    HW228794   1.806   0.654   4.741
 9299SOL     OW28795   0.692   2.488   4.131
 9299SOL    HW128796   0.723   2.393   4.126
 9299SOL    HW228797   0.723   2.537   4.049
 9300SOL     OW28798   1.039   4.451   5.626
 9300SOL    HW128799   1.041   4.550   5.608
 9300SOL    HW228800   1.132   4.414   5.622
 9301SOL     OW28801   5.101   4.420   3.683
 9301SOL    HW128802   5.026   4.469   3.638
 9301SOL    HW228803   5.063   4.353   3.746
 9302SOL     OW28804   2.242   2.946   4.569
 9302SOL    HW128805   2.227   3.011   4.644
 9302SOL    HW228806   2.313   2.881   4.596
 9303SOL     OW28807   3.439   5.459   0.337
 9303SOL    HW128808   3.379   5.400   0.392
 9303SOL    HW228809   3.394   5.547   0.324
 9304SOL     OW28810   4.701   4.284   2.238
 9304SOL    HW128811   4.774   4.216   2.253
 9304SOL    HW228812   4.658   4.267   2.149
 9305SOL     OW28813   3.373   1.156   1.752
 9305SOL    HW128814   3.390   1.185   1.658
 9305SOL    HW228815   3.458   1.125   1.794
 9306SOL     OW28816   0.476   4.841   4.797
 9306SOL    HW128817   0.563   4.798   4.771
 9306SOL    HW228818   0.419   4.774   4.844
 9307SOL     OW28819   0.934   3.686   0.987
 9307SOL    HW128820   0.906   3.694   0.891
 9307SOL    HW228821   1.030   3.712   0.996
 9308SOL     OW28822   1.825   4.387   0.952
 9308SOL    HW128823   1.872   4.309   0.910
 9308SOL    HW228824   1.857   4.398   1.046
 9309SOL     OW28825   3.664   4.722   5.765
 9309SOL    HW128826   3.577   4.688   5.731
 9309SOL    HW228827   3.653   4.814   5.801
 9310SOL     OW28828   4.762   5.489   5.863
 9310SOL    HW128829   4.842   5.449   5.819
 9310SOL    HW228830   4.758   5.461   5.959
 9311SOL     OW28831   4.098   4.839   2.170
 9311SOL    HW128832   4.127   4.743   2.161
 9311SOL    HW228833   4.179   4.895   2.190
 9312SOL     OW28834   1.237   3.074   1.333
 9312SOL    HW128835   1.255   3.123   1.418
 9312SOL    HW228836   1.299   2.996   1.324
 9313SOL     OW28837   0.093   0.189   1.130
 9313SOL    HW128838   0.123   0.281   1.156
 9313SOL    HW228839   0.067   0.139   1.212
 9314SOL     OW28840   4.592   6.255   6.100
 9314SOL    HW128841   4.624   6.178   6.044
 9314SOL    HW228842   4.649   6.335   6.081
 9315SOL     OW28843   6.572   1.278   5.218
 9315SOL    HW128844   6.595   1.185   5.193
 9315SOL    HW228845   6.641   1.315   5.280
 9316SOL     OW28846   4.430   5.891   5.255
 9316SOL    HW128847   4.491   5.868   5.179
 9316SOL    HW228848   4.346   5.930   5.220
 9317SOL     OW28849   6.578   4.959   3.344
 9317SOL    HW128850   6.671   4.994   3.345
 9317SOL    HW228851   6.554   4.929   3.251
 9318SOL     OW28852   6.410   0.707   5.915
 9318SOL    HW128853   6.327   0.653   5.931
 9318SOL    HW228854   6.385   0.800   5.889
 9319SOL     OW28855   1.438   2.970   0.383
 9319SOL    HW128856   1.475   2.941   0.472
 9319SOL    HW228857   1.347   3.009   0.396
 9320SOL     OW28858   3.499   1.184   5.979
 9320SOL    HW128859   3.507   1.124   6.058
 9320SOL    HW228860   3.589   1.218   5.953
 9321SOL     OW28861   5.896   6.738   3.233
 9321SOL    HW128862   5.986   6.695   3.234
 9321SOL    HW228863   5.891   6.803   3.156
 9322SOL     OW28864   1.265   4.766   6.619
 9322SOL    HW128865   1.205   4.809   6.552
 9322SOL    HW228866   1.251   4.808   6.708
 9323SOL     OW28867   1.239   0.656   5.274
 9323SOL    HW128868   1.160   0.692   5.322
 9323SOL    HW228869   1.231   0.557   5.266
 9324SOL     OW28870   1.337   4.650   0.309
 9324SOL    HW128871   1.313   4.723   0.246
 9324SOL    HW228872   1.436   4.642   0.315
 9325SOL     OW28873   4.860   1.106   6.754
 9325SOL    HW128874   4.765   1.125   6.730
 9325SOL    HW228875   4.863   1.050   6.837
 9326SOL     OW28876   1.960   6.429   0.584
 9326SOL    HW128877   1.950   6.330   0.576
 9326SOL    HW228878   2.030   6.450   0.653
 9327SOL     OW28879   5.092   6.780   2.842
 9327SOL    HW128880   5.045   6.699   2.876
 9327SOL    HW228881   5.139   6.759   2.757
 9328SOL     OW28882   3.300   0.663   5.781
 9328SOL    HW128883   3.287   0.588   5.716
 9328SOL    HW228884   3.392   0.700   5.771
 9329SOL     OW28885   6.087   4.079   1.698
 9329SOL    HW128886   6.170   4.054   1.649
 9329SOL    HW228887   6.045   3.998   1.738
 9330SOL     OW28888   6.246   6.895   6.732
 9330SOL    HW128889   6.333   6.900   6.683
 9330SOL    HW228890   6.254   6.832   6.809
 9331SOL     OW28891   1.296   1.156   6.424
 9331SOL    HW128892   1.364   1.207   6.476
 9331SOL    HW228893   1.331   1.136   6.333
 9332SOL     OW28894   3.988   4.059   1.694
 9332SOL    HW128895   4.030   4.026   1.778
 9332SOL    HW228896   3.931   4.139   1.714
 9333SOL     OW28897   4.131   4.187   1.483
 9333SOL    HW128898   4.146   4.131   1.401
 9333SOL    HW228899   4.071   4.138   1.546
 9334SOL     OW28900   5.457   5.608   3.822
 9334SOL    HW128901   5.431   5.692   3.871
 9334SOL    HW228902   5.380   5.545   3.821
 9335SOL     OW28903   1.041   1.133   6.214
 9335SOL    HW128904   0.967   1.199   6.229
 9335SOL    HW228905   1.033   1.060   6.282
 9336SOL     OW28906   2.788   4.932   5.431
 9336SOL    HW128907   2.775   4.877   5.348
 9336SOL    HW228908   2.772   4.876   5.512
 9337SOL     OW28909   5.202   1.601   4.026
 9337SOL    HW128910   5.105   1.607   4.003
 9337SOL    HW228911   5.246   1.530   3.971
 9338SOL     OW28912   3.993   0.744   2.019
 9338SOL    HW128913   4.054   0.684   2.069
 9338SOL    HW228914   4.004   0.838   2.052
 9339SOL     OW28915   5.577   0.289   1.572
 9339SOL    HW128916   5.612   0.195   1.575
 9339SOL    HW228917   5.638   0.349   1.623
 9340SOL     OW28918   5.550   3.196   4.026
 9340SOL    HW128919   5.594   3.271   3.977
 9340SOL    HW228920   5.614   3.156   4.091
 9341SOL     OW28921   6.804   5.674   0.623
 9341SOL    HW128922   6.822   5.651   0.528
 9341SOL    HW228923   6.889   5.699   0.669
 9342SOL     OW28924   1.766   0.157   3.655
 9342SOL    HW128925   1.697   0.096   3.617
 9342SOL    HW228926   1.854   0.140   3.609
 9343SOL     OW28927   6.016   3.947   2.406
 9343SOL    HW128928   6.059   3.921   2.319
 9343SOL    HW228929   6.001   3.866   2.462
 9344SOL     OW28930   4.533   6.202   2.273
 9344SOL    HW128931   4.540   6.250   2.185
 9344SOL    HW228932   4.441   6.164   2.283
 9345SOL     OW28933   6.285   4.513   2.203
 9345SOL    HW128934   6.222   4.587   2.226
 9345SOL    HW228935   6.284   4.498   2.104
 9346SOL     OW28936   6.221   1.177   1.069
 9346SOL    HW128937   6.234   1.106   1.138
 9346SOL    HW228938   6.284   1.253   1.086
 9347SOL     OW28939   1.297   3.487   0.643
 9347SOL    HW128940   1.382   3.504   0.593
 9347SOL    HW228941   1.222   3.477   0.579
 9348SOL     OW28942   3.677   5.900   2.491
 9348SOL    HW128943   3.772   5.930   2.484
 9348SOL    HW228944   3.630   5.918   2.404
 9349SOL     OW28945   0.605   6.161   3.289
 9349SOL    HW128946   0.507   6.153   3.305
 9349SOL    HW228947   0.636   6.253   3.314
 9350SOL     OW28948   0.587   3.673   5.334
 9350SOL    HW128949   0.674   3.639   5.298
 9350SOL    HW228950   0.596   3.695   5.431
 9351SOL     OW28951   2.408   0.469   6.557
 9351SOL    HW128952   2.473   0.534   6.598
 9351SOL    HW228953   2.410   0.479   6.458
 9352SOL     OW28954   3.214   2.149   6.840
 9352SOL    HW128955   3.288   2.215   6.852
 9352SOL    HW228956   3.216   2.113   6.746
 9353SOL     OW28957   0.320   4.501   0.538
 9353SOL    HW128958   0.403   4.508   0.482
 9353SOL    HW228959   0.257   4.435   0.497
 9354SOL     OW28960   6.758   1.840   6.353
 9354SOL    HW128961   6.761   1.745   6.382
 9354SOL    HW228962   6.848   1.882   6.366
 9355SOL     OW28963   0.611   2.202   4.490
 9355SOL    HW128964   0.692   2.260   4.489
 9355SOL    HW228965   0.592   2.173   4.584
 9356SOL     OW28966   4.634   0.468   2.356
 9356SOL    HW128967   4.585   0.402   2.300
 9356SOL    HW228968   4.716   0.500   2.307
 9357SOL     OW28969   1.085   3.280   6.061
 9357SOL    HW128970   1.003   3.259   6.008
 9357SOL    HW228971   1.153   3.209   6.046
 9358SOL     OW28972   6.860   3.977   2.251
 9358SOL    HW128973   6.789   4.016   2.309
 9358SOL    HW228974   6.950   4.002   2.287
 9359SOL     OW28975   1.453   4.676   6.873
 9359SOL    HW128976   1.500   4.686   6.785
 9359SOL    HW228977   1.379   4.743   6.879
 9360SOL     OW28978   1.586   5.364   6.258
 9360SOL    HW128979   1.488   5.343   6.264
 9360SOL    HW228980   1.599   5.441   6.194
 9361SOL     OW28981   1.551   5.063   3.609
 9361SOL    HW128982   1.506   5.007   3.539
 9361SOL    HW228983   1.557   5.158   3.577
 9362SOL     OW28984   0.618   0.903   2.526
 9362SOL    HW128985   0.708   0.874   2.557
 9362SOL    HW228986   0.624   0.997   2.490
 9363SOL     OW28987   3.277   5.200   2.048
 9363SOL    HW128988   3.243   5.201   1.954
 9363SOL    HW228989   3.207   5.236   2.110
 9364SOL     OW28990   2.387   2.293   0.049
 9364SOL    HW128991   2.402   2.338   0.137
 9364SOL    HW228992   2.428   2.202   0.050
 9365SOL     OW28993   3.147   1.872   3.383
 9365SOL    HW128994   3.056   1.831   3.373
 9365SOL    HW228995   3.170   1.878   3.480
 9366SOL     OW28996   2.977   5.471   0.069
 9366SOL    HW128997   2.959   5.536   7.021
 9366SOL    HW228998   2.998   5.521   0.153
 9367SOL     OW28999   6.551   0.013   1.542
 9367SOL    HW129000   6.459   0.004   1.504
 9367SOL    HW229001   6.566   6.967   1.610
 9368SOL     OW29002   3.413   6.792   2.111
 9368SOL    HW129003   3.445   6.713   2.059
 9368SOL    HW229004   3.347   6.843   2.056
 9369SOL     OW29005   6.629   6.220   4.314
 9369SOL    HW129006   6.667   6.239   4.404
 9369SOL    HW229007   6.539   6.263   4.305
 9370SOL     OW29008   5.383   6.760   4.389
 9370SOL    HW129009   5.434   6.840   4.357
 9370SOL    HW229010   5.445   6.682   4.399
 9371SOL     OW29011   2.544   6.041   0.544
 9371SOL    HW129012   2.632   6.024   0.588
 9371SOL    HW229013   2.556   6.106   0.470
 9372SOL     OW29014   5.322   0.303   1.610
 9372SOL    HW129015   5.416   0.305   1.575
 9372SOL    HW229016   5.294   0.208   1.622
 9373SOL     OW29017   5.422   2.156   0.537
 9373SOL    HW129018   5.350   2.100   0.496
 9373SOL    HW229019   5.391   2.191   0.625
 9374SOL     OW29020   0.267   3.094   6.068
 9374SOL    HW129021   0.334   3.129   6.003
 9374SOL    HW229022   0.188   3.058   6.019
 9375SOL     OW29023   0.047   1.688   0.833
 9375SOL    HW129024   0.029   1.606   0.887
 9375SOL    HW229025   0.078   1.662   0.742
 9376SOL     OW29026   2.527   3.838   1.686
 9376SOL    HW129027   2.558   3.801   1.598
 9376SOL    HW229028   2.447   3.897   1.671
 9377SOL     OW29029   1.590   5.116   3.218
 9377SOL    HW129030   1.504   5.141   3.262
 9377SOL    HW229031   1.628   5.035   3.262
 9378SOL     OW29032   3.575   1.165   3.747
 9378SOL    HW129033   3.595   1.262   3.739
 9378SOL    HW229034   3.651   1.119   3.794
 9379SOL     OW29035   5.120   6.994   4.636
 9379SOL    HW129036   5.058   0.018   4.576
 9379SOL    HW229037   5.126   6.898   4.607
 9380SOL     OW29038   3.588   5.672   5.629
 9380SOL    HW129039   3.628   5.736   5.563
 9380SOL    HW229040   3.489   5.675   5.623
 9381SOL     OW29041   5.505   2.867   5.148
 9381SOL    HW129042   5.523   2.908   5.237
 9381SOL    HW229043   5.411   2.889   5.119
 9382SOL     OW29044   3.981   1.276   3.849
 9382SOL    HW129045   4.023   1.362   3.876
 9382SOL    HW229046   3.986   1.266   3.750
 9383SOL     OW29047   5.416   4.364   4.198
 9383SOL    HW129048   5.422   4.329   4.104
 9383SOL    HW229049   5.500   4.341   4.247
 9384SOL     OW29050   3.293   6.929   1.870
 9384SOL    HW129051   3.391   6.944   1.873
 9384SOL    HW229052   3.250   6.997   1.810
 9385SOL     OW29053   4.574   1.362   4.377
 9385SOL    HW129054   4.533   1.365   4.286
 9385SOL    HW229055   4.566   1.451   4.420
 9386SOL     OW29056   3.319   5.640   5.096
 9386SOL    HW129057   3.307   5.558   5.040
 9386SOL    HW229058   3.255   5.711   5.066
 9387SOL     OW29059   3.185   1.887   0.855
 9387SOL    HW129060   3.255   1.946   0.816
 9387SOL    HW229061   3.159   1.921   0.946
 9388SOL     OW29062   1.855   6.810   3.130
 9388SOL    HW129063   1.876   6.846   3.039
 9388SOL    HW229064   1.777   6.859   3.168
 9389SOL     OW29065   3.048   6.104   3.102
 9389SOL    HW129066   3.003   6.164   3.035
 9389SOL    HW229067   3.048   6.010   3.068
 9390SOL     OW29068   6.066   5.229   5.894
 9390SOL    HW129069   6.005   5.236   5.815
 9390SOL    HW229070   6.141   5.165   5.873
 9391SOL     OW29071   0.357   0.940   5.074
 9391SOL    HW129072   0.419   0.923   4.997
 9391SOL    HW229073   0.385   0.884   5.152
 9392SOL     OW29074   4.918   4.155   3.771
 9392SOL    HW129075   4.906   4.070   3.719
 9392SOL    HW229076   4.875   4.144   3.861
 9393SOL     OW29077   2.929   0.087   5.362
 9393SOL    HW129078   2.990   0.052   5.291
 9393SOL    HW229079   2.932   0.027   5.442
 9394SOL     OW29080   6.025   0.395   1.344
 9394SOL    HW129081   6.115   0.414   1.304
 9394SOL    HW229082   5.953   0.422   1.280
 9395SOL     OW29083   2.582   1.134   0.613
 9395SOL    HW129084   2.531   1.128   0.527
 9395SOL    HW229085   2.660   1.070   0.610
 9396SOL     OW29086   2.000   4.491   5.171
 9396SOL    HW129087   2.019   4.427   5.245
 9396SOL    HW229088   1.953   4.443   5.097
 9397SOL     OW29089   2.751   6.776   5.378
 9397SOL    HW129090   2.688   6.830   5.434
 9397SOL    HW229091   2.844   6.784   5.414
 9398SOL     OW29092   5.864   1.669   5.613
 9398SOL    HW129093   5.825   1.743   5.558
 9398SOL    HW229094   5.870   1.586   5.557
 9399SOL     OW29095   0.923   2.887   3.884
 9399SOL    HW129096   1.008   2.843   3.914
 9399SOL    HW229097   0.889   2.947   3.956
 9400SOL     OW29098   4.838   0.257   0.429
 9400SOL    HW129099   4.807   0.185   0.367
 9400SOL    HW229100   4.766   0.278   0.494
 9401SOL     OW29101   0.191   2.276   1.831
 9401SOL    HW129102   0.158   2.342   1.898
 9401SOL    HW229103   0.115   2.245   1.774
 9402SOL     OW29104   1.198   4.609   3.225
 9402SOL    HW129105   1.160   4.520   3.252
 9402SOL    HW229106   1.168   4.631   3.132
 9403SOL     OW29107   6.733   1.331   2.120
 9403SOL    HW129108   6.708   1.242   2.083
 9403SOL    HW229109   6.829   1.329   2.149
 9404SOL     OW29110   0.146   1.895   1.304
 9404SOL    HW129111   0.172   1.807   1.263
 9404SOL    HW229112   0.046   1.905   1.301
 9405SOL     OW29113   1.122   4.432   4.646
 9405SOL    HW129114   1.157   4.343   4.674
 9405SOL    HW229115   1.120   4.437   4.546
 9406SOL     OW29116   1.439   3.027   0.090
 9406SOL    HW129117   1.471   2.992   0.178
 9406SOL    HW229118   1.339   3.022   0.086
 9407SOL     OW29119   2.887   5.081   4.011
 9407SOL    HW129120   2.971   5.119   4.050
 9407SOL    HW229121   2.836   5.033   4.082
 9408SOL     OW29122   0.183   2.070   6.159
 9408SOL    HW129123   0.252   2.028   6.100
 9408SOL    HW229124   0.144   2.149   6.113
 9409SOL     OW29125   6.689   5.536   2.540
 9409SOL    HW129126   6.733   5.482   2.468
 9409SOL    HW229127   6.741   5.526   2.625
 9410SOL     OW29128   5.215   1.132   1.860
 9410SOL    HW129129   5.184   1.063   1.927
 9410SOL    HW229130   5.182   1.222   1.888
 9411SOL     OW29131   3.093   3.949   2.628
 9411SOL    HW129132   3.178   3.896   2.620
 9411SOL    HW229133   3.016   3.891   2.602
 9412SOL     OW29134   1.260   0.616   2.049
 9412SOL    HW129135   1.252   0.628   1.950
 9412SOL    HW229136   1.287   0.703   2.091
 9413SOL     OW29137   4.944   4.724   4.806
 9413SOL    HW129138   4.882   4.676   4.745
 9413SOL    HW229139   4.995   4.794   4.756
 9414SOL     OW29140   3.118   1.956   4.135
 9414SOL    HW129141   3.021   1.933   4.121
 9414SOL    HW229142   3.162   1.884   4.188
 9415SOL     OW29143   2.820   0.151   1.960
 9415SOL    HW129144   2.794   0.185   2.050
 9415SOL    HW229145   2.764   0.071   1.937
 9416SOL     OW29146   0.097   0.993   5.155
 9416SOL    HW129147   0.023   0.936   5.121
 9416SOL    HW229148   0.185   0.953   5.127
 9417SOL     OW29149   3.300   6.218   1.665
 9417SOL    HW129150   3.368   6.228   1.739
 9417SOL    HW229151   3.272   6.309   1.634
 9418SOL     OW29152   2.552   1.736   2.818
 9418SOL    HW129153   2.497   1.754   2.899
 9418SOL    HW229154   2.493   1.701   2.745
 9419SOL     OW29155   2.528   3.105   6.652
 9419SOL    HW129156   2.546   3.100   6.750
 9419SOL    HW229157   2.431   3.121   6.636
 9420SOL     OW29158   5.832   4.627   0.355
 9420SOL    HW129159   5.812   4.586   0.444
 9420SOL    HW229160   5.931   4.631   0.341
 9421SOL     OW29161   2.785   5.316   4.367
 9421SOL    HW129162   2.864   5.256   4.382
 9421SOL    HW229163   2.774   5.333   4.269
 9422SOL     OW29164   2.767   6.081   4.095
 9422SOL    HW129165   2.712   6.143   4.151
 9422SOL    HW229166   2.713   6.048   4.018
 9423SOL     OW29167   4.079   6.440   2.832
 9423SOL    HW129168   4.002   6.389   2.794
 9423SOL    HW229169   4.162   6.386   2.825
 9424SOL     OW29170   5.282   1.512   4.609
 9424SOL    HW129171   5.355   1.456   4.569
 9424SOL    HW229172   5.272   1.490   4.705
 9425SOL     OW29173   5.984   5.007   1.677
 9425SOL    HW129174   5.976   5.063   1.595
 9425SOL    HW229175   5.900   4.954   1.690
 9426SOL     OW29176   1.860   1.297   5.928
 9426SOL    HW129177   1.769   1.302   5.968
 9426SOL    HW229178   1.852   1.291   5.828
 9427SOL     OW29179   2.131   6.138   3.225
 9427SOL    HW129180   2.092   6.229   3.239
 9427SOL    HW229181   2.067   6.081   3.174
 9428SOL     OW29182   6.423   7.015   0.207
 9428SOL    HW129183   6.343   6.985   0.156
 9428SOL    HW229184   6.395   0.051   0.281
 9429SOL     OW29185   1.399   2.240   3.589
 9429SOL    HW129186   1.456   2.206   3.514
 9429SOL    HW229187   1.449   2.232   3.675
 9430SOL     OW29188   0.504   2.660   3.879
 9430SOL    HW129189   0.546   2.596   3.943
 9430SOL    HW229190   0.512   2.624   3.786
 9431SOL     OW29191   6.722   4.440   1.183
 9431SOL    HW129192   6.759   4.506   1.248
 9431SOL    HW229193   6.678   4.490   1.108
 9432SOL     OW29194   6.638   1.781   4.249
 9432SOL    HW129195   6.668   1.859   4.194
 9432SOL    HW229196   6.551   1.747   4.214
 9433SOL     OW29197   3.923   5.862   3.430
 9433SOL    HW129198   3.831   5.827   3.414
 9433SOL    HW229199   3.963   5.815   3.509
 9434SOL     OW29200   5.730   5.194   3.642
 9434SOL    HW129201   5.809   5.250   3.668
 9434SOL    HW229202   5.649   5.251   3.635
 9435SOL     OW29203   0.072   2.141   2.490
 9435SOL    HW129204   0.168   2.124   2.511
 9435SOL    HW229205   0.030   2.058   2.455
 9436SOL     OW29206   1.116   0.855   2.420
 9436SOL    HW129207   1.084   0.782   2.481
 9436SOL    HW229208   1.184   0.817   2.357
 9437SOL     OW29209   1.050   5.170   3.443
 9437SOL    HW129210   0.989   5.238   3.484
 9437SOL    HW229211   1.039   5.171   3.344
 9438SOL     OW29212   0.932   6.924   2.025
 9438SOL    HW129213   0.883   6.960   2.104
 9438SOL    HW229214   1.027   6.952   2.029
 9439SOL     OW29215   0.337   3.012   1.126
 9439SOL    HW129216   0.426   2.983   1.089
 9439SOL    HW229217   0.326   3.111   1.113
 9440SOL     OW29218   2.645   4.708   3.145
 9440SOL    HW129219   2.621   4.800   3.176
 9440SOL    HW229220   2.617   4.642   3.215
 9441SOL     OW29221   6.486   5.807   5.494
 9441SOL    HW129222   6.504   5.736   5.562
 9441SOL    HW229223   6.423   5.772   5.425
 9442SOL     OW29224   4.299   3.595   1.304
 9442SOL    HW129225   4.357   3.555   1.375
 9442SOL    HW229226   4.233   3.658   1.346
 9443SOL     OW29227   2.832   5.882   1.337
 9443SOL    HW129228   2.908   5.843   1.390
 9443SOL    HW229229   2.746   5.840   1.367
 9444SOL     OW29230   1.832   3.900   0.798
 9444SOL    HW129231   1.867   3.945   0.879
 9444SOL    HW229232   1.901   3.838   0.761
 9445SOL     OW29233   6.792   2.368   3.549
 9445SOL    HW129234   6.794   2.467   3.537
 9445SOL    HW229235   6.829   2.324   3.467
 9446SOL     OW29236   6.783   4.480   4.231
 9446SOL    HW129237   6.801   4.558   4.172
 9446SOL    HW229238   6.822   4.498   4.322
 9447SOL     OW29239   4.646   4.867   2.995
 9447SOL    HW129240   4.696   4.781   3.007
 9447SOL    HW229241   4.619   4.876   2.899
 9448SOL     OW29242   6.072   6.872   5.814
 9448SOL    HW129243   6.142   6.912   5.755
 9448SOL    HW229244   6.077   6.772   5.809
 9449SOL     OW29245   5.311   6.522   0.695
 9449SOL    HW129246   5.300   6.589   0.768
 9449SOL    HW229247   5.359   6.564   0.618
 9450SOL     OW29248   1.433   5.043   4.405
 9450SOL    HW129249   1.502   5.098   4.453
 9450SOL    HW229250   1.466   5.020   4.314
 9451SOL     OW29251   4.170   5.798   5.908
 9451SOL    HW129252   4.177   5.751   5.820
 9451SOL    HW229253   4.098   5.868   5.903
 9452SOL     OW29254   0.708   3.790   0.529
 9452SOL    HW129255   0.696   3.882   0.493
 9452SOL    HW229256   0.747   3.731   0.458
 9453SOL     OW29257   2.293   4.838   3.081
 9453SOL    HW129258   2.282   4.747   3.121
 9453SOL    HW229259   2.256   4.838   2.988
 9454SOL     OW29260   4.346   3.732   0.080
 9454SOL    HW129261   4.248   3.726   0.061
 9454SOL    HW229262   4.361   3.762   0.174
 9455SOL     OW29263   2.498   1.886   2.094
 9455SOL    HW129264   2.575   1.940   2.128
 9455SOL    HW229265   2.531   1.796   2.064
 9456SOL     OW29266   6.257   4.114   1.963
 9456SOL    HW129267   6.173   4.125   2.017
 9456SOL    HW229268   6.237   4.132   1.867
 9457SOL     OW29269   0.790   5.139   4.364
 9457SOL    HW129270   0.859   5.211   4.373
 9457SOL    HW229271   0.818   5.076   4.291
 9458SOL     OW29272   0.064   4.007   0.395
 9458SOL    HW129273   0.134   3.952   0.440
 9458SOL    HW229274   0.103   4.052   0.314
 9459SOL     OW29275   5.419   4.296   3.937
 9459SOL    HW129276   5.430   4.388   3.899
 9459SOL    HW229277   5.322   4.271   3.936
 9460SOL     OW29278   1.848   3.066   4.632
 9460SOL    HW129279   1.907   3.139   4.597
 9460SOL    HW229280   1.848   2.990   4.567
 9461SOL     OW29281   1.002   1.282   1.066
 9461SOL    HW129282   1.059   1.253   0.989
 9461SOL    HW229283   0.906   1.278   1.039
 9462SOL     OW29284   1.659   2.832   3.665
 9462SOL    HW129285   1.620   2.856   3.576
 9462SOL    HW229286   1.755   2.806   3.654
 9463SOL     OW29287   5.504   6.764   1.371
 9463SOL    HW129288   5.441   6.700   1.415
 9463SOL    HW229289   5.485   6.768   1.273
 9464SOL     OW29290   5.931   0.573   1.541
 9464SOL    HW129291   5.878   0.634   1.482
 9464SOL    HW229292   5.968   0.498   1.487
 9465SOL     OW29293   0.222   3.894   1.595
 9465SOL    HW129294   0.197   3.951   1.673
 9465SOL    HW229295   0.142   3.880   1.537
 9466SOL     OW29296   4.375   5.347   6.281
 9466SOL    HW129297   4.347   5.251   6.290
 9466SOL    HW229298   4.294   5.405   6.272
 9467SOL     OW29299   1.855   2.677   0.812
 9467SOL    HW129300   1.951   2.672   0.784
 9467SOL    HW229301   1.839   2.763   0.862
 9468SOL     OW29302   6.731   3.427   6.382
 9468SOL    HW129303   6.683   3.363   6.321
 9468SOL    HW229304   6.826   3.398   6.392
 9469SOL     OW29305   0.060   6.393   0.570
 9469SOL    HW129306   6.991   6.367   0.552
 9469SOL    HW229307   0.111   6.397   0.483
 9470SOL     OW29308   4.595   3.804   6.757
 9470SOL    HW129309   4.595   3.738   6.833
 9470SOL    HW229310   4.531   3.878   6.778
 9471SOL     OW29311   5.700   2.333   5.377
 9471SOL    HW129312   5.604   2.360   5.383
 9471SOL    HW229313   5.737   2.316   5.468
 9472SOL     OW29314   1.188   4.469   6.246
 9472SOL    HW129315   1.247   4.391   6.268
 9472SOL    HW229316   1.235   4.531   6.183
 9473SOL     OW29317   2.965   3.478   6.624
 9473SOL    HW129318   2.887   3.415   6.622
 9473SOL    HW229319   2.982   3.512   6.531
 9474SOL     OW29320   5.977   3.031   1.627
 9474SOL    HW129321   6.017   3.110   1.674
 9474SOL    HW229322   5.878   3.038   1.629
 9475SOL     OW29323   4.497   3.394   6.819
 9475SOL    HW129324   4.529   3.314   6.870
 9475SOL    HW229325   4.570   3.427   6.760
 9476SOL     OW29326   3.643   4.109   5.622
 9476SOL    HW129327   3.577   4.098   5.547
 9476SOL    HW229328   3.594   4.108   5.709
 9477SOL     OW29329   1.694   3.106   1.167
 9477SOL    HW129330   1.630   3.178   1.195
 9477SOL    HW229331   1.688   3.029   1.230
 9478SOL     OW29332   4.452   2.877   1.239
 9478SOL    HW129333   4.417   2.794   1.195
 9478SOL    HW229334   4.537   2.856   1.287
 9479SOL     OW29335   4.015   0.284   1.313
 9479SOL    HW129336   4.006   0.306   1.410
 9479SOL    HW229337   3.970   0.355   1.258
 9480SOL     OW29338   5.964   5.127   0.240
 9480SOL    HW129339   5.970   5.194   0.166
 9480SOL    HW229340   6.006   5.164   0.322
 9481SOL     OW29341   4.874   2.571   3.000
 9481SOL    HW129342   4.819   2.516   2.938
 9481SOL    HW229343   4.949   2.614   2.950
 9482SOL     OW29344   6.199   6.839   1.683
 9482SOL    HW129345   6.171   6.763   1.624
 9482SOL    HW229346   6.123   6.903   1.692
 9483SOL     OW29347   1.592   0.910   6.338
 9483SOL    HW129348   1.564   0.838   6.401
 9483SOL    HW229349   1.510   0.956   6.301
 9484SOL     OW29350   2.285   0.309   4.400
 9484SOL    HW129351   2.186   0.324   4.397
 9484SOL    HW229352   2.307   0.220   4.359
 9485SOL     OW29353   5.989   1.792   1.267
 9485SOL    HW129354   5.976   1.735   1.348
 9485SOL    HW229355   6.041   1.741   1.198
 9486SOL     OW29356   5.072   5.624   1.009
 9486SOL    HW129357   5.099   5.714   0.975
 9486SOL    HW229358   5.093   5.616   1.106
 9487SOL     OW29359   3.326   3.555   4.571
 9487SOL    HW129360   3.301   3.473   4.621
 9487SOL    HW229361   3.255   3.625   4.582
 9488SOL     OW29362   2.202   0.500   1.142
 9488SOL    HW129363   2.267   0.553   1.087
 9488SOL    HW229364   2.119   0.483   1.089
 9489SOL     OW29365   5.029   4.088   1.321
 9489SOL    HW129366   4.979   4.073   1.236
 9489SOL    HW229367   5.090   4.167   1.311
 9490SOL     OW29368   0.142   5.968   3.378
 9490SOL    HW129369   0.083   5.927   3.308
 9490SOL    HW229370   0.182   5.895   3.434
 9491SOL     OW29371   5.935   5.589   4.176
 9491SOL    HW129372   5.920   5.687   4.185
 9491SOL    HW229373   5.871   5.540   4.235
 9492SOL     OW29374   4.530   3.373   5.576
 9492SOL    HW129375   4.432   3.356   5.565
 9492SOL    HW229376   4.544   3.466   5.609
 9493SOL     OW29377   3.227   5.692   4.119
 9493SOL    HW129378   3.188   5.715   4.030
 9493SOL    HW229379   3.262   5.599   4.117
 9494SOL     OW29380   5.601   3.052   2.288
 9494SOL    HW129381   5.610   3.027   2.384
 9494SOL    HW229382   5.667   3.001   2.234
 9495SOL     OW29383   6.646   1.360   2.574
 9495SOL    HW129384   6.648   1.324   2.667
 9495SOL    HW229385   6.586   1.440   2.570
 9496SOL     OW29386   4.521   2.194   2.042
 9496SOL    HW129387   4.538   2.096   2.045
 9496SOL    HW229388   4.442   2.213   1.984
 9497SOL     OW29389   5.837   5.894   5.722
 9497SOL    HW129390   5.772   5.819   5.708
 9497SOL    HW229391   5.800   5.978   5.684
 9498SOL     OW29392   6.820   4.829   5.276
 9498SOL    HW129393   6.882   4.800   5.349
 9498SOL    HW229394   6.826   4.929   5.265
 9499SOL     OW29395   0.303   6.060   5.060
 9499SOL    HW129396   0.343   5.981   5.013
 9499SOL    HW229397   0.204   6.056   5.053
 9500SOL     OW29398   3.683   6.219   0.802
 9500SOL    HW129399   3.610   6.247   0.739
 9500SOL    HW229400   3.692   6.288   0.874
 9501SOL     OW29401   1.606   1.513   4.381
 9501SOL    HW129402   1.615   1.513   4.480
 9501SOL    HW229403   1.517   1.549   4.355
 9502SOL     OW29404   5.986   3.708   3.985
 9502SOL    HW129405   6.077   3.675   4.009
 9502SOL    HW229406   5.993   3.774   3.910
 9503SOL     OW29407   0.290   2.297   0.542
 9503SOL    HW129408   0.238   2.258   0.617
 9503SOL    HW229409   0.304   2.395   0.558
 9504SOL     OW29410   6.809   3.915   1.777
 9504SOL    HW129411   6.820   3.817   1.794
 9504SOL    HW229412   6.724   3.947   1.819
 9505SOL     OW29413   5.111   4.749   5.678
 9505SOL    HW129414   5.150   4.825   5.628
 9505SOL    HW229415   5.092   4.673   5.615
 9506SOL     OW29416   2.389   2.390   0.307
 9506SOL    HW129417   2.298   2.355   0.331
 9506SOL    HW229418   2.409   2.470   0.362
 9507SOL     OW29419   6.518   0.599   0.974
 9507SOL    HW129420   6.598   0.636   0.925
 9507SOL    HW229421   6.538   0.505   1.002
 9508SOL     OW29422   5.828   2.234   2.594
 9508SOL    HW129423   5.822   2.283   2.507
 9508SOL    HW229424   5.876   2.147   2.580
 9509SOL     OW29425   6.557   0.123   3.366
 9509SOL    HW129426   6.487   0.192   3.383
 9509SOL    HW229427   6.607   0.104   3.450
 9510SOL     OW29428   0.909   3.704   3.317
 9510SOL    HW129429   0.968   3.782   3.337
 9510SOL    HW229430   0.824   3.736   3.275
 9511SOL     OW29431   1.087   1.325   1.561
 9511SOL    HW129432   1.131   1.240   1.533
 9511SOL    HW229433   1.102   1.341   1.658
 9512SOL     OW29434   6.658   2.202   1.364
 9512SOL    HW129435   6.648   2.133   1.435
 9512SOL    HW229436   6.634   2.163   1.275
 9513SOL     OW29437   2.971   4.987   6.264
 9513SOL    HW129438   3.061   4.965   6.226
 9513SOL    HW229439   2.916   5.034   6.194
 9514SOL     OW29440   2.962   4.234   6.985
 9514SOL    HW129441   2.869   4.247   7.021
 9514SOL    HW229442   3.008   4.161   0.011
 9515SOL     OW29443   2.087   5.526   3.466
 9515SOL    HW129444   2.121   5.599   3.407
 9515SOL    HW229445   2.082   5.440   3.415
 9516SOL     OW29446   5.321   4.181   0.645
 9516SOL    HW129447   5.251   4.251   0.630
 9516SOL    HW229448   5.295   4.097   0.598
 9517SOL     OW29449   1.624   4.208   1.091
 9517SOL    HW129450   1.562   4.161   1.028
 9517SOL    HW229451   1.609   4.307   1.086
 9518SOL     OW29452   2.701   1.611   0.293
 9518SOL    HW129453   2.788   1.660   0.285
 9518SOL    HW229454   2.719   1.513   0.302
 9519SOL     OW29455   2.225   2.482   5.965
 9519SOL    HW129456   2.288   2.424   6.018
 9519SOL    HW229457   2.194   2.433   5.884
 9520SOL     OW29458   2.984   0.280   2.659
 9520SOL    HW129459   3.001   0.324   2.572
 9520SOL    HW229460   2.941   0.344   2.722
 9521SOL     OW29461   5.623   5.686   3.281
 9521SOL    HW129462   5.630   5.786   3.275
 9521SOL    HW229463   5.526   5.660   3.281
 9522SOL     OW29464   3.670   5.875   1.013
 9522SOL    HW129465   3.628   5.965   1.005
 9522SOL    HW229466   3.639   5.831   1.097
 9523SOL     OW29467   3.518   4.972   4.141
 9523SOL    HW129468   3.573   4.933   4.215
 9523SOL    HW229469   3.579   5.012   4.072
 9524SOL     OW29470   4.112   2.815   1.677
 9524SOL    HW129471   4.029   2.767   1.706
 9524SOL    HW229472   4.132   2.792   1.582
 9525SOL     OW29473   2.125   1.849   5.893
 9525SOL    HW129474   2.095   1.792   5.816
 9525SOL    HW229475   2.172   1.930   5.857
 9526SOL     OW29476   5.886   5.630   2.686
 9526SOL    HW129477   5.871   5.724   2.718
 9526SOL    HW229478   5.977   5.624   2.644
 9527SOL     OW29479   1.268   0.985   1.865
 9527SOL    HW129480   1.287   1.082   1.875
 9527SOL    HW229481   1.326   0.947   1.792
 9528SOL     OW29482   6.494   0.698   0.561
 9528SOL    HW129483   6.522   0.791   0.588
 9528SOL    HW229484   6.432   0.660   0.629
 9529SOL     OW29485   1.231   2.818   5.765
 9529SOL    HW129486   1.237   2.898   5.705
 9529SOL    HW229487   1.246   2.847   5.859
 9530SOL     OW29488   1.568   3.251   2.834
 9530SOL    HW129489   1.563   3.210   2.743
 9530SOL    HW229490   1.496   3.320   2.843
 9531SOL     OW29491   4.130   6.072   3.157
 9531SOL    HW129492   4.216   6.022   3.162
 9531SOL    HW229493   4.097   6.074   3.062
 9532SOL     OW29494   1.442   5.767   1.735
 9532SOL    HW129495   1.418   5.670   1.735
 9532SOL    HW229496   1.523   5.782   1.678
 9533SOL     OW29497   0.416   1.509   5.360
 9533SOL    HW129498   0.376   1.420   5.381
 9533SOL    HW229499   0.460   1.506   5.271
 9534SOL     OW29500   5.176   3.239   5.295
 9534SOL    HW129501   5.130   3.152   5.315
 9534SOL    HW229502   5.135   3.280   5.214
 9535SOL     OW29503   2.309   0.809   5.746
 9535SOL    HW129504   2.388   0.747   5.746
 9535SOL    HW229505   2.244   0.778   5.815
 9536SOL     OW29506   2.331   5.783   5.506
 9536SOL    HW129507   2.309   5.874   5.472
 9536SOL    HW229508   2.344   5.721   5.428
 9537SOL     OW29509   3.202   0.660   2.595
 9537SOL    HW129510   3.280   0.677   2.535
 9537SOL    HW229511   3.119   0.693   2.550
 9538SOL     OW29512   6.682   1.177   4.124
 9538SOL    HW129513   6.685   1.193   4.026
 9538SOL    HW229514   6.776   1.168   4.159
 9539SOL     OW29515   2.238   4.503   6.066
 9539SOL    HW129516   2.173   4.577   6.087
 9539SOL    HW229517   2.251   4.447   6.148
 9540SOL     OW29518   4.678   4.475   5.411
 9540SOL    HW129519   4.764   4.425   5.398
 9540SOL    HW229520   4.686   4.536   5.490
 9541SOL     OW29521   1.933   1.889   4.994
 9541SOL    HW129522   1.956   1.839   5.078
 9541SOL    HW229523   1.940   1.987   5.011
 9542SOL     OW29524   5.014   3.387   5.121
 9542SOL    HW129525   4.985   3.449   5.048
 9542SOL    HW229526   4.949   3.311   5.127
 9543SOL     OW29527   4.577   0.424   4.866
 9543SOL    HW129528   4.511   0.380   4.805
 9543SOL    HW229529   4.568   0.387   4.958
 9544SOL     OW29530   5.707   0.427   2.033
 9544SOL    HW129531   5.648   0.347   2.035
 9544SOL    HW229532   5.653   0.509   2.052
 9545SOL     OW29533   6.369   6.378   3.026
 9545SOL    HW129534   6.353   6.324   3.108
 9545SOL    HW229535   6.415   6.463   3.050
 9546SOL     OW29536   2.996   3.860   6.653
 9546SOL    HW129537   2.911   3.810   6.667
 9546SOL    HW229538   3.054   3.853   6.734
 9547SOL     OW29539   2.269   6.584   4.122
 9547SOL    HW129540   2.321   6.652   4.174
 9547SOL    HW229541   2.228   6.518   4.186
 9548SOL     OW29542   6.113   5.276   4.995
 9548SOL    HW129543   6.172   5.267   4.915
 9548SOL    HW229544   6.161   5.246   5.077
 9549SOL     OW29545   3.595   5.334   1.132
 9549SOL    HW129546   3.499   5.364   1.129
 9549SOL    HW229547   3.628   5.337   1.226
 9550SOL     OW29548   7.023   1.539   6.703
 9550SOL    HW129549   0.051   1.559   6.621
 9550SOL    HW229550   0.058   1.518   6.779
 9551SOL     OW29551   0.172   0.150   4.730
 9551SOL    HW129552   0.262   0.159   4.774
 9551SOL    HW229553   0.100   0.166   4.797
 9552SOL     OW29554   1.538   6.575   3.111
 9552SOL    HW129555   1.514   6.479   3.127
 9552SOL    HW229556   1.456   6.625   3.083
 9553SOL     OW29557   6.302   5.116   0.056
 9553SOL    HW129558   6.292   5.178   0.134
 9553SOL    HW229559   6.276   5.164   6.998
 9554SOL     OW29560   2.868   0.873   1.890
 9554SOL    HW129561   2.826   0.963   1.902
 9554SOL    HW229562   2.960   0.884   1.853
 9555SOL     OW29563   6.705   2.431   1.237
 9555SOL    HW129564   6.688   2.353   1.298
 9555SOL    HW229565   6.635   2.501   1.252
 9556SOL     OW29566   2.804   1.482   1.324
 9556SOL    HW129567   2.799   1.578   1.353
 9556SOL    HW229568   2.763   1.424   1.394
 9557SOL     OW29569   6.137   0.276   2.593
 9557SOL    HW129570   6.053   0.276   2.646
 9557SOL    HW229571   6.116   0.259   2.497
 9558SOL     OW29572   0.111   5.090   3.081
 9558SOL    HW129573   0.130   5.033   3.161
 9558SOL    HW229574   0.178   5.164   3.076
 9559SOL     OW29575   0.507   4.007   2.146
 9559SOL    HW129576   0.529   3.936   2.080
 9559SOL    HW229577   0.590   4.056   2.173
 9560SOL     OW29578   2.523   1.444   2.356
 9560SOL    HW129579   2.552   1.538   2.376
 9560SOL    HW229580   2.579   1.408   2.281
 9561SOL     OW29581   2.813   6.449   0.667
 9561SOL    HW129582   2.879   6.428   0.594
 9561SOL    HW229583   2.833   6.392   0.747
 9562SOL     OW29584   4.002   5.122   4.047
 9562SOL    HW129585   4.038   5.211   4.016
 9562SOL    HW229586   3.962   5.133   4.138
 9563SOL     OW29587   6.691   6.715   6.947
 9563SOL    HW129588   6.682   6.653   6.869
 9563SOL    HW229589   6.676   6.809   6.916
 9564SOL     OW29590   2.877   6.810   6.278
 9564SOL    HW129591   2.848   6.792   6.184
 9564SOL    HW229592   2.908   6.725   6.320
 9565SOL     OW29593   4.349   5.935   4.550
 9565SOL    HW129594   4.282   5.865   4.577
 9565SOL    HW229595   4.311   5.993   4.478
 9566SOL     OW29596   3.445   4.645   6.527
 9566SOL    HW129597   3.390   4.593   6.593
 9566SOL    HW229598   3.531   4.597   6.511
 9567SOL     OW29599   6.427   5.777   6.344
 9567SOL    HW129600   6.386   5.767   6.253
 9567SOL    HW229601   6.357   5.807   6.409
 9568SOL     OW29602   5.058   3.715   6.266
 9568SOL    HW129603   5.155   3.737   6.257
 9568SOL    HW229604   5.003   3.790   6.229
 9569SOL     OW29605   6.547   1.442   0.147
 9569SOL    HW129606   6.473   1.382   0.114
 9569SOL    HW229607   6.610   1.460   0.072
 9570SOL     OW29608   0.324   1.437   0.817
 9570SOL    HW129609   0.306   1.396   0.906
 9570SOL    HW229610   0.252   1.408   0.753
 9571SOL     OW29611   2.828   3.953   0.091
 9571SOL    HW129612   2.919   3.993   0.079
 9571SOL    HW229613   2.776   4.007   0.157
 9572SOL     OW29614   1.088   4.356   1.138
 9572SOL    HW129615   1.097   4.265   1.096
 9572SOL    HW229616   1.000   4.363   1.185
 9573SOL     OW29617   0.620   1.062   6.617
 9573SOL    HW129618   0.615   1.159   6.595
 9573SOL    HW229619   0.712   1.039   6.648
 9574SOL     OW29620   3.513   3.649   6.071
 9574SOL    HW129621   3.543   3.693   5.986
 9574SOL    HW229622   3.542   3.553   6.071
 9575SOL     OW29623   5.873   0.964   1.498
 9575SOL    HW129624   5.865   0.893   1.427
 9575SOL    HW229625   5.961   0.955   1.544
 9576SOL     OW29626   3.736   1.347   3.991
 9576SOL    HW129627   3.797   1.412   4.037
 9576SOL    HW229628   3.790   1.290   3.928
 9577SOL     OW29629   0.595   0.182   2.396
 9577SOL    HW129630   0.684   0.216   2.365
 9577SOL    HW229631   0.552   0.130   2.322
 9578SOL     OW29632   6.114   2.556   2.120
 9578SOL    HW129633   6.158   2.590   2.204
 9578SOL    HW229634   6.019   2.532   2.140
 9579SOL     OW29635   1.199   0.001   2.053
 9579SOL    HW129636   1.291   6.994   2.075
 9579SOL    HW229637   1.173   0.074   2.116
 9580SOL     OW29638   4.757   3.615   0.140
 9580SOL    HW129639   4.682   3.611   0.073
 9580SOL    HW229640   4.825   3.681   0.109
 9581SOL     OW29641   1.561   5.691   6.112
 9581SOL    HW129642   1.655   5.694   6.147
 9581SOL    HW229643   1.542   5.774   6.060
 9582SOL     OW29644   4.552   4.656   3.965
 9582SOL    HW129645   4.544   4.755   3.953
 9582SOL    HW229646   4.566   4.635   4.062
 9583SOL     OW29647   2.147   3.704   1.848
 9583SOL    HW129648   2.178   3.627   1.903
 9583SOL    HW229649   2.202   3.710   1.765
 9584SOL     OW29650   6.656   4.868   6.563
 9584SOL    HW129651   6.736   4.901   6.514
 9584SOL    HW229652   6.589   4.833   6.497
 9585SOL     OW29653   5.615   6.917   2.592
 9585SOL    HW129654   5.550   6.844   2.609
 9585SOL    HW229655   5.651   6.951   2.679
 9586SOL     OW29656   5.260   3.570   3.698
 9586SOL    HW129657   5.283   3.614   3.784
 9586SOL    HW229658   5.180   3.511   3.711
 9587SOL     OW29659   5.749   0.468   1.719
 9587SOL    HW129660   5.816   0.513   1.660
 9587SOL    HW229661   5.784   0.466   1.813
 9588SOL     OW29662   0.201   0.715   1.300
 9588SOL    HW129663   0.209   0.620   1.270
 9588SOL    HW229664   0.154   0.719   1.388
 9589SOL     OW29665   2.119   6.559   5.687
 9589SOL    HW129666   2.091   6.593   5.776
 9589SOL    HW229667   2.149   6.636   5.630
 9590SOL     OW29668   0.530   4.095   2.927
 9590SOL    HW129669   0.473   4.134   2.855
 9590SOL    HW229670   0.611   4.152   2.940
 9591SOL     OW29671   2.627   6.411   1.055
 9591SOL    HW129672   2.574   6.332   1.087
 9591SOL    HW229673   2.713   6.381   1.015
 9592SOL     OW29674   4.249   5.766   2.875
 9592SOL    HW129675   4.288   5.794   2.962
 9592SOL    HW229676   4.280   5.673   2.853
 9593SOL     OW29677   6.037   2.803   4.668
 9593SOL    HW129678   5.943   2.771   4.677
 9593SOL    HW229679   6.095   2.755   4.734
 9594SOL     OW29680   6.651   6.531   2.561
 9594SOL    HW129681   6.611   6.608   2.611
 9594SOL    HW229682   6.690   6.466   2.626
 9595SOL     OW29683   1.023   5.508   4.170
 9595SOL    HW129684   1.065   5.597   4.188
 9595SOL    HW229685   1.095   5.441   4.154
 9596SOL     OW29686   6.596   6.405   5.289
 9596SOL    HW129687   6.571   6.461   5.210
 9596SOL    HW229688   6.573   6.309   5.271
 9597SOL     OW29689   0.497   4.285   1.744
 9597SOL    HW129690   0.534   4.365   1.791
 9597SOL    HW229691   0.541   4.203   1.780
 9598SOL     OW29692   0.548   4.579   6.392
 9598SOL    HW129693   0.603   4.543   6.466
 9598SOL    HW229694   0.591   4.556   6.304
 9599SOL     OW29695   3.642   0.099   5.717
 9599SOL    HW129696   3.638   0.137   5.624
 9599SOL    HW229697   3.737   0.099   5.749
 9600SOL     OW29698   1.132   0.390   5.834
 9600SOL    HW129699   1.046   0.378   5.883
 9600SOL    HW229700   1.144   0.314   5.770
 9601SOL     OW29701   0.717   5.037   6.530
 9601SOL    HW129702   0.686   4.956   6.580
 9601SOL    HW229703   0.786   5.011   6.463
 9602SOL     OW29704   0.303   5.133   6.330
 9602SOL    HW129705   0.390   5.089   6.308
 9602SOL    HW229706   0.280   5.116   6.426
 9603SOL     OW29707   2.257   6.189   4.113
 9603SOL    HW129708   2.195   6.200   4.035
 9603SOL    HW229709   2.206   6.156   4.192
 9604SOL     OW29710   4.651   1.050   0.032
 9604SOL    HW129711   4.735   0.999   0.011
 9604SOL    HW229712   4.674   1.131   0.086
 9605SOL     OW29713   2.183   5.766   5.778
 9605SOL    HW129714   2.236   5.754   5.693
 9605SOL    HW229715   2.246   5.769   5.856
 9606SOL     OW29716   0.340   6.194   3.653
 9606SOL    HW129717   0.251   6.151   3.668
 9606SOL    HW229718   0.353   6.211   3.555
 9607SOL     OW29719   0.670   1.254   2.128
 9607SOL    HW129720   0.729   1.319   2.176
 9607SOL    HW229721   0.660   1.282   2.033
 9608SOL     OW29722   6.586   6.878   2.447
 9608SOL    HW129723   6.514   6.857   2.382
 9608SOL    HW229724   6.671   6.897   2.398
 9609SOL     OW29725   2.247   4.347   4.903
 9609SOL    HW129726   2.203   4.382   4.821
 9609SOL    HW229727   2.223   4.251   4.915
 9610SOL     OW29728   1.809   1.663   6.148
 9610SOL    HW129729   1.863   1.722   6.088
 9610SOL    HW229730   1.735   1.621   6.096
 9611SOL     OW29731   6.889   0.639   1.027
 9611SOL    HW129732   6.985   0.648   0.999
 9611SOL    HW229733   6.830   0.674   0.954
 9612SOL     OW29734   5.845   3.087   0.943
 9612SOL    HW129735   5.944   3.093   0.954
 9612SOL    HW229736   5.806   3.034   1.018
 9613SOL     OW29737   6.391   6.795   5.491
 9613SOL    HW129738   6.391   6.780   5.392
 9613SOL    HW229739   6.484   6.814   5.522
 9614SOL     OW29740   3.645   4.072   2.218
 9614SOL    HW129741   3.716   4.123   2.267
 9614SOL    HW229742   3.555   4.113   2.237
 9615SOL     OW29743   1.525   6.015   2.684
 9615SOL    HW129744   1.485   5.923   2.678
 9615SOL    HW229745   1.504   6.055   2.773
 9616SOL     OW29746   3.429   2.112   0.865
 9616SOL    HW129747   3.482   2.043   0.913
 9616SOL    HW229748   3.372   2.162   0.931
 9617SOL     OW29749   1.221   2.965   3.537
 9617SOL    HW129750   1.178   2.907   3.606
 9617SOL    HW229751   1.174   2.955   3.450
 9618SOL     OW29752   3.753   6.656   6.300
 9618SOL    HW129753   3.744   6.716   6.379
 9618SOL    HW229754   3.790   6.707   6.222
 9619SOL     OW29755   2.235   5.756   0.489
 9619SOL    HW129756   2.330   5.770   0.463
 9619SOL    HW229757   2.215   5.807   0.573
 9620SOL     OW29758   3.198   0.580   7.006
 9620SOL    HW129759   3.273   0.529   6.964
 9620SOL    HW229760   3.234   0.659   0.030
 9621SOL     OW29761   0.212   0.836   2.650
 9621SOL    HW129762   0.266   0.904   2.699
 9621SOL    HW229763   0.214   0.749   2.699
 9622SOL     OW29764   5.866   0.650   6.927
 9622SOL    HW129765   5.941   0.714   6.911
 9622SOL    HW229766   5.880   0.567   6.873
 9623SOL     OW29767   5.179   5.812   6.558
 9623SOL    HW129768   5.255   5.827   6.495
 9623SOL    HW229769   5.212   5.816   6.652
 9624SOL     OW29770   4.932   5.609   4.910
 9624SOL    HW129771   4.917   5.616   4.812
 9624SOL    HW229772   4.869   5.670   4.958
 9625SOL     OW29773   5.213   4.641   6.771
 9625SOL    HW129774   5.266   4.616   6.853
 9625SOL    HW229775   5.258   4.603   6.690
 9626SOL     OW29776   1.817   4.630   5.519
 9626SOL    HW129777   1.855   4.701   5.578
 9626SOL    HW229778   1.780   4.673   5.436
 9627SOL     OW29779   1.965   5.304   6.170
 9627SOL    HW129780   2.035   5.287   6.100
 9627SOL    HW229781   1.927   5.396   6.157
 9628SOL     OW29782   5.820   4.209   6.634
 9628SOL    HW129783   5.911   4.176   6.658
 9628SOL    HW229784   5.778   4.253   6.713
 9629SOL     OW29785   6.891   5.739   2.696
 9629SOL    HW129786   6.967   5.780   2.744
 9629SOL    HW229787   6.835   5.810   2.654
 9630SOL     OW29788   6.591   6.405   5.582
 9630SOL    HW129789   6.500   6.430   5.615
 9630SOL    HW229790   6.583   6.367   5.490
 9631SOL     OW29791   4.218   1.266   0.913
 9631SOL    HW129792   4.306   1.308   0.935
 9631SOL    HW229793   4.181   1.222   0.996
 9632SOL     OW29794   2.957   5.437   1.622
 9632SOL    HW129795   2.896   5.478   1.555
 9632SOL    HW229796   2.977   5.504   1.694
 9633SOL     OW29797   3.933   3.161   2.050
 9633SOL    HW129798   3.854   3.214   2.017
 9633SOL    HW229799   4.014   3.220   2.049
 9634SOL     OW29800   5.318   4.943   2.496
 9634SOL    HW129801   5.255   5.016   2.523
 9634SOL    HW229802   5.270   4.855   2.496
 9635SOL     OW29803   1.082   3.605   4.216
 9635SOL    HW129804   1.080   3.648   4.126
 9635SOL    HW229805   0.997   3.554   4.230
 9636SOL     OW29806   4.356   2.203   5.764
 9636SOL    HW129807   4.381   2.133   5.830
 9636SOL    HW229808   4.438   2.250   5.731
 9637SOL     OW29809   2.187   3.524   1.344
 9637SOL    HW129810   2.267   3.505   1.287
 9637SOL    HW229811   2.169   3.444   1.402
 9638SOL     OW29812   0.267   4.336   6.394
 9638SOL    HW129813   0.182   4.369   6.436
 9638SOL    HW229814   0.308   4.267   6.454
 9639SOL     OW29815   4.652   2.087   1.606
 9639SOL    HW129816   4.634   2.182   1.580
 9639SOL    HW229817   4.748   2.076   1.629
 9640SOL     OW29818   4.052   1.173   2.384
 9640SOL    HW129819   3.965   1.170   2.434
 9640SOL    HW229820   4.120   1.120   2.434
 9641SOL     OW29821   5.551   4.962   2.668
 9641SOL    HW129822   5.485   4.953   2.595
 9641SOL    HW229823   5.527   4.902   2.744
 9642SOL     OW29824   1.436   7.008   3.969
 9642SOL    HW129825   1.358   0.018   3.917
 9642SOL    HW229826   1.484   6.940   3.913
 9643SOL     OW29827   4.921   3.852   4.070
 9643SOL    HW129828   4.937   3.835   3.973
 9643SOL    HW229829   4.978   3.929   4.100
 9644SOL     OW29830   2.165   6.311   5.234
 9644SOL    HW129831   2.145   6.256   5.152
 9644SOL    HW229832   2.177   6.250   5.312
 9645SOL     OW29833   1.595   5.446   5.663
 9645SOL    HW129834   1.600   5.518   5.593
 9645SOL    HW229835   1.525   5.470   5.731
 9646SOL     OW29836   3.085   0.037   4.622
 9646SOL    HW129837   3.104   0.135   4.619
 9646SOL    HW229838   3.171   7.012   4.621
 9647SOL     OW29839   6.088   6.272   3.355
 9647SOL    HW129840   6.056   6.195   3.411
 9647SOL    HW229841   6.179   6.252   3.319
 9648SOL     OW29842   5.429   2.226   1.520
 9648SOL    HW129843   5.526   2.219   1.546
 9648SOL    HW229844   5.415   2.312   1.470
 9649SOL     OW29845   2.304   3.749   6.870
 9649SOL    HW129846   2.324   3.677   6.804
 9649SOL    HW229847   2.356   3.831   6.846
 9650SOL     OW29848   6.446   4.305   3.926
 9650SOL    HW129849   6.507   4.288   4.004
 9650SOL    HW229850   6.497   4.294   3.841
 9651SOL     OW29851   2.552   1.568   0.042
 9651SOL    HW129852   2.504   1.482   0.025
 9651SOL    HW229853   2.586   1.569   0.136
 9652SOL     OW29854   0.311   4.151   1.134
 9652SOL    HW129855   0.372   4.224   1.164
 9652SOL    HW229856   0.310   4.148   1.034
 9653SOL     OW29857   4.721   4.255   5.720
 9653SOL    HW129858   4.634   4.254   5.672
 9653SOL    HW229859   4.705   4.277   5.816
 9654SOL     OW29860   4.144   3.435   3.308
 9654SOL    HW129861   4.209   3.362   3.285
 9654SOL    HW229862   4.137   3.444   3.407
 9655SOL     OW29863   6.295   0.734   1.358
 9655SOL    HW129864   6.309   0.721   1.457
 9655SOL    HW229865   6.366   0.684   1.308
 9656SOL     OW29866   5.225   3.367   0.677
 9656SOL    HW129867   5.250   3.272   0.657
 9656SOL    HW229868   5.134   3.385   0.641
 9657SOL     OW29869   5.172   3.911   3.716
 9657SOL    HW129870   5.243   3.854   3.759
 9657SOL    HW229871   5.215   3.976   3.653
 9658SOL     OW29872   4.606   1.692   2.770
 9658SOL    HW129873   4.648   1.605   2.746
 9658SOL    HW229874   4.652   1.730   2.850
 9659SOL     OW29875   3.358   2.167   0.603
 9659SOL    HW129876   3.282   2.231   0.614
 9659SOL    HW229877   3.407   2.157   0.690
 9660SOL     OW29878   0.578   5.803   0.492
 9660SOL    HW129879   0.625   5.715   0.498
 9660SOL    HW229880   0.584   5.850   0.580
 9661SOL     OW29881   4.686   5.306   1.345
 9661SOL    HW129882   4.734   5.388   1.314
 9661SOL    HW229883   4.626   5.272   1.274
 9662SOL     OW29884   5.878   4.825   6.823
 9662SOL    HW129885   5.976   4.848   6.823
 9662SOL    HW229886   5.828   4.891   6.879
 9663SOL     OW29887   1.031   4.444   3.608
 9663SOL    HW129888   0.967   4.520   3.593
 9663SOL    HW229889   1.025   4.415   3.703
 9664SOL     OW29890   5.677   3.879   3.457
 9664SOL    HW129891   5.581   3.854   3.463
 9664SOL    HW229892   5.690   3.945   3.383
 9665SOL     OW29893   6.412   6.791   5.929
 9665SOL    HW129894   6.375   6.832   6.013
 9665SOL    HW229895   6.420   6.693   5.941
 9666SOL     OW29896   6.155   4.572   1.577
 9666SOL    HW129897   6.128   4.517   1.656
 9666SOL    HW229898   6.225   4.638   1.605
 9667SOL     OW29899   4.489   4.787   0.923
 9667SOL    HW129900   4.571   4.831   0.887
 9667SOL    HW229901   4.409   4.816   0.869
 9668SOL     OW29902   1.315   6.854   5.705
 9668SOL    HW129903   1.282   6.807   5.623
 9668SOL    HW229904   1.317   6.953   5.688
 9669SOL     OW29905   2.565   7.006   0.821
 9669SOL    HW129906   2.632   6.935   0.796
 9669SOL    HW229907   2.474   6.977   0.792
 9670SOL     OW29908   0.643   7.003   5.792
 9670SOL    HW129909   0.691   6.916   5.781
 9670SOL    HW229910   0.704   0.043   5.836
 9671SOL     OW29911   0.830   4.728   0.161
 9671SOL    HW129912   0.914   4.765   0.201
 9671SOL    HW229913   0.767   4.802   0.141
 9672SOL     OW29914   0.967   4.296   3.201
 9672SOL    HW129915   0.926   4.369   3.256
 9672SOL    HW229916   0.983   4.328   3.108
 9673SOL     OW29917   3.491   4.301   1.479
 9673SOL    HW129918   3.434   4.310   1.397
 9673SOL    HW229919   3.457   4.227   1.536
 9674SOL     OW29920   3.672   6.707   2.705
 9674SOL    HW129921   3.737   6.677   2.775
 9674SOL    HW229922   3.677   6.646   2.626
 9675SOL     OW29923   4.810   4.112   0.353
 9675SOL    HW129924   4.891   4.133   0.298
 9675SOL    HW229925   4.837   4.098   0.448
 9676SOL     OW29926   1.576   2.490   6.321
 9676SOL    HW129927   1.511   2.489   6.397
 9676SOL    HW229928   1.650   2.554   6.342
 9677SOL     OW29929   6.152   4.939   0.258
 9677SOL    HW129930   6.063   4.985   0.253
 9677SOL    HW229931   6.215   4.982   0.193
 9678SOL     OW29932   3.149   3.800   4.559
 9678SOL    HW129933   3.095   3.863   4.504
 9678SOL    HW229934   3.195   3.850   4.632
 9679SOL     OW29935   3.222   1.780   4.560
 9679SOL    HW129936   3.250   1.873   4.536
 9679SOL    HW229937   3.217   1.772   4.660
 9680SOL     OW29938   4.955   6.132   4.507
 9680SOL    HW129939   5.036   6.148   4.563
 9680SOL    HW229940   4.889   6.205   4.523
 9681SOL     OW29941   2.931   1.006   1.240
 9681SOL    HW129942   2.954   1.100   1.264
 9681SOL    HW229943   2.986   0.977   1.161
 9682SOL     OW29944   5.860   5.194   4.141
 9682SOL    HW129945   5.832   5.208   4.236
 9682SOL    HW229946   5.915   5.111   4.134
 9683SOL     OW29947   1.675   6.387   0.698
 9683SOL    HW129948   1.696   6.483   0.714
 9683SOL    HW229949   1.719   6.357   0.613
 9684SOL     OW29950   0.857   3.608   5.313
 9684SOL    HW129951   0.880   3.641   5.222
 9684SOL    HW229952   0.932   3.627   5.376
 9685SOL     OW29953   4.611   3.362   0.665
 9685SOL    HW129954   4.566   3.355   0.576
 9685SOL    HW229955   4.688   3.298   0.668
 9686SOL     OW29956   0.008   2.185   6.400
 9686SOL    HW129957   7.009   2.224   6.489
 9686SOL    HW229958   0.089   2.231   6.364
 9687SOL     OW29959   6.393   6.488   1.118
 9687SOL    HW129960   6.482   6.464   1.157
 9687SOL    HW229961   6.337   6.406   1.112
 9688SOL     OW29962   1.191   4.453   0.680
 9688SOL    HW129963   1.264   4.411   0.733
 9688SOL    HW229964   1.194   4.553   0.691
 9689SOL     OW29965   0.932   5.400   6.535
 9689SOL    HW129966   0.859   5.466   6.515
 9689SOL    HW229967   0.981   5.378   6.451
 9690SOL     OW29968   4.915   5.392   5.197
 9690SOL    HW129969   4.929   5.335   5.278
 9690SOL    HW229970   4.933   5.488   5.219
 9691SOL     OW29971   3.415   4.147   2.361
 9691SOL    HW129972   3.383   4.236   2.394
 9691SOL    HW229973   3.338   4.083   2.359
 9692SOL     OW29974   4.930   5.296   0.160
 9692SOL    HW129975   4.857   5.297   0.229
 9692SOL    HW229976   5.007   5.243   0.196
 9693SOL     OW29977   5.800   3.919   4.571
 9693SOL    HW129978   5.831   3.836   4.524
 9693SOL    HW229979   5.877   3.961   4.619
 9694SOL     OW29980   3.076   0.374   1.741
 9694SOL    HW129981   3.014   0.418   1.807
 9694SOL    HW229982   3.033   0.292   1.705
 9695SOL     OW29983   0.010   4.194   3.044
 9695SOL    HW129984   0.096   4.221   3.000
 9695SOL    HW229985   0.026   4.173   3.140
 9696SOL     OW29986   5.885   1.903   2.828
 9696SOL    HW129987   5.887   1.828   2.893
 9696SOL    HW229988   5.792   1.937   2.819
 9697SOL     OW29989   6.581   6.376   0.043
 9697SOL    HW129990   6.593   6.336   6.978
 9697SOL    HW229991   6.604   6.308   0.113
 9698SOL     OW29992   5.814   3.371   6.264
 9698SOL    HW129993   5.773   3.461   6.249
 9698SOL    HW229994   5.913   3.381   6.280
 9699SOL     OW29995   0.626   5.802   0.084
 9699SOL    HW129996   0.716   5.814   0.043
 9699SOL    HW229997   0.573   5.886   0.073
 9700SOL     OW29998   6.893   6.217   3.771
 9700SOL    HW129999   6.951   6.151   3.723
 9700SOL    HW230000   6.879   6.186   3.865
 9701SOL     OW30001   5.098   3.412   6.623
 9701SOL    HW130002   5.072   3.423   6.527
 9701SOL    HW230003   5.063   3.325   6.657
 9702SOL     OW30004   3.334   2.997   0.563
 9702SOL    HW130005   3.258   2.967   0.506
 9702SOL    HW230006   3.360   2.924   0.626
 9703SOL     OW30007   6.163   3.945   4.175
 9703SOL    HW130008   6.197   4.033   4.143
 9703SOL    HW230009   6.238   3.892   4.215
 9704SOL     OW30010   3.183   4.887   3.151
 9704SOL    HW130011   3.084   4.886   3.135
 9704SOL    HW230012   3.201   4.884   3.250
 9705SOL     OW30013   6.369   4.334   5.206
 9705SOL    HW130014   6.380   4.235   5.198
 9705SOL    HW230015   6.279   4.360   5.173
 9706SOL     OW30016   1.830   1.543   1.264
 9706SOL    HW130017   1.894   1.576   1.334
 9706SOL    HW230018   1.784   1.461   1.297
 9707SOL     OW30019   5.830   4.620   2.085
 9707SOL    HW130020   5.807   4.611   1.988
 9707SOL    HW230021   5.746   4.638   2.138
 9708SOL     OW30022   1.525   1.548   2.158
 9708SOL    HW130023   1.471   1.612   2.104
 9708SOL    HW230024   1.569   1.597   2.234
 9709SOL     OW30025   5.426   3.864   1.847
 9709SOL    HW130026   5.347   3.859   1.787
 9709SOL    HW230027   5.405   3.817   1.933
 9710SOL     OW30028   6.239   0.532   6.656
 9710SOL    HW130029   6.149   0.499   6.686
 9710SOL    HW230030   6.300   0.536   6.735
 9711SOL     OW30031   4.085   6.101   5.662
 9711SOL    HW130032   4.084   6.200   5.674
 9711SOL    HW230033   4.173   6.073   5.623
 9712SOL     OW30034   6.177   3.352   0.347
 9712SOL    HW130035   6.229   3.422   0.395
 9712SOL    HW230036   6.168   3.270   0.404
 9713SOL     OW30037   2.341   6.480   3.047
 9713SOL    HW130038   2.381   6.393   3.075
 9713SOL    HW230039   2.246   6.485   3.079
 9714SOL     OW30040   4.313   5.697   4.731
 9714SOL    HW130041   4.276   5.605   4.726
 9714SOL    HW230042   4.406   5.694   4.767
 9715SOL     OW30043   6.452   4.945   0.998
 9715SOL    HW130044   6.375   4.908   0.947
 9715SOL    HW230045   6.537   4.921   0.951
 9716SOL     OW30046   3.821   4.133   6.773
 9716SOL    HW130047   3.831   4.111   6.676
 9716SOL    HW230048   3.911   4.150   6.812
 9717SOL     OW30049   4.999   6.363   6.929
 9717SOL    HW130050   4.905   6.377   6.898
 9717SOL    HW230051   5.025   6.268   6.915
 9718SOL     OW30052   4.077   1.894   0.666
 9718SOL    HW130053   4.006   1.964   0.678
 9718SOL    HW230054   4.135   1.891   0.748
 9719SOL     OW30055   5.214   0.060   5.662
 9719SOL    HW130056   5.279   7.015   5.633
 9719SOL    HW230057   5.147   0.019   5.724
 9720SOL     OW30058   1.568   3.910   2.691
 9720SOL    HW130059   1.633   3.837   2.716
 9720SOL    HW230060   1.520   3.884   2.608
 9721SOL     OW30061   0.499   1.687   0.217
 9721SOL    HW130062   0.543   1.677   0.306
 9721SOL    HW230063   0.405   1.653   0.222
 9722SOL     OW30064   3.648   2.024   5.090
 9722SOL    HW130065   3.557   2.058   5.115
 9722SOL    HW230066   3.712   2.043   5.164
 9723SOL     OW30067   5.952   4.871   4.793
 9723SOL    HW130068   6.042   4.847   4.827
 9723SOL    HW230069   5.911   4.941   4.851
 9724SOL     OW30070   2.234   5.383   6.411
 9724SOL    HW130071   2.251   5.433   6.496
 9724SOL    HW230072   2.140   5.399   6.381
 9725SOL     OW30073   4.305   5.651   5.106
 9725SOL    HW130074   4.234   5.707   5.146
 9725SOL    HW230075   4.280   5.554   5.115
 9726SOL     OW30076   5.186   0.790   4.333
 9726SOL    HW130077   5.154   0.853   4.404
 9726SOL    HW230078   5.214   0.841   4.252
 9727SOL     OW30079   0.761   2.698   0.148
 9727SOL    HW130080   0.701   2.698   0.068
 9727SOL    HW230081   0.762   2.607   0.189
 9728SOL     OW30082   6.403   1.556   6.197
 9728SOL    HW130083   6.498   1.585   6.213
 9728SOL    HW230084   6.345   1.593   6.270
 9729SOL     OW30085   1.509   3.723   4.150
 9729SOL    HW130086   1.552   3.634   4.138
 9729SOL    HW230087   1.580   3.794   4.151
 9730SOL     OW30088   1.092   4.079   3.712
 9730SOL    HW130089   1.188   4.086   3.685
 9730SOL    HW230090   1.082   4.007   3.780
 9731SOL     OW30091   5.117   4.683   1.878
 9731SOL    HW130092   5.118   4.636   1.966
 9731SOL    HW230093   5.168   4.630   1.811
 9732SOL     OW30094   0.420   3.183   2.153
 9732SOL    HW130095   0.377   3.112   2.098
 9732SOL    HW230096   0.353   3.222   2.216
 9733SOL     OW30097   6.107   5.471   2.021
 9733SOL    HW130098   6.066   5.558   2.050
 9733SOL    HW230099   6.205   5.483   2.008
 9734SOL     OW30100   6.518   6.667   0.369
 9734SOL    HW130101   6.612   6.685   0.398
 9734SOL    HW230102   6.512   6.678   0.270
 9735SOL     OW30103   1.453   2.879   3.412
 9735SOL    HW130104   1.514   2.958   3.400
 9735SOL    HW230105   1.369   2.909   3.457
 9736SOL     OW30106   4.967   2.042   6.188
 9736SOL    HW130107   4.917   2.055   6.102
 9736SOL    HW230108   4.920   2.091   6.262
 9737SOL     OW30109   5.631   2.088   3.026
 9737SOL    HW130110   5.719   2.133   3.038
 9737SOL    HW230111   5.644   1.989   3.019
 9738SOL     OW30112   2.158   6.596   0.425
 9738SOL    HW130113   2.068   6.558   0.447
 9738SOL    HW230114   2.228   6.551   0.481
 9739SOL     OW30115   4.794   6.085   6.954
 9739SOL    HW130116   4.845   6.001   6.969
 9739SOL    HW230117   4.778   6.099   6.856
 9740SOL     OW30118   5.218   0.099   2.762
 9740SOL    HW130119   5.138   0.159   2.766
 9740SOL    HW230120   5.271   0.110   2.847
 9741SOL     OW30121   2.456   0.918   3.819
 9741SOL    HW130122   2.490   0.879   3.904
 9741SOL    HW230123   2.533   0.949   3.763
 9742SOL     OW30124   4.689   0.774   0.142
 9742SOL    HW130125   4.648   0.860   0.175
 9742SOL    HW230126   4.738   0.730   0.216
 9743SOL     OW30127   0.278   3.540   3.476
 9743SOL    HW130128   0.246   3.485   3.399
 9743SOL    HW230129   0.368   3.508   3.504
 9744SOL     OW30130   2.189   6.831   3.182
 9744SOL    HW130131   2.137   6.825   3.267
 9744SOL    HW230132   2.142   6.892   3.119
 9745SOL     OW30133   5.302   2.633   6.106
 9745SOL    HW130134   5.343   2.724   6.102
 9745SOL    HW230135   5.347   2.573   6.039
 9746SOL     OW30136   5.326   6.517   6.889
 9746SOL    HW130137   5.332   6.586   6.961
 9746SOL    HW230138   5.266   6.550   6.816
 9747SOL     OW30139   2.550   2.279   1.780
 9747SOL    HW130140   2.554   2.269   1.681
 9747SOL    HW230141   2.614   2.216   1.823
 9748SOL     OW30142   0.122   6.959   3.108
 9748SOL    HW130143   0.114   6.863   3.082
 9748SOL    HW230144   0.042   7.010   3.075
 9749SOL     OW30145   0.684   1.554   2.376
 9749SOL    HW130146   0.615   1.502   2.325
 9749SOL    HW230147   0.729   1.494   2.441
 9750SOL     OW30148   6.189   4.801   4.171
 9750SOL    HW130149   6.269   4.810   4.112
 9750SOL    HW230150   6.164   4.705   4.179
 9751SOL     OW30151   2.263   0.228   0.563
 9751SOL    HW130152   2.303   0.296   0.501
 9751SOL    HW230153   2.272   0.260   0.657
 9752SOL     OW30154   3.980   2.368   6.949
 9752SOL    HW130155   4.033   2.389   6.868
 9752SOL    HW230156   3.893   2.417   6.946
 9753SOL     OW30157   1.237   6.033   5.957
 9753SOL    HW130158   1.138   6.048   5.968
 9753SOL    HW230159   1.271   6.090   5.882
 9754SOL     OW30160   3.927   0.005   0.178
 9754SOL    HW130161   3.892   6.956   0.235
 9754SOL    HW230162   3.853   0.068   0.156
 9755SOL     OW30163   3.111   4.011   4.913
 9755SOL    HW130164   3.127   4.086   4.849
 9755SOL    HW230165   3.034   3.955   4.881
 9756SOL     OW30166   5.830   1.861   6.005
 9756SOL    HW130167   5.809   1.764   6.005
 9756SOL    HW230168   5.784   1.905   6.082
 9757SOL     OW30169   5.439   4.401   4.701
 9757SOL    HW130170   5.513   4.443   4.755
 9757SOL    HW230171   5.387   4.472   4.656
 9758SOL     OW30172   1.147   1.680   6.794
 9758SOL    HW130173   1.168   1.715   6.885
 9758SOL    HW230174   1.227   1.632   6.758
 9759SOL     OW30175   0.882   1.869   6.882
 9759SOL    HW130176   0.817   1.854   6.956
 9759SOL    HW230177   0.975   1.851   6.915
 9760SOL     OW30178   5.182   2.796   6.799
 9760SOL    HW130179   5.106   2.733   6.787
 9760SOL    HW230180   5.213   2.827   6.709
 9761SOL     OW30181   1.316   1.730   2.086
 9761SOL    HW130182   1.304   1.740   1.987
 9761SOL    HW230183   1.258   1.656   2.119
 9762SOL     OW30184   3.526   1.780   4.705
 9762SOL    HW130185   3.470   1.701   4.728
 9762SOL    HW230186   3.500   1.858   4.762
 9763SOL     OW30187   6.174   0.914   3.109
 9763SOL    HW130188   6.226   0.975   3.169
 9763SOL    HW230189   6.084   0.952   3.092
 9764SOL     OW30190   6.377   1.905   3.227
 9764SOL    HW130191   6.441   1.831   3.205
 9764SOL    HW230192   6.429   1.984   3.258
 9765SOL     OW30193   6.532   0.715   2.729
 9765SOL    HW130194   6.509   0.666   2.645
 9765SOL    HW230195   6.485   0.673   2.807
 9766SOL     OW30196   2.223   0.208   3.175
 9766SOL    HW130197   2.183   0.142   3.112
 9766SOL    HW230198   2.321   0.216   3.157
 9767SOL     OW30199   2.041   2.834   4.850
 9767SOL    HW130200   2.076   2.805   4.939
 9767SOL    HW230201   2.099   2.906   4.813
 9768SOL     OW30202   5.383   2.019   0.901
 9768SOL    HW130203   5.447   1.982   0.834
 9768SOL    HW230204   5.337   2.099   0.862
 9769SOL     OW30205   3.765   0.775   5.399
 9769SOL    HW130206   3.731   0.771   5.306
 9769SOL    HW230207   3.826   0.697   5.416
 9770SOL     OW30208   3.971   1.791   5.511
 9770SOL    HW130209   3.958   1.886   5.539
 9770SOL    HW230210   4.060   1.781   5.467
 9771SOL     OW30211   2.709   6.739   1.500
 9771SOL    HW130212   2.681   6.645   1.522
 9771SOL    HW230213   2.635   6.802   1.524
 9772SOL     OW30214   2.147   6.667   1.736
 9772SOL    HW130215   2.070   6.730   1.745
 9772SOL    HW230216   2.191   6.655   1.825
 9773SOL     OW30217   5.862   4.704   3.565
 9773SOL    HW130218   5.862   4.686   3.467
 9773SOL    HW230219   5.829   4.797   3.582
 9774SOL     OW30220   0.610   4.308   3.356
 9774SOL    HW130221   0.680   4.380   3.359
 9774SOL    HW230222   0.652   4.219   3.372
 9775SOL     OW30223   2.788   0.361   3.224
 9775SOL    HW130224   2.795   0.264   3.250
 9775SOL    HW230225   2.879   0.401   3.219
 9776SOL     OW30226   1.381   4.666   6.153
 9776SOL    HW130227   1.370   4.765   6.161
 9776SOL    HW230228   1.472   4.639   6.184
 9777SOL     OW30229   5.345   6.315   0.404
 9777SOL    HW130230   5.417   6.312   0.474
 9777SOL    HW230231   5.279   6.387   0.427
 9778SOL     OW30232   0.079   2.266   4.659
 9778SOL    HW130233   7.015   2.292   4.694
 9778SOL    HW230234   0.147   2.335   4.688
 9779SOL     OW30235   0.656   2.518   3.698
 9779SOL    HW130236   0.715   2.543   3.774
 9779SOL    HW230237   0.604   2.435   3.722
 9780SOL     OW30238   2.031   1.669   0.880
 9780SOL    HW130239   1.932   1.679   0.890
 9780SOL    HW230240   2.070   1.755   0.848
 9781SOL     OW30241   2.129   3.382   4.745
 9781SOL    HW130242   2.165   3.384   4.838
 9781SOL    HW230243   2.134   3.474   4.706
 9782SOL     OW30244   0.656   2.010   0.871
 9782SOL    HW130245   0.626   2.083   0.809
 9782SOL    HW230246   0.655   2.044   0.965
 9783SOL     OW30247   4.482   1.703   3.491
 9783SOL    HW130248   4.437   1.629   3.441
 9783SOL    HW230249   4.462   1.791   3.448
 9784SOL     OW30250   3.282   1.076   5.796
 9784SOL    HW130251   3.359   1.078   5.860
 9784SOL    HW230252   3.214   1.009   5.827
 9785SOL     OW30253   5.969   2.383   5.347
 9785SOL    HW130254   5.869   2.380   5.350
 9785SOL    HW230255   6.005   2.362   5.438
 9786SOL     OW30256   2.451   4.012   0.486
 9786SOL    HW130257   2.433   4.106   0.515
 9786SOL    HW230258   2.411   3.997   0.396
 9787SOL     OW30259   3.908   3.399   3.754
 9787SOL    HW130260   3.860   3.419   3.839
 9787SOL    HW230261   3.941   3.304   3.756
 9788SOL     OW30262   0.884   6.153   1.879
 9788SOL    HW130263   0.961   6.199   1.834
 9788SOL    HW230264   0.819   6.121   1.811
 9789SOL     OW30265   2.474   6.925   6.960
 9789SOL    HW130266   2.508   7.015   6.987
 9789SOL    HW230267   2.526   6.893   6.881
 9790SOL     OW30268   6.373   4.594   6.259
 9790SOL    HW130269   6.345   4.590   6.163
 9790SOL    HW230270   6.402   4.503   6.289
 9791SOL     OW30271   1.323   0.649   0.312
 9791SOL    HW130272   1.364   0.561   0.336
 9791SOL    HW230273   1.392   0.706   0.266
 9792SOL     OW30274   3.545   4.946   1.274
 9792SOL    HW130275   3.479   5.020   1.289
 9792SOL    HW230276   3.517   4.893   1.194
 9793SOL     OW30277   4.056   7.025   2.030
 9793SOL    HW130278   4.095   0.018   2.120
 9793SOL    HW230279   4.117   0.036   1.959
 9794SOL     OW30280   5.410   4.085   4.969
 9794SOL    HW130281   5.418   3.987   4.985
 9794SOL    HW230282   5.390   4.102   4.873
 9795SOL     OW30283   1.020   3.208   4.490
 9795SOL    HW130284   1.064   3.296   4.506
 9795SOL    HW230285   1.036   3.148   4.569
 9796SOL     OW30286   3.477   4.057   3.648
 9796SOL    HW130287   3.558   4.099   3.688
 9796SOL    HW230288   3.489   3.958   3.644
 9797SOL     OW30289   2.275   6.126   0.047
 9797SOL    HW130290   2.299   6.222   0.063
 9797SOL    HW230291   2.296   6.102   6.977
 9798SOL     OW30292   2.420   1.449   1.001
 9798SOL    HW130293   2.327   1.429   1.030
 9798SOL    HW230294   2.484   1.386   1.045
 9799SOL     OW30295   3.233   4.260   6.263
 9799SOL    HW130296   3.160   4.195   6.243
 9799SOL    HW230297   3.280   4.233   6.347
 9800SOL     OW30298   5.891   3.950   4.194
 9800SOL    HW130299   5.838   3.874   4.234
 9800SOL    HW230300   5.987   3.940   4.219
 9801SOL     OW30301   5.167   5.124   0.166
 9801SOL    HW130302   5.225   5.158   0.240
 9801SOL    HW230303   5.207   5.039   0.130
 9802SOL     OW30304   4.295   4.723   0.335
 9802SOL    HW130305   4.317   4.667   0.414
 9802SOL    HW230306   4.324   4.677   0.252
 9803SOL     OW30307   1.910   3.430   6.219
 9803SOL    HW130308   1.812   3.435   6.201
 9803SOL    HW230309   1.943   3.521   6.247
 9804SOL     OW30310   0.019   5.833   3.149
 9804SOL    HW130311   0.028   5.843   3.050
 9804SOL    HW230312   6.993   5.751   3.169
 9805SOL     OW30313   0.721   6.301   2.991
 9805SOL    HW130314   0.751   6.217   2.947
 9805SOL    HW230315   0.775   6.317   3.074
 9806SOL     OW30316   1.911   1.957   6.881
 9806SOL    HW130317   1.980   1.892   6.849
 9806SOL    HW230318   1.921   2.043   6.832
 9807SOL     OW30319   3.482   3.581   2.296
 9807SOL    HW130320   3.531   3.646   2.237
 9807SOL    HW230321   3.411   3.629   2.347
 9808SOL     OW30322   3.610   5.458   4.336
 9808SOL    HW130323   3.517   5.447   4.302
 9808SOL    HW230324   3.658   5.525   4.280
 9809SOL     OW30325   1.034   3.475   0.385
 9809SOL    HW130326   1.024   3.407   0.312
 9809SOL    HW230327   0.999   3.437   0.470
 9810SOL     OW30328   2.976   2.198   4.925
 9810SOL    HW130329   2.994   2.188   4.827
 9810SOL    HW230330   3.062   2.205   4.975
 9811SOL     OW30331   6.012   4.369   3.550
 9811SOL    HW130332   5.944   4.297   3.532
 9811SOL    HW230333   5.972   4.439   3.609
 9812SOL     OW30334   2.715   0.865   4.450
 9812SOL    HW130335   2.676   0.785   4.404
 9812SOL    HW230336   2.697   0.947   4.396
 9813SOL     OW30337   5.622   2.200   0.766
 9813SOL    HW130338   5.598   2.106   0.744
 9813SOL    HW230339   5.565   2.263   0.712
 9814SOL     OW30340   5.297   1.143   0.316
 9814SOL    HW130341   5.373   1.175   0.259
 9814SOL    HW230342   5.289   1.044   0.307
 9815SOL     OW30343   4.500   2.496   4.272
 9815SOL    HW130344   4.517   2.595   4.268
 9815SOL    HW230345   4.468   2.464   4.183
 9816SOL     OW30346   0.919   0.806   6.299
 9816SOL    HW130347   0.980   0.775   6.371
 9816SOL    HW230348   0.944   0.762   6.212
 9817SOL     OW30349   0.606   0.037   3.290
 9817SOL    HW130350   0.526   7.007   3.267
 9817SOL    HW230351   0.628   0.097   3.214
 9818SOL     OW30352   6.502   2.012   4.769
 9818SOL    HW130353   6.520   1.927   4.817
 9818SOL    HW230354   6.419   2.055   4.805
 9819SOL     OW30355   4.654   2.676   3.129
 9819SOL    HW130356   4.725   2.641   3.067
 9819SOL    HW230357   4.685   2.761   3.171
 9820SOL     OW30358   3.882   3.227   6.265
 9820SOL    HW130359   3.938   3.167   6.321
 9820SOL    HW230360   3.791   3.186   6.252
 9821SOL     OW30361   5.386   0.668   6.372
 9821SOL    HW130362   5.349   0.760   6.385
 9821SOL    HW230363   5.468   0.673   6.316
 9822SOL     OW30364   0.958   6.524   3.249
 9822SOL    HW130365   0.969   6.515   3.150
 9822SOL    HW230366   0.948   6.620   3.273
 9823SOL     OW30367   3.779   0.299   1.023
 9823SOL    HW130368   3.839   0.370   1.062
 9823SOL    HW230369   3.832   0.242   0.961
 9824SOL     OW30370   2.027   4.012   5.928
 9824SOL    HW130371   2.078   3.928   5.909
 9824SOL    HW230372   2.067   4.088   5.877
 9825SOL     OW30373   3.468   4.898   5.013
 9825SOL    HW130374   3.404   4.860   5.080
 9825SOL    HW230375   3.526   4.967   5.057
 9826SOL     OW30376   5.246   5.391   6.392
 9826SOL    HW130377   5.251   5.471   6.331
 9826SOL    HW230378   5.187   5.322   6.351
 9827SOL     OW30379   2.142   4.030   4.167
 9827SOL    HW130380   2.063   4.008   4.110
 9827SOL    HW230381   2.179   3.946   4.207
 9828SOL     OW30382   2.832   2.951   6.459
 9828SOL    HW130383   2.787   2.909   6.380
 9828SOL    HW230384   2.783   3.034   6.484
 9829SOL     OW30385   3.043   6.356   0.548
 9829SOL    HW130386   3.083   6.422   0.612
 9829SOL    HW230387   3.104   6.345   0.469
 9830SOL     OW30388   5.452   2.495   1.383
 9830SOL    HW130389   5.391   2.574   1.390
 9830SOL    HW230390   5.458   2.466   1.287
 9831SOL     OW30391   1.506   6.093   0.860
 9831SOL    HW130392   1.422   6.146   0.849
 9831SOL    HW230393   1.585   6.153   0.853
 9832SOL     OW30394   5.112   5.150   2.566
 9832SOL    HW130395   5.061   5.067   2.540
 9832SOL    HW230396   5.152   5.191   2.484
 9833SOL     OW30397   3.353   2.905   4.956
 9833SOL    HW130398   3.447   2.872   4.967
 9833SOL    HW230399   3.291   2.848   5.010
 9834SOL     OW30400   2.990   4.254   5.735
 9834SOL    HW130401   3.069   4.314   5.717
 9834SOL    HW230402   2.923   4.263   5.662
 9835SOL     OW30403   3.761   2.649   5.867
 9835SOL    HW130404   3.788   2.571   5.810
 9835SOL    HW230405   3.842   2.702   5.892
 9836SOL     OW30406   6.385   4.603   3.736
 9836SOL    HW130407   6.327   4.684   3.749
 9836SOL    HW230408   6.346   4.526   3.786
 9837SOL     OW30409   2.493   0.168   2.391
 9837SOL    HW130410   2.505   0.266   2.408
 9837SOL    HW230411   2.441   0.155   2.306
 9838SOL     OW30412   0.740   0.055   6.180
 9838SOL    HW130413   0.806   0.032   6.108
 9838SOL    HW230414   0.717   6.998   6.231
 9839SOL     OW30415   5.599   1.086   3.347
 9839SOL    HW130416   5.509   1.129   3.343
 9839SOL    HW230417   5.605   1.029   3.429
 9840SOL     OW30418   0.533   0.892   1.506
 9840SOL    HW130419   0.566   0.797   1.505
 9840SOL    HW230420   0.435   0.893   1.487
 9841SOL     OW30421   1.228   4.157   4.662
 9841SOL    HW130422   1.316   4.201   4.650
 9841SOL    HW230423   1.225   4.073   4.608
 9842SOL     OW30424   3.750   4.017   3.014
 9842SOL    HW130425   3.814   4.004   2.938
 9842SOL    HW230426   3.666   4.059   2.980
 9843SOL     OW30427   6.354   1.890   1.839
 9843SOL    HW130428   6.287   1.903   1.911
 9843SOL    HW230429   6.429   1.833   1.873
 9844SOL     OW30430   5.278   0.422   2.365
 9844SOL    HW130431   5.203   0.468   2.412
 9844SOL    HW230432   5.306   0.341   2.418
 9845SOL     OW30433   2.978   1.522   4.305
 9845SOL    HW130434   3.050   1.467   4.263
 9845SOL    HW230435   2.889   1.485   4.280
 9846SOL     OW30436   4.094   3.477   2.248
 9846SOL    HW130437   4.144   3.426   2.318
 9846SOL    HW230438   4.082   3.418   2.167
 9847SOL     OW30439   3.532   2.626   5.397
 9847SOL    HW130440   3.436   2.642   5.375
 9847SOL    HW230441   3.588   2.699   5.356
 9848SOL     OW30442   3.661   2.445   6.434
 9848SOL    HW130443   3.692   2.467   6.341
 9848SOL    HW230444   3.589   2.375   6.429
 9849SOL     OW30445   6.151   0.531   0.287
 9849SOL    HW130446   6.244   0.560   0.263
 9849SOL    HW230447   6.085   0.593   0.246
 9850SOL     OW30448   5.719   6.250   2.834
 9850SOL    HW130449   5.785   6.273   2.762
 9850SOL    HW230450   5.751   6.284   2.922
 9851SOL     OW30451   4.589   2.331   5.697
 9851SOL    HW130452   4.624   2.310   5.606
 9851SOL    HW230453   4.655   2.301   5.766
 9852SOL     OW30454   4.246   1.911   2.964
 9852SOL    HW130455   4.276   2.005   2.979
 9852SOL    HW230456   4.150   1.902   2.991
 9853SOL     OW30457   5.066   3.911   3.440
 9853SOL    HW130458   5.003   3.841   3.408
 9853SOL    HW230459   5.160   3.878   3.430
 9854SOL     OW30460   6.894   5.104   4.651
 9854SOL    HW130461   6.985   5.110   4.611
 9854SOL    HW230462   6.869   5.008   4.665
 9855SOL     OW30463   2.441   4.301   1.875
 9855SOL    HW130464   2.377   4.366   1.834
 9855SOL    HW230465   2.391   4.224   1.914
 9856SOL     OW30466   4.937   3.796   0.044
 9856SOL    HW130467   5.006   3.791   6.998
 9856SOL    HW230468   4.969   3.857   0.117
 9857SOL     OW30469   4.072   1.538   4.488
 9857SOL    HW130470   4.014   1.610   4.449
 9857SOL    HW230471   4.032   1.505   4.573
 9858SOL     OW30472   0.253   1.039   1.455
 9858SOL    HW130473   0.163   1.046   1.414
 9858SOL    HW230474   0.304   1.124   1.437
 9859SOL     OW30475   6.339   7.011   1.374
 9859SOL    HW130476   6.308   6.991   1.281
 9859SOL    HW230477   6.263   7.000   1.438
 9860SOL     OW30478   6.849   1.300   3.017
 9860SOL    HW130479   6.926   1.317   2.955
 9860SOL    HW230480   6.822   1.204   3.009
 9861SOL     OW30481   3.237   6.856   3.392
 9861SOL    HW130482   3.178   6.801   3.332
 9861SOL    HW230483   3.288   6.922   3.338
 9862SOL     OW30484   2.387   5.227   0.508
 9862SOL    HW130485   2.454   5.302   0.504
 9862SOL    HW230486   2.427   5.150   0.557
 9863SOL     OW30487   3.028   0.119   3.705
 9863SOL    HW130488   3.120   0.156   3.692
 9863SOL    HW230489   2.962   0.194   3.706
 9864SOL     OW30490   3.886   5.836   4.032
 9864SOL    HW130491   3.803   5.820   4.086
 9864SOL    HW230492   3.865   5.825   3.935
 9865SOL     OW30493   1.552   1.101   3.783
 9865SOL    HW130494   1.525   1.194   3.806
 9865SOL    HW230495   1.625   1.102   3.715
 9866SOL     OW30496   5.704   4.287   5.263
 9866SOL    HW130497   5.693   4.292   5.362
 9866SOL    HW230498   5.746   4.371   5.229
 9867SOL     OW30499   6.220   0.399   0.955
 9867SOL    HW130500   6.191   0.493   0.936
 9867SOL    HW230501   6.153   0.336   0.916
 9868SOL     OW30502   1.194   3.993   5.304
 9868SOL    HW130503   1.110   3.985   5.357
 9868SOL    HW230504   1.182   4.061   5.232
 9869SOL     OW30505   1.343   3.356   2.365
 9869SOL    HW130506   1.424   3.367   2.308
 9869SOL    HW230507   1.262   3.346   2.306
 9870SOL     OW30508   4.602   6.000   2.862
 9870SOL    HW130509   4.612   5.908   2.899
 9870SOL    HW230510   4.598   5.996   2.762
 9871SOL     OW30511   1.084   6.750   5.873
 9871SOL    HW130512   1.161   6.813   5.859
 9871SOL    HW230513   1.112   6.658   5.847
 9872SOL     OW30514   2.561   4.746   4.356
 9872SOL    HW130515   2.549   4.652   4.385
 9872SOL    HW230516   2.471   4.787   4.339
 9873SOL     OW30517   2.932   2.215   1.142
 9873SOL    HW130518   2.906   2.310   1.123
 9873SOL    HW230519   2.935   2.200   1.240
 9874SOL     OW30520   0.865   3.458   4.178
 9874SOL    HW130521   0.800   3.414   4.241
 9874SOL    HW230522   0.815   3.516   4.114
 9875SOL     OW30523   6.670   6.643   2.095
 9875SOL    HW130524   6.654   6.594   2.009
 9875SOL    HW230525   6.623   6.597   2.170
 9876SOL     OW30526   5.892   0.670   2.504
 9876SOL    HW130527   5.942   0.621   2.432
 9876SOL    HW230528   5.795   0.648   2.497
 9877SOL     OW30529   0.413   5.779   3.329
 9877SOL    HW130530   0.384   5.737   3.242
 9877SOL    HW230531   0.403   5.713   3.403
 9878SOL     OW30532   2.859   5.269   4.698
 9878SOL    HW130533   2.892   5.198   4.760
 9878SOL    HW230534   2.783   5.234   4.645
 9879SOL     OW30535   5.646   5.216   3.931
 9879SOL    HW130536   5.727   5.190   3.984
 9879SOL    HW230537   5.654   5.183   3.837
 9880SOL     OW30538   2.933   1.583   5.647
 9880SOL    HW130539   2.877   1.539   5.577
 9880SOL    HW230540   3.003   1.639   5.602
 9881SOL     OW30541   1.498   1.434   4.912
 9881SOL    HW130542   1.561   1.460   4.986
 9881SOL    HW230543   1.547   1.380   4.844
 9882SOL     OW30544   1.008   2.526   3.480
 9882SOL    HW130545   1.063   2.553   3.559
 9882SOL    HW230546   0.998   2.427   3.479
 9883SOL     OW30547   1.461   5.498   0.039
 9883SOL    HW130548   1.523   5.575   0.028
 9883SOL    HW230549   1.441   5.458   6.976
 9884SOL     OW30550   4.329   1.703   2.801
 9884SOL    HW130551   4.428   1.694   2.790
 9884SOL    HW230552   4.309   1.767   2.874
 9885SOL     OW30553   6.758   3.091   5.377
 9885SOL    HW130554   6.665   3.124   5.363
 9885SOL    HW230555   6.807   3.092   5.290
 9886SOL     OW30556   0.780   3.775   1.422
 9886SOL    HW130557   0.780   3.785   1.323
 9886SOL    HW230558   0.701   3.720   1.450
 9887SOL     OW30559   4.100   0.726   6.222
 9887SOL    HW130560   4.187   0.677   6.211
 9887SOL    HW230561   4.050   0.687   6.299
 9888SOL     OW30562   5.678   4.262   1.860
 9888SOL    HW130563   5.665   4.242   1.957
 9888SOL    HW230564   5.707   4.357   1.849
 9889SOL     OW30565   0.343   5.579   1.686
 9889SOL    HW130566   0.269   5.512   1.687
 9889SOL    HW230567   0.411   5.552   1.618
 9890SOL     OW30568   1.581   1.844   0.375
 9890SOL    HW130569   1.558   1.926   0.324
 9890SOL    HW230570   1.605   1.869   0.469
 9891SOL     OW30571   5.670   3.143   1.889
 9891SOL    HW130572   5.690   3.230   1.934
 9891SOL    HW230573   5.680   3.069   1.956
 9892SOL     OW30574   6.936   4.823   0.980
 9892SOL    HW130575   6.983   4.751   0.929
 9892SOL    HW230576   6.981   4.910   0.964
 9893SOL     OW30577   0.956   0.185   1.511
 9893SOL    HW130578   0.884   0.251   1.491
 9893SOL    HW230579   0.924   0.121   1.581
 9894SOL     OW30580   2.666   2.799   1.709
 9894SOL    HW130581   2.658   2.702   1.688
 9894SOL    HW230582   2.762   2.820   1.731
 9895SOL     OW30583   6.684   4.133   5.110
 9895SOL    HW130584   6.744   4.213   5.096
 9895SOL    HW230585   6.626   4.149   5.189
 9896SOL     OW30586   6.319   0.865   6.910
 9896SOL    HW130587   6.304   0.843   6.813
 9896SOL    HW230588   6.406   0.826   6.940
 9897SOL     OW30589   6.052   6.088   2.949
 9897SOL    HW130590   6.033   6.047   3.038
 9897SOL    HW230591   6.130   6.041   2.907
 9898SOL     OW30592   1.554   6.152   4.276
 9898SOL    HW130593   1.614   6.161   4.196
 9898SOL    HW230594   1.484   6.224   4.273
 9899SOL     OW30595   0.871   5.912   6.971
 9899SOL    HW130596   0.954   5.885   7.018
 9899SOL    HW230597   0.837   5.998   7.010
 9900SOL     OW30598   2.055   3.572   3.435
 9900SOL    HW130599   2.103   3.643   3.487
 9900SOL    HW230600   2.049   3.601   3.339
 9901SOL     OW30601   2.858   0.295   6.312
 9901SOL    HW130602   2.924   0.221   6.321
 9901SOL    HW230603   2.811   0.309   6.399
 9902SOL     OW30604   3.405   4.917   1.047
 9902SOL    HW130605   3.315   4.910   1.091
 9902SOL    HW230606   3.400   4.983   0.972
 9903SOL     OW30607   5.070   1.816   2.410
 9903SOL    HW130608   5.135   1.791   2.339
 9903SOL    HW230609   4.987   1.761   2.401
 9904SOL     OW30610   1.398   3.994   6.975
 9904SOL    HW130611   1.450   4.070   7.015
 9904SOL    HW230612   1.323   3.970   0.011
 9905SOL     OW30613   2.219   6.974   6.406
 9905SOL    HW130614   2.256   6.899   6.460
 9905SOL    HW230615   2.209   6.946   6.310
 9906SOL     OW30616   2.587   3.410   1.702
 9906SOL    HW130617   2.511   3.443   1.758
 9906SOL    HW230618   2.672   3.454   1.732
 9907SOL     OW30619   6.539   0.579   1.339
 9907SOL    HW130620   6.518   0.484   1.317
 9907SOL    HW230621   6.583   0.623   1.260
 9908SOL     OW30622   5.598   1.395   4.975
 9908SOL    HW130623   5.632   1.473   4.924
 9908SOL    HW230624   5.539   1.340   4.916
 9909SOL     OW30625   4.302   0.144   3.273
 9909SOL    HW130626   4.241   0.212   3.314
 9909SOL    HW230627   4.313   0.067   3.336
 9910SOL     OW30628   1.530   4.657   2.706
 9910SOL    HW130629   1.511   4.635   2.802
 9910SOL    HW230630   1.590   4.737   2.702
 9911SOL     OW30631   2.664   5.792   2.145
 9911SOL    HW130632   2.594   5.769   2.213
 9911SOL    HW230633   2.642   5.880   2.103
 9912SOL     OW30634   4.034   0.636   1.425
 9912SOL    HW130635   3.988   0.591   1.348
 9912SOL    HW230636   4.030   0.577   1.505
 9913SOL     OW30637   5.935   3.809   0.885
 9913SOL    HW130638   5.917   3.887   0.945
 9913SOL    HW230639   6.022   3.822   0.838
 9914SOL     OW30640   5.521   1.592   4.399
 9914SOL    HW130641   5.615   1.619   4.422
 9914SOL    HW230642   5.495   1.513   4.455
 9915SOL     OW30643   5.001   0.440   3.065
 9915SOL    HW130644   4.931   0.401   3.124
 9915SOL    HW230645   5.044   0.518   3.110
 9916SOL     OW30646   2.137   2.611   2.959
 9916SOL    HW130647   2.061   2.668   2.929
 9916SOL    HW230648   2.136   2.524   2.908
 9917SOL     OW30649   5.535   4.323   6.622
 9917SOL    HW130650   5.587   4.342   6.706
 9917SOL    HW230651   5.545   4.227   6.598
 9918SOL     OW30652   3.129   1.498   3.358
 9918SOL    HW130653   3.158   1.512   3.452
 9918SOL    HW230654   3.207   1.510   3.296
 9919SOL     OW30655   0.279   5.026   1.539
 9919SOL    HW130656   0.284   5.038   1.439
 9919SOL    HW230657   0.301   4.932   1.562
 9920SOL     OW30658   4.662   1.578   2.204
 9920SOL    HW130659   4.620   1.648   2.262
 9920SOL    HW230660   4.591   1.514   2.173
 9921SOL     OW30661   4.161   0.295   5.451
 9921SOL    HW130662   4.187   0.317   5.545
 9921SOL    HW230663   4.065   0.267   5.449
 9922SOL     OW30664   2.682   4.419   0.547
 9922SOL    HW130665   2.685   4.398   0.644
 9922SOL    HW230666   2.587   4.431   0.518
 9923SOL     OW30667   5.367   5.096   6.616
 9923SOL    HW130668   5.328   5.187   6.629
 9923SOL    HW230669   5.315   5.030   6.671
 9924SOL     OW30670   6.495   1.785   4.533
 9924SOL    HW130671   6.563   1.804   4.462
 9924SOL    HW230672   6.483   1.866   4.590
 9925SOL     OW30673   0.119   3.752   4.335
 9925SOL    HW130674   0.041   3.802   4.297
 9925SOL    HW230675   0.201   3.775   4.283
 9926SOL     OW30676   3.843   2.268   0.984
 9926SOL    HW130677   3.901   2.239   0.908
 9926SOL    HW230678   3.753   2.294   0.949
 9927SOL     OW30679   6.770   6.765   0.427
 9927SOL    HW130680   6.730   6.856   0.421
 9927SOL    HW230681   6.802   6.737   0.337
 9928SOL     OW30682   4.789   4.144   2.887
 9928SOL    HW130683   4.859   4.108   2.949
 9928SOL    HW230684   4.767   4.076   2.818
 9929SOL     OW30685   3.455   4.599   5.695
 9929SOL    HW130686   3.417   4.632   5.608
 9929SOL    HW230687   3.516   4.522   5.677
 9930SOL     OW30688   6.420   6.437   4.864
 9930SOL    HW130689   6.343   6.499   4.848
 9930SOL    HW230690   6.451   6.400   4.777
 9931SOL     OW30691   0.704   5.841   4.328
 9931SOL    HW130692   0.750   5.831   4.239
 9931SOL    HW230693   0.735   5.768   4.389
 9932SOL     OW30694   3.268   4.006   6.828
 9932SOL    HW130695   3.211   3.932   6.865
 9932SOL    HW230696   3.339   3.967   6.770
 9933SOL     OW30697   6.682   6.012   3.078
 9933SOL    HW130698   6.721   6.057   3.158
 9933SOL    HW230699   6.599   6.059   3.050
 9934SOL     OW30700   6.220   2.145   5.748
 9934SOL    HW130701   6.320   2.140   5.755
 9934SOL    HW230702   6.185   2.058   5.715
 9935SOL     OW30703   2.952   6.597   6.424
 9935SOL    HW130704   2.897   6.544   6.489
 9935SOL    HW230705   3.045   6.559   6.420
 9936SOL     OW30706   6.657   5.382   0.097
 9936SOL    HW130707   6.622   5.319   0.166
 9936SOL    HW230708   6.717   5.449   0.140
 9937SOL     OW30709   6.669   1.794   0.917
 9937SOL    HW130710   6.683   1.893   0.909
 9937SOL    HW230711   6.578   1.775   0.953
 9938SOL     OW30712   6.743   4.682   2.762
 9938SOL    HW130713   6.731   4.667   2.860
 9938SOL    HW230714   6.663   4.649   2.713
 9939SOL     OW30715   4.690   2.030   1.159
 9939SOL    HW130716   4.663   1.951   1.215
 9939SOL    HW230717   4.642   2.026   1.071
 9940SOL     OW30718   1.070   0.516   1.235
 9940SOL    HW130719   0.991   0.578   1.226
 9940SOL    HW230720   1.054   0.433   1.182
 9941SOL     OW30721   3.054   3.411   5.522
 9941SOL    HW130722   3.008   3.478   5.464
 9941SOL    HW230723   3.119   3.358   5.467
 9942SOL     OW30724   2.353   5.173   2.713
 9942SOL    HW130725   2.445   5.140   2.734
 9942SOL    HW230726   2.317   5.123   2.634
 9943SOL     OW30727   0.653   4.722   5.931
 9943SOL    HW130728   0.669   4.631   5.895
 9943SOL    HW230729   0.573   4.762   5.886
 9944SOL     OW30730   1.408   4.261   6.310
 9944SOL    HW130731   1.431   4.280   6.406
 9944SOL    HW230732   1.485   4.285   6.252
 9945SOL     OW30733   5.753   5.255   6.876
 9945SOL    HW130734   5.674   5.316   6.877
 9945SOL    HW230735   5.777   5.233   6.782
 9946SOL     OW30736   5.316   0.876   3.835
 9946SOL    HW130737   5.295   0.922   3.749
 9946SOL    HW230738   5.399   0.821   3.823
 9947SOL     OW30739   2.042   2.141   4.714
 9947SOL    HW130740   2.136   2.171   4.698
 9947SOL    HW230741   1.989   2.215   4.755
 9948SOL     OW30742   5.924   4.220   4.799
 9948SOL    HW130743   5.892   4.213   4.893
 9948SOL    HW230744   5.848   4.250   4.740
 9949SOL     OW30745   6.663   4.717   4.514
 9949SOL    HW130746   6.596   4.676   4.576
 9949SOL    HW230747   6.615   4.766   4.441
 9950SOL     OW30748   5.876   5.848   5.398
 9950SOL    HW130749   5.963   5.859   5.349
 9950SOL    HW230750   5.884   5.888   5.489
 9951SOL     OW30751   6.955   0.960   3.790
 9951SOL    HW130752   7.016   1.011   3.851
 9951SOL    HW230753   6.964   0.862   3.808
 9952SOL     OW30754   1.178   3.780   0.723
 9952SOL    HW130755   1.084   3.745   0.721
 9952SOL    HW230756   1.239   3.714   0.680
 9953SOL     OW30757   5.460   2.511   4.661
 9953SOL    HW130758   5.521   2.480   4.733
 9953SOL    HW230759   5.502   2.497   4.572
 9954SOL     OW30760   6.732   1.013   6.519
 9954SOL    HW130761   6.777   0.996   6.431
 9954SOL    HW230762   6.787   1.077   6.572
 9955SOL     OW30763   6.237   3.666   5.357
 9955SOL    HW130764   6.251   3.568   5.371
 9955SOL    HW230765   6.227   3.712   5.446
 9956SOL     OW30766   1.431   6.924   2.195
 9956SOL    HW130767   1.522   6.895   2.224
 9956SOL    HW230768   1.362   6.866   2.237
 9957SOL     OW30769   5.039   5.666   2.684
 9957SOL    HW130770   5.084   5.663   2.773
 9957SOL    HW230771   4.960   5.605   2.685
 9958SOL     OW30772   3.378   5.439   0.046
 9958SOL    HW130773   3.329   5.477   0.124
 9958SOL    HW230774   3.409   5.514   7.013
 9959SOL     OW30775   4.133   3.680   5.279
 9959SOL    HW130776   4.153   3.690   5.181
 9959SOL    HW230777   4.151   3.768   5.324
 9960SOL     OW30778   6.785   0.302   2.031
 9960SOL    HW130779   6.858   0.235   2.020
 9960SOL    HW230780   6.795   0.348   2.119
 9961SOL     OW30781   1.375   4.986   4.787
 9961SOL    HW130782   1.346   5.080   4.769
 9961SOL    HW230783   1.405   4.978   4.882
 9962SOL     OW30784   6.518   6.152   2.401
 9962SOL    HW130785   6.540   6.055   2.391
 9962SOL    HW230786   6.595   6.199   2.443
 9963SOL     OW30787   3.090   3.028   6.576
 9963SOL    HW130788   3.138   2.956   6.526
 9963SOL    HW230789   2.999   3.040   6.537
 9964SOL     OW30790   5.215   4.443   5.600
 9964SOL    HW130791   5.303   4.428   5.645
 9964SOL    HW230792   5.163   4.357   5.600
 9965SOL     OW30793   3.787   6.715   6.022
 9965SOL    HW130794   3.751   6.628   5.987
 9965SOL    HW230795   3.713   6.770   6.058
 9966SOL     OW30796   2.126   5.841   1.773
 9966SOL    HW130797   2.078   5.797   1.849
 9966SOL    HW230798   2.073   5.920   1.742
 9967SOL     OW30799   6.972   0.098   2.067
 9967SOL    HW130800   0.004   0.103   2.149
 9967SOL    HW230801   6.919   0.013   2.069
 9968SOL     OW30802   3.590   4.203   0.907
 9968SOL    HW130803   3.606   4.269   0.980
 9968SOL    HW230804   3.524   4.134   0.938
 9969SOL     OW30805   1.746   3.040   2.654
 9969SOL    HW130806   1.771   3.090   2.737
 9969SOL    HW230807   1.707   3.103   2.587
 9970SOL     OW30808   5.169   3.729   2.703
 9970SOL    HW130809   5.206   3.655   2.647
 9970SOL    HW230810   5.169   3.814   2.649
 9971SOL     OW30811   2.276   5.579   1.388
 9971SOL    HW130812   2.187   5.620   1.407
 9971SOL    HW230813   2.301   5.596   1.292
 9972SOL     OW30814   4.298   5.050   1.445
 9972SOL    HW130815   4.283   5.120   1.515
 9972SOL    HW230816   4.326   4.965   1.489
 9973SOL     OW30817   4.778   1.530   4.206
 9973SOL    HW130818   4.856   1.525   4.269
 9973SOL    HW230819   4.724   1.612   4.227
 9974SOL     OW30820   0.332   3.151   2.730
 9974SOL    HW130821   0.264   3.115   2.793
 9974SOL    HW230822   0.298   3.235   2.688
 9975SOL     OW30823   6.272   4.308   0.185
 9975SOL    HW130824   6.262   4.403   0.156
 9975SOL    HW230825   6.334   4.302   0.262
 9976SOL     OW30826   0.463   6.333   5.522
 9976SOL    HW130827   0.558   6.324   5.492
 9976SOL    HW230828   0.403   6.287   5.456
 9977SOL     OW30829   6.789   5.542   5.336
 9977SOL    HW130830   6.810   5.452   5.375
 9977SOL    HW230831   6.826   5.613   5.394
 9978SOL     OW30832   0.347   2.352   3.593
 9978SOL    HW130833   0.336   2.439   3.639
 9978SOL    HW230834   0.381   2.284   3.658
 9979SOL     OW30835   6.287   5.433   5.343
 9979SOL    HW130836   6.196   5.450   5.380
 9979SOL    HW230837   6.280   5.369   5.266
 9980SOL     OW30838   1.853   0.997   5.278
 9980SOL    HW130839   1.929   0.940   5.307
 9980SOL    HW230840   1.870   1.033   5.187
 9981SOL     OW30841   2.039   1.788   1.759
 9981SOL    HW130842   2.113   1.794   1.691
 9981SOL    HW230843   2.012   1.692   1.770
 9982SOL     OW30844   6.408   6.878   4.273
 9982SOL    HW130845   6.329   6.818   4.259
 9982SOL    HW230846   6.377   6.973   4.276
 9983SOL     OW30847   6.879   2.704   2.735
 9983SOL    HW130848   6.979   2.699   2.734
 9983SOL    HW230849   6.848   2.755   2.655
 9984SOL     OW30850   2.090   0.837   6.836
 9984SOL    HW130851   2.048   0.876   6.918
 9984SOL    HW230852   2.145   0.757   6.861
 9985SOL     OW30853   1.616   1.353   0.937
 9985SOL    HW130854   1.668   1.421   0.989
 9985SOL    HW230855   1.671   1.323   0.858
 9986SOL     OW30856   5.833   4.339   5.805
 9986SOL    HW130857   5.893   4.259   5.808
 9986SOL    HW230858   5.747   4.315   5.760
 9987SOL     OW30859   6.943   3.131   4.363
 9987SOL    HW130860   6.844   3.121   4.374
 9987SOL    HW230861   6.973   3.216   4.404
 9988SOL     OW30862   6.972   5.623   4.650
 9988SOL    HW130863   6.916   5.702   4.674
 9988SOL    HW230864   6.978   5.616   4.550
 9989SOL     OW30865   5.981   3.592   3.176
 9989SOL    HW130866   6.013   3.629   3.088
 9989SOL    HW230867   6.056   3.543   3.220
 9990SOL     OW30868   2.509   5.652   1.873
 9990SOL    HW130869   2.448   5.609   1.806
 9990SOL    HW230870   2.544   5.582   1.936
 9991SOL     OW30871   1.961   2.909   3.401
 9991SOL    HW130872   2.004   2.896   3.312
 9991SOL    HW230873   1.994   2.838   3.464
 9992SOL     OW30874   5.696   5.103   0.214
 9992SOL    HW130875   5.676   5.115   0.117
 9992SOL    HW230876   5.794   5.116   0.230
 9993SOL     OW30877   2.879   0.221   0.016
 9993SOL    HW130878   2.931   0.203   0.100
 9993SOL    HW230879   2.788   0.182   0.025
 9994SOL     OW30880   6.422   4.370   3.112
 9994SOL    HW130881   6.401   4.372   3.210
 9994SOL    HW230882   6.436   4.275   3.083
 9995SOL     OW30883   4.459   0.872   2.917
 9995SOL    HW130884   4.451   0.796   2.853
 9995SOL    HW230885   4.368   0.907   2.940
 9996SOL     OW30886   2.841   3.307   1.104
 9996SOL    HW130887   2.834   3.355   1.191
 9996SOL    HW230888   2.756   3.319   1.052
 9997SOL     OW30889   3.444   1.340   0.405
 9997SOL    HW130890   3.526   1.396   0.411
 9997SOL    HW230891   3.365   1.394   0.433
 9998SOL     OW30892   5.611   4.630   6.182
 9998SOL    HW130893   5.538   4.668   6.238
 9998SOL    HW230894   5.668   4.705   6.148
 9999SOL     OW30895   6.514   3.264   5.402
 9999SOL    HW130896   6.507   3.233   5.307
 9999SOL    HW230897   6.437   3.324   5.423
10000SOL     OW30898   0.502   4.483   6.687
10000SOL    HW130899   0.481   4.386   6.703
10000SOL    HW230900   0.486   4.535   6.771
10001SOL     OW30901   4.898   6.764   1.734
10001SOL    HW130902   4.921   6.692   1.799
10001SOL    HW230903   4.890   6.851   1.783
10002SOL     OW30904   1.622   0.457   2.922
10002SOL    HW130905   1.557   0.388   2.954
10002SOL    HW230906   1.589   0.495   2.835
10003SOL     OW30907   3.863   1.255   3.262
10003SOL    HW130908   3.914   1.186   3.313
10003SOL    HW230909   3.765   1.240   3.275
10004SOL     OW30910   6.171   2.472   4.404
10004SOL    HW130911   6.077   2.460   4.437
10004SOL    HW230912   6.198   2.567   4.414
10005SOL     OW30913   5.182   0.424   4.840
10005SOL    HW130914   5.156   0.514   4.805
10005SOL    HW230915   5.100   0.368   4.851
10006SOL     OW30916   5.364   5.863   3.957
10006SOL    HW130917   5.419   5.932   4.004
10006SOL    HW230918   5.320   5.904   3.877
10007SOL     OW30919   0.053   4.870   5.796
10007SOL    HW130920   7.009   4.884   5.724
10007SOL    HW230921   0.080   4.774   5.797
10008SOL     OW30922   4.176   1.326   4.342
10008SOL    HW130923   4.236   1.343   4.264
10008SOL    HW230924   4.165   1.411   4.395
10009SOL     OW30925   1.780   3.985   1.711
10009SOL    HW130926   1.749   3.938   1.628
10009SOL    HW230927   1.761   4.083   1.703
10010SOL     OW30928   2.185   0.747   5.490
10010SOL    HW130929   2.259   0.684   5.465
10010SOL    HW230930   2.206   0.792   5.576
10011SOL     OW30931   5.505   1.152   5.826
10011SOL    HW130932   5.597   1.116   5.834
10011SOL    HW230933   5.448   1.118   5.901
10012SOL     OW30934   5.582   1.460   3.371
10012SOL    HW130935   5.521   1.397   3.418
10012SOL    HW230936   5.566   1.454   3.272
10013SOL     OW30937   0.204   1.045   3.382
10013SOL    HW130938   0.146   1.126   3.388
10013SOL    HW230939   0.295   1.066   3.418
10014SOL     OW30940   6.678   3.919   0.778
10014SOL    HW130941   6.759   3.897   0.724
10014SOL    HW230942   6.637   4.003   0.745
10015SOL     OW30943   1.627   5.029   0.415
10015SOL    HW130944   1.685   5.096   0.369
10015SOL    HW230945   1.597   5.067   0.503
10016SOL     OW30946   0.986   0.649   6.544
10016SOL    HW130947   1.009   0.729   6.600
10016SOL    HW230948   0.886   0.642   6.535
10017SOL     OW30949   2.660   1.954   2.695
10017SOL    HW130950   2.660   1.935   2.597
10017SOL    HW230951   2.640   1.871   2.746
10018SOL     OW30952   4.627   0.022   6.362
10018SOL    HW130953   4.581   0.031   6.450
10018SOL    HW230954   4.626   0.111   6.315
10019SOL     OW30955   0.693   1.219   3.165
10019SOL    HW130956   0.624   1.267   3.111
10019SOL    HW230957   0.662   1.212   3.260
10020SOL     OW30958   2.078   2.485   0.944
10020SOL    HW130959   2.106   2.488   0.848
10020SOL    HW230960   2.149   2.441   0.998
10021SOL     OW30961   0.494   2.034   1.546
10021SOL    HW130962   0.591   2.035   1.522
10021SOL    HW230963   0.480   1.976   1.626
10022SOL     OW30964   2.246   1.324   5.822
10022SOL    HW130965   2.326   1.312   5.881
10022SOL    HW230966   2.173   1.368   5.874
10023SOL     OW30967   0.483   5.098   1.308
10023SOL    HW130968   0.422   5.104   1.229
10023SOL    HW230969   0.490   5.003   1.339
10024SOL     OW30970   2.006   6.005   2.173
10024SOL    HW130971   2.058   5.948   2.236
10024SOL    HW230972   1.986   5.953   2.090
10025SOL     OW30973   1.191   1.531   0.492
10025SOL    HW130974   1.147   1.498   0.575
10025SOL    HW230975   1.289   1.545   0.510
10026SOL     OW30976   5.145   6.320   3.788
10026SOL    HW130977   5.157   6.351   3.694
10026SOL    HW230978   5.228   6.275   3.820
10027SOL     OW30979   0.109   4.153   4.262
10027SOL    HW130980   0.157   4.163   4.349
10027SOL    HW230981   0.012   4.175   4.274
10028SOL     OW30982   0.965   0.430   2.517
10028SOL    HW130983   0.918   0.456   2.602
10028SOL    HW230984   1.063   0.423   2.534
10029SOL     OW30985   4.527   1.592   4.504
10029SOL    HW130986   4.619   1.618   4.533
10029SOL    HW230987   4.465   1.597   4.582
10030SOL     OW30988   1.629   0.466   3.244
10030SOL    HW130989   1.722   0.432   3.256
10030SOL    HW230990   1.611   0.480   3.146
10031SOL     OW30991   5.502   4.376   5.074
10031SOL    HW130992   5.487   4.289   5.027
10031SOL    HW230993   5.529   4.359   5.169
10032SOL     OW30994   3.064   1.154   4.973
10032SOL    HW130995   3.155   1.182   5.002
10032SOL    HW230996   3.010   1.128   5.053
10033SOL     OW30997   6.585   3.202   4.723
10033SOL    HW130998   6.487   3.215   4.710
10033SOL    HW230999   6.626   3.168   4.637
10034SOL     OW31000   3.584   0.424   4.516
10034SOL    HW131001   3.484   0.423   4.512
10034SOL    HW231002   3.614   0.462   4.604
10035SOL     OW31003   6.737   5.368   1.859
10035SOL    HW131004   6.687   5.285   1.883
10035SOL    HW231005   6.790   5.352   1.776
10036SOL     OW31006   6.417   2.114   0.424
10036SOL    HW131007   6.331   2.080   0.462
10036SOL    HW231008   6.494   2.070   0.469
10037SOL     OW31009   6.987   1.708   0.322
10037SOL    HW131010   6.972   1.805   0.339
10037SOL    HW231011   6.926   1.677   0.249
10038SOL     OW31012   6.107   0.264   0.258
10038SOL    HW131013   6.026   0.223   0.299
10038SOL    HW231014   6.109   0.362   0.278
10039SOL     OW31015   3.746   0.538   3.795
10039SOL    HW131016   3.709   0.625   3.763
10039SOL    HW231017   3.683   0.464   3.771
10040SOL     OW31018   5.956   5.083   6.335
10040SOL    HW131019   5.937   5.048   6.244
10040SOL    HW231020   5.930   5.014   6.403
10041SOL     OW31021   3.683   6.195   6.789
10041SOL    HW131022   3.614   6.141   6.741
10041SOL    HW231023   3.772   6.149   6.783
10042SOL     OW31024   0.431   1.404   3.704
10042SOL    HW131025   0.505   1.353   3.749
10042SOL    HW231026   0.458   1.425   3.610
10043SOL     OW31027   6.136   1.742   5.173
10043SOL    HW131028   6.070   1.692   5.118
10043SOL    HW231029   6.191   1.801   5.114
10044SOL     OW31030   2.242   2.867   5.388
10044SOL    HW131031   2.318   2.890   5.449
10044SOL    HW231032   2.209   2.950   5.344
10045SOL     OW31033   4.256   0.759   1.659
10045SOL    HW131034   4.311   0.676   1.667
10045SOL    HW231035   4.162   0.739   1.689
10046SOL     OW31036   2.037   3.836   1.173
10046SOL    HW131037   1.957   3.786   1.139
10046SOL    HW231038   2.083   3.780   1.242
10047SOL     OW31039   0.550   2.905   5.844
10047SOL    HW131040   0.546   3.003   5.825
10047SOL    HW231041   0.518   2.888   5.938
10048SOL     OW31042   6.861   6.643   2.783
10048SOL    HW131043   6.836   6.738   2.762
10048SOL    HW231044   6.959   6.639   2.802
10049SOL     OW31045   1.348   1.439   5.881
10049SOL    HW131046   1.273   1.448   5.945
10049SOL    HW231047   1.325   1.371   5.811
10050SOL     OW31048   5.551   3.457   5.244
10050SOL    HW131049   5.454   3.478   5.260
10050SOL    HW231050   5.607   3.503   5.312
10051SOL     OW31051   0.545   4.475   4.885
10051SOL    HW131052   0.628   4.523   4.911
10051SOL    HW231053   0.564   4.414   4.808
10052SOL     OW31054   1.504   1.012   3.119
10052SOL    HW131055   1.487   0.992   3.022
10052SOL    HW231056   1.567   0.944   3.157
10053SOL     OW31057   5.116   5.189   4.013
10053SOL    HW131058   5.033   5.228   4.054
10053SOL    HW231059   5.197   5.231   4.055
10054SOL     OW31060   5.428   3.810   5.028
10054SOL    HW131061   5.389   3.763   4.949
10054SOL    HW231062   5.523   3.780   5.041
10055SOL     OW31063   6.906   2.621   6.625
10055SOL    HW131064   6.926   2.719   6.627
10055SOL    HW231065   6.818   2.604   6.671
10056SOL     OW31066   5.163   3.573   3.136
10056SOL    HW131067   5.159   3.573   3.236
10056SOL    HW231068   5.080   3.615   3.099
10057SOL     OW31069   5.702   3.792   5.641
10057SOL    HW131070   5.760   3.868   5.612
10057SOL    HW231071   5.610   3.826   5.662
10058SOL     OW31072   6.718   3.342   4.109
10058SOL    HW131073   6.760   3.392   4.185
10058SOL    HW231074   6.777   3.265   4.083
10059SOL     OW31075   6.124   1.790   0.733
10059SOL    HW131076   6.043   1.732   0.734
10059SOL    HW231077   6.196   1.745   0.680
10060SOL     OW31078   2.583   1.707   2.388
10060SOL    HW131079   2.506   1.770   2.379
10060SOL    HW231080   2.659   1.738   2.331
10061SOL     OW31081   4.217   1.150   4.084
10061SOL    HW131082   4.278   1.138   4.162
10061SOL    HW231083   4.255   1.218   4.021
10062SOL     OW31084   6.901   6.743   4.307
10062SOL    HW131085   6.945   6.785   4.228
10062SOL    HW231086   6.820   6.692   4.279
10063SOL     OW31087   2.354   2.044   4.433
10063SOL    HW131088   2.318   2.116   4.492
10063SOL    HW231089   2.453   2.036   4.447
10064SOL     OW31090   3.932   6.051   6.835
10064SOL    HW131091   4.001   6.019   6.899
10064SOL    HW231092   3.966   6.041   6.741
10065SOL     OW31093   1.491   0.904   1.729
10065SOL    HW131094   1.540   0.989   1.745
10065SOL    HW231095   1.526   0.861   1.646
10066SOL     OW31096   0.086   3.557   5.156
10066SOL    HW131097   0.038   3.494   5.217
10066SOL    HW231098   0.026   3.582   5.080
10067SOL     OW31099   0.748   3.209   6.629
10067SOL    HW131100   0.759   3.179   6.724
10067SOL    HW231101   0.675   3.156   6.586
10068SOL     OW31102   1.823   3.679   2.856
10068SOL    HW131103   1.803   3.735   2.937
10068SOL    HW231104   1.822   3.736   2.774
10069SOL     OW31105   3.519   5.128   1.915
10069SOL    HW131106   3.535   5.207   1.857
10069SOL    HW231107   3.454   5.152   1.988
10070SOL     OW31108   2.073   5.502   4.407
10070SOL    HW131109   2.000   5.518   4.341
10070SOL    HW231110   2.126   5.585   4.420
10071SOL     OW31111   0.495   6.463   3.860
10071SOL    HW131112   0.457   6.536   3.802
10071SOL    HW231113   0.518   6.384   3.804
10072SOL     OW31114   0.266   1.574   2.476
10072SOL    HW131115   0.170   1.573   2.449
10072SOL    HW231116   0.274   1.595   2.573
10073SOL     OW31117   6.130   2.784   3.950
10073SOL    HW131118   6.117   2.687   3.928
10073SOL    HW231119   6.207   2.820   3.897
10074SOL     OW31120   1.203   5.146   0.224
10074SOL    HW131121   1.245   5.105   0.143
10074SOL    HW231122   1.114   5.103   0.242
10075SOL     OW31123   2.303   1.502   2.196
10075SOL    HW131124   2.319   1.600   2.183
10075SOL    HW231125   2.368   1.466   2.264
10076SOL     OW31126   4.769   5.276   2.960
10076SOL    HW131127   4.843   5.212   2.945
10076SOL    HW231128   4.693   5.230   3.007
10077SOL     OW31129   5.865   3.117   0.074
10077SOL    HW131130   5.790   3.119   0.140
10077SOL    HW231131   5.950   3.145   0.120
10078SOL     OW31132   6.732   6.596   4.878
10078SOL    HW131133   6.812   6.652   4.857
10078SOL    HW231134   6.650   6.644   4.848
10079SOL     OW31135   5.470   2.806   3.626
10079SOL    HW131136   5.439   2.842   3.713
10079SOL    HW231137   5.479   2.706   3.632
10080SOL     OW31138   5.730   0.977   5.921
10080SOL    HW131139   5.786   0.995   6.002
10080SOL    HW231140   5.726   0.879   5.904
10081SOL     OW31141   1.382   1.474   6.342
10081SOL    HW131142   1.460   1.417   6.370
10081SOL    HW231143   1.334   1.428   6.268
10082SOL     OW31144   1.280   4.897   2.749
10082SOL    HW131145   1.348   4.891   2.822
10082SOL    HW231146   1.326   4.905   2.661
10083SOL     OW31147   3.624   5.269   3.603
10083SOL    HW131148   3.533   5.311   3.610
10083SOL    HW231149   3.666   5.265   3.694
10084SOL     OW31150   0.634   0.388   5.605
10084SOL    HW131151   0.566   0.459   5.623
10084SOL    HW231152   0.600   0.300   5.639
10085SOL     OW31153   4.131   6.539   0.201
10085SOL    HW131154   4.064   6.491   0.146
10085SOL    HW231155   4.102   6.634   0.213
10086SOL     OW31156   6.419   6.596   1.875
10086SOL    HW131157   6.395   6.580   1.779
10086SOL    HW231158   6.337   6.596   1.931
10087SOL     OW31159   0.482   6.761   4.329
10087SOL    HW131160   0.527   6.723   4.249
10087SOL    HW231161   0.412   6.826   4.301
10088SOL     OW31162   0.154   2.421   0.227
10088SOL    HW131163   0.087   2.454   0.294
10088SOL    HW231164   0.202   2.499   0.187
10089SOL     OW31165   4.166   1.694   2.246
10089SOL    HW131166   4.080   1.744   2.264
10089SOL    HW231167   4.240   1.760   2.234
10090SOL     OW31168   1.260   5.262   1.406
10090SOL    HW131169   1.288   5.226   1.317
10090SOL    HW231170   1.323   5.230   1.476
10091SOL     OW31171   6.597   5.568   6.041
10091SOL    HW131172   6.612   5.630   6.117
10091SOL    HW231173   6.682   5.519   6.020
10092SOL     OW31174   0.756   3.202   5.645
10092SOL    HW131175   0.675   3.196   5.586
10092SOL    HW231176   0.824   3.261   5.600
10093SOL     OW31177   5.110   3.468   5.828
10093SOL    HW131178   5.025   3.435   5.868
10093SOL    HW231179   5.162   3.520   5.896
10094SOL     OW31180   2.967   6.620   0.918
10094SOL    HW131181   2.884   6.576   0.952
10094SOL    HW231182   2.945   6.709   0.880
10095SOL     OW31183   5.043   2.578   4.898
10095SOL    HW131184   5.048   2.670   4.858
10095SOL    HW231185   5.121   2.524   4.865
10096SOL     OW31186   4.818   0.905   2.662
10096SOL    HW131187   4.874   0.906   2.579
10096SOL    HW231188   4.836   0.821   2.714
10097SOL     OW31189   2.126   1.714   5.654
10097SOL    HW131190   2.144   1.804   5.615
10097SOL    HW231191   2.142   1.644   5.584
10098SOL     OW31192   3.172   5.563   4.544
10098SOL    HW131193   3.105   5.544   4.616
10098SOL    HW231194   3.136   5.633   4.482
10099SOL     OW31195   6.324   4.021   1.582
10099SOL    HW131196   6.368   4.080   1.514
10099SOL    HW231197   6.394   3.972   1.634
10100SOL     OW31198   5.498   5.600   5.244
10100SOL    HW131199   5.464   5.510   5.216
10100SOL    HW231200   5.460   5.670   5.183
10101SOL     OW31201   0.358   2.600   1.446
10101SOL    HW131202   0.306   2.534   1.501
10101SOL    HW231203   0.440   2.556   1.410
10102SOL     OW31204   6.000   6.996   0.659
10102SOL    HW131205   5.938   6.961   0.588
10102SOL    HW231206   6.018   0.067   0.643
10103SOL     OW31207   0.726   0.266   5.884
10103SOL    HW131208   0.662   0.336   5.854
10103SOL    HW231209   0.802   0.310   5.933
10104SOL     OW31210   1.996   0.389   6.014
10104SOL    HW131211   1.924   0.417   6.077
10104SOL    HW231212   2.073   0.352   6.067
10105SOL     OW31213   3.015   1.470   5.866
10105SOL    HW131214   3.098   1.488   5.919
10105SOL    HW231215   3.009   1.536   5.791
10106SOL     OW31216   4.890   6.245   1.370
10106SOL    HW131217   4.881   6.317   1.300
10106SOL    HW231218   4.958   6.273   1.437
10107SOL     OW31219   5.286   5.013   6.337
10107SOL    HW131220   5.287   5.041   6.433
10107SOL    HW231221   5.216   5.064   6.288
10108SOL     OW31222   1.557   3.239   0.731
10108SOL    HW131223   1.558   3.302   0.653
10108SOL    HW231224   1.465   3.201   0.741
10109SOL     OW31225   0.607   1.231   0.057
10109SOL    HW131226   0.575   1.138   0.071
10109SOL    HW231227   0.662   1.235   6.999
10110SOL     OW31228   4.601   5.442   2.663
10110SOL    HW131229   4.664   5.485   2.727
10110SOL    HW231230   4.639   5.355   2.631
10111SOL     OW31231   1.432   1.976   2.028
10111SOL    HW131232   1.348   2.005   2.072
10111SOL    HW231233   1.475   1.903   2.081
10112SOL     OW31234   6.418   2.670   3.756
10112SOL    HW131235   6.337   2.682   3.699
10112SOL    HW231236   6.456   2.760   3.779
10113SOL     OW31237   5.215   1.014   6.851
10113SOL    HW131238   5.126   1.036   6.891
10113SOL    HW231239   5.215   0.918   6.822
10114SOL     OW31240   4.021   1.749   3.367
10114SOL    HW131241   3.971   1.742   3.453
10114SOL    HW231242   4.028   1.658   3.325
10115SOL     OW31243   3.299   1.200   4.728
10115SOL    HW131244   3.224   1.155   4.680
10115SOL    HW231245   3.289   1.299   4.722
10116SOL     OW31246   6.319   0.942   5.341
10116SOL    HW131247   6.375   0.964   5.262
10116SOL    HW231248   6.310   1.024   5.399
10117SOL     OW31249   6.397   5.574   5.045
10117SOL    HW131250   6.480   5.532   5.083
10117SOL    HW231251   6.342   5.611   5.120
10118SOL     OW31252   3.290   4.926   5.234
10118SOL    HW131253   3.210   4.891   5.185
10118SOL    HW231254   3.274   4.923   5.332
10119SOL     OW31255   0.386   4.801   4.371
10119SOL    HW131256   0.388   4.884   4.426
10119SOL    HW231257   0.291   4.775   4.352
10120SOL     OW31258   1.461   3.092   2.073
10120SOL    HW131259   1.383   3.118   2.016
10120SOL    HW231260   1.428   3.064   2.163
10121SOL     OW31261   6.285   4.471   1.009
10121SOL    HW131262   6.188   4.453   0.992
10121SOL    HW231263   6.319   4.408   1.079
10122SOL     OW31264   0.409   1.959   3.560
10122SOL    HW131265   0.459   1.912   3.487
10122SOL    HW231266   0.465   2.033   3.597
10123SOL     OW31267   5.631   5.957   1.341
10123SOL    HW131268   5.653   6.040   1.289
10123SOL    HW231269   5.539   5.926   1.316
10124SOL     OW31270   1.463   4.608   2.954
10124SOL    HW131271   1.454   4.560   3.041
10124SOL    HW231272   1.436   4.703   2.964
10125SOL     OW31273   1.577   2.080   0.232
10125SOL    HW131274   1.587   2.070   0.133
10125SOL    HW231275   1.667   2.095   0.273
10126SOL     OW31276   5.793   0.588   6.555
10126SOL    HW131277   5.887   0.602   6.524
10126SOL    HW231278   5.756   0.675   6.589
10127SOL     OW31279   1.961   4.764   5.702
10127SOL    HW131280   2.058   4.758   5.723
10127SOL    HW231281   1.934   4.860   5.694
10128SOL     OW31282   3.297   0.614   0.536
10128SOL    HW131283   3.211   0.564   0.528
10128SOL    HW231284   3.365   0.572   0.477
10129SOL     OW31285   6.253   1.570   3.722
10129SOL    HW131286   6.201   1.593   3.640
10129SOL    HW231287   6.351   1.583   3.704
10130SOL     OW31288   1.630   2.072   2.159
10130SOL    HW131289   1.581   2.088   2.245
10130SOL    HW231290   1.566   2.079   2.082
10131SOL     OW31291   1.948   0.509   4.421
10131SOL    HW131292   1.947   0.609   4.416
10131SOL    HW231293   1.894   0.471   4.345
10132SOL     OW31294   6.454   0.596   2.428
10132SOL    HW131295   6.387   0.671   2.420
10132SOL    HW231296   6.545   0.634   2.442
10133SOL     OW31297   4.674   5.809   1.125
10133SOL    HW131298   4.649   5.875   1.054
10133SOL    HW231299   4.592   5.782   1.175
10134SOL     OW31300   5.793   0.315   2.318
10134SOL    HW131301   5.857   0.390   2.331
10134SOL    HW231302   5.714   0.347   2.265
10135SOL     OW31303   5.649   0.087   3.470
10135SOL    HW131304   5.638   0.059   3.566
10135SOL    HW231305   5.623   0.011   3.410
10136SOL     OW31306   4.600   2.116   2.624
10136SOL    HW131307   4.556   2.042   2.572
10136SOL    HW231308   4.665   2.164   2.565
10137SOL     OW31309   0.229   5.935   5.721
10137SOL    HW131310   0.161   5.964   5.653
10137SOL    HW231311   0.243   5.836   5.714
10138SOL     OW31312   5.466   1.143   6.969
10138SOL    HW131313   5.451   1.225   6.913
10138SOL    HW231314   5.377   1.102   6.991
10139SOL     OW31315   3.485   3.504   5.346
10139SOL    HW131316   3.422   3.577   5.322
10139SOL    HW231317   3.574   3.543   5.369
10140SOL     OW31318   6.813   5.449   5.971
10140SOL    HW131319   6.907   5.480   5.990
10140SOL    HW231320   6.817   5.360   5.926
10141SOL     OW31321   3.077   1.664   4.090
10141SOL    HW131322   2.993   1.685   4.039
10141SOL    HW231323   3.054   1.651   4.187
10142SOL     OW31324   6.104   6.279   4.207
10142SOL    HW131325   6.067   6.314   4.121
10142SOL    HW231326   6.109   6.179   4.203
10143SOL     OW31327   5.793   3.321   0.595
10143SOL    HW131328   5.809   3.335   0.692
10143SOL    HW231329   5.821   3.229   0.569
10144SOL     OW31330   3.545   6.105   5.301
10144SOL    HW131331   3.586   6.157   5.226
10144SOL    HW231332   3.606   6.106   5.380
10145SOL     OW31333   5.290   5.998   0.814
10145SOL    HW131334   5.241   5.916   0.786
10145SOL    HW231335   5.348   6.030   0.739
10146SOL     OW31336   0.436   3.478   3.954
10146SOL    HW131337   0.378   3.499   3.875
10146SOL    HW231338   0.477   3.562   3.989
10147SOL     OW31339   4.421   5.870   6.366
10147SOL    HW131340   4.336   5.871   6.312
10147SOL    HW231341   4.401   5.844   6.460
10148SOL     OW31342   1.062   4.990   6.739
10148SOL    HW131343   1.113   5.061   6.691
10148SOL    HW231344   0.965   4.997   6.717
10149SOL     OW31345   4.558   4.513   0.927
10149SOL    HW131346   4.579   4.487   1.021
10149SOL    HW231347   4.521   4.606   0.925
10150SOL     OW31348   4.490   4.136   0.363
10150SOL    HW131349   4.394   4.163   0.370
10150SOL    HW231350   4.535   4.150   0.451
10151SOL     OW31351   6.618   0.470   5.483
10151SOL    HW131352   6.531   0.453   5.437
10151SOL    HW231353   6.608   0.546   5.547
10152SOL     OW31354   5.442   6.374   2.729
10152SOL    HW131355   5.442   6.304   2.801
10152SOL    HW231356   5.480   6.336   2.645
10153SOL     OW31357   5.815   4.694   4.105
10153SOL    HW131358   5.874   4.644   4.041
10153SOL    HW231359   5.720   4.689   4.073
10154SOL     OW31360   3.968   5.316   5.329
10154SOL    HW131361   3.958   5.232   5.382
10154SOL    HW231362   3.993   5.391   5.390
10155SOL     OW31363   4.515   1.938   5.852
10155SOL    HW131364   4.542   1.846   5.879
10155SOL    HW231365   4.463   1.980   5.927
10156SOL     OW31366   4.678   0.730   1.001
10156SOL    HW131367   4.709   0.715   0.907
10156SOL    HW231368   4.753   0.708   1.064
10157SOL     OW31369   0.142   2.843   1.227
10157SOL    HW131370   0.193   2.891   1.156
10157SOL    HW231371   0.164   2.882   1.317
10158SOL     OW31372   5.472   6.319   1.919
10158SOL    HW131373   5.451   6.292   1.825
10158SOL    HW231374   5.498   6.238   1.972
10159SOL     OW31375   3.522   3.390   3.176
10159SOL    HW131376   3.546   3.450   3.100
10159SOL    HW231377   3.527   3.441   3.262
10160SOL     OW31378   2.396   4.312   3.166
10160SOL    HW131379   2.400   4.213   3.169
10160SOL    HW231380   2.406   4.343   3.071
10161SOL     OW31381   4.224   4.782   6.296
10161SOL    HW131382   4.275   4.773   6.382
10161SOL    HW231383   4.130   4.750   6.310
10162SOL     OW31384   1.849   4.312   2.517
10162SOL    HW131385   1.802   4.298   2.430
10162SOL    HW231386   1.797   4.267   2.590
10163SOL     OW31387   1.316   6.336   5.217
10163SOL    HW131388   1.365   6.291   5.292
10163SOL    HW231389   1.370   6.329   5.133
10164SOL     OW31390   6.854   3.143   3.137
10164SOL    HW131391   6.924   3.089   3.090
10164SOL    HW231392   6.788   3.081   3.180
10165SOL     OW31393   6.288   3.320   4.212
10165SOL    HW131394   6.340   3.239   4.238
10165SOL    HW231395   6.334   3.367   4.136
10166SOL     OW31396   1.239   2.206   1.077
10166SOL    HW131397   1.259   2.183   1.173
10166SOL    HW231398   1.312   2.170   1.019
10167SOL     OW31399   0.698   6.535   6.702
10167SOL    HW131400   0.648   6.567   6.782
10167SOL    HW231401   0.667   6.443   6.678
10168SOL     OW31402   5.733   1.093   0.157
10168SOL    HW131403   5.641   1.132   0.161
10168SOL    HW231404   5.791   1.150   0.099
10169SOL     OW31405   6.796   3.610   3.258
10169SOL    HW131406   6.841   3.543   3.199
10169SOL    HW231407   6.865   3.663   3.307
10170SOL     OW31408   6.154   5.621   6.633
10170SOL    HW131409   6.065   5.606   6.677
10170SOL    HW231410   6.194   5.706   6.668
10171SOL     OW31411   1.618   2.965   5.276
10171SOL    HW131412   1.637   2.942   5.181
10171SOL    HW231413   1.654   3.056   5.296
10172SOL     OW31414   6.324   0.299   3.398
10172SOL    HW131415   6.231   0.316   3.366
10172SOL    HW231416   6.371   0.386   3.414
10173SOL     OW31417   3.437   5.193   0.194
10173SOL    HW131418   3.526   5.152   0.214
10173SOL    HW231419   3.450   5.283   0.153
10174SOL     OW31420   4.291   6.551   2.218
10174SOL    HW131421   4.236   6.557   2.302
10174SOL    HW231422   4.304   6.644   2.181
10175SOL     OW31423   0.033   2.157   3.794
10175SOL    HW131424   6.975   2.107   3.771
10175SOL    HW231425   0.010   2.238   3.847
10176SOL     OW31426   6.044   3.114   5.673
10176SOL    HW131427   6.038   3.213   5.687
10176SOL    HW231428   6.107   3.075   5.740
10177SOL     OW31429   2.021   0.396   1.701
10177SOL    HW131430   1.996   0.335   1.777
10177SOL    HW231431   2.110   0.437   1.720
10178SOL     OW31432   1.525   1.600   0.096
10178SOL    HW131433   1.620   1.595   0.064
10178SOL    HW231434   1.509   1.527   0.163
10179SOL     OW31435   6.873   4.222   1.158
10179SOL    HW131436   6.792   4.279   1.164
10179SOL    HW231437   6.954   4.280   1.150
10180SOL     OW31438   4.196   6.696   6.202
10180SOL    HW131439   4.176   6.667   6.296
10180SOL    HW231440   4.284   6.743   6.200
10181SOL     OW31441   6.814   3.799   1.326
10181SOL    HW131442   6.794   3.702   1.338
10181SOL    HW231443   6.841   3.816   1.232
10182SOL     OW31444   5.075   1.234   0.101
10182SOL    HW131445   5.136   1.235   0.180
10182SOL    HW231446   5.039   1.325   0.085
10183SOL     OW31447   6.364   1.982   6.023
10183SOL    HW131448   6.356   1.883   6.011
10183SOL    HW231449   6.291   2.014   6.083
10184SOL     OW31450   6.129   3.785   5.946
10184SOL    HW131451   6.151   3.735   5.862
10184SOL    HW231452   6.113   3.721   6.020
10185SOL     OW31453   3.964   5.767   2.342
10185SOL    HW131454   3.988   5.670   2.348
10185SOL    HW231455   4.040   5.822   2.378
10186SOL     OW31456   4.871   4.043   5.475
10186SOL    HW131457   4.895   4.119   5.536
10186SOL    HW231458   4.901   3.957   5.517
10187SOL     OW31459   2.668   4.819   6.087
10187SOL    HW131460   2.607   4.812   6.009
10187SOL    HW231461   2.745   4.879   6.064
10188SOL     OW31462   2.431   6.867   0.206
10188SOL    HW131463   2.444   6.877   0.107
10188SOL    HW231464   2.335   6.879   0.228
10189SOL     OW31465   1.216   1.355   6.178
10189SOL    HW131466   1.180   1.264   6.158
10189SOL    HW231467   1.140   1.420   6.180
10190SOL     OW31468   3.117   4.736   1.312
10190SOL    HW131469   3.196   4.729   1.373
10190SOL    HW231470   3.033   4.730   1.366
10191SOL     OW31471   5.872   5.768   6.854
10191SOL    HW131472   5.820   5.822   6.788
10191SOL    HW231473   5.870   5.671   6.827
10192SOL     OW31474   2.304   1.727   5.090
10192SOL    HW131475   2.244   1.686   5.022
10192SOL    HW231476   2.297   1.826   5.086
10193SOL     OW31477   3.969   3.755   2.992
10193SOL    HW131478   3.975   3.789   3.086
10193SOL    HW231479   3.913   3.817   2.937
10194SOL     OW31480   3.799   0.034   4.610
10194SOL    HW131481   3.873   0.075   4.556
10194SOL    HW231482   3.751   0.106   4.661
10195SOL     OW31483   5.147   0.076   2.073
10195SOL    HW131484   5.134   7.014   2.027
10195SOL    HW231485   5.123   0.150   2.010
10196SOL     OW31486   5.714   1.412   2.873
10196SOL    HW131487   5.800   1.363   2.886
10196SOL    HW231488   5.687   1.456   2.958
10197SOL     OW31489   6.370   0.179   2.683
10197SOL    HW131490   6.276   0.207   2.662
10197SOL    HW231491   6.414   0.248   2.741
10198SOL     OW31492   3.254   6.503   1.702
10198SOL    HW131493   3.199   6.560   1.763
10198SOL    HW231494   3.302   6.562   1.637
10199SOL     OW31495   1.021   1.850   6.570
10199SOL    HW131496   1.061   1.795   6.643
10199SOL    HW231497   1.056   1.943   6.575
10200SOL     OW31498   4.993   4.403   5.357
10200SOL    HW131499   4.948   4.364   5.277
10200SOL    HW231500   5.092   4.392   5.348
10201SOL     OW31501   0.977   5.218   2.253
10201SOL    HW131502   0.908   5.151   2.226
10201SOL    HW231503   0.998   5.278   2.176
10202SOL     OW31504   0.677   4.077   1.765
10202SOL    HW131505   0.688   4.000   1.827
10202SOL    HW231506   0.760   4.086   1.709
10203SOL     OW31507   2.089   3.077   2.201
10203SOL    HW131508   2.123   3.091   2.294
10203SOL    HW231509   2.151   3.017   2.151
10204SOL     OW31510   3.098   4.822   5.474
10204SOL    HW131511   3.032   4.755   5.508
10204SOL    HW231512   3.050   4.901   5.436
10205SOL     OW31513   5.852   1.772   3.721
10205SOL    HW131514   5.890   1.774   3.628
10205SOL    HW231515   5.926   1.758   3.787
10206SOL     OW31516   5.715   6.673   6.391
10206SOL    HW131517   5.712   6.773   6.385
10206SOL    HW231518   5.700   6.634   6.300
10207SOL     OW31519   2.663   0.395   2.778
10207SOL    HW131520   2.661   0.428   2.684
10207SOL    HW231521   2.574   0.355   2.802
10208SOL     OW31522   5.882   5.080   5.243
10208SOL    HW131523   5.790   5.041   5.252
10208SOL    HW231524   5.886   5.166   5.293
10209SOL     OW31525   6.997   1.005   6.408
10209SOL    HW131526   0.068   0.994   6.384
10209SOL    HW231527   6.941   0.984   6.328
10210SOL     OW31528   5.629   6.835   2.320
10210SOL    HW131529   5.583   6.914   2.278
10210SOL    HW231530   5.606   6.832   2.417
10211SOL     OW31531   3.977   6.622   5.438
10211SOL    HW131532   3.931   6.651   5.522
10211SOL    HW231533   3.926   6.546   5.397
10212SOL     OW31534   0.493   1.159   3.918
10212SOL    HW131535   0.505   1.242   3.973
10212SOL    HW231536   0.414   1.170   3.858
10213SOL     OW31537   5.926   1.761   3.064
10213SOL    HW131538   5.984   1.830   3.108
10213SOL    HW231539   5.957   1.670   3.091
10214SOL     OW31540   6.306   0.807   2.306
10214SOL    HW131541   6.331   0.735   2.240
10214SOL    HW231542   6.218   0.846   2.281
10215SOL     OW31543   3.922   3.512   5.951
10215SOL    HW131544   3.837   3.479   5.910
10215SOL    HW231545   3.907   3.536   6.047
10216SOL     OW31546   6.301   6.906   1.097
10216SOL    HW131547   6.204   6.907   1.073
10216SOL    HW231548   6.336   7.000   1.096
10217SOL     OW31549   3.042   2.201   3.969
10217SOL    HW131550   2.970   2.261   4.002
10217SOL    HW231551   3.074   2.142   4.044
10218SOL     OW31552   1.814   0.882   1.393
10218SOL    HW131553   1.843   0.809   1.454
10218SOL    HW231554   1.715   0.894   1.400
10219SOL     OW31555   0.659   1.893   2.200
10219SOL    HW131556   0.680   1.921   2.107
10219SOL    HW231557   0.579   1.942   2.233
10220SOL     OW31558   4.071   1.937   1.751
10220SOL    HW131559   4.099   1.889   1.835
10220SOL    HW231560   4.036   2.027   1.775
10221SOL     OW31561   2.990   0.597   5.016
10221SOL    HW131562   2.954   0.580   5.108
10221SOL    HW231563   3.018   0.692   5.008
10222SOL     OW31564   1.301   4.266   5.267
10222SOL    HW131565   1.367   4.297   5.335
10222SOL    HW231566   1.346   4.204   5.202
10223SOL     OW31567   1.733   5.029   6.922
10223SOL    HW131568   1.673   5.108   6.916
10223SOL    HW231569   1.693   4.953   6.869
10224SOL     OW31570   0.847   0.401   4.107
10224SOL    HW131571   0.934   0.429   4.148
10224SOL    HW231572   0.772   0.435   4.163
10225SOL     OW31573   0.316   6.002   4.402
10225SOL    HW131574   0.398   6.044   4.362
10225SOL    HW231575   0.286   6.057   4.480
10226SOL     OW31576   2.687   1.203   6.932
10226SOL    HW131577   2.654   1.188   7.025
10226SOL    HW231578   2.767   1.263   6.934
10227SOL     OW31579   4.717   4.543   0.272
10227SOL    HW131580   4.676   4.519   0.360
10227SOL    HW231581   4.684   4.479   0.202
10228SOL     OW31582   0.417   5.455   2.606
10228SOL    HW131583   0.361   5.445   2.524
10228SOL    HW231584   0.462   5.368   2.626
10229SOL     OW31585   0.686   0.392   3.453
10229SOL    HW131586   0.717   0.298   3.438
10229SOL    HW231587   0.765   0.453   3.457
10230SOL     OW31588   6.239   0.080   3.610
10230SOL    HW131589   6.186   0.008   3.566
10230SOL    HW231590   6.285   0.135   3.539
10231SOL     OW31591   5.974   6.980   4.783
10231SOL    HW131592   6.062   7.022   4.806
10231SOL    HW231593   5.923   6.964   4.867
10232SOL     OW31594   3.557   0.989   4.152
10232SOL    HW131595   3.525   1.081   4.176
10232SOL    HW231596   3.654   0.993   4.128
10233SOL     OW31597   4.128   2.915   6.079
10233SOL    HW131598   4.201   2.937   6.144
10233SOL    HW231599   4.058   2.860   6.125
10234SOL     OW31600   5.030   0.348   0.913
10234SOL    HW131601   4.994   0.275   0.855
10234SOL    HW231602   5.126   0.365   0.890
10235SOL     OW31603   4.642   1.162   0.389
10235SOL    HW131604   4.679   1.202   0.305
10235SOL    HW231605   4.577   1.225   0.431
10236SOL     OW31606   2.179   6.239   1.265
10236SOL    HW131607   2.276   6.242   1.287
10236SOL    HW231608   2.167   6.224   1.167
10237SOL     OW31609   6.336   4.353   1.734
10237SOL    HW131610   6.412   4.330   1.674
10237SOL    HW231611   6.366   4.420   1.802
10238SOL     OW31612   3.828   4.637   5.337
10238SOL    HW131613   3.751   4.573   5.334
10238SOL    HW231614   3.913   4.587   5.319
10239SOL     OW31615   0.531   4.431   5.298
10239SOL    HW131616   0.566   4.355   5.243
10239SOL    HW231617   0.522   4.513   5.241
10240SOL     OW31618   0.989   4.430   2.963
10240SOL    HW131619   1.082   4.422   2.926
10240SOL    HW231620   0.923   4.402   2.894
10241SOL     OW31621   0.364   1.277   2.112
10241SOL    HW131622   0.288   1.297   2.051
10241SOL    HW231623   0.438   1.235   2.061
10242SOL     OW31624   0.346   1.452   5.742
10242SOL    HW131625   0.359   1.357   5.712
10242SOL    HW231626   0.248   1.472   5.745
10243SOL     OW31627   0.278   5.447   1.397
10243SOL    HW131628   0.287   5.400   1.309
10243SOL    HW231629   0.354   5.422   1.457
10244SOL     OW31630   2.319   4.847   6.846
10244SOL    HW131631   2.366   4.935   6.838
10244SOL    HW231632   2.370   4.777   6.796
10245SOL     OW31633   1.890   3.111   6.850
10245SOL    HW131634   1.917   3.016   6.834
10245SOL    HW231635   1.822   3.115   6.923
10246SOL     OW31636   3.018   3.988   4.421
10246SOL    HW131637   3.103   4.038   4.401
10246SOL    HW231638   2.954   4.000   4.345
10247SOL     OW31639   0.530   5.665   5.863
10247SOL    HW131640   0.460   5.719   5.910
10247SOL    HW231641   0.489   5.620   5.783
10248SOL     OW31642   3.332   0.198   2.164
10248SOL    HW131643   3.318   0.285   2.211
10248SOL    HW231644   3.246   0.146   2.163
10249SOL     OW31645   3.954   0.582   5.470
10249SOL    HW131646   3.951   0.519   5.547
10249SOL    HW231647   4.016   0.658   5.491
10250SOL     OW31648   6.438   1.034   1.581
10250SOL    HW131649   6.493   1.096   1.637
10250SOL    HW231650   6.497   0.989   1.513
10251SOL     OW31651   2.724   2.822   6.230
10251SOL    HW131652   2.732   2.832   6.131
10251SOL    HW231653   2.642   2.767   6.251
10252SOL     OW31654   6.082   6.617   0.891
10252SOL    HW131655   6.122   6.526   0.896
10252SOL    HW231656   5.985   6.610   0.869
10253SOL     OW31657   4.898   4.848   0.452
10253SOL    HW131658   4.922   4.945   0.440
10253SOL    HW231659   4.850   4.816   0.370
10254SOL     OW31660   3.139   1.825   4.838
10254SOL    HW131661   3.150   1.815   4.937
10254SOL    HW231662   3.126   1.921   4.815
10255SOL     OW31663   2.094   6.415   1.743
10255SOL    HW131664   2.062   6.377   1.830
10255SOL    HW231665   2.093   6.515   1.748
10256SOL     OW31666   5.135   0.106   0.501
10256SOL    HW131667   5.194   0.187   0.509
10256SOL    HW231668   5.041   0.131   0.525
10257SOL     OW31669   1.193   4.973   5.430
10257SOL    HW131670   1.169   5.002   5.523
10257SOL    HW231671   1.186   4.873   5.423
10258SOL     OW31672   4.958   6.178   3.625
10258SOL    HW131673   4.907   6.242   3.568
10258SOL    HW231674   5.025   6.227   3.680
10259SOL     OW31675   0.155   4.973   3.861
10259SOL    HW131676   0.102   5.015   3.935
10259SOL    HW231677   0.210   5.043   3.815
10260SOL     OW31678   0.449   6.215   2.983
10260SOL    HW131679   0.544   6.240   3.005
10260SOL    HW231680   0.448   6.153   2.905
10261SOL     OW31681   6.777   6.203   2.458
10261SOL    HW131682   6.834   6.265   2.405
10261SOL    HW231683   6.800   6.108   2.437
10262SOL     OW31684   3.338   5.052   4.354
10262SOL    HW131685   3.416   5.033   4.293
10262SOL    HW231686   3.344   5.146   4.387
10263SOL     OW31687   5.195   2.277   0.081
10263SOL    HW131688   5.247   2.281   0.166
10263SOL    HW231689   5.255   2.297   0.004
10264SOL     OW31690   5.807   1.496   6.583
10264SOL    HW131691   5.795   1.443   6.500
10264SOL    HW231692   5.753   1.456   6.657
10265SOL     OW31693   3.168   1.694   3.119
10265SOL    HW131694   3.173   1.762   3.193
10265SOL    HW231695   3.260   1.658   3.101
10266SOL     OW31696   4.074   3.871   6.458
10266SOL    HW131697   4.143   3.844   6.392
10266SOL    HW231698   4.074   3.971   6.469
10267SOL     OW31699   6.804   2.119   0.300
10267SOL    HW131700   6.727   2.059   0.277
10267SOL    HW231701   6.773   2.214   0.304
10268SOL     OW31702   5.649   6.193   1.544
10268SOL    HW131703   5.739   6.150   1.546
10268SOL    HW231704   5.644   6.259   1.469
10269SOL     OW31705   2.496   2.039   5.553
10269SOL    HW131706   2.519   2.132   5.525
10269SOL    HW231707   2.509   1.977   5.476
10270SOL     OW31708   1.865   6.051   0.390
10270SOL    HW131709   1.886   6.059   0.487
10270SOL    HW231710   1.890   5.959   0.359
10271SOL     OW31711   3.374   3.547   0.638
10271SOL    HW131712   3.307   3.591   0.578
10271SOL    HW231713   3.380   3.450   0.616
10272SOL     OW31714   1.223   1.151   4.102
10272SOL    HW131715   1.224   1.251   4.100
10272SOL    HW231716   1.168   1.117   4.025
10273SOL     OW31717   3.414   5.468   4.119
10273SOL    HW131718   3.366   5.412   4.052
10273SOL    HW231719   3.499   5.503   4.079
10274SOL     OW31720   1.139   5.189   5.628
10274SOL    HW131721   1.081   5.161   5.705
10274SOL    HW231722   1.235   5.175   5.652
10275SOL     OW31723   0.954   6.220   3.140
10275SOL    HW131724   0.959   6.121   3.150
10275SOL    HW231725   0.908   6.259   3.220
10276SOL     OW31726   6.740   5.651   5.770
10276SOL    HW131727   6.761   5.580   5.837
10276SOL    HW231728   6.675   5.617   5.703
10277SOL     OW31729   2.857   6.325   3.879
10277SOL    HW131730   2.901   6.409   3.847
10277SOL    HW231731   2.760   6.342   3.897
10278SOL     OW31732   6.841   1.421   6.191
10278SOL    HW131733   6.755   1.370   6.193
10278SOL    HW231734   6.914   1.364   6.229
10279SOL     OW31735   3.329   0.002   4.043
10279SOL    HW131736   3.368   7.001   3.954
10279SOL    HW231737   3.403   0.027   4.106
10280SOL     OW31738   2.173   4.779   0.594
10280SOL    HW131739   2.095   4.837   0.574
10280SOL    HW231740   2.150   4.714   0.667
10281SOL     OW31741   4.896   1.383   2.846
10281SOL    HW131742   4.815   1.394   2.788
10281SOL    HW231743   4.873   1.329   2.926
10282SOL     OW31744   0.116   2.782   3.613
10282SOL    HW131745   0.114   2.822   3.705
10282SOL    HW231746   0.022   2.774   3.578
10283SOL     OW31747   0.969   3.343   1.064
10283SOL    HW131748   1.020   3.380   0.985
10283SOL    HW231749   0.876   3.377   1.062
10284SOL     OW31750   5.302   3.668   4.832
10284SOL    HW131751   5.357   3.612   4.769
10284SOL    HW231752   5.222   3.703   4.784
10285SOL     OW31753   4.945   0.292   1.539
10285SOL    HW131754   5.039   0.308   1.569
10285SOL    HW231755   4.946   0.244   1.451
10286SOL     OW31756   3.859   1.553   2.523
10286SOL    HW131757   3.936   1.591   2.473
10286SOL    HW231758   3.891   1.481   2.584
10287SOL     OW31759   1.446   6.517   2.198
10287SOL    HW131760   1.524   6.503   2.137
10287SOL    HW231761   1.471   6.492   2.291
10288SOL     OW31762   5.048   5.731   3.195
10288SOL    HW131763   5.010   5.642   3.170
10288SOL    HW231764   5.053   5.789   3.114
10289SOL     OW31765   2.885   1.106   1.668
10289SOL    HW131766   2.950   1.030   1.671
10289SOL    HW231767   2.846   1.121   1.758
10290SOL     OW31768   3.890   3.960   2.766
10290SOL    HW131769   3.815   3.950   2.700
10290SOL    HW231770   3.973   3.920   2.727
10291SOL     OW31771   3.861   0.866   3.609
10291SOL    HW131772   3.794   0.901   3.543
10291SOL    HW231773   3.857   0.920   3.693
10292SOL     OW31774   0.479   2.263   4.997
10292SOL    HW131775   0.554   2.248   4.933
10292SOL    HW231776   0.485   2.197   5.072
10293SOL     OW31777   1.473   6.053   2.970
10293SOL    HW131778   1.483   6.152   2.958
10293SOL    HW231779   1.423   6.035   3.055
10294SOL     OW31780   4.730   2.414   2.649
10294SOL    HW131781   4.674   2.439   2.570
10294SOL    HW231782   4.726   2.487   2.717
10295SOL     OW31783   6.474   4.630   5.430
10295SOL    HW131784   6.479   4.674   5.520
10295SOL    HW231785   6.502   4.534   5.438
10296SOL     OW31786   6.065   4.246   6.131
10296SOL    HW131787   6.001   4.302   6.184
10296SOL    HW231788   6.113   4.183   6.192
10297SOL     OW31789   2.862   6.929   4.454
10297SOL    HW131790   2.886   6.847   4.401
10297SOL    HW231791   2.932   6.944   4.524
10298SOL     OW31792   4.948   4.105   3.242
10298SOL    HW131793   4.989   4.065   3.324
10298SOL    HW231794   4.854   4.132   3.261
10299SOL     OW31795   4.720   4.087   3.396
10299SOL    HW131796   4.678   4.166   3.442
10299SOL    HW231797   4.682   4.079   3.304
10300SOL     OW31798   1.484   3.387   1.810
10300SOL    HW131799   1.391   3.368   1.777
10300SOL    HW231800   1.516   3.473   1.770
10301SOL     OW31801   6.043   1.482   3.871
10301SOL    HW131802   6.095   1.473   3.955
10301SOL    HW231803   6.103   1.516   3.798
10302SOL     OW31804   1.200   6.383   2.597
10302SOL    HW131805   1.237   6.307   2.543
10302SOL    HW231806   1.131   6.348   2.660
10303SOL     OW31807   3.570   3.470   1.468
10303SOL    HW131808   3.508   3.548   1.459
10303SOL    HW231809   3.517   3.387   1.482
10304SOL     OW31810   6.333   0.092   3.997
10304SOL    HW131811   6.355   7.025   3.967
10304SOL    HW231812   6.252   0.090   4.056
10305SOL     OW31813   1.615   5.763   0.055
10305SOL    HW131814   1.650   5.753   0.148
10305SOL    HW231815   1.654   5.845   0.013
10306SOL     OW31816   4.547   5.682   0.007
10306SOL    HW131817   4.563   5.743   6.954
10306SOL    HW231818   4.616   5.609   0.007
10307SOL     OW31819   1.389   1.023   5.478
10307SOL    HW131820   1.388   0.965   5.560
10307SOL    HW231821   1.406   0.967   5.397
10308SOL     OW31822   3.194   5.118   3.362
10308SOL    HW131823   3.255   5.138   3.286
10308SOL    HW231824   3.100   5.109   3.328
10309SOL     OW31825   5.832   6.276   3.507
10309SOL    HW131826   5.795   6.322   3.426
10309SOL    HW231827   5.857   6.345   3.575
10310SOL     OW31828   3.201   3.743   2.153
10310SOL    HW131829   3.162   3.683   2.082
10310SOL    HW231830   3.203   3.694   2.240
10311SOL     OW31831   0.619   5.933   0.738
10311SOL    HW131832   0.570   6.019   0.749
10311SOL    HW231833   0.648   5.899   0.828
10312SOL     OW31834   3.625   4.761   0.745
10312SOL    HW131835   3.530   4.729   0.751
10312SOL    HW231836   3.634   4.846   0.796
10313SOL     OW31837   4.765   0.122   2.340
10313SOL    HW131838   4.749   0.178   2.421
10313SOL    HW231839   4.862   0.126   2.316
10314SOL     OW31840   6.560   0.207   0.517
10314SOL    HW131841   6.582   0.297   0.556
10314SOL    HW231842   6.517   0.151   0.587
10315SOL     OW31843   6.357   6.083   5.448
10315SOL    HW131844   6.405   6.079   5.361
10315SOL    HW231845   6.410   6.033   5.517
10316SOL     OW31846   0.253   3.838   4.999
10316SOL    HW131847   0.307   3.785   4.934
10316SOL    HW231848   0.303   3.846   5.085
10317SOL     OW31849   3.923   5.047   6.374
10317SOL    HW131850   3.993   5.081   6.311
10317SOL    HW231851   3.871   4.974   6.330
10318SOL     OW31852   6.678   5.047   1.221
10318SOL    HW131853   6.579   5.061   1.221
10318SOL    HW231854   6.718   5.099   1.146
10319SOL     OW31855   0.614   4.301   3.681
10319SOL    HW131856   0.531   4.261   3.718
10319SOL    HW231857   0.627   4.269   3.587
10320SOL     OW31858   0.852   6.779   1.078
10320SOL    HW131859   0.842   6.803   0.982
10320SOL    HW231860   0.913   6.844   1.123
10321SOL     OW31861   4.581   6.087   4.566
10321SOL    HW131862   4.496   6.039   4.543
10321SOL    HW231863   4.612   6.139   4.486
10322SOL     OW31864   6.368   5.307   0.806
10322SOL    HW131865   6.452   5.314   0.860
10322SOL    HW231866   6.367   5.379   0.737
10323SOL     OW31867   6.444   3.378   6.005
10323SOL    HW131868   6.499   3.346   6.082
10323SOL    HW231869   6.431   3.477   6.012
10324SOL     OW31870   3.163   3.018   3.728
10324SOL    HW131871   3.214   2.933   3.722
10324SOL    HW231872   3.173   3.069   3.642
10325SOL     OW31873   6.323   3.686   3.255
10325SOL    HW131874   6.417   3.684   3.223
10325SOL    HW231875   6.301   3.600   3.300
10326SOL     OW31876   5.135   3.223   0.309
10326SOL    HW131877   5.063   3.286   0.339
10326SOL    HW231878   5.203   3.274   0.256
10327SOL     OW31879   1.252   1.015   3.222
10327SOL    HW131880   1.348   1.026   3.199
10327SOL    HW231881   1.208   1.105   3.227
10328SOL     OW31882   5.679   3.856   2.262
10328SOL    HW131883   5.742   3.779   2.267
10328SOL    HW231884   5.721   3.937   2.303
10329SOL     OW31885   3.179   0.505   2.817
10329SOL    HW131886   3.082   0.482   2.813
10329SOL    HW231887   3.204   0.557   2.735
10330SOL     OW31888   3.597   5.529   2.674
10330SOL    HW131889   3.592   5.449   2.615
10330SOL    HW231890   3.551   5.606   2.630
10331SOL     OW31891   5.574   0.644   3.535
10331SOL    HW131892   5.529   0.734   3.531
10331SOL    HW231893   5.603   0.625   3.628
10332SOL     OW31894   0.154   1.968   0.919
10332SOL    HW131895   0.245   1.944   0.952
10332SOL    HW231896   0.111   1.888   0.878
10333SOL     OW31897   5.749   5.120   4.544
10333SOL    HW131898   5.800   5.185   4.488
10333SOL    HW231899   5.740   5.156   4.637
10334SOL     OW31900   2.123   4.830   4.284
10334SOL    HW131901   2.180   4.790   4.213
10334SOL    HW231902   2.167   4.819   4.373
10335SOL     OW31903   2.192   5.666   6.864
10335SOL    HW131904   2.151   5.575   6.867
10335SOL    HW231905   2.128   5.733   6.901
10336SOL     OW31906   4.377   0.019   1.968
10336SOL    HW131907   4.390   0.002   1.871
10336SOL    HW231908   4.457   0.066   2.005
10337SOL     OW31909   0.328   5.318   4.740
10337SOL    HW131910   0.411   5.284   4.696
10337SOL    HW231911   0.260   5.341   4.670
10338SOL     OW31912   3.001   6.922   1.961
10338SOL    HW131913   3.092   6.895   1.930
10338SOL    HW231914   2.950   6.961   1.884
10339SOL     OW31915   3.270   6.008   0.994
10339SOL    HW131916   3.368   6.027   0.998
10339SOL    HW231917   3.226   6.041   1.077
10340SOL     OW31918   2.370   6.116   6.766
10340SOL    HW131919   2.284   6.159   6.736
10340SOL    HW231920   2.430   6.186   6.804
10341SOL     OW31921   2.321   2.227   2.353
10341SOL    HW131922   2.340   2.193   2.261
10341SOL    HW231923   2.244   2.177   2.392
10342SOL     OW31924   2.612   0.124   5.541
10342SOL    HW131925   2.574   0.216   5.529
10342SOL    HW231926   2.632   0.084   5.452
10343SOL     OW31927   2.493   3.882   6.055
10343SOL    HW131928   2.591   3.903   6.057
10343SOL    HW231929   2.467   3.853   5.963
10344SOL     OW31930   4.197   3.664   5.024
10344SOL    HW131931   4.155   3.644   4.935
10344SOL    HW231932   4.293   3.636   5.021
10345SOL     OW31933   2.419   1.319   0.060
10345SOL    HW131934   2.338   1.325   0.002
10345SOL    HW231935   2.390   1.314   0.156
10346SOL     OW31936   4.906   6.990   0.018
10346SOL    HW131937   4.999   6.956   0.002
10346SOL    HW231938   4.910   0.060   0.048
10347SOL     OW31939   5.693   2.047   1.266
10347SOL    HW131940   5.676   2.014   1.173
10347SOL    HW231941   5.674   1.975   1.332
10348SOL     OW31942   6.099   1.191   6.719
10348SOL    HW131943   6.138   1.171   6.629
10348SOL    HW231944   6.028   1.124   6.740
10349SOL     OW31945   6.572   1.118   1.212
10349SOL    HW131946   6.613   1.096   1.300
10349SOL    HW231947   6.497   1.055   1.193
10350SOL     OW31948   3.451   5.869   4.395
10350SOL    HW131949   3.480   5.807   4.468
10350SOL    HW231950   3.352   5.862   4.384
10351SOL     OW31951   5.888   5.680   4.957
10351SOL    HW131952   5.978   5.723   4.962
10351SOL    HW231953   5.857   5.681   4.862
10352SOL     OW31954   5.377   1.501   0.017
10352SOL    HW131955   5.460   1.555   7.026
10352SOL    HW231956   5.300   1.563   0.036
10353SOL     OW31957   0.525   3.060   2.925
10353SOL    HW131958   0.466   3.102   2.856
10353SOL    HW231959   0.480   3.066   3.014
10354SOL     OW31960   0.253   3.604   0.463
10354SOL    HW131961   0.289   3.695   0.481
10354SOL    HW231962   0.169   3.611   0.408
10355SOL     OW31963   1.107   0.907   0.911
10355SOL    HW131964   1.045   0.848   0.857
10355SOL    HW231965   1.083   0.900   1.008
10356SOL     OW31966   6.781   3.325   0.021
10356SOL    HW131967   6.818   3.275   0.100
10356SOL    HW231968   6.711   3.389   0.053
10357SOL     OW31969   1.596   2.734   6.587
10357SOL    HW131970   1.575   2.643   6.624
10357SOL    HW231971   1.663   2.725   6.513
10358SOL     OW31972   1.447   2.499   2.680
10358SOL    HW131973   1.431   2.591   2.642
10358SOL    HW231974   1.433   2.501   2.779
10359SOL     OW31975   5.222   2.121   2.885
10359SOL    HW131976   5.175   2.190   2.830
10359SOL    HW231977   5.195   2.129   2.981
10360SOL     OW31978   5.469   5.386   3.049
10360SOL    HW131979   5.484   5.451   2.974
10360SOL    HW231980   5.414   5.430   3.121
10361SOL     OW31981   1.686   1.360   1.459
10361SOL    HW131982   1.685   1.288   1.389
10361SOL    HW231983   1.593   1.392   1.476
10362SOL     OW31984   0.745   4.944   1.743
10362SOL    HW131985   0.650   4.969   1.764
10362SOL    HW231986   0.781   5.005   1.673
10363SOL     OW31987   4.880   3.000   0.699
10363SOL    HW131988   4.808   2.945   0.655
10363SOL    HW231989   4.952   3.019   0.633
10364SOL     OW31990   4.618   5.292   1.596
10364SOL    HW131991   4.611   5.200   1.635
10364SOL    HW231992   4.662   5.287   1.506
10365SOL     OW31993   5.936   4.991   0.810
10365SOL    HW131994   5.969   5.028   0.897
10365SOL    HW231995   5.898   4.900   0.824
10366SOL     OW31996   3.845   6.613   2.898
10366SOL    HW131997   3.938   6.595   2.867
10366SOL    HW231998   3.830   6.568   2.986
10367SOL     OW31999   6.454   1.472   1.353
10367SOL    HW132000   6.464   1.448   1.257
10367SOL    HW232001   6.452   1.388   1.408
10368SOL     OW32002   1.943   0.364   2.254
10368SOL    HW132003   1.867   0.399   2.199
10368SOL    HW232004   1.947   0.264   2.244
10369SOL     OW32005   3.268   6.198   5.015
10369SOL    HW132006   3.177   6.177   5.049
10369SOL    HW232007   3.264   6.281   4.958
10370SOL     OW32008   0.155   2.163   4.384
10370SOL    HW132009   0.154   2.251   4.338
10370SOL    HW232010   0.129   2.175   4.480
10371SOL     OW32011   3.787   6.124   3.636
10371SOL    HW132012   3.869   6.123   3.579
10371SOL    HW232013   3.723   6.192   3.602
10372SOL     OW32014   2.959   0.567   1.526
10372SOL    HW132015   3.011   0.573   1.441
10372SOL    HW232016   3.010   0.514   1.593
10373SOL     OW32017   6.946   1.065   5.479
10373SOL    HW132018   7.015   1.087   5.410
10373SOL    HW232019   6.860   1.041   5.433
10374SOL     OW32020   3.309   6.897   4.535
10374SOL    HW132021   3.378   6.964   4.507
10374SOL    HW232022   3.259   6.866   4.454
10375SOL     OW32023   3.555   2.932   6.748
10375SOL    HW132024   3.608   2.863   6.798
10375SOL    HW232025   3.592   3.023   6.769
10376SOL     OW32026   1.234   6.025   3.602
10376SOL    HW132027   1.259   6.117   3.571
10376SOL    HW232028   1.184   5.978   3.529
10377SOL     OW32029   0.482   1.485   1.276
10377SOL    HW132030   0.487   1.480   1.376
10377SOL    HW232031   0.565   1.447   1.237
10378SOL     OW32032   0.288   5.576   4.909
10378SOL    HW132033   0.206   5.624   4.941
10378SOL    HW232034   0.261   5.504   4.845
10379SOL     OW32035   2.322   6.562   3.846
10379SOL    HW132036   2.333   6.465   3.825
10379SOL    HW232037   2.316   6.574   3.945
10380SOL     OW32038   1.577   2.539   4.491
10380SOL    HW132039   1.613   2.618   4.441
10380SOL    HW232040   1.601   2.549   4.588
10381SOL     OW32041   4.237   4.618   1.582
10381SOL    HW132042   4.269   4.545   1.643
10381SOL    HW232043   4.280   4.704   1.607
10382SOL     OW32044   3.028   5.008   2.135
10382SOL    HW132045   3.037   5.067   2.055
10382SOL    HW232046   3.110   4.952   2.144
10383SOL     OW32047   1.499   4.866   0.223
10383SOL    HW132048   1.538   4.919   0.298
10383SOL    HW232049   1.571   4.810   0.181
10384SOL     OW32050   6.232   6.124   1.093
10384SOL    HW132051   6.315   6.115   1.148
10384SOL    HW232052   6.235   6.060   1.017
10385SOL     OW32053   3.512   5.098   6.282
10385SOL    HW132054   3.417   5.127   6.293
10385SOL    HW232055   3.551   5.076   6.371
10386SOL     OW32056   0.001   1.300   6.366
10386SOL    HW132057   0.068   1.342   6.427
10386SOL    HW232058   0.022   1.202   6.356
10387SOL     OW32059   5.070   2.655   3.414
10387SOL    HW132060   5.131   2.576   3.421
10387SOL    HW232061   4.982   2.625   3.378
10388SOL     OW32062   2.926   0.415   6.079
10388SOL    HW132063   2.916   0.515   6.083
10388SOL    HW232064   2.899   0.376   6.167
10389SOL     OW32065   6.487   3.920   0.144
10389SOL    HW132066   6.562   3.863   0.179
10389SOL    HW232067   6.401   3.870   0.151
10390SOL     OW32068   1.849   1.980   0.830
10390SOL    HW132069   1.773   2.042   0.851
10390SOL    HW232070   1.930   2.034   0.807
10391SOL     OW32071   0.837   5.972   3.660
10391SOL    HW132072   0.856   6.069   3.651
10391SOL    HW232073   0.833   5.930   3.569
10392SOL     OW32074   6.606   5.179   5.229
10392SOL    HW132075   6.571   5.120   5.156
10392SOL    HW232076   6.543   5.178   5.306
10393SOL     OW32077   2.162   3.285   4.286
10393SOL    HW132078   2.147   3.214   4.217
10393SOL    HW232079   2.216   3.360   4.247
10394SOL     OW32080   2.592   5.938   3.940
10394SOL    HW132081   2.611   5.865   3.874
10394SOL    HW232082   2.527   6.003   3.900
10395SOL     OW32083   0.255   6.476   1.450
10395SOL    HW132084   0.301   6.388   1.459
10395SOL    HW232085   0.243   6.498   1.353
10396SOL     OW32086   3.911   1.720   4.365
10396SOL    HW132087   3.818   1.739   4.394
10396SOL    HW232088   3.933   1.775   4.285
10397SOL     OW32089   3.488   1.882   2.836
10397SOL    HW132090   3.523   1.799   2.793
10397SOL    HW232091   3.389   1.874   2.847
10398SOL     OW32092   6.522   2.896   1.348
10398SOL    HW132093   6.618   2.870   1.358
10398SOL    HW232094   6.502   2.910   1.251
10399SOL     OW32095   5.397   2.169   3.156
10399SOL    HW132096   5.371   2.083   3.200
10399SOL    HW232097   5.464   2.151   3.083
10400SOL     OW32098   4.058   6.788   0.234
10400SOL    HW132099   4.003   6.833   0.305
10400SOL    HW232100   4.130   6.850   0.203
10401SOL     OW32101   6.063   0.691   3.866
10401SOL    HW132102   6.054   0.614   3.929
10401SOL    HW232103   6.120   0.664   3.788
10402SOL     OW32104   6.598   3.514   5.241
10402SOL    HW132105   6.573   3.533   5.336
10402SOL    HW232106   6.622   3.418   5.231
10403SOL     OW32107   4.017   1.025   3.430
10403SOL    HW132108   3.971   0.964   3.495
10403SOL    HW232109   4.027   0.977   3.342
10404SOL     OW32110   6.373   6.715   5.229
10404SOL    HW132111   6.451   6.676   5.180
10404SOL    HW232112   6.341   6.797   5.180
10405SOL     OW32113   0.179   1.809   5.579
10405SOL    HW132114   0.261   1.859   5.548
10405SOL    HW232115   0.175   1.721   5.533
10406SOL     OW32116   2.638   5.097   2.778
10406SOL    HW132117   2.700   5.082   2.701
10406SOL    HW232118   2.638   5.194   2.802
10407SOL     OW32119   3.356   6.626   6.165
10407SOL    HW132120   3.386   6.714   6.200
10407SOL    HW232121   3.414   6.553   6.201
10408SOL     OW32122   4.633   6.952   1.082
10408SOL    HW132123   4.647   0.024   1.101
10408SOL    HW232124   4.717   6.913   1.045
10409SOL     OW32125   0.114   4.663   0.638
10409SOL    HW132126   0.086   4.711   0.555
10409SOL    HW232127   0.198   4.611   0.619
10410SOL     OW32128   5.406   1.620   0.295
10410SOL    HW132129   5.339   1.614   0.221
10410SOL    HW232130   5.401   1.539   0.352
10411SOL     OW32131   3.956   6.680   3.452
10411SOL    HW132132   3.903   6.699   3.370
10411SOL    HW232133   4.013   6.599   3.437
10412SOL     OW32134   0.069   0.832   0.487
10412SOL    HW132135   0.151   0.791   0.527
10412SOL    HW232136   0.019   0.763   0.435
10413SOL     OW32137   6.093   2.758   0.464
10413SOL    HW132138   6.031   2.823   0.420
10413SOL    HW232139   6.118   2.792   0.555
10414SOL     OW32140   3.824   3.987   5.781
10414SOL    HW132141   3.788   4.031   5.698
10414SOL    HW232142   3.923   4.000   5.785
10415SOL     OW32143   0.707   4.087   4.484
10415SOL    HW132144   0.683   4.141   4.403
10415SOL    HW232145   0.792   4.037   4.466
10416SOL     OW32146   6.526   0.281   3.913
10416SOL    HW132147   6.625   0.291   3.913
10416SOL    HW232148   6.502   0.187   3.936
10417SOL     OW32149   3.683   5.263   4.502
10417SOL    HW132150   3.673   5.344   4.444
10417SOL    HW232151   3.603   5.255   4.562
10418SOL     OW32152   0.223   4.832   6.753
10418SOL    HW132153   0.246   4.785   6.667
10418SOL    HW232154   0.124   4.835   6.764
10419SOL     OW32155   1.472   7.021   6.348
10419SOL    HW132156   1.492   6.963   6.427
10419SOL    HW232157   1.550   0.056   6.331
10420SOL     OW32158   0.168   4.077   2.693
10420SOL    HW132159   0.127   3.990   2.667
10420SOL    HW232160   0.115   4.152   2.654
10421SOL     OW32161   0.083   1.821   3.465
10421SOL    HW132162   0.138   1.904   3.461
10421SOL    HW232163   0.052   1.804   3.559
10422SOL     OW32164   6.225   3.391   5.492
10422SOL    HW132165   6.134   3.386   5.450
10422SOL    HW232166   6.214   3.405   5.591
10423SOL     OW32167   5.491   5.047   4.777
10423SOL    HW132168   5.507   4.959   4.732
10423SOL    HW232169   5.472   5.117   4.707
10424SOL     OW32170   5.988   2.965   0.326
10424SOL    HW132171   5.905   2.916   0.297
10424SOL    HW232172   6.061   2.948   0.260
10425SOL     OW32173   1.519   6.753   1.981
10425SOL    HW132174   1.569   6.828   1.938
10425SOL    HW232175   1.480   6.785   2.068
10426SOL     OW32176   0.045   4.837   0.303
10426SOL    HW132177   0.137   4.820   0.337
10426SOL    HW232178   0.016   4.929   0.330
10427SOL     OW32179   3.595   0.957   6.960
10427SOL    HW132180   3.689   0.933   6.983
10427SOL    HW232181   3.594   1.020   6.882
10428SOL     OW32182   2.877   1.206   4.061
10428SOL    HW132183   2.876   1.185   3.963
10428SOL    HW232184   2.966   1.179   4.099
10429SOL     OW32185   0.066   5.219   0.733
10429SOL    HW132186   0.166   5.211   0.732
10429SOL    HW232187   0.040   5.312   0.756
10430SOL     OW32188   4.524   6.369   3.738
10430SOL    HW132189   4.542   6.287   3.791
10430SOL    HW232190   4.452   6.422   3.782
10431SOL     OW32191   3.278   6.327   4.236
10431SOL    HW132192   3.262   6.238   4.278
10431SOL    HW232193   3.376   6.348   4.237
10432SOL     OW32194   5.965   6.640   4.428
10432SOL    HW132195   5.926   6.549   4.412
10432SOL    HW232196   5.970   6.658   4.526
10433SOL     OW32197   1.856   6.784   1.165
10433SOL    HW132198   1.872   6.715   1.236
10433SOL    HW232199   1.935   6.845   1.161
10434SOL     OW32200   4.287   0.109   3.619
10434SOL    HW132201   4.245   0.036   3.565
10434SOL    HW232202   4.385   0.092   3.628
10435SOL     OW32203   0.022   0.207   4.953
10435SOL    HW132204   0.025   0.194   5.052
10435SOL    HW232205   0.019   0.305   4.932
10436SOL     OW32206   0.964   5.155   5.847
10436SOL    HW132207   0.950   5.165   5.945
10436SOL    HW232208   0.961   5.058   5.822
10437SOL     OW32209   6.437   4.884   5.965
10437SOL    HW132210   6.454   4.966   6.020
10437SOL    HW232211   6.465   4.803   6.016
10438SOL     OW32212   6.168   6.093   0.517
10438SOL    HW132213   6.218   6.044   0.446
10438SOL    HW232214   6.220   6.174   0.544
10439SOL     OW32215   3.617   1.601   5.925
10439SOL    HW132216   3.617   1.686   5.874
10439SOL    HW232217   3.695   1.599   5.988
10440SOL     OW32218   1.507   6.577   0.520
10440SOL    HW132219   1.595   6.622   0.504
10440SOL    HW232220   1.521   6.478   0.525
10441SOL     OW32221   4.231   1.397   0.001
10441SOL    HW132222   4.275   1.385   0.090
10441SOL    HW232223   4.136   1.367   0.007
10442SOL     OW32224   3.729   6.481   5.894
10442SOL    HW132225   3.652   6.418   5.905
10442SOL    HW232226   3.806   6.449   5.949
10443SOL     OW32227   4.935   3.916   4.900
10443SOL    HW132228   4.912   3.837   4.842
10443SOL    HW232229   4.900   3.999   4.857
10444SOL     OW32230   4.154   6.549   4.428
10444SOL    HW132231   4.117   6.528   4.337
10444SOL    HW232232   4.080   6.544   4.495
10445SOL     OW32233   1.155   5.547   4.423
10445SOL    HW132234   1.095   5.615   4.466
10445SOL    HW232235   1.151   5.462   4.476
10446SOL     OW32236   1.106   2.898   6.119
10446SOL    HW132237   1.056   2.886   6.033
10446SOL    HW232238   1.043   2.932   6.190
10447SOL     OW32239   6.672   1.093   1.982
10447SOL    HW132240   6.575   1.083   1.963
10447SOL    HW232241   6.698   1.034   2.058
10448SOL     OW32242   3.931   2.435   1.541
10448SOL    HW132243   3.996   2.398   1.608
10448SOL    HW232244   3.849   2.467   1.588
10449SOL     OW32245   2.348   5.575   4.628
10449SOL    HW132246   2.375   5.639   4.700
10449SOL    HW232247   2.427   5.519   4.602
10450SOL     OW32248   0.728   2.193   0.570
10450SOL    HW132249   0.651   2.224   0.514
10450SOL    HW232250   0.736   2.094   0.565
10451SOL     OW32251   1.864   5.163   3.520
10451SOL    HW132252   1.764   5.158   3.527
10451SOL    HW232253   1.904   5.075   3.544
10452SOL     OW32254   6.163   3.450   3.370
10452SOL    HW132255   6.188   3.511   3.445
10452SOL    HW232256   6.087   3.391   3.398
10453SOL     OW32257   5.008   5.864   2.038
10453SOL    HW132258   5.095   5.913   2.045
10453SOL    HW232259   4.999   5.826   1.946
10454SOL     OW32260   4.341   2.655   1.126
10454SOL    HW132261   4.249   2.687   1.105
10454SOL    HW232262   4.337   2.559   1.155
10455SOL     OW32263   0.102   5.178   2.323
10455SOL    HW132264   0.193   5.147   2.295
10455SOL    HW232265   0.104   5.277   2.338
10456SOL     OW32266   3.107   6.108   1.815
10456SOL    HW132267   3.184   6.139   1.759
10456SOL    HW232268   3.076   6.183   1.873
10457SOL     OW32269   3.543   2.914   3.119
10457SOL    HW132270   3.539   2.815   3.104
10457SOL    HW232271   3.625   2.937   3.171
10458SOL     OW32272   0.505   0.905   6.826
10458SOL    HW132273   0.555   0.974   6.774
10458SOL    HW232274   0.468   0.836   6.763
10459SOL     OW32275   5.498   5.311   2.566
10459SOL    HW132276   5.425   5.368   2.527
10459SOL    HW232277   5.484   5.216   2.538
10460SOL     OW32278   1.916   5.966   1.167
10460SOL    HW132279   1.878   5.918   1.088
10460SOL    HW232280   1.903   6.065   1.155
10461SOL     OW32281   1.452   6.302   5.472
10461SOL    HW132282   1.459   6.372   5.542
10461SOL    HW232283   1.544   6.272   5.445
10462SOL     OW32284   5.479   1.925   2.263
10462SOL    HW132285   5.577   1.940   2.247
10462SOL    HW232286   5.441   1.869   2.190
10463SOL     OW32287   3.562   3.263   5.463
10463SOL    HW132288   3.510   3.333   5.414
10463SOL    HW232289   3.616   3.306   5.535
10464SOL     OW32290   5.315   0.408   0.848
10464SOL    HW132291   5.396   0.366   0.890
10464SOL    HW232292   5.319   0.507   0.859
10465SOL     OW32293   6.406   6.699   0.921
10465SOL    HW132294   6.379   6.614   0.967
10465SOL    HW232295   6.397   6.776   0.984
10466SOL     OW32296   4.401   5.069   5.110
10466SOL    HW132297   4.369   4.974   5.107
10466SOL    HW232298   4.394   5.104   5.203
10467SOL     OW32299   1.153   1.928   5.089
10467SOL    HW132300   1.156   1.970   5.180
10467SOL    HW232301   1.113   1.992   5.024
10468SOL     OW32302   3.347   5.379   3.338
10468SOL    HW132303   3.387   5.288   3.326
10468SOL    HW232304   3.376   5.439   3.263
10469SOL     OW32305   3.629   3.291   0.289
10469SOL    HW132306   3.656   3.360   0.222
10469SOL    HW232307   3.534   3.264   0.272
10470SOL     OW32308   2.051   1.944   2.758
10470SOL    HW132309   2.149   1.938   2.741
10470SOL    HW232310   2.030   2.030   2.804
10471SOL     OW32311   2.251   3.825   1.382
10471SOL    HW132312   2.163   3.849   1.423
10471SOL    HW232313   2.292   3.749   1.433
10472SOL     OW32314   3.464   6.314   1.334
10472SOL    HW132315   3.488   6.280   1.425
10472SOL    HW232316   3.501   6.253   1.265
10473SOL     OW32317   5.856   6.926   0.880
10473SOL    HW132318   5.904   6.945   0.794
10473SOL    HW232319   5.807   6.840   0.873
10474SOL     OW32320   5.005   0.601   4.665
10474SOL    HW132321   4.937   0.528   4.676
10474SOL    HW232322   4.966   0.675   4.611
10475SOL     OW32323   4.970   6.624   1.262
10475SOL    HW132324   4.902   6.665   1.201
10475SOL    HW232325   5.036   6.694   1.289
10476SOL     OW32326   0.392   5.903   6.176
10476SOL    HW132327   0.413   5.917   6.273
10476SOL    HW232328   0.475   5.876   6.128
10477SOL     OW32329   6.102   2.871   4.974
10477SOL    HW132330   6.148   2.819   4.902
10477SOL    HW232331   6.104   2.968   4.951
10478SOL     OW32332   0.592   0.391   6.916
10478SOL    HW132333   0.567   0.349   6.829
10478SOL    HW232334   0.519   0.376   6.983
10479SOL     OW32335   1.006   2.714   1.415
10479SOL    HW132336   0.912   2.684   1.401
10479SOL    HW232337   1.014   2.758   1.505
10480SOL     OW32338   5.445   0.438   1.138
10480SOL    HW132339   5.379   0.466   1.208
10480SOL    HW232340   5.441   0.338   1.127
10481SOL     OW32341   2.690   1.134   5.210
10481SOL    HW132342   2.609   1.122   5.151
10481SOL    HW232343   2.668   1.104   5.303
10482SOL     OW32344   0.597   5.987   4.717
10482SOL    HW132345   0.682   5.941   4.742
10482SOL    HW232346   0.520   5.924   4.730
10483SOL     OW32347   6.517   5.187   0.251
10483SOL    HW132348   6.482   5.094   0.241
10483SOL    HW232349   6.504   5.217   0.346
10484SOL     OW32350   6.904   0.374   0.623
10484SOL    HW132351   6.858   0.288   0.598
10484SOL    HW232352   6.949   0.363   0.711
10485SOL     OW32353   3.627   3.693   3.196
10485SOL    HW132354   3.662   3.779   3.232
10485SOL    HW232355   3.564   3.652   3.262
10486SOL     OW32356   6.161   0.568   5.974
10486SOL    HW132357   6.117   0.576   5.885
10486SOL    HW232358   6.091   0.566   6.045
10487SOL     OW32359   4.386   1.623   1.535
10487SOL    HW132360   4.434   1.594   1.452
10487SOL    HW232361   4.334   1.706   1.516
10488SOL     OW32362   1.853   2.210   5.782
10488SOL    HW132363   1.813   2.120   5.769
10488SOL    HW232364   1.810   2.276   5.721
10489SOL     OW32365   5.601   5.876   3.656
10489SOL    HW132366   5.665   5.934   3.606
10489SOL    HW232367   5.628   5.870   3.752
10490SOL     OW32368   5.889   0.615   0.727
10490SOL    HW132369   5.791   0.595   0.731
10490SOL    HW232370   5.920   0.613   0.632
10491SOL     OW32371   2.197   2.683   6.306
10491SOL    HW132372   2.126   2.744   6.341
10491SOL    HW232373   2.263   2.736   6.253
10492SOL     OW32374   3.592   5.769   0.326
10492SOL    HW132375   3.508   5.717   0.344
10492SOL    HW232376   3.578   5.827   0.246
10493SOL     OW32377   3.344   5.469   1.116
10493SOL    HW132378   3.346   5.551   1.173
10493SOL    HW232379   3.298   5.491   1.029
10494SOL     OW32380   0.595   5.200   5.769
10494SOL    HW132381   0.665   5.166   5.705
10494SOL    HW232382   0.612   5.161   5.860
10495SOL     OW32383   6.570   5.879   0.087
10495SOL    HW132384   6.640   5.847   0.024
10495SOL    HW232385   6.480   5.852   0.054
10496SOL     OW32386   6.760   4.431   5.035
10496SOL    HW132387   6.705   4.505   5.075
10496SOL    HW232388   6.790   4.458   4.944
10497SOL     OW32389   1.040   6.797   1.783
10497SOL    HW132390   0.988   6.843   1.854
10497SOL    HW232391   1.111   6.740   1.825
10498SOL     OW32392   5.244   6.039   1.458
10498SOL    HW132393   5.218   5.944   1.440
10498SOL    HW232394   5.162   6.096   1.462
10499SOL     OW32395   5.796   5.794   1.206
10499SOL    HW132396   5.772   5.697   1.195
10499SOL    HW232397   5.718   5.844   1.243
10500SOL     OW32398   4.902   3.399   4.681
10500SOL    HW132399   4.949   3.386   4.594
10500SOL    HW232400   4.840   3.322   4.697
10501SOL     OW32401   2.424   5.737   2.563
10501SOL    HW132402   2.469   5.826   2.567
10501SOL    HW232403   2.333   5.748   2.524
10502SOL     OW32404   3.070   3.196   1.233
10502SOL    HW132405   3.150   3.256   1.223
10502SOL    HW232406   2.998   3.226   1.169
10503SOL     OW32407   6.569   4.007   6.541
10503SOL    HW132408   6.654   3.961   6.516
10503SOL    HW232409   6.501   3.939   6.569
10504SOL     OW32410   0.690   2.757   6.232
10504SOL    HW132411   0.609   2.786   6.180
10504SOL    HW232412   0.705   2.659   6.218
10505SOL     OW32413   5.953   5.711   2.040
10505SOL    HW132414   6.034   5.769   2.045
10505SOL    HW232415   5.879   5.760   1.996
10506SOL     OW32416   0.695   3.412   0.252
10506SOL    HW132417   0.605   3.457   0.258
10506SOL    HW232418   0.699   3.357   0.168
10507SOL     OW32419   2.562   5.200   0.028
10507SOL    HW132420   2.480   5.193   0.085
10507SOL    HW232421   2.635   5.145   0.068
10508SOL     OW32422   1.450   5.424   3.874
10508SOL    HW132423   1.375   5.364   3.847
10508SOL    HW232424   1.536   5.374   3.869
10509SOL     OW32425   5.421   3.751   4.426
10509SOL    HW132426   5.405   3.847   4.448
10509SOL    HW232427   5.335   3.700   4.435
10510SOL     OW32428   4.591   6.560   6.340
10510SOL    HW132429   4.581   6.576   6.438
10510SOL    HW232430   4.560   6.641   6.290
10511SOL     OW32431   2.959   1.024   2.246
10511SOL    HW132432   2.982   0.948   2.307
10511SOL    HW232433   3.020   1.022   2.167
10512SOL     OW32434   4.473   6.966   6.013
10512SOL    HW132435   4.377   6.970   6.040
10512SOL    HW232436   4.514   0.032   6.021
10513SOL     OW32437   6.391   2.557   2.548
10513SOL    HW132438   6.318   2.492   2.573
10513SOL    HW232439   6.479   2.522   2.581
10514SOL     OW32440   1.607   2.015   1.211
10514SOL    HW132441   1.696   2.045   1.176
10514SOL    HW232442   1.601   1.916   1.207
10515SOL     OW32443   2.280   2.330   3.879
10515SOL    HW132444   2.286   2.238   3.841
10515SOL    HW232445   2.372   2.361   3.904
10516SOL     OW32446   2.962   1.758   0.204
10516SOL    HW132447   2.994   1.839   0.155
10516SOL    HW232448   3.028   1.734   0.275
10517SOL     OW32449   1.823   4.266   2.229
10517SOL    HW132450   1.756   4.309   2.169
10517SOL    HW232451   1.824   4.167   2.212
10518SOL     OW32452   0.357   5.262   2.020
10518SOL    HW132453   0.452   5.290   2.011
10518SOL    HW232454   0.346   5.208   2.103
10519SOL     OW32455   2.780   5.020   0.842
10519SOL    HW132456   2.685   5.049   0.848
10519SOL    HW232457   2.787   4.925   0.872
10520SOL     OW32458   6.493   1.877   6.413
10520SOL    HW132459   6.569   1.831   6.368
10520SOL    HW232460   6.450   1.941   6.350
10521SOL     OW32461   6.626   4.115   1.808
10521SOL    HW132462   6.639   4.160   1.720
10521SOL    HW232463   6.577   4.176   1.871
10522SOL     OW32464   0.417   2.222   3.006
10522SOL    HW132465   0.408   2.122   3.007
10522SOL    HW232466   0.514   2.247   3.002
10523SOL     OW32467   7.003   4.197   3.375
10523SOL    HW132468   6.943   4.121   3.399
10523SOL    HW232469   0.051   4.164   3.317
10524SOL     OW32470   0.091   5.340   3.855
10524SOL    HW132471   0.150   5.328   3.936
10524SOL    HW232472   7.022   5.354   3.885
10525SOL     OW32473   4.147   0.242   5.019
10525SOL    HW132474   4.217   0.245   4.948
10525SOL    HW232475   4.094   0.326   5.018
10526SOL     OW32476   0.206   6.170   1.237
10526SOL    HW132477   0.287   6.174   1.295
10526SOL    HW232478   0.133   6.120   1.284
10527SOL     OW32479   0.413   0.457   5.883
10527SOL    HW132480   0.385   0.370   5.924
10527SOL    HW232481   0.407   0.451   5.783
10528SOL     OW32482   0.591   4.303   0.122
10528SOL    HW132483   0.630   4.221   0.081
10528SOL    HW232484   0.646   4.383   0.097
10529SOL     OW32485   1.699   6.153   4.984
10529SOL    HW132486   1.701   6.096   4.902
10529SOL    HW232487   1.614   6.204   4.988
10530SOL     OW32488   1.617   6.327   6.216
10530SOL    HW132489   1.580   6.380   6.139
10530SOL    HW232490   1.661   6.244   6.180
10531SOL     OW32491   2.599   2.548   4.657
10531SOL    HW132492   2.683   2.599   4.674
10531SOL    HW232493   2.566   2.508   4.742
10532SOL     OW32494   5.980   6.913   6.674
10532SOL    HW132495   5.944   7.007   6.673
10532SOL    HW232496   6.064   6.910   6.728
10533SOL     OW32497   3.169   5.757   4.368
10533SOL    HW132498   3.081   5.800   4.348
10533SOL    HW232499   3.206   5.715   4.286
10534SOL     OW32500   0.492   5.593   2.220
10534SOL    HW132501   0.492   5.509   2.275
10534SOL    HW232502   0.529   5.572   2.129
10535SOL     OW32503   2.438   1.080   1.630
10535SOL    HW132504   2.493   1.038   1.703
10535SOL    HW232505   2.496   1.092   1.549
10536SOL     OW32506   4.551   0.075   3.671
10536SOL    HW132507   4.601   0.152   3.633
10536SOL    HW232508   4.592   7.015   3.640
10537SOL     OW32509   4.911   6.717   3.642
10537SOL    HW132510   4.850   6.649   3.684
10537SOL    HW232511   4.859   6.800   3.623
10538SOL     OW32512   5.620   3.983   2.674
10538SOL    HW132513   5.569   3.897   2.665
10538SOL    HW232514   5.655   4.009   2.584
10539SOL     OW32515   6.391   5.507   2.001
10539SOL    HW132516   6.429   5.450   2.074
10539SOL    HW232517   6.418   5.469   1.912
10540SOL     OW32518   2.438   4.025   6.272
10540SOL    HW132519   2.461   3.976   6.187
10540SOL    HW232520   2.351   3.991   6.307
10541SOL     OW32521   3.292   2.932   4.562
10541SOL    HW132522   3.255   2.848   4.600
10541SOL    HW232523   3.313   2.996   4.636
10542SOL     OW32524   6.412   0.517   4.389
10542SOL    HW132525   6.442   0.511   4.294
10542SOL    HW232526   6.364   0.433   4.414
10543SOL     OW32527   7.012   2.287   5.856
10543SOL    HW132528   0.021   2.301   5.949
10543SOL    HW232529   0.020   2.359   5.796
10544SOL     OW32530   1.279   0.351   3.532
10544SOL    HW132531   1.257   0.449   3.533
10544SOL    HW232532   1.375   0.338   3.509
10545SOL     OW32533   0.841   3.001   2.321
10545SOL    HW132534   0.930   2.966   2.350
10545SOL    HW232535   0.777   2.925   2.310
10546SOL     OW32536   3.232   6.134   1.240
10546SOL    HW132537   3.142   6.176   1.252
10546SOL    HW232538   3.254   6.079   1.321
10547SOL     OW32539   4.597   0.472   4.426
10547SOL    HW132540   4.678   0.517   4.388
10547SOL    HW232541   4.548   0.424   4.352
10548SOL     OW32542   0.507   5.019   4.992
10548SOL    HW132543   0.497   4.955   4.916
10548SOL    HW232544   0.430   5.083   4.993
10549SOL     OW32545   0.091   1.659   0.564
10549SOL    HW132546   0.028   1.692   0.494
10549SOL    HW232547   0.153   1.592   0.523
10550SOL     OW32548   3.851   6.748   3.227
10550SOL    HW132549   3.888   6.823   3.172
10550SOL    HW232550   3.877   6.661   3.186
10551SOL     OW32551   2.571   1.889   5.906
10551SOL    HW132552   2.533   1.797   5.901
10551SOL    HW232553   2.499   1.955   5.884
10552SOL     OW32554   2.484   0.676   4.716
10552SOL    HW132555   2.470   0.618   4.637
10552SOL    HW232556   2.396   0.711   4.748
10553SOL     OW32557   0.099   4.600   1.182
10553SOL    HW132558   0.053   4.626   1.097
10553SOL    HW232559   0.189   4.644   1.186
10554SOL     OW32560   5.781   4.484   2.659
10554SOL    HW132561   5.812   4.396   2.694
10554SOL    HW232562   5.802   4.491   2.561
10555SOL     OW32563   2.901   2.037   0.631
10555SOL    HW132564   2.940   2.088   0.708
10555SOL    HW232565   2.802   2.046   0.631
10556SOL     OW32566   2.471   1.329   3.318
10556SOL    HW132567   2.496   1.367   3.407
10556SOL    HW232568   2.404   1.389   3.274
10557SOL     OW32569   1.799   3.489   4.720
10557SOL    HW132570   1.730   3.429   4.678
10557SOL    HW232571   1.828   3.450   4.807
10558SOL     OW32572   3.029   4.859   5.859
10558SOL    HW132573   2.934   4.846   5.829
10558SOL    HW232574   3.060   4.779   5.910
10559SOL     OW32575   3.392   1.081   0.481
10559SOL    HW132576   3.423   1.128   0.563
10559SOL    HW232577   3.384   1.146   0.405
10560SOL     OW32578   4.089   6.376   2.054
10560SOL    HW132579   4.137   6.453   2.096
10560SOL    HW232580   4.022   6.410   1.987
10561SOL     OW32581   4.101   5.022   2.406
10561SOL    HW132582   4.023   5.052   2.351
10561SOL    HW232583   4.073   4.943   2.462
10562SOL     OW32584   3.531   6.108   1.023
10562SOL    HW132585   3.590   6.106   1.104
10562SOL    HW232586   3.562   6.180   0.960
10563SOL     OW32587   0.990   0.358   1.043
10563SOL    HW132588   0.920   0.397   0.983
10563SOL    HW232589   0.962   0.266   1.071
10564SOL     OW32590   6.627   5.350   3.642
10564SOL    HW132591   6.652   5.446   3.655
10564SOL    HW232592   6.648   5.322   3.548
10565SOL     OW32593   6.826   6.878   6.118
10565SOL    HW132594   6.858   6.960   6.166
10565SOL    HW232595   6.867   6.874   6.027
10566SOL     OW32596   3.022   2.434   0.232
10566SOL    HW132597   2.991   2.470   0.143
10566SOL    HW232598   3.089   2.362   0.217
10567SOL     OW32599   1.853   2.534   5.341
10567SOL    HW132600   1.787   2.603   5.310
10567SOL    HW232601   1.946   2.567   5.325
10568SOL     OW32602   5.992   2.798   6.636
10568SOL    HW132603   5.996   2.881   6.692
10568SOL    HW232604   5.910   2.745   6.660
10569SOL     OW32605   5.328   0.717   1.964
10569SOL    HW132606   5.342   0.813   1.937
10569SOL    HW232607   5.367   0.657   1.894
10570SOL     OW32608   1.551   4.630   4.300
10570SOL    HW132609   1.497   4.686   4.237
10570SOL    HW232610   1.605   4.689   4.360
10571SOL     OW32611   0.337   4.399   6.144
10571SOL    HW132612   0.301   4.385   6.236
10571SOL    HW232613   0.434   4.377   6.142
10572SOL     OW32614   6.690   4.717   1.714
10572SOL    HW132615   6.719   4.722   1.618
10572SOL    HW232616   6.745   4.781   1.768
10573SOL     OW32617   5.266   0.654   4.605
10573SOL    HW132618   5.169   0.634   4.618
10573SOL    HW232619   5.315   0.568   4.586
10574SOL     OW32620   6.612   0.714   3.942
10574SOL    HW132621   6.678   0.678   3.876
10574SOL    HW232622   6.597   0.811   3.926
10575SOL     OW32623   5.576   0.386   3.394
10575SOL    HW132624   5.603   0.479   3.420
10575SOL    HW232625   5.658   0.330   3.381
10576SOL     OW32626   1.520   5.090   2.797
10576SOL    HW132627   1.566   5.133   2.875
10576SOL    HW232628   1.483   5.161   2.737
10577SOL     OW32629   2.930   5.901   0.160
10577SOL    HW132630   2.843   5.858   0.134
10577SOL    HW232631   2.915   5.998   0.179
10578SOL     OW32632   5.813   1.713   3.437
10578SOL    HW132633   5.718   1.688   3.456
10578SOL    HW232634   5.854   1.646   3.376
10579SOL     OW32635   2.528   4.064   1.181
10579SOL    HW132636   2.590   4.125   1.230
10579SOL    HW232637   2.440   4.109   1.169
10580SOL     OW32638   6.304   6.619   6.236
10580SOL    HW132639   6.302   6.583   6.329
10580SOL    HW232640   6.387   6.589   6.190
10581SOL     OW32641   4.818   6.428   2.755
10581SOL    HW132642   4.741   6.488   2.778
10581SOL    HW232643   4.789   6.333   2.759
10582SOL     OW32644   5.424   4.755   6.408
10582SOL    HW132645   5.451   4.841   6.450
10582SOL    HW232646   5.332   4.763   6.369
10583SOL     OW32647   3.671   0.315   4.256
10583SOL    HW132648   3.708   0.383   4.193
10583SOL    HW232649   3.623   0.361   4.330
10584SOL     OW32650   6.379   0.563   6.398
10584SOL    HW132651   6.359   0.537   6.492
10584SOL    HW232652   6.376   0.482   6.340
10585SOL     OW32653   1.298   1.724   6.322
10585SOL    HW132654   1.332   1.630   6.327
10585SOL    HW232655   1.205   1.723   6.284
10586SOL     OW32656   4.509   4.937   5.747
10586SOL    HW132657   4.528   4.967   5.654
10586SOL    HW232658   4.414   4.957   5.770
10587SOL     OW32659   0.650   6.052   5.976
10587SOL    HW132660   0.669   5.959   6.007
10587SOL    HW232661   0.724   6.113   6.006
10588SOL     OW32662   1.765   2.334   4.526
10588SOL    HW132663   1.811   2.333   4.615
10588SOL    HW232664   1.712   2.418   4.516
10589SOL     OW32665   5.508   6.362   4.360
10589SOL    HW132666   5.516   6.310   4.444
10589SOL    HW232667   5.412   6.368   4.333
10590SOL     OW32668   0.053   5.788   1.975
10590SOL    HW132669   0.091   5.864   1.921
10590SOL    HW232670   7.021   5.731   1.917
10591SOL     OW32671   2.184   1.249   1.063
10591SOL    HW132672   2.109   1.303   1.025
10591SOL    HW232673   2.210   1.177   0.999
10592SOL     OW32674   5.908   2.440   4.536
10592SOL    HW132675   5.868   2.355   4.570
10592SOL    HW232676   5.905   2.510   4.608
10593SOL     OW32677   1.243   6.250   0.857
10593SOL    HW132678   1.146   6.224   0.857
10593SOL    HW232679   1.256   6.327   0.794
10594SOL     OW32680   3.824   0.950   2.932
10594SOL    HW132681   3.833   0.850   2.934
10594SOL    HW232682   3.729   0.975   2.951
10595SOL     OW32683   6.229   0.856   0.791
10595SOL    HW132684   6.316   0.896   0.821
10595SOL    HW232685   6.170   0.928   0.756
10596SOL     OW32686   4.773   1.266   0.168
10596SOL    HW132687   4.855   1.233   0.120
10596SOL    HW232688   4.780   1.364   0.182
10597SOL     OW32689   2.703   0.645   6.385
10597SOL    HW132690   2.722   0.662   6.481
10597SOL    HW232691   2.633   0.573   6.377
10598SOL     OW32692   2.726   1.984   6.436
10598SOL    HW132693   2.698   1.979   6.340
10598SOL    HW232694   2.738   1.891   6.472
10599SOL     OW32695   6.525   4.268   6.448
10599SOL    HW132696   6.510   4.276   6.350
10599SOL    HW232697   6.567   4.180   6.469
10600SOL     OW32698   3.537   0.947   1.393
10600SOL    HW132699   3.512   1.042   1.415
10600SOL    HW232700   3.606   0.915   1.458
10601SOL     OW32701   0.417   5.826   4.885
10601SOL    HW132702   0.372   5.738   4.897
10601SOL    HW232703   0.516   5.815   4.897
10602SOL     OW32704   0.878   0.699   0.240
10602SOL    HW132705   0.840   0.786   0.272
10602SOL    HW232706   0.838   0.677   0.151
10603SOL     OW32707   4.382   6.354   1.840
10603SOL    HW132708   4.424   6.301   1.766
10603SOL    HW232709   4.313   6.415   1.802
10604SOL     OW32710   0.192   6.525   4.941
10604SOL    HW132711   0.190   6.434   4.898
10604SOL    HW232712   0.139   6.523   5.026
10605SOL     OW32713   1.652   6.871   0.150
10605SOL    HW132714   1.589   6.895   0.076
10605SOL    HW232715   1.736   6.834   0.111
10606SOL     OW32716   6.923   0.682   1.461
10606SOL    HW132717   6.889   0.590   1.482
10606SOL    HW232718   6.923   0.737   1.545
10607SOL     OW32719   4.179   4.353   0.334
10607SOL    HW132720   4.154   4.267   0.291
10607SOL    HW232721   4.098   4.394   0.376
10608SOL     OW32722   6.501   3.190   3.043
10608SOL    HW132723   6.580   3.217   2.988
10608SOL    HW232724   6.496   3.090   3.048
10609SOL     OW32725   2.508   6.466   0.355
10609SOL    HW132726   2.511   6.454   0.454
10609SOL    HW232727   2.592   6.512   0.325
10610SOL     OW32728   6.673   2.803   4.257
10610SOL    HW132729   6.730   2.799   4.339
10610SOL    HW232730   6.700   2.882   4.202
10611SOL     OW32731   2.694   5.471   5.081
10611SOL    HW132732   2.656   5.386   5.118
10611SOL    HW232733   2.638   5.501   5.004
10612SOL     OW32734   5.511   0.991   4.233
10612SOL    HW132735   5.455   0.974   4.315
10612SOL    HW232736   5.533   1.088   4.229
10613SOL     OW32737   5.432   6.065   4.131
10613SOL    HW132738   5.520   6.038   4.171
10613SOL    HW232739   5.361   6.058   4.201
10614SOL     OW32740   5.014   1.416   5.031
10614SOL    HW132741   5.050   1.380   5.117
10614SOL    HW232742   4.920   1.384   5.018
10615SOL     OW32743   3.617   1.401   5.703
10615SOL    HW132744   3.569   1.388   5.617
10615SOL    HW232745   3.579   1.481   5.750
10616SOL     OW32746   2.631   6.180   6.155
10616SOL    HW132747   2.572   6.149   6.229
10616SOL    HW232748   2.714   6.221   6.193
10617SOL     OW32749   2.275   4.499   1.664
10617SOL    HW132750   2.265   4.580   1.721
10617SOL    HW232751   2.184   4.468   1.635
10618SOL     OW32752   0.708   5.474   5.520
10618SOL    HW132753   0.784   5.425   5.562
10618SOL    HW232754   0.636   5.488   5.587
10619SOL     OW32755   0.809   2.246   2.680
10619SOL    HW132756   0.803   2.346   2.688
10619SOL    HW232757   0.721   2.205   2.703
10620SOL     OW32758   1.502   0.062   5.364
10620SOL    HW132759   1.522   0.096   5.456
10620SOL    HW232760   1.414   0.015   5.365
10621SOL     OW32761   1.185   4.249   2.701
10621SOL    HW132762   1.135   4.268   2.616
10621SOL    HW232763   1.127   4.196   2.762
10622SOL     OW32764   4.376   2.306   1.386
10622SOL    HW132765   4.333   2.395   1.368
10622SOL    HW232766   4.465   2.320   1.429
10623SOL     OW32767   6.107   5.951   5.284
10623SOL    HW132768   6.206   5.940   5.274
10623SOL    HW232769   6.085   6.047   5.302
10624SOL     OW32770   0.930   2.938   4.668
10624SOL    HW132771   0.892   2.862   4.614
10624SOL    HW232772   0.855   2.997   4.699
10625SOL     OW32773   0.356   3.257   0.973
10625SOL    HW132774   0.297   3.286   0.897
10625SOL    HW232775   0.428   3.197   0.939
10626SOL     OW32776   3.223   2.874   1.552
10626SOL    HW132777   3.184   2.840   1.637
10626SOL    HW232778   3.155   2.926   1.501
10627SOL     OW32779   5.506   1.130   6.511
10627SOL    HW132780   5.505   1.171   6.419
10627SOL    HW232781   5.570   1.054   6.512
10628SOL     OW32782   4.210   0.405   0.545
10628SOL    HW132783   4.223   0.308   0.566
10628SOL    HW232784   4.225   0.459   0.628
10629SOL     OW32785   3.237   5.044   4.711
10629SOL    HW132786   3.302   4.970   4.728
10629SOL    HW232787   3.179   5.019   4.633
10630SOL     OW32788   5.455   1.392   2.426
10630SOL    HW132789   5.551   1.365   2.426
10630SOL    HW232790   5.398   1.309   2.420
10631SOL     OW32791   4.219   4.669   6.048
10631SOL    HW132792   4.220   4.712   6.139
10631SOL    HW232793   4.231   4.570   6.058
10632SOL     OW32794   5.023   5.744   3.486
10632SOL    HW132795   5.105   5.704   3.527
10632SOL    HW232796   5.032   5.743   3.386
10633SOL     OW32797   2.574   2.548   1.760
10633SOL    HW132798   2.525   2.602   1.829
10633SOL    HW232799   2.576   2.453   1.788
10634SOL     OW32800   1.404   5.688   0.586
10634SOL    HW132801   1.364   5.607   0.629
10634SOL    HW232802   1.391   5.684   0.487
10635SOL     OW32803   2.234   3.359   0.431
10635SOL    HW132804   2.232   3.456   0.410
10635SOL    HW232805   2.154   3.314   0.393
10636SOL     OW32806   6.724   1.570   0.441
10636SOL    HW132807   6.682   1.616   0.519
10636SOL    HW232808   6.686   1.606   0.356
10637SOL     OW32809   1.766   5.831   6.347
10637SOL    HW132810   1.683   5.804   6.396
10637SOL    HW232811   1.749   5.916   6.297
10638SOL     OW32812   6.172   6.491   2.299
10638SOL    HW132813   6.219   6.509   2.385
10638SOL    HW232814   6.208   6.406   2.259
10639SOL     OW32815   1.948   3.460   1.843
10639SOL    HW132816   2.016   3.387   1.853
10639SOL    HW232817   1.985   3.546   1.878
10640SOL     OW32818   4.749   0.748   3.562
10640SOL    HW132819   4.665   0.716   3.605
10640SOL    HW232820   4.797   0.670   3.521
10641SOL     OW32821   1.978   1.372   3.474
10641SOL    HW132822   1.976   1.374   3.574
10641SOL    HW232823   2.033   1.295   3.443
10642SOL     OW32824   5.917   2.162   0.434
10642SOL    HW132825   5.872   2.078   0.404
10642SOL    HW232826   5.891   2.180   0.529
10643SOL     OW32827   2.232   6.269   4.674
10643SOL    HW132828   2.150   6.232   4.717
10643SOL    HW232829   2.259   6.354   4.719
10644SOL     OW32830   5.767   3.018   1.195
10644SOL    HW132831   5.817   2.939   1.229
10644SOL    HW232832   5.779   3.095   1.257
10645SOL     OW32833   2.292   2.812   3.523
10645SOL    HW132834   2.303   2.724   3.569
10645SOL    HW232835   2.303   2.886   3.589
10646SOL     OW32836   5.971   0.755   5.805
10646SOL    HW132837   6.009   0.706   5.727
10646SOL    HW232838   5.888   0.708   5.837
10647SOL     OW32839   3.432   5.323   5.433
10647SOL    HW132840   3.437   5.329   5.334
10647SOL    HW232841   3.391   5.236   5.460
10648SOL     OW32842   6.000   5.333   6.408
10648SOL    HW132843   6.091   5.354   6.372
10648SOL    HW232844   5.980   5.236   6.393
10649SOL     OW32845   0.919   3.154   3.527
10649SOL    HW132846   0.923   3.230   3.592
10649SOL    HW232847   0.947   3.069   3.572
10650SOL     OW32848   0.603   0.425   4.271
10650SOL    HW132849   0.538   0.486   4.226
10650SOL    HW232850   0.588   0.331   4.240
10651SOL     OW32851   5.995   6.031   6.649
10651SOL    HW132852   5.973   6.106   6.712
10651SOL    HW232853   5.924   6.024   6.579
10652SOL     OW32854   2.188   6.848   5.654
10652SOL    HW132855   2.223   6.891   5.737
10652SOL    HW232856   2.088   6.846   5.656
10653SOL     OW32857   4.143   5.819   4.890
10653SOL    HW132858   4.169   5.768   4.808
10653SOL    HW232859   4.174   5.770   4.972
10654SOL     OW32860   4.759   1.250   5.280
10654SOL    HW132861   4.850   1.240   5.319
10654SOL    HW232862   4.741   1.174   5.218
10655SOL     OW32863   1.642   4.419   0.749
10655SOL    HW132864   1.692   4.418   0.836
10655SOL    HW232865   1.648   4.329   0.706
10656SOL     OW32866   6.593   1.238   2.807
10656SOL    HW132867   6.656   1.178   2.857
10656SOL    HW232868   6.500   1.222   2.839
10657SOL     OW32869   6.228   0.914   4.695
10657SOL    HW132870   6.259   0.967   4.773
10657SOL    HW232871   6.272   0.824   4.697
10658SOL     OW32872   6.176   4.102   4.983
10658SOL    HW132873   6.130   4.137   5.065
10658SOL    HW232874   6.170   4.170   4.910
10659SOL     OW32875   0.822   4.627   0.668
10659SOL    HW132876   0.808   4.600   0.573
10659SOL    HW232877   0.786   4.719   0.683
10660SOL     OW32878   5.914   4.050   5.560
10660SOL    HW132879   5.962   4.124   5.606
10660SOL    HW232880   5.973   3.969   5.558
10661SOL     OW32881   1.382   5.411   0.288
10661SOL    HW132882   1.344   5.318   0.285
10661SOL    HW232883   1.400   5.442   0.195
10662SOL     OW32884   4.193   0.701   2.487
10662SOL    HW132885   4.099   0.676   2.463
10662SOL    HW232886   4.191   0.775   2.554
10663SOL     OW32887   0.605   1.601   3.011
10663SOL    HW132888   0.583   1.655   2.929
10663SOL    HW232889   0.702   1.612   3.033
10664SOL     OW32890   0.051   5.140   4.881
10664SOL    HW132891   0.052   5.091   4.794
10664SOL    HW232892   7.005   5.210   4.879
10665SOL     OW32893   2.138   2.194   0.032
10665SOL    HW132894   2.228   2.238   0.037
10665SOL    HW232895   2.105   2.195   6.964
10666SOL     OW32896   3.194   3.994   2.333
10666SOL    HW132897   3.115   4.007   2.393
10666SOL    HW232898   3.198   3.899   2.302
10667SOL     OW32899   4.834   1.294   4.090
10667SOL    HW132900   4.795   1.381   4.118
10667SOL    HW232901   4.902   1.265   4.158
10668SOL     OW32902   3.319   1.237   5.001
10668SOL    HW132903   3.333   1.336   4.996
10668SOL    HW232904   3.315   1.198   4.909
10669SOL     OW32905   5.872   0.739   1.105
10669SOL    HW132906   5.916   0.678   1.039
10669SOL    HW232907   5.781   0.764   1.071
10670SOL     OW32908   5.586   4.594   4.816
10670SOL    HW132909   5.526   4.634   4.885
10670SOL    HW232910   5.675   4.573   4.857
10671SOL     OW32911   1.836   1.725   4.075
10671SOL    HW132912   1.776   1.698   4.000
10671SOL    HW232913   1.797   1.696   4.162
10672SOL     OW32914   6.716   4.438   1.766
10672SOL    HW132915   6.709   4.390   1.679
10672SOL    HW232916   6.668   4.526   1.760
10673SOL     OW32917   1.154   0.317   0.318
10673SOL    HW132918   1.245   0.359   0.325
10673SOL    HW232919   1.140   0.255   0.395
10674SOL     OW32920   4.034   3.818   4.520
10674SOL    HW132921   4.104   3.806   4.450
10674SOL    HW232922   3.949   3.850   4.477
10675SOL     OW32923   2.779   0.582   6.651
10675SOL    HW132924   2.743   0.490   6.637
10675SOL    HW232925   2.743   0.620   6.736
10676SOL     OW32926   0.422   6.694   4.763
10676SOL    HW132927   0.399   6.789   4.786
10676SOL    HW232928   0.354   6.633   4.803
10677SOL     OW32929   1.939   1.080   1.271
10677SOL    HW132930   1.930   1.053   1.176
10677SOL    HW232931   1.937   0.999   1.329
10678SOL     OW32932   4.362   4.559   3.800
10678SOL    HW132933   4.393   4.479   3.749
10678SOL    HW232934   4.433   4.584   3.867
10679SOL     OW32935   3.634   5.945   6.146
10679SOL    HW132936   3.565   5.937   6.074
10679SOL    HW232937   3.715   5.893   6.122
10680SOL     OW32938   3.646   1.893   3.505
10680SOL    HW132939   3.657   1.978   3.557
10680SOL    HW232940   3.691   1.901   3.417
10681SOL     OW32941   6.673   3.777   0.278
10681SOL    HW132942   6.732   3.714   0.327
10681SOL    HW232943   6.614   3.826   0.343
10682SOL     OW32944   0.108   2.416   5.291
10682SOL    HW132945   0.052   2.370   5.222
10682SOL    HW232946   0.050   2.474   5.349
10683SOL     OW32947   4.672   0.940   3.890
10683SOL    HW132948   4.706   0.918   3.981
10683SOL    HW232949   4.670   1.039   3.879
10684SOL     OW32950   4.427   5.523   2.463
10684SOL    HW132951   4.344   5.470   2.445
10684SOL    HW232952   4.470   5.491   2.547
10685SOL     OW32953   0.289   5.418   1.090
10685SOL    HW132954   0.281   5.516   1.072
10685SOL    HW232955   0.202   5.384   1.127
10686SOL     OW32956   1.532   3.950   5.831
10686SOL    HW132957   1.620   3.903   5.838
10686SOL    HW232958   1.529   4.025   5.897
10687SOL     OW32959   6.148   4.898   4.441
10687SOL    HW132960   6.052   4.901   4.470
10687SOL    HW232961   6.153   4.890   4.342
10688SOL     OW32962   5.853   3.196   2.948
10688SOL    HW132963   5.869   3.176   2.851
10688SOL    HW232964   5.907   3.134   3.005
10689SOL     OW32965   6.256   0.391   2.341
10689SOL    HW132966   6.319   0.462   2.372
10689SOL    HW232967   6.298   0.301   2.354
10690SOL     OW32968   0.417   5.108   3.470
10690SOL    HW132969   0.398   5.023   3.421
10690SOL    HW232970   0.506   5.143   3.441
10691SOL     OW32971   1.887   1.880   1.551
10691SOL    HW132972   1.940   1.863   1.634
10691SOL    HW232973   1.928   1.830   1.474
10692SOL     OW32974   2.684   0.503   3.648
10692SOL    HW132975   2.751   0.551   3.706
10692SOL    HW232976   2.594   0.546   3.659
10693SOL     OW32977   1.275   6.268   1.104
10693SOL    HW132978   1.280   6.252   1.006
10693SOL    HW232979   1.288   6.182   1.153
10694SOL     OW32980   5.319   6.099   6.716
10694SOL    HW132981   5.324   6.174   6.781
10694SOL    HW232982   5.308   6.012   6.765
10695SOL     OW32983   1.372   2.442   2.250
10695SOL    HW132984   1.314   2.523   2.241
10695SOL    HW232985   1.468   2.470   2.254
10696SOL     OW32986   6.357   4.224   4.347
10696SOL    HW132987   6.353   4.324   4.354
10696SOL    HW232988   6.312   4.184   4.427
10697SOL     OW32989   0.171   0.311   5.517
10697SOL    HW132990   0.153   0.240   5.584
10697SOL    HW232991   0.203   0.269   5.432
10698SOL     OW32992   5.211   4.922   6.743
10698SOL    HW132993   5.147   4.955   6.812
10698SOL    HW232994   5.221   4.822   6.752
10699SOL     OW32995   3.797   4.902   1.835
10699SOL    HW132996   3.855   4.937   1.909
10699SOL    HW232997   3.847   4.834   1.782
10700SOL     OW32998   5.506   6.356   0.605
10700SOL    HW132999   5.596   6.335   0.644
10700SOL    HW233000   5.463   6.429   0.658
10701SOL     OW33001   2.586   6.893   5.558
10701SOL    HW133002   2.499   6.845   5.544
10701SOL    HW233003   2.571   6.992   5.558
10702SOL     OW33004   5.645   3.327   2.323
10702SOL    HW133005   5.724   3.351   2.378
10702SOL    HW233006   5.639   3.228   2.313
10703SOL     OW33007   2.649   2.777   5.585
10703SOL    HW133008   2.748   2.774   5.595
10703SOL    HW233009   2.624   2.857   5.529
10704SOL     OW33010   6.540   4.873   1.871
10704SOL    HW133011   6.581   4.827   1.792
10704SOL    HW233012   6.555   4.819   1.953
10705SOL     OW33013   6.668   5.083   1.561
10705SOL    HW133014   6.590   5.021   1.563
10705SOL    HW233015   6.655   5.151   1.488
10706SOL     OW33016   4.144   7.009   2.598
10706SOL    HW133017   4.131   6.910   2.595
10706SOL    HW233018   4.055   0.028   2.610
10707SOL     OW33019   0.627   6.374   4.095
10707SOL    HW133020   0.609   6.402   4.001
10707SOL    HW233021   0.720   6.338   4.101
10708SOL     OW33022   3.894   1.208   1.349
10708SOL    HW133023   3.872   1.183   1.254
10708SOL    HW233024   3.893   1.126   1.406
10709SOL     OW33025   5.520   5.819   5.021
10709SOL    HW133026   5.599   5.801   5.079
10709SOL    HW233027   5.477   5.732   4.995
10710SOL     OW33028   6.090   0.924   4.444
10710SOL    HW133029   6.132   0.965   4.525
10710SOL    HW233030   6.096   0.988   4.367
10711SOL     OW33031   1.955   6.669   3.981
10711SOL    HW133032   1.933   6.761   3.951
10711SOL    HW233033   2.054   6.660   3.992
10712SOL     OW33034   2.909   0.657   2.064
10712SOL    HW133035   2.879   0.589   1.996
10712SOL    HW233036   2.891   0.749   2.030
10713SOL     OW33037   0.692   3.319   1.083
10713SOL    HW133038   0.689   3.222   1.106
10713SOL    HW233039   0.609   3.364   1.116
10714SOL     OW33040   5.226   4.069   5.480
10714SOL    HW133041   5.191   4.007   5.551
10714SOL    HW233042   5.245   4.017   5.397
10715SOL     OW33043   4.435   0.272   2.227
10715SOL    HW133044   4.413   0.206   2.299
10715SOL    HW233045   4.376   0.352   2.236
10716SOL     OW33046   5.862   2.217   4.118
10716SOL    HW133047   5.911   2.207   4.031
10716SOL    HW233048   5.887   2.304   4.160
10717SOL     OW33049   1.034   2.288   1.366
10717SOL    HW133050   1.006   2.355   1.435
10717SOL    HW233051   1.102   2.226   1.404
10718SOL     OW33052   1.237   3.628   6.808
10718SOL    HW133053   1.212   3.531   6.813
10718SOL    HW233054   1.320   3.643   6.861
10719SOL     OW33055   0.073   5.843   2.842
10719SOL    HW133056   0.143   5.782   2.807
10719SOL    HW233057   0.116   5.929   2.871
10720SOL     OW33058   0.115   4.369   5.536
10720SOL    HW133059   0.187   4.360   5.468
10720SOL    HW233060   0.149   4.419   5.616
10721SOL     OW33061   5.154   3.687   5.094
10721SOL    HW133062   5.225   3.705   5.026
10721SOL    HW233063   5.179   3.605   5.146
10722SOL     OW33064   1.540   5.359   6.574
10722SOL    HW133065   1.517   5.440   6.520
10722SOL    HW233066   1.634   5.331   6.554
10723SOL     OW33067   0.406   3.161   6.625
10723SOL    HW133068   0.419   3.241   6.566
10723SOL    HW233069   0.323   3.173   6.680
10724SOL     OW33070   6.310   1.351   0.046
10724SOL    HW133071   6.281   1.266   0.002
10724SOL    HW233072   6.259   1.428   0.009
10725SOL     OW33073   1.414   5.384   4.681
10725SOL    HW133074   1.486   5.338   4.629
10725SOL    HW233075   1.453   5.461   4.732
10726SOL     OW33076   5.738   0.478   4.903
10726SOL    HW133077   5.820   0.492   4.849
10726SOL    HW233078   5.712   0.381   4.901
10727SOL     OW33079   0.382   5.713   5.396
10727SOL    HW133080   0.390   5.667   5.308
10727SOL    HW233081   0.453   5.784   5.403
10728SOL     OW33082   0.671   6.261   6.635
10728SOL    HW133083   0.619   6.207   6.702
10728SOL    HW233084   0.684   6.207   6.552
10729SOL     OW33085   5.086   1.722   2.716
10729SOL    HW133086   5.003   1.720   2.660
10729SOL    HW233087   5.159   1.768   2.665
10730SOL     OW33088   1.977   0.642   0.995
10730SOL    HW133089   1.929   0.683   0.917
10730SOL    HW233090   2.029   0.713   1.043
10731SOL     OW33091   3.163   7.009   0.993
10731SOL    HW133092   3.128   7.024   1.085
10731SOL    HW233093   3.094   6.962   0.938
10732SOL     OW33094   6.223   4.921   4.881
10732SOL    HW133095   6.166   4.920   4.963
10732SOL    HW233096   6.269   4.832   4.872
10733SOL     OW33097   6.239   1.948   0.937
10733SOL    HW133098   6.212   2.043   0.925
10733SOL    HW233099   6.210   1.894   0.857
10734SOL     OW33100   1.075   0.558   6.926
10734SOL    HW133101   1.111   0.632   6.982
10734SOL    HW233102   0.984   0.583   6.892
10735SOL     OW33103   0.547   2.821   2.748
10735SOL    HW133104   0.562   2.898   2.809
10735SOL    HW233105   0.536   2.737   2.802
10736SOL     OW33106   1.173   0.654   3.487
10736SOL    HW133107   1.262   0.649   3.442
10736SOL    HW233108   1.139   0.748   3.485
10737SOL     OW33109   1.253   1.888   1.006
10737SOL    HW133110   1.314   1.961   0.973
10737SOL    HW233111   1.158   1.917   0.998
10738SOL     OW33112   2.864   0.656   3.086
10738SOL    HW133113   2.907   0.593   3.020
10738SOL    HW233114   2.765   0.652   3.075
10739SOL     OW33115   1.332   1.725   0.748
10739SOL    HW133116   1.302   1.631   0.731
10739SOL    HW233117   1.298   1.755   0.838
10740SOL     OW33118   0.302   5.184   4.969
10740SOL    HW133119   0.322   5.259   4.906
10740SOL    HW233120   0.206   5.156   4.959
10741SOL     OW33121   5.259   0.526   1.312
10741SOL    HW133122   5.214   0.576   1.238
10741SOL    HW233123   5.194   0.460   1.351
10742SOL     OW33124   5.959   0.274   0.919
10742SOL    HW133125   5.951   0.355   0.976
10742SOL    HW233126   5.877   0.217   0.930
10743SOL     OW33127   2.769   1.301   5.597
10743SOL    HW133128   2.782   1.301   5.696
10743SOL    HW233129   2.684   1.254   5.574
10744SOL     OW33130   3.594   1.516   1.087
10744SOL    HW133131   3.546   1.590   1.136
10744SOL    HW233132   3.675   1.489   1.139
10745SOL     OW33133   0.436   5.943   6.448
10745SOL    HW133134   0.511   6.004   6.421
10745SOL    HW233135   0.464   5.889   6.528
10746SOL     OW33136   2.160   5.273   0.897
10746SOL    HW133137   2.201   5.187   0.927
10746SOL    HW233138   2.135   5.267   0.801
10747SOL     OW33139   3.822   1.053   4.115
10747SOL    HW133140   3.808   1.124   4.184
10747SOL    HW233141   3.915   1.061   4.077
10748SOL     OW33142   5.270   0.926   1.050
10748SOL    HW133143   5.345   0.903   0.988
10748SOL    HW233144   5.184   0.890   1.014
10749SOL     OW33145   0.453   4.987   3.206
10749SOL    HW133146   0.553   4.991   3.204
10749SOL    HW233147   0.424   4.913   3.268
10750SOL     OW33148   4.454   6.196   4.268
10750SOL    HW133149   4.540   6.196   4.320
10750SOL    HW233150   4.441   6.106   4.225
10751SOL     OW33151   1.673   4.683   4.895
10751SOL    HW133152   1.769   4.710   4.901
10751SOL    HW233153   1.657   4.637   4.808
10752SOL     OW33154   6.602   4.054   6.186
10752SOL    HW133155   6.571   4.149   6.183
10752SOL    HW233156   6.632   4.025   6.095
10753SOL     OW33157   5.217   5.412   4.530
10753SOL    HW133158   5.202   5.399   4.628
10753SOL    HW233159   5.301   5.463   4.516
10754SOL     OW33160   0.872   0.339   3.178
10754SOL    HW133161   0.895   0.436   3.166
10754SOL    HW233162   0.956   0.285   3.178
10755SOL     OW33163   0.049   1.308   0.276
10755SOL    HW133164   7.021   1.329   0.357
10755SOL    HW233165   0.008   1.354   0.197
10756SOL     OW33166   6.700   4.739   0.081
10756SOL    HW133167   6.631   4.811   0.076
10756SOL    HW233168   6.755   4.751   0.164
10757SOL     OW33169   2.539   3.158   0.416
10757SOL    HW133170   2.440   3.149   0.416
10757SOL    HW233171   2.570   3.186   0.507
10758SOL     OW33172   0.723   6.831   4.456
10758SOL    HW133173   0.634   6.798   4.424
10758SOL    HW233174   0.795   6.798   4.394
10759SOL     OW33175   1.935   2.804   1.373
10759SOL    HW133176   1.868   2.777   1.304
10759SOL    HW233177   2.022   2.760   1.354
10760SOL     OW33178   5.549   1.122   2.787
10760SOL    HW133179   5.513   1.214   2.801
10760SOL    HW233180   5.489   1.072   2.724
10761SOL     OW33181   1.247   6.464   5.829
10761SOL    HW133182   1.282   6.373   5.809
10761SOL    HW233183   1.154   6.473   5.791
10762SOL     OW33184   3.802   2.140   4.533
10762SOL    HW133185   3.712   2.138   4.575
10762SOL    HW233186   3.872   2.124   4.603
10763SOL     OW33187   5.458   6.664   2.551
10763SOL    HW133188   5.361   6.684   2.532
10763SOL    HW233189   5.464   6.575   2.597
10764SOL     OW33190   5.002   2.434   6.036
10764SOL    HW133191   5.038   2.446   6.129
10764SOL    HW233192   4.964   2.342   6.027
10765SOL     OW33193   5.038   2.597   0.384
10765SOL    HW133194   5.131   2.562   0.388
10765SOL    HW233195   5.039   2.697   0.373
10766SOL     OW33196   5.163   4.349   0.518
10766SOL    HW133197   5.151   4.338   0.420
10766SOL    HW233198   5.114   4.430   0.549
10767SOL     OW33199   1.480   0.763   6.817
10767SOL    HW133200   1.491   0.673   6.859
10767SOL    HW233201   1.382   0.782   6.805
10768SOL     OW33202   4.710   5.072   2.218
10768SOL    HW133203   4.789   5.067   2.156
10768SOL    HW233204   4.705   5.164   2.258
10769SOL     OW33205   2.562   4.137   5.358
10769SOL    HW133206   2.469   4.104   5.339
10769SOL    HW233207   2.566   4.236   5.340
10770SOL     OW33208   5.644   0.202   4.788
10770SOL    HW133209   5.676   0.247   4.705
10770SOL    HW233210   5.544   0.203   4.789
10771SOL     OW33211   5.858   6.907   3.761
10771SOL    HW133212   5.891   6.893   3.668
10771SOL    HW233213   5.819   6.999   3.769
10772SOL     OW33214   5.972   6.750   4.681
10772SOL    HW133215   5.932   6.688   4.748
10772SOL    HW233216   5.983   6.841   4.721
10773SOL     OW33217   6.521   6.202   6.595
10773SOL    HW133218   6.529   6.293   6.552
10773SOL    HW233219   6.427   6.170   6.588
10774SOL     OW33220   2.759   1.702   6.536
10774SOL    HW133221   2.736   1.673   6.629
10774SOL    HW233222   2.825   1.637   6.497
10775SOL     OW33223   0.487   4.696   1.887
10775SOL    HW133224   0.570   4.732   1.929
10775SOL    HW233225   0.418   4.769   1.883
10776SOL     OW33226   0.198   1.142   6.999
10776SOL    HW133227   0.231   1.051   6.977
10776SOL    HW233228   0.099   1.139   7.016
10777SOL     OW33229   3.782   5.456   2.875
10777SOL    HW133230   3.740   5.408   2.952
10777SOL    HW233231   3.710   5.493   2.816
10778SOL     OW33232   5.589   6.817   4.024
10778SOL    HW133233   5.582   6.895   3.961
10778SOL    HW233234   5.613   6.850   4.116
10779SOL     OW33235   6.178   3.559   3.657
10779SOL    HW133236   6.214   3.635   3.710
10779SOL    HW233237   6.082   3.576   3.635
10780SOL     OW33238   2.048   0.992   3.341
10780SOL    HW133239   2.119   1.049   3.383
10780SOL    HW233240   1.972   0.982   3.404
10781SOL     OW33241   4.372   0.742   4.149
10781SOL    HW133242   4.442   0.672   4.133
10781SOL    HW233243   4.370   0.765   4.246
10782SOL     OW33244   6.558   1.744   1.907
10782SOL    HW133245   6.571   1.647   1.927
10782SOL    HW233246   6.614   1.798   1.970
10783SOL     OW33247   0.536   2.577   2.876
10783SOL    HW133248   0.461   2.549   2.936
10783SOL    HW233249   0.517   2.547   2.783
10784SOL     OW33250   3.695   6.941   3.997
10784SOL    HW133251   3.752   7.020   3.974
10784SOL    HW233252   3.659   6.952   4.090
10785SOL     OW33253   6.808   4.690   0.360
10785SOL    HW133254   6.891   4.724   0.315
10785SOL    HW233255   6.757   4.767   0.398
10786SOL     OW33256   5.699   4.857   3.258
10786SOL    HW133257   5.762   4.929   3.286
10786SOL    HW233258   5.747   4.790   3.202
10787SOL     OW33259   2.444   1.755   5.418
10787SOL    HW133260   2.360   1.703   5.402
10787SOL    HW233261   2.486   1.724   5.503
10788SOL     OW33262   1.833   4.617   6.420
10788SOL    HW133263   1.910   4.560   6.391
10788SOL    HW233264   1.863   4.678   6.494
10789SOL     OW33265   6.627   2.408   6.623
10789SOL    HW133266   6.675   2.431   6.707
10789SOL    HW233267   6.529   2.398   6.642
10790SOL     OW33268   0.877   6.999   1.660
10790SOL    HW133269   0.810   7.015   1.732
10790SOL    HW233270   0.927   6.915   1.678
10791SOL     OW33271   6.600   6.339   1.496
10791SOL    HW133272   6.584   6.281   1.416
10791SOL    HW233273   6.574   6.433   1.475
10792SOL     OW33274   3.342   3.100   4.762
10792SOL    HW133275   3.440   3.115   4.747
10792SOL    HW233276   3.329   3.045   4.845
10793SOL     OW33277   5.717   3.095   5.279
10793SOL    HW133278   5.738   3.037   5.200
10793SOL    HW233279   5.725   3.191   5.252
10794SOL     OW33280   3.395   2.883   3.710
10794SOL    HW133281   3.432   2.933   3.788
10794SOL    HW233282   3.420   2.787   3.717
10795SOL     OW33283   6.973   5.044   2.182
10795SOL    HW133284   6.991   5.062   2.085
10795SOL    HW233285   0.019   5.086   2.237
10796SOL     OW33286   6.034   0.119   6.001
10796SOL    HW133287   6.100   0.104   5.928
10796SOL    HW233288   6.011   0.216   6.006
10797SOL     OW33289   2.972   2.262   1.455
10797SOL    HW133290   2.969   2.162   1.458
10797SOL    HW233291   2.914   2.299   1.528
10798SOL     OW33292   2.699   0.551   0.111
10798SOL    HW133293   2.699   0.512   0.204
10798SOL    HW233294   2.791   0.547   0.073
10799SOL     OW33295   3.583   1.034   1.850
10799SOL    HW133296   3.562   0.941   1.817
10799SOL    HW233297   3.682   1.049   1.844
10800SOL     OW33298   0.108   6.565   6.131
10800SOL    HW133299   0.022   6.537   6.089
10800SOL    HW233300   0.126   6.661   6.108
10801SOL     OW33301   1.436   6.427   6.395
10801SOL    HW133302   1.507   6.380   6.343
10801SOL    HW233303   1.368   6.465   6.332
10802SOL     OW33304   0.701   0.341   2.625
10802SOL    HW133305   0.693   0.303   2.533
10802SOL    HW233306   0.639   0.293   2.687
10803SOL     OW33307   2.468   5.420   6.282
10803SOL    HW133308   2.512   5.509   6.291
10803SOL    HW233309   2.381   5.420   6.331
10804SOL     OW33310   5.694   3.022   2.550
10804SOL    HW133311   5.793   3.033   2.556
10804SOL    HW233312   5.649   3.103   2.588
10805SOL     OW33313   4.717   6.517   6.000
10805SOL    HW133314   4.764   6.574   5.932
10805SOL    HW233315   4.769   6.517   6.085
10806SOL     OW33316   4.077   4.108   5.826
10806SOL    HW133317   4.175   4.092   5.815
10806SOL    HW233318   4.062   4.199   5.864
10807SOL     OW33319   1.703   6.972   2.800
10807SOL    HW133320   1.676   6.879   2.826
10807SOL    HW233321   1.645   0.012   2.847
10808SOL     OW33322   0.011   3.031   5.997
10808SOL    HW133323   7.010   3.121   6.031
10808SOL    HW233324   6.984   2.961   6.044
10809SOL     OW33325   2.537   4.536   3.343
10809SOL    HW133326   2.585   4.499   3.423
10809SOL    HW233327   2.487   4.463   3.298
10810SOL     OW33328   0.955   0.941   3.650
10810SOL    HW133329   1.006   0.948   3.564
10810SOL    HW233330   0.859   0.966   3.634
10811SOL     OW33331   4.000   4.904   5.751
10811SOL    HW133332   3.971   4.869   5.840
10811SOL    HW233333   3.984   4.834   5.681
10812SOL     OW33334   0.265   3.791   0.775
10812SOL    HW133335   0.243   3.707   0.823
10812SOL    HW233336   0.362   3.813   0.787
10813SOL     OW33337   1.272   3.556   5.986
10813SOL    HW133338   1.367   3.568   5.957
10813SOL    HW233339   1.270   3.520   6.079
10814SOL     OW33340   1.661   6.785   6.239
10814SOL    HW133341   1.668   6.725   6.159
10814SOL    HW233342   1.571   6.828   6.240
10815SOL     OW33343   5.199   3.548   3.416
10815SOL    HW133344   5.225   3.453   3.436
10815SOL    HW233345   5.185   3.598   3.501
10816SOL     OW33346   3.241   3.675   2.416
10816SOL    HW133347   3.151   3.666   2.459
10816SOL    HW233348   3.306   3.715   2.480
10817SOL     OW33349   3.973   0.612   3.537
10817SOL    HW133350   3.926   0.697   3.561
10817SOL    HW233351   4.067   0.615   3.570
10818SOL     OW33352   4.958   4.277   5.609
10818SOL    HW133353   4.877   4.282   5.667
10818SOL    HW233354   4.973   4.365   5.565
10819SOL     OW33355   6.474   5.107   6.106
10819SOL    HW133356   6.525   5.110   6.191
10819SOL    HW233357   6.461   5.200   6.071
10820SOL     OW33358   6.876   4.562   4.457
10820SOL    HW133359   6.958   4.581   4.511
10820SOL    HW233360   6.814   4.641   4.462
10821SOL     OW33361   4.914   0.053   3.749
10821SOL    HW133362   4.878   0.047   3.656
10821SOL    HW233363   4.839   0.075   3.812
10822SOL     OW33364   6.134   2.121   2.760
10822SOL    HW133365   6.156   2.165   2.848
10822SOL    HW233366   6.044   2.078   2.766
10823SOL     OW33367   0.916   1.017   2.082
10823SOL    HW133368   0.918   1.108   2.040
10823SOL    HW233369   0.899   1.026   2.180
10824SOL     OW33370   0.092   1.298   2.558
10824SOL    HW133371   0.016   1.352   2.524
10824SOL    HW233372   0.136   1.250   2.482
10825SOL     OW33373   2.131   1.677   6.540
10825SOL    HW133374   2.215   1.714   6.498
10825SOL    HW233375   2.135   1.577   6.539
10826SOL     OW33376   0.613   2.005   3.135
10826SOL    HW133377   0.670   1.993   3.053
10826SOL    HW233378   0.543   1.933   3.137
10827SOL     OW33379   0.332   3.312   4.921
10827SOL    HW133380   0.308   3.261   4.838
10827SOL    HW233381   0.290   3.402   4.918
10828SOL     OW33382   1.352   4.208   0.706
10828SOL    HW133383   1.436   4.214   0.652
10828SOL    HW233384   1.281   4.161   0.653
10829SOL     OW33385   4.756   2.816   0.517
10829SOL    HW133386   4.728   2.773   0.603
10829SOL    HW233387   4.676   2.825   0.457
10830SOL     OW33388   4.530   1.622   3.057
10830SOL    HW133389   4.481   1.568   3.125
10830SOL    HW233390   4.542   1.568   2.974
10831SOL     OW33391   2.968   6.482   3.014
10831SOL    HW133392   2.975   6.563   2.957
10831SOL    HW233393   2.899   6.497   3.085
10832SOL     OW33394   6.991   3.773   5.898
10832SOL    HW133395   6.973   3.679   5.870
10832SOL    HW233396   6.945   3.836   5.836
10833SOL     OW33397   0.579   0.846   1.870
10833SOL    HW133398   0.596   0.862   1.773
10833SOL    HW233399   0.651   0.787   1.907
10834SOL     OW33400   6.297   1.489   0.708
10834SOL    HW133401   6.320   1.547   0.787
10834SOL    HW233402   6.310   1.393   0.733
10835SOL     OW33403   6.127   2.617   6.924
10835SOL    HW133404   6.157   2.523   6.936
10835SOL    HW233405   6.207   2.676   6.911
10836SOL     OW33406   6.899   2.030   4.550
10836SOL    HW133407   6.938   2.093   4.618
10836SOL    HW233408   6.948   1.943   4.554
10837SOL     OW33409   6.740   4.789   1.183
10837SOL    HW133410   6.718   4.886   1.185
10837SOL    HW233411   6.816   4.773   1.119
10838SOL     OW33412   7.018   6.016   3.609
10838SOL    HW133413   0.017   5.941   3.671
10838SOL    HW233414   0.033   5.998   3.519
10839SOL     OW33415   4.360   3.320   0.902
10839SOL    HW133416   4.413   3.252   0.851
10839SOL    HW233417   4.416   3.359   0.974
10840SOL     OW33418   3.077   6.228   2.330
10840SOL    HW133419   3.051   6.315   2.373
10840SOL    HW233420   2.995   6.172   2.317
10841SOL     OW33421   6.874   4.433   5.417
10841SOL    HW133422   6.957   4.400   5.460
10841SOL    HW233423   6.881   4.423   5.318
10842SOL     OW33424   4.757   2.256   1.297
10842SOL    HW133425   4.720   2.178   1.247
10842SOL    HW233426   4.839   2.227   1.348
10843SOL     OW33427   1.351   1.414   0.988
10843SOL    HW133428   1.304   1.441   0.905
10843SOL    HW233429   1.445   1.388   0.967
10844SOL     OW33430   0.688   5.188   3.400
10844SOL    HW133431   0.744   5.177   3.482
10844SOL    HW233432   0.748   5.191   3.320
10845SOL     OW33433   3.866   6.179   5.434
10845SOL    HW133434   3.781   6.168   5.486
10845SOL    HW233435   3.939   6.128   5.480
10846SOL     OW33436   5.240   0.764   6.726
10846SOL    HW133437   5.318   0.747   6.786
10846SOL    HW233438   5.273   0.793   6.636
10847SOL     OW33439   3.379   2.477   0.408
10847SOL    HW133440   3.412   2.504   0.318
10847SOL    HW233441   3.282   2.452   0.402
10848SOL     OW33442   2.029   4.299   0.621
10848SOL    HW133443   1.954   4.245   0.657
10848SOL    HW233444   2.026   4.298   0.521
10849SOL     OW33445   2.420   4.497   4.197
10849SOL    HW133446   2.364   4.419   4.224
10849SOL    HW233447   2.441   4.492   4.100
10850SOL     OW33448   3.299   6.219   6.079
10850SOL    HW133449   3.386   6.249   6.041
10850SOL    HW233450   3.245   6.174   6.008
10851SOL     OW33451   2.891   3.774   0.584
10851SOL    HW133452   2.918   3.680   0.604
10851SOL    HW233453   2.792   3.779   0.575
10852SOL     OW33454   1.689   0.529   6.794
10852SOL    HW133455   1.591   0.510   6.803
10852SOL    HW233456   1.736   0.446   6.764
10853SOL     OW33457   1.767   3.174   5.805
10853SOL    HW133458   1.860   3.171   5.769
10853SOL    HW233459   1.702   3.146   5.734
10854SOL     OW33460   4.241   4.973   5.844
10854SOL    HW133461   4.158   4.958   5.790
10854SOL    HW233462   4.249   4.901   5.913
10855SOL     OW33463   4.059   0.968   0.738
10855SOL    HW133464   4.105   0.995   0.653
10855SOL    HW233465   4.127   0.932   0.803
10856SOL     OW33466   5.152   0.680   1.124
10856SOL    HW133467   5.073   0.655   1.069
10856SOL    HW233468   5.124   0.745   1.195
10857SOL     OW33469   1.113   2.202   2.771
10857SOL    HW133470   1.015   2.221   2.759
10857SOL    HW233471   1.150   2.164   2.686
10858SOL     OW33472   1.189   1.260   0.308
10858SOL    HW133473   1.186   1.360   0.317
10858SOL    HW233474   1.280   1.227   0.332
10859SOL     OW33475   1.037   4.865   4.555
10859SOL    HW133476   1.133   4.861   4.584
10859SOL    HW233477   0.990   4.936   4.606
10860SOL     OW33478   0.308   3.143   5.136
10860SOL    HW133479   0.346   3.051   5.128
10860SOL    HW233480   0.324   3.193   5.051
10861SOL     OW33481   3.463   4.141   3.394
10861SOL    HW133482   3.460   4.132   3.493
10861SOL    HW233483   3.373   4.122   3.356
10862SOL     OW33484   2.197   1.119   6.076
10862SOL    HW133485   2.105   1.079   6.082
10862SOL    HW233486   2.190   1.213   6.045
10863SOL     OW33487   2.437   0.497   3.953
10863SOL    HW133488   2.441   0.464   4.047
10863SOL    HW233489   2.354   0.551   3.940
10864SOL     OW33490   2.359   6.374   0.107
10864SOL    HW133491   2.319   6.463   0.082
10864SOL    HW233492   2.412   6.385   0.192
10865SOL     OW33493   6.856   1.223   1.179
10865SOL    HW133494   6.816   1.265   1.260
10865SOL    HW233495   6.787   1.221   1.106
10866SOL     OW33496   5.411   4.433   0.148
10866SOL    HW133497   5.498   4.432   0.197
10866SOL    HW233498   5.405   4.352   0.089
10867SOL     OW33499   3.385   3.911   0.620
10867SOL    HW133500   3.484   3.907   0.606
10867SOL    HW233501   3.355   4.006   0.617
10868SOL     OW33502   4.955   1.074   3.938
10868SOL    HW133503   4.910   1.164   3.937
10868SOL    HW233504   4.906   1.013   4.000
10869NA      NA33505   6.237   2.906   5.369
10870NA      NA33506   4.502   4.473   5.263
10871NA      NA33507   1.690   3.080   2.017
10872NA      NA33508   4.948   3.802   5.112
10873NA      NA33509   4.275   2.415   5.305
10874NA      NA33510   3.566   4.904   1.800
10875NA      NA33511   6.885   4.922   6.957
10876NA      NA33512   3.670   3.402   4.307
10877NA      NA33513   4.842   6.199   0.131
10878NA      NA33514   3.932   6.629   5.113
10879NA      NA33515   6.018   5.087   2.181
10880NA      NA33516   2.091   0.047   3.969
10881NA      NA33517   3.953   5.407   2.679
10882NA      NA33518   3.628   3.883   2.075
   7.02569   7.02569   7.02569
