Generated by trjconv : CNT in water t= 223.00000
33518
    1C        C    1   2.839   2.763   4.745
    1C        C    2   2.894   2.718   4.867
    1C        C    3   2.841   2.770   4.985
    1C        C    4   2.848   2.771   4.258
    1C        C    5   2.898   2.722   4.381
    1C        C    6   2.841   2.767   4.502
    1C        C    7   3.009   2.636   4.623
    1C        C    8   2.892   2.715   4.623
    1C        C    9   3.073   2.598   4.743
    1C        C   10   3.008   2.635   4.863
    1C        C   11   3.178   2.496   4.974
    1C        C   12   3.053   2.560   4.973
    1C        C   13   2.848   2.766   3.773
    1C        C   14   2.898   2.713   3.893
    1C        C   15   2.845   2.767   4.012
    1C        C   16   3.018   2.646   4.137
    1C        C   17   2.900   2.724   4.135
    1C        C   18   3.078   2.610   4.260
    1C        C   19   3.016   2.644   4.382
    1C        C   20   3.207   2.550   4.501
    1C        C   21   3.075   2.603   4.503
    1C        C   22   3.274   2.529   4.623
    1C        C   23   3.205   2.543   4.745
    1C        C   24   3.410   2.478   4.862
    1C        C   25   3.268   2.497   4.863
    1C        C   26   3.487   2.476   4.980
    1C        C   27   2.841   2.759   3.280
    1C        C   28   2.899   2.718   3.402
    1C        C   29   2.848   2.766   3.525
    1C        C   30   3.016   2.641   3.648
    1C        C   31   2.902   2.725   3.649
    1C        C   32   3.074   2.598   3.770
    1C        C   33   3.013   2.631   3.893
    1C        C   34   3.207   2.549   4.016
    1C        C   35   3.076   2.602   4.016
    1C        C   36   3.276   2.532   4.138
    1C        C   37   3.207   2.552   4.260
    1C        C   38   3.417   2.507   4.380
    1C        C   39   3.277   2.531   4.380
    1C        C   40   3.486   2.495   4.502
    1C        C   41   3.412   2.496   4.622
    1C        C   42   3.628   2.478   4.744
    1C        C   43   3.485   2.481   4.742
    1C        C   44   3.704   2.484   4.862
    1C        C   45   3.626   2.471   4.978
    1C        C   46   2.830   2.742   2.790
    1C        C   47   2.884   2.701   2.914
    1C        C   48   2.836   2.753   3.036
    1C        C   49   3.010   2.630   3.158
    1C        C   50   2.895   2.712   3.158
    1C        C   51   3.074   2.600   3.280
    1C        C   52   3.014   2.635   3.403
    1C        C   53   3.204   2.545   3.526
    1C        C   54   3.073   2.599   3.526
    1C        C   55   3.273   2.528   3.648
    1C        C   56   3.205   2.546   3.771
    1C        C   57   3.413   2.508   3.892
    1C        C   58   3.273   2.527   3.893
    1C        C   59   3.486   2.501   4.013
    1C        C   60   3.416   2.510   4.136
    1C        C   61   3.627   2.495   4.256
    1C        C   62   3.486   2.497   4.258
    1C        C   63   3.697   2.501   4.378
    1C        C   64   3.628   2.494   4.501
    1C        C   65   3.834   2.535   4.620
    1C        C   66   3.699   2.495   4.623
    1C        C   67   3.905   2.556   4.741
    1C        C   68   3.839   2.526   4.862
    1C        C   69   4.047   2.586   4.979
    1C        C   70   3.918   2.530   4.977
    1C        C   71   2.818   2.728   2.307
    1C        C   72   2.877   2.685   2.428
    1C        C   73   2.827   2.739   2.549
    1C        C   74   3.002   2.616   2.670
    1C        C   75   2.882   2.691   2.669
    1C        C   76   3.066   2.587   2.792
    1C        C   77   3.005   2.628   2.913
    1C        C   78   3.202   2.545   3.036
    1C        C   79   3.071   2.599   3.034
    1C        C   80   3.270   2.523   3.157
    1C        C   81   3.205   2.547   3.281
    1C        C   82   3.410   2.500   3.401
    1C        C   83   3.270   2.523   3.404
    1C        C   84   3.481   2.496   3.523
    1C        C   85   3.413   2.505   3.646
    1C        C   86   3.623   2.497   3.766
    1C        C   87   3.482   2.505   3.769
    1C        C   88   3.696   2.499   3.887
    1C        C   89   3.627   2.499   4.010
    1C        C   90   3.832   2.544   4.134
    1C        C   91   3.697   2.504   4.133
    1C        C   92   3.901   2.569   4.255
    1C        C   93   3.834   2.536   4.375
    1C        C   94   4.021   2.631   4.496
    1C        C   95   3.900   2.558   4.498
    1C        C   96   4.084   2.671   4.616
    1C        C   97   4.028   2.628   4.738
    1C        C   98   4.187   2.761   4.859
    1C        C   99   4.097   2.650   4.860
    1C        C  100   4.210   2.840   4.972
    1C        C  101   2.821   2.730   2.066
    1C        C  102   2.983   2.587   2.188
    1C        C  103   2.871   2.676   2.185
    1C        C  104   3.057   2.565   2.308
    1C        C  105   2.995   2.607   2.427
    1C        C  106   3.197   2.534   2.548
    1C        C  107   3.063   2.579   2.548
    1C        C  108   3.266   2.517   2.670
    1C        C  109   3.198   2.536   2.793
    1C        C  110   3.408   2.495   2.912
    1C        C  111   3.269   2.520   2.914
    1C        C  112   3.479   2.491   3.034
    1C        C  113   3.409   2.500   3.157
    1C        C  114   3.622   2.504   3.277
    1C        C  115   3.481   2.496   3.279
    1C        C  116   3.692   2.510   3.400
    1C        C  117   3.623   2.499   3.522
    1C        C  118   3.831   2.539   3.643
    1C        C  119   3.694   2.504   3.644
    1C        C  120   3.895   2.566   3.766
    1C        C  121   3.832   2.539   3.889
    1C        C  122   4.022   2.633   4.009
    1C        C  123   3.898   2.566   4.011
    1C        C  124   4.084   2.671   4.131
    1C        C  125   4.026   2.636   4.255
    1C        C  126   4.192   2.766   4.374
    1C        C  127   4.085   2.674   4.377
    1C        C  128   4.244   2.816   4.496
    1C        C  129   4.193   2.761   4.616
    1C        C  130   4.319   2.931   4.738
    1C        C  131   4.241   2.812   4.738
    1C        C  132   4.345   3.004   4.856
    1C        C  133   4.275   2.963   4.971
    1C        C  134   3.169   2.467   2.081
    1C        C  135   3.035   2.506   2.083
    1C        C  136   3.257   2.478   2.189
    1C        C  137   3.191   2.518   2.307
    1C        C  138   3.403   2.481   2.425
    1C        C  139   3.263   2.502   2.428
    1C        C  140   3.477   2.485   2.545
    1C        C  141   3.405   2.495   2.666
    1C        C  142   3.617   2.493   2.785
    1C        C  143   3.476   2.491   2.788
    1C        C  144   3.689   2.502   2.906
    1C        C  145   3.620   2.496   3.030
    1C        C  146   3.827   2.536   3.153
    1C        C  147   3.689   2.507   3.153
    1C        C  148   3.896   2.557   3.274
    1C        C  149   3.830   2.539   3.397
    1C        C  150   4.023   2.624   3.520
    1C        C  151   3.897   2.560   3.520
    1C        C  152   4.080   2.670   3.641
    1C        C  153   4.020   2.633   3.764
    1C        C  154   4.190   2.760   3.886
    1C        C  155   4.077   2.676   3.886
    1C        C  156   4.245   2.807   4.008
    1C        C  157   4.193   2.761   4.131
    1C        C  158   4.336   2.920   4.250
    1C        C  159   4.243   2.814   4.251
    1C        C  160   4.372   2.982   4.372
    1C        C  161   4.331   2.927   4.496
    1C        C  162   4.436   3.112   4.615
    1C        C  163   4.365   2.990   4.618
    1C        C  164   4.463   3.182   4.735
    1C        C  165   4.424   3.121   4.857
    1C        C  166   4.514   3.316   4.969
    1C        C  167   4.475   3.183   4.971
    1C        C  168   3.471   2.432   2.069
    1C        C  169   3.397   2.458   2.185
    1C        C  170   3.615   2.460   2.305
    1C        C  171   3.473   2.460   2.304
    1C        C  172   3.690   2.484   2.422
    1C        C  173   3.618   2.488   2.544
    1C        C  174   3.827   2.535   2.665
    1C        C  175   3.691   2.496   2.664
    1C        C  176   3.895   2.558   2.786
    1C        C  177   3.826   2.537   2.907
    1C        C  178   4.020   2.621   3.031
    1C        C  179   3.891   2.562   3.030
    1C        C  180   4.083   2.657   3.152
    1C        C  181   4.022   2.620   3.274
    1C        C  182   4.189   2.750   3.394
    1C        C  183   4.081   2.659   3.397
    1C        C  184   4.240   2.802   3.515
    1C        C  185   4.191   2.757   3.639
    1C        C  186   4.331   2.915   3.761
    1C        C  187   4.240   2.807   3.762
    1C        C  188   4.368   2.977   3.883
    1C        C  189   4.330   2.919   4.006
    1C        C  190   4.435   3.106   4.127
    1C        C  191   4.371   2.981   4.127
    1C        C  192   4.465   3.171   4.250
    1C        C  193   4.436   3.108   4.373
    1C        C  194   4.503   3.313   4.490
    1C        C  195   4.462   3.178   4.493
    1C        C  196   4.522   3.385   4.610
    1C        C  197   4.508   3.316   4.733
    1C        C  198   4.557   3.532   4.849
    1C        C  199   4.528   3.392   4.852
    1C        C  200   4.582   3.617   4.962
    1C        C  201   3.610   2.415   2.072
    1C        C  202   3.822   2.510   2.178
    1C        C  203   3.690   2.457   2.184
    1C        C  204   3.896   2.536   2.297
    1C        C  205   3.827   2.521   2.419
    1C        C  206   4.019   2.614   2.540
    1C        C  207   3.892   2.553   2.540
    1C        C  208   4.084   2.651   2.660
    1C        C  209   4.023   2.619   2.784
    1C        C  210   4.193   2.740   2.902
    1C        C  211   4.080   2.654   2.908
    1C        C  212   4.243   2.791   3.024
    1C        C  213   4.193   2.746   3.149
    1C        C  214   4.330   2.907   3.269
    1C        C  215   4.242   2.796   3.271
    1C        C  216   4.368   2.966   3.392
    1C        C  217   4.332   2.910   3.517
    1C        C  218   4.430   3.100   3.637
    1C        C  219   4.373   2.970   3.638
    1C        C  220   4.458   3.167   3.758
    1C        C  221   4.435   3.101   3.881
    1C        C  222   4.496   3.304   3.999
    1C        C  223   4.465   3.166   4.003
    1C        C  224   4.507   3.376   4.120
    1C        C  225   4.499   3.307   4.244
    1C        C  226   4.515   3.519   4.364
    1C        C  227   4.510   3.378   4.365
    1C        C  228   4.512   3.594   4.484
    1C        C  229   4.527   3.526   4.607
    1C        C  230   4.502   3.739   4.724
    1C        C  231   4.535   3.600   4.727
    1C        C  232   4.495   3.815   4.843
    1C        C  233   4.545   3.752   4.958
    1C        C  234   4.014   2.608   2.058
    1C        C  235   3.890   2.544   2.060
    1C        C  236   4.085   2.638   2.175
    1C        C  237   4.023   2.599   2.295
    1C        C  238   4.195   2.729   2.413
    1C        C  239   4.080   2.644   2.416
    1C        C  240   4.246   2.779   2.535
    1C        C  241   4.196   2.737   2.660
    1C        C  242   4.329   2.902   2.780
    1C        C  243   4.250   2.785   2.781
    1C        C  244   4.372   2.959   2.902
    1C        C  245   4.331   2.901   3.024
    1C        C  246   4.424   3.094   3.145
    1C        C  247   4.366   2.965   3.146
    1C        C  248   4.447   3.158   3.268
    1C        C  249   4.431   3.092   3.392
    1C        C  250   4.488   3.300   3.510
    1C        C  251   4.453   3.163   3.513
    1C        C  252   4.504   3.370   3.632
    1C        C  253   4.497   3.303   3.756
    1C        C  254   4.510   3.515   3.875
    1C        C  255   4.510   3.373   3.877
    1C        C  256   4.507   3.586   3.997
    1C        C  257   4.511   3.517   4.120
    1C        C  258   4.490   3.729   4.240
    1C        C  259   4.515   3.590   4.241
    1C        C  260   4.471   3.803   4.359
    1C        C  261   4.488   3.733   4.480
    1C        C  262   4.424   3.936   4.602
    1C        C  263   4.469   3.802   4.602
    1C        C  264   4.397   4.006   4.722
    1C        C  265   4.432   3.941   4.842
    1C        C  266   4.317   4.126   4.957
    1C        C  267   4.391   4.009   4.958
    1C        C  268   4.266   2.767   2.059
    1C        C  269   4.198   2.723   2.173
    1C        C  270   4.342   2.886   2.294
    1C        C  271   4.252   2.776   2.293
    1C        C  272   4.375   2.949   2.416
    1C        C  273   4.335   2.890   2.537
    1C        C  274   4.437   3.081   2.656
    1C        C  275   4.369   2.958   2.656
    1C        C  276   4.465   3.147   2.778
    1C        C  277   4.440   3.083   2.902
    1C        C  278   4.498   3.290   3.022
    1C        C  279   4.460   3.154   3.022
    1C        C  280   4.503   3.363   3.143
    1C        C  281   4.482   3.295   3.265
    1C        C  282   4.510   3.507   3.385
    1C        C  283   4.498   3.367   3.386
    1C        C  284   4.503   3.579   3.507
    1C        C  285   4.509   3.511   3.631
    1C        C  286   4.489   3.724   3.751
    1C        C  287   4.506   3.584   3.752
    1C        C  288   4.477   3.794   3.873
    1C        C  289   4.491   3.727   3.996
    1C        C  290   4.426   3.930   4.112
    1C        C  291   4.474   3.797   4.118
    1C        C  292   4.394   3.997   4.232
    1C        C  293   4.421   3.935   4.356
    1C        C  294   4.325   4.122   4.474
    1C        C  295   4.393   3.999   4.479
    1C        C  296   4.284   4.182   4.596
    1C        C  297   4.326   4.129   4.720
    1C        C  298   4.201   4.311   4.834
    1C        C  299   4.282   4.193   4.839
    1C        C  300   4.165   4.393   4.945
    1C        C  301   4.345   2.881   2.058
    1C        C  302   4.464   3.065   2.172
    1C        C  303   4.397   2.939   2.174
    1C        C  304   4.473   3.139   2.293
    1C        C  305   4.438   3.075   2.414
    1C        C  306   4.501   3.283   2.533
    1C        C  307   4.463   3.147   2.533
    1C        C  308   4.509   3.355   2.655
    1C        C  309   4.496   3.284   2.777
    1C        C  310   4.519   3.498   2.896
    1C        C  311   4.507   3.357   2.898
    1C        C  312   4.516   3.570   3.017
    1C        C  313   4.512   3.504   3.142
    1C        C  314   4.487   3.717   3.260
    1C        C  315   4.509   3.577   3.263
    1C        C  316   4.471   3.787   3.382
    1C        C  317   4.481   3.718   3.505
    1C        C  318   4.427   3.924   3.624
    1C        C  319   4.470   3.790   3.627
    1C        C  320   4.398   3.990   3.746
    1C        C  321   4.429   3.927   3.869
    1C        C  322   4.319   4.111   3.987
    1C        C  323   4.397   3.994   3.990
    1C        C  324   4.278   4.171   4.108
    1C        C  325   4.323   4.120   4.231
    1C        C  326   4.188   4.284   4.353
    1C        C  327   4.286   4.182   4.352
    1C        C  328   4.135   4.338   4.473
    1C        C  329   4.192   4.289   4.592
    1C        C  330   4.026   4.431   4.711
    1C        C  331   4.140   4.347   4.710
    1C        C  332   3.967   4.484   4.827
    1C        C  333   4.045   4.465   4.942
    1C        C  334   4.552   3.263   2.059
    1C        C  335   4.534   3.125   2.062
    1C        C  336   4.538   3.347   2.170
    1C        C  337   4.510   3.276   2.289
    1C        C  338   4.513   3.491   2.410
    1C        C  339   4.512   3.350   2.410
    1C        C  340   4.513   3.566   2.530
    1C        C  341   4.514   3.496   2.653
    1C        C  342   4.493   3.708   2.771
    1C        C  343   4.512   3.568   2.774
    1C        C  344   4.477   3.778   2.892
    1C        C  345   4.489   3.709   3.015
    1C        C  346   4.424   3.914   3.135
    1C        C  347   4.470   3.780   3.135
    1C        C  348   4.394   3.982   3.255
    1C        C  349   4.426   3.921   3.378
    1C        C  350   4.324   4.107   3.499
    1C        C  351   4.398   3.986   3.500
    1C        C  352   4.277   4.163   3.620
    1C        C  353   4.316   4.105   3.742
    1C        C  354   4.177   4.267   3.861
    1C        C  355   4.272   4.163   3.864
    1C        C  356   4.124   4.314   3.984
    1C        C  357   4.178   4.271   4.107
    1C        C  358   4.010   4.395   4.227
    1C        C  359   4.132   4.324   4.230
    1C        C  360   3.952   4.443   4.346
    1C        C  361   4.019   4.418   4.468
    1C        C  362   3.824   4.504   4.588
    1C        C  363   3.956   4.454   4.590
    1C        C  364   3.759   4.536   4.709
    1C        C  365   3.834   4.532   4.828
    1C        C  366   3.624   4.589   4.947
    1C        C  367   3.762   4.574   4.941
    1C        C  368   4.503   3.563   2.051
    1C        C  369   4.523   3.488   2.167
    1C        C  370   4.498   3.702   2.289
    1C        C  371   4.516   3.562   2.287
    1C        C  372   4.485   3.778   2.407
    1C        C  373   4.501   3.707   2.528
    1C        C  374   4.428   3.909   2.649
    1C        C  375   4.481   3.778   2.648
    1C        C  376   4.394   3.975   2.769
    1C        C  377   4.428   3.911   2.890
    1C        C  378   4.321   4.095   3.008
    1C        C  379   4.398   3.977   3.011
    1C        C  380   4.273   4.153   3.128
    1C        C  381   4.318   4.101   3.251
    1C        C  382   4.175   4.253   3.373
    1C        C  383   4.277   4.156   3.375
    1C        C  384   4.118   4.300   3.494
    1C        C  385   4.173   4.258   3.617
    1C        C  386   4.007   4.390   3.737
    1C        C  387   4.125   4.312   3.738
    1C        C  388   3.944   4.425   3.859
    1C        C  389   4.007   4.393   3.981
    1C        C  390   3.817   4.481   4.103
    1C        C  391   3.947   4.426   4.104
    1C        C  392   3.750   4.507   4.225
    1C        C  393   3.821   4.496   4.347
    1C        C  394   3.613   4.547   4.471
    1C        C  395   3.752   4.522   4.467
    1C        C  396   3.542   4.564   4.592
    1C        C  397   3.620   4.561   4.709
    1C        C  398   3.410   4.540   4.835
    1C        C  399   3.548   4.571   4.830
    1C        C  400   3.341   4.510   4.953
    1C        C  401   4.501   3.702   2.052
    1C        C  402   4.456   3.914   2.164
    1C        C  403   4.487   3.777   2.170
    1C        C  404   4.411   3.975   2.283
    1C        C  405   4.440   3.912   2.406
    1C        C  406   4.324   4.094   2.522
    1C        C  407   4.399   3.974   2.527
    1C        C  408   4.277   4.150   2.643
    1C        C  409   4.314   4.091   2.765
    1C        C  410   4.171   4.248   2.886
    1C        C  411   4.271   4.149   2.887
    1C        C  412   4.115   4.294   3.007
    1C        C  413   4.169   4.248   3.129
    1C        C  414   3.999   4.374   3.250
    1C        C  415   4.118   4.298   3.252
    1C        C  416   3.936   4.405   3.372
    1C        C  417   3.998   4.375   3.495
    1C        C  418   3.807   4.469   3.615
    1C        C  419   3.938   4.416   3.617
    1C        C  420   3.742   4.494   3.738
    1C        C  421   3.811   4.474   3.860
    1C        C  422   3.606   4.521   3.984
    1C        C  423   3.745   4.495   3.983
    1C        C  424   3.539   4.532   4.108
    1C        C  425   3.611   4.532   4.229
    1C        C  426   3.399   4.544   4.352
    1C        C  427   3.540   4.544   4.351
    1C        C  428   3.328   4.537   4.475
    1C        C  429   3.401   4.549   4.595
    1C        C  430   3.192   4.512   4.718
    1C        C  431   3.332   4.539   4.717
    1C        C  432   3.124   4.484   4.840
    1C        C  433   3.204   4.484   4.954
    1C        C  434   4.381   4.121   2.047
    1C        C  435   4.443   3.996   2.051
    1C        C  436   4.299   4.159   2.159
    1C        C  437   4.333   4.094   2.280
    1C        C  438   4.179   4.246   2.398
    1C        C  439   4.284   4.151   2.399
    1C        C  440   4.121   4.292   2.518
    1C        C  441   4.173   4.246   2.641
    1C        C  442   4.002   4.372   2.763
    1C        C  443   4.119   4.294   2.762
    1C        C  444   3.938   4.409   2.884
    1C        C  445   3.996   4.371   3.007
    1C        C  446   3.805   4.463   3.124
    1C        C  447   3.935   4.407   3.128
    1C        C  448   3.741   4.487   3.248
    1C        C  449   3.806   4.461   3.371
    1C        C  450   3.603   4.521   3.492
    1C        C  451   3.742   4.494   3.492
    1C        C  452   3.535   4.531   3.616
    1C        C  453   3.605   4.529   3.738
    1C        C  454   3.396   4.537   3.864
    1C        C  455   3.537   4.536   3.862
    1C        C  456   3.326   4.533   3.986
    1C        C  457   3.397   4.537   4.108
    1C        C  458   3.190   4.497   4.234
    1C        C  459   3.328   4.526   4.231
    1C        C  460   3.120   4.485   4.356
    1C        C  461   3.189   4.510   4.477
    1C        C  462   2.991   4.433   4.600
    1C        C  463   3.122   4.486   4.599
    1C        C  464   2.927   4.395   4.720
    1C        C  465   2.992   4.429   4.842
    1C        C  466   2.800   4.331   4.960
    1C        C  467   2.905   4.423   4.956
    1C        C  468   4.116   4.280   2.038
    1C        C  469   4.181   4.240   2.156
    1C        C  470   3.999   4.360   2.275
    1C        C  471   4.121   4.287   2.276
    1C        C  472   3.935   4.392   2.396
    1C        C  473   4.001   4.365   2.518
    1C        C  474   3.810   4.459   2.639
    1C        C  475   3.938   4.400   2.640
    1C        C  476   3.740   4.486   2.759
    1C        C  477   3.807   4.462   2.880
    1C        C  478   3.600   4.510   3.006
    1C        C  479   3.738   4.481   3.002
    1C        C  480   3.530   4.523   3.129
    1C        C  481   3.603   4.517   3.249
    1C        C  482   3.390   4.531   3.375
    1C        C  483   3.531   4.530   3.370
    1C        C  484   3.322   4.523   3.498
    1C        C  485   3.394   4.536   3.619
    1C        C  486   3.187   4.499   3.743
    1C        C  487   3.324   4.533   3.742
    1C        C  488   3.122   4.473   3.865
    1C        C  489   3.191   4.494   3.987
    1C        C  490   2.996   4.418   4.113
    1C        C  491   3.126   4.474   4.111
    1C        C  492   2.933   4.385   4.235
    1C        C  493   2.992   4.426   4.357
    1C        C  494   2.823   4.299   4.478
    1C        C  495   2.932   4.390   4.480
    1C        C  496   2.769   4.254   4.601
    1C        C  497   2.815   4.308   4.723
    1C        C  498   2.661   4.161   4.842
    1C        C  499   2.752   4.269   4.844
    1C        C  500   2.593   4.116   4.956
    1C        C  501   3.993   4.345   2.036
    1C        C  502   3.812   4.463   2.154
    1C        C  503   3.936   4.396   2.154
    1C        C  504   3.740   4.480   2.274
    1C        C  505   3.804   4.446   2.395
    1C        C  506   3.602   4.502   2.518
    1C        C  507   3.741   4.479   2.517
    1C        C  508   3.530   4.509   2.639
    1C        C  509   3.600   4.509   2.762
    1C        C  510   3.389   4.523   2.885
    1C        C  511   3.530   4.517   2.884
    1C        C  512   3.317   4.522   3.006
    1C        C  513   3.389   4.530   3.128
    1C        C  514   3.184   4.489   3.254
    1C        C  515   3.321   4.524   3.252
    1C        C  516   3.116   4.472   3.376
    1C        C  517   3.183   4.496   3.497
    1C        C  518   2.994   4.409   3.621
    1C        C  519   3.120   4.472   3.621
    1C        C  520   2.934   4.376   3.745
    1C        C  521   2.994   4.413   3.868
    1C        C  522   2.832   4.281   3.991
    1C        C  523   2.937   4.376   3.992
    1C        C  524   2.785   4.231   4.115
    1C        C  525   2.829   4.290   4.236
    1C        C  526   2.689   4.131   4.362
    1C        C  527   2.775   4.244   4.358
    1C        C  528   2.645   4.075   4.483
    1C        C  529   2.681   4.144   4.601
    1C        C  530   2.583   3.958   4.728
    1C        C  531   2.634   4.091   4.723
    1C        C  532   2.541   3.899   4.850
    1C        C  533   2.531   3.990   4.960
    1C        C  534   3.615   4.553   2.039
    1C        C  535   3.746   4.503   2.037
    1C        C  536   3.530   4.530   2.152
    1C        C  537   3.600   4.506   2.273
    1C        C  538   3.389   4.511   2.397
    1C        C  539   3.531   4.507   2.396
    1C        C  540   3.317   4.506   2.518
    1C        C  541   3.389   4.512   2.640
    1C        C  542   3.181   4.483   2.762
    1C        C  543   3.319   4.514   2.762
    1C        C  544   3.117   4.460   2.886
    1C        C  545   3.181   4.484   3.010
    1C        C  546   2.989   4.402   3.132
    1C        C  547   3.114   4.467   3.133
    1C        C  548   2.930   4.367   3.255
    1C        C  549   2.991   4.406   3.377
    1C        C  550   2.819   4.286   3.500
    1C        C  551   2.933   4.370   3.500
    1C        C  552   2.773   4.234   3.624
    1C        C  553   2.827   4.284   3.744
    1C        C  554   2.700   4.118   3.871
    1C        C  555   2.786   4.230   3.868
    1C        C  556   2.659   4.061   3.994
    1C        C  557   2.698   4.120   4.116
    1C        C  558   2.598   3.938   4.244
    1C        C  559   2.660   4.066   4.240
    1C        C  560   2.566   3.875   4.367
    1C        C  561   2.586   3.947   4.487
    1C        C  562   2.526   3.747   4.612
    1C        C  563   2.562   3.883   4.610
    1C        C  564   2.516   3.677   4.735
    1C        C  565   2.518   3.757   4.853
    1C        C  566   2.529   3.545   4.977
    1C        C  567   2.518   3.683   4.971
    1C        C  568   3.323   4.472   2.037
    1C        C  569   3.389   4.515   2.153
    1C        C  570   3.180   4.474   2.276
    1C        C  571   3.318   4.508   2.275
    1C        C  572   3.110   4.454   2.398
    1C        C  573   3.178   4.482   2.518
    1C        C  574   2.982   4.404   2.643
    1C        C  575   3.111   4.461   2.641
    1C        C  576   2.923   4.366   2.766
    1C        C  577   2.989   4.400   2.886
    1C        C  578   2.821   4.274   3.013
    1C        C  579   2.930   4.364   3.009
    1C        C  580   2.773   4.224   3.136
    1C        C  581   2.821   4.277   3.258
    1C        C  582   2.687   4.116   3.381
    1C        C  583   2.767   4.232   3.381
    1C        C  584   2.656   4.055   3.505
    1C        C  585   2.693   4.118   3.627
    1C        C  586   2.592   3.933   3.752
    1C        C  587   2.658   4.058   3.750
    1C        C  588   2.572   3.868   3.876
    1C        C  589   2.598   3.934   3.998
    1C        C  590   2.540   3.734   4.126
    1C        C  591   2.573   3.872   4.122
    1C        C  592   2.526   3.667   4.249
    1C        C  593   2.527   3.740   4.370
    1C        C  594   2.515   3.530   4.495
    1C        C  595   2.516   3.671   4.493
    1C        C  596   2.520   3.461   4.618
    1C        C  597   2.516   3.535   4.739
    1C        C  598   2.536   3.325   4.861
    1C        C  599   2.524   3.466   4.861
    1C        C  600   2.533   3.245   4.976
    1C        C  601   3.187   4.445   2.038
    1C        C  602   2.977   4.398   2.154
    1C        C  603   3.110   4.450   2.155
    1C        C  604   2.921   4.360   2.279
    1C        C  605   2.981   4.398   2.401
    1C        C  606   2.814   4.269   2.525
    1C        C  607   2.918   4.364   2.523
    1C        C  608   2.764   4.221   2.648
    1C        C  609   2.816   4.274   2.768
    1C        C  610   2.687   4.109   2.894
    1C        C  611   2.770   4.223   2.891
    1C        C  612   2.653   4.048   3.017
    1C        C  613   2.687   4.112   3.138
    1C        C  614   2.595   3.922   3.261
    1C        C  615   2.651   4.051   3.261
    1C        C  616   2.570   3.862   3.387
    1C        C  617   2.597   3.927   3.509
    1C        C  618   2.532   3.727   3.634
    1C        C  619   2.567   3.864   3.632
    1C        C  620   2.522   3.660   3.758
    1C        C  621   2.538   3.731   3.879
    1C        C  622   2.512   3.524   4.007
    1C        C  623   2.524   3.665   4.003
    1C        C  624   2.515   3.455   4.131
    1C        C  625   2.515   3.526   4.253
    1C        C  626   2.538   3.316   4.377
    1C        C  627   2.517   3.455   4.375
    1C        C  628   2.554   3.248   4.500
    1C        C  629   2.535   3.321   4.620
    1C        C  630   2.597   3.116   4.741
    1C        C  631   2.555   3.252   4.742
    1C        C  632   2.611   3.045   4.864
    1C        C  633   2.559   3.107   4.982
    1C        C  634   2.781   4.298   2.051
    1C        C  635   2.891   4.384   2.040
    1C        C  636   2.746   4.226   2.166
    1C        C  637   2.808   4.273   2.283
    1C        C  638   2.677   4.104   2.406
    1C        C  639   2.761   4.217   2.404
    1C        C  640   2.641   4.044   2.529
    1C        C  641   2.678   4.109   2.649
    1C        C  642   2.587   3.922   2.772
    1C        C  643   2.641   4.052   2.773
    1C        C  644   2.565   3.854   2.894
    1C        C  645   2.591   3.921   3.016
    1C        C  646   2.535   3.718   3.144
    1C        C  647   2.568   3.855   3.139
    1C        C  648   2.520   3.653   3.268
    1C        C  649   2.533   3.726   3.389
    1C        C  650   2.511   3.516   3.514
    1C        C  651   2.521   3.657   3.511
    1C        C  652   2.518   3.450   3.638
    1C        C  653   2.515   3.519   3.761
    1C        C  654   2.533   3.312   3.887
    1C        C  655   2.515   3.452   3.886
    1C        C  656   2.556   3.246   4.010
    1C        C  657   2.538   3.316   4.132
    1C        C  658   2.601   3.114   4.255
    1C        C  659   2.556   3.248   4.255
    1C        C  660   2.630   3.050   4.378
    1C        C  661   2.604   3.116   4.500
    1C        C  662   2.706   2.930   4.624
    1C        C  663   2.628   3.048   4.622
    1C        C  664   2.748   2.872   4.745
    1C        C  665   2.695   2.929   4.864
    1C        C  666   2.738   2.864   4.980
    1C        C  667   2.674   4.020   2.048
    1C        C  668   2.681   4.101   2.163
    1C        C  669   2.583   3.911   2.287
    1C        C  670   2.640   4.042   2.285
    1C        C  671   2.555   3.846   2.409
    1C        C  672   2.585   3.915   2.529
    1C        C  673   2.521   3.715   2.656
    1C        C  674   2.568   3.849   2.653
    1C        C  675   2.509   3.646   2.779
    1C        C  676   2.531   3.717   2.898
    1C        C  677   2.511   3.508   3.027
    1C        C  678   2.522   3.648   3.021
    1C        C  679   2.512   3.437   3.150
    1C        C  680   2.511   3.512   3.269
    1C        C  681   2.533   3.304   3.399
    1C        C  682   2.509   3.443   3.393
    1C        C  683   2.551   3.237   3.522
    1C        C  684   2.537   3.310   3.643
    1C        C  685   2.601   3.110   3.769
    1C        C  686   2.548   3.241   3.766
    1C        C  687   2.632   3.048   3.892
    1C        C  688   2.605   3.114   4.014
    1C        C  689   2.707   2.926   4.136
    1C        C  690   2.633   3.047   4.135
    1C        C  691   2.751   2.873   4.259
    1C        C  692   2.704   2.929   4.380
    1C        C  693   2.743   2.869   4.502
    1C        C  694   2.622   3.890   2.051
    1C        C  695   2.523   3.702   2.174
    1C        C  696   2.573   3.834   2.170
    1C        C  697   2.507   3.634   2.297
    1C        C  698   2.520   3.709   2.416
    1C        C  699   2.496   3.499   2.539
    1C        C  700   2.507   3.640   2.538
    1C        C  701   2.504   3.432   2.663
    1C        C  702   2.501   3.505   2.784
    1C        C  703   2.530   3.295   2.909
    1C        C  704   2.507   3.434   2.907
    1C        C  705   2.547   3.227   3.032
    1C        C  706   2.533   3.297   3.154
    1C        C  707   2.594   3.099   3.279
    1C        C  708   2.546   3.232   3.278
    1C        C  709   2.628   3.040   3.403
    1C        C  710   2.602   3.106   3.525
    1C        C  711   2.710   2.925   3.647
    1C        C  712   2.635   3.045   3.649
    1C        C  713   2.750   2.868   3.770
    1C        C  714   2.707   2.928   3.891
    1C        C  715   2.749   2.870   4.013
    1C        C  716   2.440   3.498   2.061
    1C        C  717   2.480   3.632   2.061
    1C        C  718   2.462   3.418   2.178
    1C        C  719   2.487   3.493   2.296
    1C        C  720   2.516   3.285   2.420
    1C        C  721   2.494   3.424   2.419
    1C        C  722   2.537   3.220   2.544
    1C        C  723   2.524   3.292   2.665
    1C        C  724   2.586   3.089   2.788
    1C        C  725   2.544   3.224   2.787
    1C        C  726   2.620   3.029   2.912
    1C        C  727   2.590   3.093   3.034
    1C        C  728   2.702   2.916   3.156
    1C        C  729   2.625   3.034   3.157
    1C        C  730   2.748   2.865   3.280
    1C        C  731   2.704   2.921   3.402
    1C        C  732   2.749   2.866   3.525
    1C        C  733   2.483   3.189   2.073
    1C        C  734   2.487   3.278   2.182
    1C        C  735   2.575   3.077   2.304
    1C        C  736   2.518   3.208   2.302
    1C        C  737   2.602   3.013   2.427
    1C        C  738   2.579   3.085   2.546
    1C        C  739   2.689   2.902   2.669
    1C        C  740   2.617   3.023   2.668
    1C        C  741   2.734   2.846   2.791
    1C        C  742   2.695   2.909   2.911
    1C        C  743   2.740   2.856   3.034
    1C        C  744   2.543   3.064   2.069
    1C        C  745   2.683   2.894   2.185
    1C        C  746   2.610   3.015   2.182
    1C        C  747   2.728   2.838   2.307
    1C        C  748   2.681   2.896   2.427
    1C        C  749   2.730   2.843   2.548
    1C        C  750   2.731   2.835   2.067
    1C        C  751   3.655   2.311   1.978
    1C        O  752   3.690   2.195   2.014
    1C        O  753   3.600   2.292   1.851
    1C        C  754   4.615   3.048   1.964
    1C        O  755   4.568   3.044   1.847
    1C        O  756   4.684   2.930   1.991
    1C        C  757   4.442   4.221   1.956
    1C        O  758   4.538   4.293   1.993
    1C        O  759   4.425   4.210   1.818
    1C        C  760   3.593   4.671   1.953
    1C        O  761   3.572   4.787   1.998
    1C        O  762   3.606   4.653   1.815
    1C        C  763   2.883   4.478   1.926
    1C        O  764   2.938   4.459   1.815
    1C        O  765   2.807   4.593   1.952
    1C        C  766   2.326   3.473   1.969
    1C        O  767   2.340   3.500   1.846
    1C        O  768   2.199   3.504   2.018
    1C        C  769   4.707   3.581   5.033
    1C        O  770   4.712   3.584   5.159
    1C        O  771   4.826   3.614   4.967
    1C        C  772   4.267   4.472   5.017
    1C        O  773   4.300   4.448   5.136
    1C        O  774   4.364   4.548   4.950
    1C        C  775   4.132   2.509   5.072
    1C        O  776   4.229   2.438   5.034
    1C        O  777   4.129   2.540   5.208
    1C        C  778   2.878   4.550   5.026
    1C        O  779   2.797   4.639   4.989
    1C        O  780   2.948   4.590   5.141
    1C        C  781   2.468   3.040   5.078
    1C        O  782   2.389   2.949   5.039
    1C        O  783   2.497   3.028   5.213
    1C        C  784   2.396   3.987   5.019
    1C        O  785   2.305   4.058   4.967
    1C        O  786   2.366   3.977   5.156
    1C        C  787   2.948   2.438   1.983
    1C        O  788   2.976   2.432   1.860
    1C        O  789   2.850   2.354   2.035
    1C        C  790   3.180   2.371   5.054
    1C        O  791   3.216   2.263   5.000
    1C        O  792   3.124   2.350   5.181
    1C        H  793   4.253   3.033   5.049
    1C        H  794   4.165   2.813   5.066
    1C        H  795   4.516   3.119   5.047
    1C        H  796   4.479   3.373   5.053
    1C        H  797   4.584   3.815   5.035
    1C        H  798   4.442   3.988   5.050
    1C        H  799   4.288   4.161   5.054
    1C        H  800   3.996   4.471   5.037
    1C        H  801   3.812   4.624   5.021
    1C        H  802   3.573   4.635   5.029
    1C        H  803   3.390   4.489   5.046
    1C        H  804   3.162   4.435   5.039
    1C        H  805   3.913   2.443   5.038
    1C        H  806   3.675   2.438   5.067
    1C        H  807   2.980   2.532   5.046
    1C        H  808   3.441   2.497   5.074
    1C        H  809   2.905   2.775   5.071
    1C        H  810   2.677   2.874   5.067
    1C        H  811   2.563   3.295   5.066
    1C        H  812   2.523   3.498   5.073
    1C        H  813   2.516   3.737   5.064
    1C        H  814   2.564   4.186   5.031
    1C        H  815   2.736   4.324   5.046
    1C        H  816   2.700   2.870   1.971
    1C        H  817   2.825   2.673   1.975
    1C        H  818   3.196   2.391   2.010
    1C        H  819   3.434   2.478   1.980
    1C        H  820   3.839   2.532   1.967
    1C        H  821   4.045   2.657   1.968
    1C        H  822   4.261   2.705   1.971
    1C        H  823   4.353   2.932   1.964
    1C        H  824   4.562   3.310   1.963
    1C        H  825   4.481   3.513   1.959
    1C        H  826   4.504   3.750   1.956
    1C        H  827   3.813   4.553   1.970
    1C        H  828   3.954   4.376   1.941
    1C        H  829   4.169   4.264   1.947
    1C        H  830   4.499   3.968   1.964
    1C        H  831   2.647   3.829   1.967
    1C        H  832   2.734   4.041   1.962
    1C        H  833   2.718   4.281   1.966
    1C        H  834   3.376   4.435   1.952
    1C        H  835   3.166   4.362   1.974
    1C        H  836   2.501   2.992   2.003
    1C        H  837   2.396   3.198   2.011
    1C        H  838   2.437   3.688   1.980
    2V3OU   H29  839   2.799   3.545   1.940
    2V3OU   C27  840   2.778   3.494   2.038
    2V3OU   H27  841   2.717   3.565   2.100
    2V3OU   H28  842   2.723   3.399   2.016
    2V3OU   O11  843   2.901   3.467   2.106
    2V3OU   C15  844   2.921   3.393   2.221
    2V3OU   C13  845   3.051   3.366   2.268
    2V3OU   C14  846   3.075   3.258   2.354
    2V3OU   C16  847   2.970   3.183   2.405
    2V3OU    H6  848   2.988   3.101   2.476
    2V3OU   C12  849   3.211   3.221   2.399
    2V3OU    O2  850   3.238   3.127   2.477
    2V3OU   C10  851   3.325   3.307   2.363
    2V3OU    C8  852   3.456   3.265   2.385
    2V3OU   O10  853   3.488   3.155   2.459
    2V3OU   H26  854   3.399   3.123   2.480
    2V3OU    C6  855   3.562   3.347   2.336
    2V3OU    C5  856   3.535   3.464   2.267
    2V3OU    C4  857   3.702   3.294   2.343
    2V3OU    H4  858   3.716   3.224   2.430
    2V3OU    H5  859   3.711   3.233   2.249
    2V3OU    C2  860   3.814   3.398   2.348
    2V3OU    O6  861   3.798   3.468   2.471
    2V3OU   H21  862   3.764   3.558   2.460
    2V3OU    C3  863   3.780   3.492   2.233
    2V3OU    H2  864   3.861   3.569   2.221
    2V3OU    H3  865   3.778   3.432   2.138
    2V3OU   C25  866   3.948   3.324   2.336
    2V3OU    O7  867   3.995   3.292   2.227
    2V3OU   C26  868   4.030   3.290   2.460
    2V3OU   H22  869   4.071   3.381   2.511
    2V3OU   H23  870   4.118   3.227   2.431
    2V3OU    O8  871   3.960   3.207   2.550
    2V3OU   H24  872   3.928   3.261   2.624
    2V3OU    C1  873   3.646   3.563   2.243
    2V3OU    H1  874   3.624   3.619   2.147
    2V3OU    O3  875   3.659   3.649   2.356
    2V3OU   C19  876   3.618   3.785   2.347
    2V3OU    H9  877   3.520   3.799   2.292
    2V3OU    O4  878   3.708   3.847   2.258
    2V3OU   C20  879   3.843   3.867   2.300
    2V3OU   H10  880   3.892   3.767   2.317
    2V3OU   C24  881   3.610   3.857   2.482
    2V3OU   H16  882   3.537   3.801   2.546
    2V3OU   H17  883   3.559   3.951   2.451
    2V3OU   C23  884   3.753   3.868   2.535
    2V3OU   H15  885   3.788   3.760   2.547
    2V3OU    N1  886   3.738   3.944   2.658
    2V3OU   H19  887   3.801   3.915   2.729
    2V3OU   H20  888   3.644   3.929   2.688
    2V3OU   C21  889   3.845   3.943   2.433
    2V3OU   H11  890   3.947   3.928   2.481
    2V3OU    O5  891   3.820   4.082   2.421
    2V3OU   H18  892   3.771   4.107   2.501
    2V3OU   C22  893   3.915   3.948   2.193
    2V3OU   H12  894   3.863   4.045   2.172
    2V3OU   H13  895   3.905   3.892   2.096
    2V3OU   H14  896   4.021   3.964   2.225
    2V3OU   C11  897   3.158   3.464   2.244
    2V3OU    O1  898   3.137   3.583   2.211
    2V3OU    C9  899   3.294   3.420   2.283
    2V3OU    C7  900   3.399   3.501   2.242
    2V3OU    O9  901   3.384   3.613   2.162
    2V3OU   H25  902   3.288   3.625   2.162
    2V3OU   C17  903   2.817   3.308   2.264
    2V3OU    H7  904   2.718   3.336   2.228
    2V3OU   C18  905   2.843   3.207   2.355
    2V3OU    H8  906   2.768   3.161   2.422
    3SOL     OW  907   2.855   5.211   0.786
    3SOL    HW1  908   2.887   5.170   0.872
    3SOL    HW2  909   2.923   5.278   0.754
    4SOL     OW  910   0.205   6.379   2.280
    4SOL    HW1  911   0.271   6.454   2.281
    4SOL    HW2  912   0.249   6.297   2.242
    5SOL     OW  913   4.180   1.156   2.959
    5SOL    HW1  914   4.268   1.111   2.943
    5SOL    HW2  915   4.179   1.195   3.051
    6SOL     OW  916   4.212   1.155   1.023
    6SOL    HW1  917   4.211   1.089   1.098
    6SOL    HW2  918   4.123   1.154   0.977
    7SOL     OW  919   6.763   3.445   2.152
    7SOL    HW1  920   6.693   3.478   2.088
    7SOL    HW2  921   6.722   3.378   2.213
    8SOL     OW  922   2.837   0.250   0.022
    8SOL    HW1  923   2.743   0.244   7.005
    8SOL    HW2  924   2.878   0.159   0.022
    9SOL     OW  925   6.006   6.843   6.371
    9SOL    HW1  926   6.030   6.753   6.407
    9SOL    HW2  927   6.008   6.910   6.445
   10SOL     OW  928   1.756   5.269   6.449
   10SOL    HW1  929   1.724   5.282   6.356
   10SOL    HW2  930   1.797   5.178   6.458
   11SOL     OW  931   2.803   0.059   5.869
   11SOL    HW1  932   2.782   0.142   5.817
   11SOL    HW2  933   2.900   0.059   5.895
   12SOL     OW  934   3.970   6.142   3.201
   12SOL    HW1  935   3.974   6.145   3.301
   12SOL    HW2  936   4.034   6.209   3.164
   13SOL     OW  937   4.397   5.962   3.799
   13SOL    HW1  938   4.304   5.997   3.790
   13SOL    HW2  939   4.428   5.929   3.711
   14SOL     OW  940   3.432   5.985   6.028
   14SOL    HW1  941   3.356   6.033   6.072
   14SOL    HW2  942   3.468   5.916   6.091
   15SOL     OW  943   1.938   6.594   1.637
   15SOL    HW1  944   2.035   6.609   1.622
   15SOL    HW2  945   1.907   6.515   1.584
   16SOL     OW  946   5.011   2.859   5.628
   16SOL    HW1  947   5.085   2.824   5.686
   16SOL    HW2  948   4.931   2.801   5.637
   17SOL     OW  949   5.323   5.419   5.706
   17SOL    HW1  950   5.282   5.329   5.696
   17SOL    HW2  951   5.256   5.481   5.748
   18SOL     OW  952   3.216   0.767   5.795
   18SOL    HW1  953   3.220   0.668   5.779
   18SOL    HW2  954   3.293   0.811   5.749
   19SOL     OW  955   0.666   0.690   3.386
   19SOL    HW1  956   0.659   0.729   3.477
   19SOL    HW2  957   0.575   0.666   3.352
   20SOL     OW  958   5.629   2.440   4.862
   20SOL    HW1  959   5.649   2.355   4.813
   20SOL    HW2  960   5.696   2.510   4.837
   21SOL     OW  961   3.997   2.175   2.451
   21SOL    HW1  962   4.085   2.127   2.450
   21SOL    HW2  963   3.959   2.176   2.358
   22SOL     OW  964   1.680   6.141   0.572
   22SOL    HW1  965   1.673   6.158   0.670
   22SOL    HW2  966   1.628   6.058   0.549
   23SOL     OW  967   5.732   6.262   3.419
   23SOL    HW1  968   5.756   6.166   3.407
   23SOL    HW2  969   5.738   6.287   3.516
   24SOL     OW  970   4.805   1.112   3.460
   24SOL    HW1  971   4.826   1.144   3.553
   24SOL    HW2  972   4.755   1.025   3.466
   25SOL     OW  973   3.093   0.293   4.953
   25SOL    HW1  974   3.143   0.207   4.939
   25SOL    HW2  975   3.133   0.342   5.031
   26SOL     OW  976   6.541   0.933   0.393
   26SOL    HW1  977   6.521   1.028   0.417
   26SOL    HW2  978   6.466   0.894   0.341
   27SOL     OW  979   0.858   2.207   2.303
   27SOL    HW1  980   0.836   2.203   2.400
   27SOL    HW2  981   0.875   2.115   2.268
   28SOL     OW  982   2.869   2.064   5.652
   28SOL    HW1  983   2.829   2.154   5.635
   28SOL    HW2  984   2.958   2.059   5.607
   29SOL     OW  985   5.201   2.177   2.113
   29SOL    HW1  986   5.107   2.175   2.079
   29SOL    HW2  987   5.264   2.156   2.038
   30SOL     OW  988   3.682   1.099   4.692
   30SOL    HW1  989   3.739   1.180   4.682
   30SOL    HW2  990   3.722   1.039   4.762
   31SOL     OW  991   1.355   2.633   6.418
   31SOL    HW1  992   1.415   2.703   6.456
   31SOL    HW2  993   1.410   2.553   6.394
   32SOL     OW  994   0.456   1.728   2.604
   32SOL    HW1  995   0.442   1.679   2.518
   32SOL    HW2  996   0.436   1.667   2.680
   33SOL     OW  997   2.139   4.406   6.262
   33SOL    HW1  998   2.056   4.383   6.312
   33SOL    HW2  999   2.120   4.404   6.163
   34SOL     OW 1000   2.668   0.914   4.008
   34SOL    HW1 1001   2.727   0.994   4.000
   34SOL    HW2 1002   2.691   0.863   4.090
   35SOL     OW 1003   3.206   3.667   6.969
   35SOL    HW1 1004   3.299   3.693   6.942
   35SOL    HW2 1005   3.141   3.696   6.898
   36SOL     OW 1006   6.115   0.982   4.862
   36SOL    HW1 1007   6.139   1.064   4.809
   36SOL    HW2 1008   6.199   0.933   4.885
   37SOL     OW 1009   0.864   1.758   0.574
   37SOL    HW1 1010   0.776   1.718   0.549
   37SOL    HW2 1011   0.930   1.740   0.501
   38SOL     OW 1012   7.009   4.352   2.548
   38SOL    HW1 1013   0.034   4.420   2.488
   38SOL    HW2 1014   0.049   4.340   2.630
   39SOL     OW 1015   0.053   4.798   6.839
   39SOL    HW1 1016   0.100   4.826   6.923
   39SOL    HW2 1017   6.993   4.740   6.861
   40SOL     OW 1018   5.309   1.721   0.566
   40SOL    HW1 1019   5.315   1.639   0.509
   40SOL    HW2 1020   5.398   1.766   0.570
   41SOL     OW 1021   0.080   5.839   3.884
   41SOL    HW1 1022   0.059   5.754   3.933
   41SOL    HW2 1023   0.009   5.907   3.903
   42SOL     OW 1024   2.907   5.109   5.296
   42SOL    HW1 1025   2.989   5.134   5.347
   42SOL    HW2 1026   2.890   5.177   5.225
   43SOL     OW 1027   6.193   6.430   5.504
   43SOL    HW1 1028   6.104   6.389   5.527
   43SOL    HW2 1029   6.193   6.526   5.532
   44SOL     OW 1030   4.798   1.888   6.393
   44SOL    HW1 1031   4.874   1.852   6.446
   44SOL    HW2 1032   4.790   1.837   6.307
   45SOL     OW 1033   4.153   6.068   2.992
   45SOL    HW1 1034   4.200   6.150   3.026
   45SOL    HW2 1035   4.076   6.046   3.052
   46SOL     OW 1036   0.999   3.082   3.261
   46SOL    HW1 1037   0.960   3.092   3.169
   46SOL    HW2 1038   1.083   3.027   3.255
   47SOL     OW 1039   4.851   4.359   0.394
   47SOL    HW1 1040   4.794   4.438   0.372
   47SOL    HW2 1041   4.938   4.390   0.431
   48SOL     OW 1042   0.054   2.835   5.986
   48SOL    HW1 1043   0.123   2.849   5.916
   48SOL    HW2 1044   0.068   2.746   6.030
   49SOL     OW 1045   5.469   4.150   1.532
   49SOL    HW1 1046   5.518   4.064   1.521
   49SOL    HW2 1047   5.431   4.179   1.444
   50SOL     OW 1048   5.307   0.753   4.769
   50SOL    HW1 1049   5.342   0.830   4.716
   50SOL    HW2 1050   5.217   0.726   4.734
   51SOL     OW 1051   2.646   0.042   2.940
   51SOL    HW1 1052   2.627   0.139   2.926
   51SOL    HW2 1053   2.583   0.006   3.010
   52SOL     OW 1054   5.962   2.073   3.092
   52SOL    HW1 1055   6.011   2.050   3.007
   52SOL    HW2 1056   5.919   1.990   3.128
   53SOL     OW 1057   3.517   6.444   4.297
   53SOL    HW1 1058   3.575   6.470   4.374
   53SOL    HW2 1059   3.437   6.394   4.332
   54SOL     OW 1060   3.559   5.110   0.948
   54SOL    HW1 1061   3.618   5.056   1.007
   54SOL    HW2 1062   3.464   5.079   0.959
   55SOL     OW 1063   2.623   2.441   6.744
   55SOL    HW1 1064   2.676   2.407   6.667
   55SOL    HW2 1065   2.679   2.504   6.798
   56SOL     OW 1066   0.178   0.012   1.174
   56SOL    HW1 1067   0.159   0.109   1.194
   56SOL    HW2 1068   0.223   6.988   1.253
   57SOL     OW 1069   5.299   1.312   0.894
   57SOL    HW1 1070   5.219   1.366   0.921
   57SOL    HW2 1071   5.347   1.282   0.977
   58SOL     OW 1072   6.594   6.557   5.694
   58SOL    HW1 1073   6.667   6.577   5.759
   58SOL    HW2 1074   6.528   6.495   5.736
   59SOL     OW 1075   1.067   1.579   5.052
   59SOL    HW1 1076   1.147   1.631   5.084
   59SOL    HW2 1077   1.085   1.481   5.063
   60SOL     OW 1078   5.309   2.372   5.409
   60SOL    HW1 1079   5.354   2.461   5.421
   60SOL    HW2 1080   5.215   2.377   5.444
   61SOL     OW 1081   5.684   2.126   4.931
   61SOL    HW1 1082   5.651   2.107   5.023
   61SOL    HW2 1083   5.771   2.176   4.937
   62SOL     OW 1084   0.907   1.079   1.961
   62SOL    HW1 1085   0.819   1.037   1.942
   62SOL    HW2 1086   0.904   1.176   1.936
   63SOL     OW 1087   4.995   1.215   3.284
   63SOL    HW1 1088   5.070   1.209   3.350
   63SOL    HW2 1089   4.908   1.197   3.331
   64SOL     OW 1090   6.712   3.173   5.643
   64SOL    HW1 1091   6.800   3.205   5.678
   64SOL    HW2 1092   6.659   3.133   5.717
   65SOL     OW 1093   0.129   5.235   6.529
   65SOL    HW1 1094   0.145   5.244   6.431
   65SOL    HW2 1095   0.037   5.199   6.544
   66SOL     OW 1096   4.065   1.142   5.615
   66SOL    HW1 1097   4.077   1.113   5.520
   66SOL    HW2 1098   4.109   1.076   5.676
   67SOL     OW 1099   5.309   4.313   5.858
   67SOL    HW1 1100   5.213   4.328   5.833
   67SOL    HW2 1101   5.368   4.351   5.787
   68SOL     OW 1102   6.075   1.009   6.926
   68SOL    HW1 1103   6.088   1.108   6.925
   68SOL    HW2 1104   5.980   0.987   6.903
   69SOL     OW 1105   0.807   3.482   5.914
   69SOL    HW1 1106   0.737   3.484   5.986
   69SOL    HW2 1107   0.772   3.431   5.835
   70SOL     OW 1108   5.589   3.798   4.995
   70SOL    HW1 1109   5.554   3.859   4.923
   70SOL    HW2 1110   5.663   3.743   4.958
   71SOL     OW 1111   4.661   1.496   3.310
   71SOL    HW1 1112   4.592   1.467   3.244
   71SOL    HW2 1113   4.651   1.442   3.394
   72SOL     OW 1114   1.813   6.295   4.115
   72SOL    HW1 1115   1.905   6.309   4.080
   72SOL    HW2 1116   1.758   6.377   4.101
   73SOL     OW 1117   3.813   0.773   1.416
   73SOL    HW1 1118   3.814   0.846   1.485
   73SOL    HW2 1119   3.890   0.786   1.354
   74SOL     OW 1120   4.994   6.922   0.152
   74SOL    HW1 1121   4.968   6.923   0.055
   74SOL    HW2 1122   4.922   6.877   0.205
   75SOL     OW 1123   4.403   0.497   0.875
   75SOL    HW1 1124   4.328   0.517   0.812
   75SOL    HW2 1125   4.466   0.431   0.832
   76SOL     OW 1126   3.320   3.294   1.018
   76SOL    HW1 1127   3.298   3.226   1.088
   76SOL    HW2 1128   3.419   3.297   1.004
   77SOL     OW 1129   6.992   6.934   3.208
   77SOL    HW1 1130   0.033   6.969   3.281
   77SOL    HW2 1131   0.032   6.912   3.128
   78SOL     OW 1132   5.936   1.792   6.838
   78SOL    HW1 1133   5.861   1.791   6.904
   78SOL    HW2 1134   5.980   1.882   6.838
   79SOL     OW 1135   3.462   6.165   1.010
   79SOL    HW1 1136   3.545   6.192   0.961
   79SOL    HW2 1137   3.402   6.244   1.020
   80SOL     OW 1138   5.209   1.118   4.319
   80SOL    HW1 1139   5.149   1.045   4.352
   80SOL    HW2 1140   5.154   1.199   4.296
   81SOL     OW 1141   1.760   0.014   2.607
   81SOL    HW1 1142   1.679   7.016   2.663
   81SOL    HW2 1143   1.841   0.011   2.666
   82SOL     OW 1144   6.065   4.801   1.149
   82SOL    HW1 1145   6.093   4.871   1.083
   82SOL    HW2 1146   6.115   4.716   1.130
   83SOL     OW 1147   0.436   0.839   6.953
   83SOL    HW1 1148   0.528   0.826   6.991
   83SOL    HW2 1149   0.419   0.771   6.882
   84SOL     OW 1150   5.900   2.763   3.289
   84SOL    HW1 1151   5.999   2.754   3.291
   84SOL    HW2 1152   5.862   2.699   3.222
   85SOL     OW 1153   1.739   0.942   4.089
   85SOL    HW1 1154   1.640   0.928   4.093
   85SOL    HW2 1155   1.761   1.036   4.116
   86SOL     OW 1156   6.773   0.945   4.966
   86SOL    HW1 1157   6.832   1.007   4.914
   86SOL    HW2 1158   6.719   0.997   5.032
   87SOL     OW 1159   4.691   3.737   0.825
   87SOL    HW1 1160   4.752   3.684   0.883
   87SOL    HW2 1161   4.610   3.682   0.803
   88SOL     OW 1162   3.427   1.778   5.204
   88SOL    HW1 1163   3.509   1.767   5.148
   88SOL    HW2 1164   3.442   1.850   5.272
   89SOL     OW 1165   1.199   2.492   5.643
   89SOL    HW1 1166   1.273   2.502   5.710
   89SOL    HW2 1167   1.113   2.474   5.692
   90SOL     OW 1168   3.381   4.970   2.471
   90SOL    HW1 1169   3.398   5.006   2.380
   90SOL    HW2 1170   3.293   4.924   2.473
   91SOL     OW 1171   5.444   4.235   5.412
   91SOL    HW1 1172   5.408   4.303   5.476
   91SOL    HW2 1173   5.458   4.149   5.460
   92SOL     OW 1174   3.790   4.896   0.721
   92SOL    HW1 1175   3.757   4.892   0.626
   92SOL    HW2 1176   3.881   4.855   0.726
   93SOL     OW 1177   3.145   4.260   0.028
   93SOL    HW1 1178   3.118   4.293   6.954
   93SOL    HW2 1179   3.111   4.167   0.041
   94SOL     OW 1180   2.129   5.893   6.611
   94SOL    HW1 1181   2.211   5.847   6.577
   94SOL    HW2 1182   2.085   5.835   6.680
   95SOL     OW 1183   1.101   0.279   3.978
   95SOL    HW1 1184   1.062   0.345   4.042
   95SOL    HW2 1185   1.038   0.265   3.902
   96SOL     OW 1186   3.283   0.668   5.136
   96SOL    HW1 1187   3.248   0.718   5.057
   96SOL    HW2 1188   3.298   0.731   5.212
   97SOL     OW 1189   2.244   3.669   6.004
   97SOL    HW1 1190   2.321   3.614   6.036
   97SOL    HW2 1191   2.162   3.613   6.001
   98SOL     OW 1192   0.246   3.658   0.830
   98SOL    HW1 1193   0.170   3.594   0.830
   98SOL    HW2 1194   0.281   3.670   0.737
   99SOL     OW 1195   3.798   2.849   1.062
   99SOL    HW1 1196   3.892   2.820   1.084
   99SOL    HW2 1197   3.785   2.944   1.089
  100SOL     OW 1198   6.800   6.999   4.821
  100SOL    HW1 1199   6.847   0.063   4.854
  100SOL    HW2 1200   6.866   6.924   4.812
  101SOL     OW 1201   1.530   4.968   2.055
  101SOL    HW1 1202   1.465   4.918   1.998
  101SOL    HW2 1203   1.550   4.914   2.137
  102SOL     OW 1204   4.049   5.772   2.367
  102SOL    HW1 1205   4.087   5.863   2.348
  102SOL    HW2 1206   4.120   5.703   2.356
  103SOL     OW 1207   2.133   1.610   1.793
  103SOL    HW1 1208   2.112   1.687   1.853
  103SOL    HW2 1209   2.105   1.525   1.837
  104SOL     OW 1210   0.879   5.495   2.339
  104SOL    HW1 1211   0.900   5.499   2.241
  104SOL    HW2 1212   0.963   5.505   2.392
  105SOL     OW 1213   6.583   2.295   6.391
  105SOL    HW1 1214   6.550   2.294   6.297
  105SOL    HW2 1215   6.547   2.376   6.438
  106SOL     OW 1216   3.499   6.269   4.860
  106SOL    HW1 1217   3.587   6.282   4.815
  106SOL    HW2 1218   3.425   6.298   4.799
  107SOL     OW 1219   1.486   1.533   1.587
  107SOL    HW1 1220   1.415   1.567   1.649
  107SOL    HW2 1221   1.445   1.512   1.498
  108SOL     OW 1222   2.722   6.065   5.511
  108SOL    HW1 1223   2.785   6.142   5.498
  108SOL    HW2 1224   2.665   6.082   5.591
  109SOL     OW 1225   0.153   0.051   1.843
  109SOL    HW1 1226   0.125   0.122   1.778
  109SOL    HW2 1227   0.104   6.983   1.823
  110SOL     OW 1228   3.109   5.969   4.705
  110SOL    HW1 1229   3.070   5.961   4.614
  110SOL    HW2 1230   3.198   5.922   4.708
  111SOL     OW 1231   2.113   0.892   4.226
  111SOL    HW1 1232   2.050   0.970   4.227
  111SOL    HW2 1233   2.124   0.857   4.319
  112SOL     OW 1234   3.573   6.449   6.775
  112SOL    HW1 1235   3.558   6.524   6.839
  112SOL    HW2 1236   3.586   6.487   6.683
  113SOL     OW 1237   0.320   5.420   3.308
  113SOL    HW1 1238   0.370   5.333   3.314
  113SOL    HW2 1239   0.366   5.489   3.363
  114SOL     OW 1240   1.123   0.007   2.284
  114SOL    HW1 1241   1.135   0.034   2.380
  114SOL    HW2 1242   1.103   6.927   2.280
  115SOL     OW 1243   4.579   1.353   3.033
  115SOL    HW1 1244   4.665   1.370   2.986
  115SOL    HW2 1245   4.521   1.434   3.028
  116SOL     OW 1246   6.063   5.550   1.760
  116SOL    HW1 1247   6.140   5.491   1.735
  116SOL    HW2 1248   6.038   5.532   1.856
  117SOL     OW 1249   1.873   2.060   0.532
  117SOL    HW1 1250   1.797   2.044   0.595
  117SOL    HW2 1251   1.927   1.976   0.523
  118SOL     OW 1252   1.672   0.867   2.422
  118SOL    HW1 1253   1.678   0.893   2.518
  118SOL    HW2 1254   1.764   0.849   2.386
  119SOL     OW 1255   0.609   0.302   0.099
  119SOL    HW1 1256   0.683   0.255   0.050
  119SOL    HW2 1257   0.541   0.335   0.033
  120SOL     OW 1258   5.514   6.762   6.596
  120SOL    HW1 1259   5.555   6.853   6.594
  120SOL    HW2 1260   5.416   6.770   6.573
  121SOL     OW 1261   1.069   3.587   5.921
  121SOL    HW1 1262   0.978   3.547   5.923
  121SOL    HW2 1263   1.130   3.529   5.866
  122SOL     OW 1264   1.792   3.625   5.654
  122SOL    HW1 1265   1.775   3.598   5.749
  122SOL    HW2 1266   1.831   3.547   5.604
  123SOL     OW 1267   0.881   1.072   2.949
  123SOL    HW1 1268   0.951   1.136   2.919
  123SOL    HW2 1269   0.809   1.065   2.879
  124SOL     OW 1270   3.560   2.672   0.458
  124SOL    HW1 1271   3.516   2.597   0.507
  124SOL    HW2 1272   3.491   2.727   0.411
  125SOL     OW 1273   3.059   1.857   0.463
  125SOL    HW1 1274   3.139   1.916   0.472
  125SOL    HW2 1275   2.987   1.906   0.413
  126SOL     OW 1276   1.906   4.481   0.680
  126SOL    HW1 1277   1.959   4.499   0.763
  126SOL    HW2 1278   1.967   4.444   0.609
  127SOL     OW 1279   0.650   5.250   0.065
  127SOL    HW1 1280   0.664   5.344   0.098
  127SOL    HW2 1281   0.659   5.249   6.982
  128SOL     OW 1282   5.346   2.271   1.291
  128SOL    HW1 1283   5.285   2.349   1.303
  128SOL    HW2 1284   5.434   2.290   1.333
  129SOL     OW 1285   2.397   3.393   6.367
  129SOL    HW1 1286   2.302   3.362   6.371
  129SOL    HW2 1287   2.457   3.315   6.353
  130SOL     OW 1288   1.422   2.237   4.347
  130SOL    HW1 1289   1.418   2.146   4.307
  130SOL    HW2 1290   1.400   2.232   4.445
  131SOL     OW 1291   5.010   1.119   3.018
  131SOL    HW1 1292   5.009   1.148   3.114
  131SOL    HW2 1293   5.051   1.028   3.011
  132SOL     OW 1294   2.965   2.932   1.534
  132SOL    HW1 1295   3.041   2.951   1.596
  132SOL    HW2 1296   2.896   3.004   1.543
  133SOL     OW 1297   5.255   0.236   4.561
  133SOL    HW1 1298   5.184   0.293   4.602
  133SOL    HW2 1299   5.228   0.213   4.467
  134SOL     OW 1300   6.575   0.585   2.247
  134SOL    HW1 1301   6.494   0.626   2.205
  134SOL    HW2 1302   6.570   0.594   2.347
  135SOL     OW 1303   5.420   3.536   3.390
  135SOL    HW1 1304   5.347   3.598   3.363
  135SOL    HW2 1305   5.401   3.445   3.355
  136SOL     OW 1306   2.621   4.956   5.978
  136SOL    HW1 1307   2.585   4.924   6.066
  136SOL    HW2 1308   2.578   4.904   5.904
  137SOL     OW 1309   5.666   2.540   3.348
  137SOL    HW1 1310   5.706   2.572   3.262
  137SOL    HW2 1311   5.704   2.451   3.371
  138SOL     OW 1312   1.354   4.620   2.418
  138SOL    HW1 1313   1.341   4.672   2.333
  138SOL    HW2 1314   1.345   4.522   2.398
  139SOL     OW 1315   1.749   0.023   5.086
  139SOL    HW1 1316   1.668   0.036   5.028
  139SOL    HW2 1317   1.777   6.944   5.081
  140SOL     OW 1318   1.635   6.272   3.493
  140SOL    HW1 1319   1.634   6.304   3.588
  140SOL    HW2 1320   1.669   6.179   3.489
  141SOL     OW 1321   0.516   2.386   5.178
  141SOL    HW1 1322   0.560   2.301   5.207
  141SOL    HW2 1323   0.419   2.383   5.202
  142SOL     OW 1324   1.317   3.603   1.327
  142SOL    HW1 1325   1.223   3.634   1.340
  142SOL    HW2 1326   1.318   3.505   1.309
  143SOL     OW 1327   6.028   4.300   0.398
  143SOL    HW1 1328   6.040   4.203   0.375
  143SOL    HW2 1329   5.978   4.307   0.484
  144SOL     OW 1330   1.620   4.853   5.814
  144SOL    HW1 1331   1.716   4.866   5.839
  144SOL    HW2 1332   1.584   4.773   5.862
  145SOL     OW 1333   0.306   5.501   0.499
  145SOL    HW1 1334   0.275   5.552   0.580
  145SOL    HW2 1335   0.394   5.459   0.518
  146SOL     OW 1336   4.866   0.351   6.230
  146SOL    HW1 1337   4.867   0.346   6.130
  146SOL    HW2 1338   4.773   0.369   6.262
  147SOL     OW 1339   5.761   3.633   6.968
  147SOL    HW1 1340   5.706   3.579   6.904
  147SOL    HW2 1341   5.854   3.644   6.932
  148SOL     OW 1342   6.882   5.497   0.108
  148SOL    HW1 1343   6.961   5.557   0.092
  148SOL    HW2 1344   6.879   5.474   0.206
  149SOL     OW 1345   3.713   2.086   4.115
  149SOL    HW1 1346   3.723   2.029   4.033
  149SOL    HW2 1347   3.797   2.138   4.129
  150SOL     OW 1348   5.756   6.696   0.841
  150SOL    HW1 1349   5.841   6.668   0.887
  150SOL    HW2 1350   5.772   6.780   0.789
  151SOL     OW 1351   3.059   2.722   0.993
  151SOL    HW1 1352   3.044   2.633   1.036
  151SOL    HW2 1353   2.973   2.757   0.956
  152SOL     OW 1354   0.412   0.927   1.587
  152SOL    HW1 1355   0.378   1.021   1.576
  152SOL    HW2 1356   0.342   0.871   1.631
  153SOL     OW 1357   2.830   1.169   2.612
  153SOL    HW1 1358   2.788   1.250   2.571
  153SOL    HW2 1359   2.913   1.146   2.561
  154SOL     OW 1360   0.471   2.861   1.922
  154SOL    HW1 1361   0.444   2.953   1.894
  154SOL    HW2 1362   0.414   2.794   1.876
  155SOL     OW 1363   0.520   1.353   3.766
  155SOL    HW1 1364   0.565   1.443   3.771
  155SOL    HW2 1365   0.440   1.359   3.707
  156SOL     OW 1366   6.498   1.427   0.308
  156SOL    HW1 1367   6.585   1.410   0.262
  156SOL    HW2 1368   6.478   1.352   0.370
  157SOL     OW 1369   5.201   3.612   2.010
  157SOL    HW1 1370   5.129   3.682   2.012
  157SOL    HW2 1371   5.267   3.630   2.084
  158SOL     OW 1372   2.102   4.475   2.598
  158SOL    HW1 1373   2.171   4.547   2.594
  158SOL    HW2 1374   2.119   4.408   2.526
  159SOL     OW 1375   4.752   4.135   2.440
  159SOL    HW1 1376   4.838   4.181   2.460
  159SOL    HW2 1377   4.676   4.198   2.455
  160SOL     OW 1378   5.216   5.457   0.904
  160SOL    HW1 1379   5.273   5.420   0.978
  160SOL    HW2 1380   5.260   5.538   0.867
  161SOL     OW 1381   1.715   6.082   3.974
  161SOL    HW1 1382   1.784   6.027   3.926
  161SOL    HW2 1383   1.761   6.142   4.039
  162SOL     OW 1384   3.661   5.996   0.364
  162SOL    HW1 1385   3.753   6.035   0.359
  162SOL    HW2 1386   3.632   5.991   0.460
  163SOL     OW 1387   5.872   5.721   0.972
  163SOL    HW1 1388   5.820   5.701   0.889
  163SOL    HW2 1389   5.878   5.820   0.986
  164SOL     OW 1390   0.318   4.204   1.654
  164SOL    HW1 1391   0.233   4.155   1.636
  164SOL    HW2 1392   0.298   4.293   1.693
  165SOL     OW 1393   4.967   3.509   1.365
  165SOL    HW1 1394   5.066   3.511   1.379
  165SOL    HW2 1395   4.936   3.415   1.361
  166SOL     OW 1396   0.565   3.873   2.691
  166SOL    HW1 1397   0.559   3.913   2.782
  166SOL    HW2 1398   0.588   3.776   2.698
  167SOL     OW 1399   5.275   3.123   6.831
  167SOL    HW1 1400   5.345   3.109   6.902
  167SOL    HW2 1401   5.232   3.035   6.810
  168SOL     OW 1402   3.092   3.390   1.252
  168SOL    HW1 1403   3.149   3.307   1.255
  168SOL    HW2 1404   3.015   3.375   1.190
  169SOL     OW 1405   5.254   2.075   1.859
  169SOL    HW1 1406   5.241   2.010   1.783
  169SOL    HW2 1407   5.347   2.112   1.855
  170SOL     OW 1408   1.049   0.592   2.757
  170SOL    HW1 1409   1.092   0.681   2.770
  170SOL    HW2 1410   0.980   0.598   2.684
  171SOL     OW 1411   3.026   4.938   6.420
  171SOL    HW1 1412   2.942   4.942   6.365
  171SOL    HW2 1413   3.047   4.842   6.440
  172SOL     OW 1414   6.587   1.432   2.956
  172SOL    HW1 1415   6.665   1.488   2.927
  172SOL    HW2 1416   6.513   1.442   2.890
  173SOL     OW 1417   5.498   1.417   4.235
  173SOL    HW1 1418   5.415   1.437   4.184
  173SOL    HW2 1419   5.568   1.383   4.172
  174SOL     OW 1420   3.914   5.132   3.605
  174SOL    HW1 1421   3.968   5.076   3.668
  174SOL    HW2 1422   3.844   5.181   3.656
  175SOL     OW 1423   3.187   0.400   1.911
  175SOL    HW1 1424   3.177   0.371   1.816
  175SOL    HW2 1425   3.150   0.330   1.971
  176SOL     OW 1426   0.477   4.352   0.841
  176SOL    HW1 1427   0.474   4.428   0.906
  176SOL    HW2 1428   0.515   4.384   0.754
  177SOL     OW 1429   5.113   2.624   2.610
  177SOL    HW1 1430   5.151   2.541   2.570
  177SOL    HW2 1431   5.104   2.694   2.540
  178SOL     OW 1432   2.207   3.140   6.326
  178SOL    HW1 1433   2.207   3.218   6.264
  178SOL    HW2 1434   2.118   3.134   6.371
  179SOL     OW 1435   3.797   1.527   5.469
  179SOL    HW1 1436   3.854   1.484   5.539
  179SOL    HW2 1437   3.808   1.478   5.383
  180SOL     OW 1438   2.165   6.828   0.285
  180SOL    HW1 1439   2.244   6.867   0.332
  180SOL    HW2 1440   2.082   6.848   0.337
  181SOL     OW 1441   3.234   3.367   6.209
  181SOL    HW1 1442   3.333   3.366   6.196
  181SOL    HW2 1443   3.211   3.436   6.277
  182SOL     OW 1444   3.345   1.923   5.531
  182SOL    HW1 1445   3.364   1.925   5.629
  182SOL    HW2 1446   3.260   1.972   5.512
  183SOL     OW 1447   4.103   2.279   3.264
  183SOL    HW1 1448   4.018   2.248   3.222
  183SOL    HW2 1449   4.175   2.212   3.248
  184SOL     OW 1450   1.066   6.632   4.845
  184SOL    HW1 1451   1.106   6.698   4.781
  184SOL    HW2 1452   1.012   6.681   4.914
  185SOL     OW 1453   1.045   1.096   6.063
  185SOL    HW1 1454   0.966   1.052   6.021
  185SOL    HW2 1455   1.129   1.061   6.021
  186SOL     OW 1456   5.662   0.430   4.174
  186SOL    HW1 1457   5.613   0.446   4.088
  186SOL    HW2 1458   5.629   0.345   4.215
  187SOL     OW 1459   4.626   0.276   2.493
  187SOL    HW1 1460   4.653   0.331   2.413
  187SOL    HW2 1461   4.706   0.260   2.551
  188SOL     OW 1462   0.825   2.360   3.409
  188SOL    HW1 1463   0.914   2.321   3.435
  188SOL    HW2 1464   0.818   2.363   3.310
  189SOL     OW 1465   2.249   5.106   1.685
  189SOL    HW1 1466   2.342   5.132   1.713
  189SOL    HW2 1467   2.199   5.188   1.657
  190SOL     OW 1468   5.275   2.515   4.613
  190SOL    HW1 1469   5.272   2.485   4.709
  190SOL    HW2 1470   5.192   2.566   4.592
  191SOL     OW 1471   5.577   0.340   6.999
  191SOL    HW1 1472   5.483   0.316   6.975
  191SOL    HW2 1473   5.613   0.273   0.046
  192SOL     OW 1474   1.380   5.364   1.560
  192SOL    HW1 1475   1.304   5.381   1.497
  192SOL    HW2 1476   1.347   5.320   1.643
  193SOL     OW 1477   4.280   3.452   5.246
  193SOL    HW1 1478   4.321   3.542   5.263
  193SOL    HW2 1479   4.191   3.446   5.292
  194SOL     OW 1480   4.321   0.872   3.155
  194SOL    HW1 1481   4.346   0.790   3.105
  194SOL    HW2 1482   4.222   0.885   3.151
  195SOL     OW 1483   1.872   0.248   5.258
  195SOL    HW1 1484   1.803   0.316   5.236
  195SOL    HW2 1485   1.842   0.158   5.225
  196SOL     OW 1486   2.307   0.736   0.853
  196SOL    HW1 1487   2.277   0.641   0.841
  196SOL    HW2 1488   2.386   0.737   0.914
  197SOL     OW 1489   2.861   0.200   1.430
  197SOL    HW1 1490   2.797   0.271   1.398
  197SOL    HW2 1491   2.824   0.159   1.513
  198SOL     OW 1492   4.958   0.587   1.533
  198SOL    HW1 1493   4.945   0.672   1.483
  198SOL    HW2 1494   5.022   0.528   1.483
  199SOL     OW 1495   6.981   1.212   3.925
  199SOL    HW1 1496   0.041   1.248   3.871
  199SOL    HW2 1497   6.900   1.268   3.908
  200SOL     OW 1498   0.978   4.337   1.643
  200SOL    HW1 1499   0.965   4.431   1.612
  200SOL    HW2 1500   0.906   4.279   1.606
  201SOL     OW 1501   6.338   6.943   5.769
  201SOL    HW1 1502   6.400   6.958   5.846
  201SOL    HW2 1503   6.244   6.957   5.800
  202SOL     OW 1504   4.666   1.171   6.889
  202SOL    HW1 1505   4.682   1.212   6.980
  202SOL    HW2 1506   4.574   1.194   6.859
  203SOL     OW 1507   5.383   2.197   5.229
  203SOL    HW1 1508   5.442   2.237   5.159
  203SOL    HW2 1509   5.371   2.262   5.304
  204SOL     OW 1510   0.478   0.680   5.624
  204SOL    HW1 1511   0.404   0.681   5.557
  204SOL    HW2 1512   0.554   0.736   5.591
  205SOL     OW 1513   0.704   1.635   2.770
  205SOL    HW1 1514   0.757   1.551   2.760
  205SOL    HW2 1515   0.686   1.674   2.680
  206SOL     OW 1516   0.312   4.246   1.061
  206SOL    HW1 1517   0.369   4.242   0.979
  206SOL    HW2 1518   0.215   4.244   1.034
  207SOL     OW 1519   6.001   1.570   3.342
  207SOL    HW1 1520   6.049   1.622   3.271
  207SOL    HW2 1521   6.030   1.604   3.432
  208SOL     OW 1522   6.232   2.969   4.846
  208SOL    HW1 1523   6.217   3.014   4.933
  208SOL    HW2 1524   6.225   3.036   4.772
  209SOL     OW 1525   0.662   4.648   3.668
  209SOL    HW1 1526   0.691   4.731   3.715
  209SOL    HW2 1527   0.738   4.582   3.668
  210SOL     OW 1528   4.273   2.324   0.995
  210SOL    HW1 1529   4.183   2.360   1.021
  210SOL    HW2 1530   4.344   2.386   1.028
  211SOL     OW 1531   1.896   6.227   2.744
  211SOL    HW1 1532   1.948   6.166   2.685
  211SOL    HW2 1533   1.850   6.173   2.815
  212SOL     OW 1534   1.474   3.879   1.861
  212SOL    HW1 1535   1.536   3.951   1.830
  212SOL    HW2 1536   1.485   3.865   1.959
  213SOL     OW 1537   3.169   0.999   0.480
  213SOL    HW1 1538   3.116   0.979   0.398
  213SOL    HW2 1539   3.129   1.077   0.528
  214SOL     OW 1540   4.466   4.614   1.625
  214SOL    HW1 1541   4.420   4.554   1.691
  214SOL    HW2 1542   4.465   4.708   1.659
  215SOL     OW 1543   2.475   3.994   0.721
  215SOL    HW1 1544   2.573   3.994   0.739
  215SOL    HW2 1545   2.457   3.954   0.631
  216SOL     OW 1546   2.010   6.179   3.801
  216SOL    HW1 1547   2.061   6.234   3.866
  216SOL    HW2 1548   1.991   6.089   3.841
  217SOL     OW 1549   0.806   2.088   3.778
  217SOL    HW1 1550   0.769   2.153   3.845
  217SOL    HW2 1551   0.735   2.024   3.749
  218SOL     OW 1552   0.253   3.716   4.444
  218SOL    HW1 1553   0.179   3.656   4.475
  218SOL    HW2 1554   0.315   3.735   4.520
  219SOL     OW 1555   4.265   0.143   6.782
  219SOL    HW1 1556   4.184   0.125   6.725
  219SOL    HW2 1557   4.294   0.058   6.826
  220SOL     OW 1558   2.920   0.100   1.165
  220SOL    HW1 1559   2.999   0.151   1.131
  220SOL    HW2 1560   2.904   0.125   1.261
  221SOL     OW 1561   0.058   3.477   0.872
  221SOL    HW1 1562   0.112   3.394   0.866
  221SOL    HW2 1563   0.042   3.500   0.968
  222SOL     OW 1564   1.788   5.052   5.615
  222SOL    HW1 1565   1.781   4.991   5.536
  222SOL    HW2 1566   1.704   5.106   5.624
  223SOL     OW 1567   6.126   3.336   6.675
  223SOL    HW1 1568   6.028   3.317   6.669
  223SOL    HW2 1569   6.176   3.269   6.621
  224SOL     OW 1570   1.912   1.267   4.621
  224SOL    HW1 1571   1.955   1.357   4.629
  224SOL    HW2 1572   1.880   1.237   4.711
  225SOL     OW 1573   4.184   3.494   6.260
  225SOL    HW1 1574   4.274   3.528   6.232
  225SOL    HW2 1575   4.113   3.549   6.216
  226SOL     OW 1576   2.343   1.388   5.955
  226SOL    HW1 1577   2.358   1.353   5.863
  226SOL    HW2 1578   2.274   1.332   6.001
  227SOL     OW 1579   1.681   3.985   2.399
  227SOL    HW1 1580   1.746   3.912   2.419
  227SOL    HW2 1581   1.590   3.946   2.385
  228SOL     OW 1582   3.022   6.609   3.782
  228SOL    HW1 1583   3.085   6.553   3.727
  228SOL    HW2 1584   2.950   6.550   3.819
  229SOL     OW 1585   5.942   6.140   0.053
  229SOL    HW1 1586   5.859   6.183   0.017
  229SOL    HW2 1587   5.939   6.142   0.153
  230SOL     OW 1588   3.295   5.326   3.841
  230SOL    HW1 1589   3.270   5.230   3.831
  230SOL    HW2 1590   3.338   5.340   3.930
  231SOL     OW 1591   6.346   2.201   5.556
  231SOL    HW1 1592   6.325   2.293   5.589
  231SOL    HW2 1593   6.398   2.151   5.625
  232SOL     OW 1594   0.750   3.091   6.698
  232SOL    HW1 1595   0.721   3.011   6.647
  232SOL    HW2 1596   0.684   3.165   6.686
  233SOL     OW 1597   3.134   1.697   2.736
  233SOL    HW1 1598   3.202   1.630   2.704
  233SOL    HW2 1599   3.048   1.683   2.687
  234SOL     OW 1600   5.234   0.800   5.419
  234SOL    HW1 1601   5.252   0.706   5.448
  234SOL    HW2 1602   5.156   0.836   5.470
  235SOL     OW 1603   3.405   2.620   1.459
  235SOL    HW1 1604   3.447   2.576   1.538
  235SOL    HW2 1605   3.464   2.694   1.427
  236SOL     OW 1606   5.000   3.231   6.403
  236SOL    HW1 1607   4.933   3.160   6.380
  236SOL    HW2 1608   5.050   3.258   6.321
  237SOL     OW 1609   6.146   4.415   1.513
  237SOL    HW1 1610   6.191   4.467   1.584
  237SOL    HW2 1611   6.205   4.409   1.432
  238SOL     OW 1612   4.709   2.305   0.560
  238SOL    HW1 1613   4.633   2.278   0.620
  238SOL    HW2 1614   4.672   2.354   0.480
  239SOL     OW 1615   0.626   5.272   6.805
  239SOL    HW1 1616   0.658   5.365   6.792
  239SOL    HW2 1617   0.553   5.252   6.740
  240SOL     OW 1618   0.090   2.482   3.351
  240SOL    HW1 1619   0.125   2.533   3.272
  240SOL    HW2 1620   0.019   2.419   3.321
  241SOL     OW 1621   2.495   1.098   5.327
  241SOL    HW1 1622   2.396   1.111   5.330
  241SOL    HW2 1623   2.517   1.003   5.351
  242SOL     OW 1624   3.397   3.245   4.672
  242SOL    HW1 1625   3.488   3.278   4.649
  242SOL    HW2 1626   3.404   3.168   4.736
  243SOL     OW 1627   4.102   0.738   5.793
  243SOL    HW1 1628   4.190   0.760   5.836
  243SOL    HW2 1629   4.106   0.760   5.696
  244SOL     OW 1630   6.256   2.791   5.044
  244SOL    HW1 1631   6.197   2.803   5.124
  244SOL    HW2 1632   6.240   2.865   4.979
  245SOL     OW 1633   5.688   4.129   3.977
  245SOL    HW1 1634   5.769   4.071   3.973
  245SOL    HW2 1635   5.715   4.225   3.962
  246SOL     OW 1636   4.537   2.558   3.831
  246SOL    HW1 1637   4.528   2.458   3.838
  246SOL    HW2 1638   4.459   2.594   3.779
  247SOL     OW 1639   3.209   1.668   1.422
  247SOL    HW1 1640   3.252   1.578   1.431
  247SOL    HW2 1641   3.153   1.670   1.339
  248SOL     OW 1642   3.514   1.488   2.469
  248SOL    HW1 1643   3.595   1.528   2.512
  248SOL    HW2 1644   3.500   1.396   2.505
  249SOL     OW 1645   4.443   0.737   4.911
  249SOL    HW1 1646   4.374   0.796   4.953
  249SOL    HW2 1647   4.456   0.656   4.967
  250SOL     OW 1648   5.150   2.641   0.866
  250SOL    HW1 1649   5.078   2.612   0.804
  250SOL    HW2 1650   5.123   2.619   0.960
  251SOL     OW 1651   4.295   4.036   5.744
  251SOL    HW1 1652   4.264   4.082   5.661
  251SOL    HW2 1653   4.216   4.010   5.800
  252SOL     OW 1654   6.553   6.029   0.203
  252SOL    HW1 1655   6.458   6.062   0.203
  252SOL    HW2 1656   6.613   6.103   0.234
  253SOL     OW 1657   2.741   5.579   6.698
  253SOL    HW1 1658   2.741   5.679   6.688
  253SOL    HW2 1659   2.714   5.555   6.791
  254SOL     OW 1660   5.321   3.069   3.777
  254SOL    HW1 1661   5.284   2.988   3.731
  254SOL    HW2 1662   5.360   3.043   3.865
  255SOL     OW 1663   1.600   3.224   4.885
  255SOL    HW1 1664   1.665   3.288   4.844
  255SOL    HW2 1665   1.526   3.276   4.929
  256SOL     OW 1666   6.227   3.828   6.099
  256SOL    HW1 1667   6.232   3.884   6.181
  256SOL    HW2 1668   6.307   3.769   6.094
  257SOL     OW 1669   4.505   0.185   3.434
  257SOL    HW1 1670   4.563   0.267   3.441
  257SOL    HW2 1671   4.547   0.110   3.484
  258SOL     OW 1672   1.954   5.023   4.678
  258SOL    HW1 1673   1.925   4.927   4.679
  258SOL    HW2 1674   1.964   5.056   4.772
  259SOL     OW 1675   0.674   2.287   1.819
  259SOL    HW1 1676   0.724   2.308   1.735
  259SOL    HW2 1677   0.737   2.291   1.897
  260SOL     OW 1678   4.519   0.982   0.769
  260SOL    HW1 1679   4.602   1.039   0.767
  260SOL    HW2 1680   4.530   0.906   0.706
  261SOL     OW 1681   6.573   3.418   0.740
  261SOL    HW1 1682   6.494   3.479   0.748
  261SOL    HW2 1683   6.542   3.328   0.710
  262SOL     OW 1684   0.026   4.032   0.372
  262SOL    HW1 1685   0.019   3.951   0.429
  262SOL    HW2 1686   6.960   4.087   0.382
  263SOL     OW 1687   1.309   0.728   3.713
  263SOL    HW1 1688   1.326   0.639   3.755
  263SOL    HW2 1689   1.396   0.768   3.682
  264SOL     OW 1690   5.865   3.355   6.580
  264SOL    HW1 1691   5.862   3.304   6.494
  264SOL    HW2 1692   5.776   3.348   6.626
  265SOL     OW 1693   4.996   5.718   2.610
  265SOL    HW1 1694   5.045   5.661   2.677
  265SOL    HW2 1695   4.898   5.705   2.621
  266SOL     OW 1696   3.088   2.960   5.481
  266SOL    HW1 1697   3.177   2.953   5.435
  266SOL    HW2 1698   3.075   3.054   5.513
  267SOL     OW 1699   0.306   1.479   6.655
  267SOL    HW1 1700   0.346   1.558   6.702
  267SOL    HW2 1701   0.342   1.395   6.696
  268SOL     OW 1702   3.747   0.761   5.790
  268SOL    HW1 1703   3.786   0.671   5.812
  268SOL    HW2 1704   3.787   0.830   5.850
  269SOL     OW 1705   1.059   3.596   1.930
  269SOL    HW1 1706   0.973   3.647   1.930
  269SOL    HW2 1707   1.119   3.634   1.859
  270SOL     OW 1708   0.583   0.105   0.302
  270SOL    HW1 1709   0.532   0.026   0.267
  270SOL    HW2 1710   0.580   0.179   0.234
  271SOL     OW 1711   1.191   1.582   6.750
  271SOL    HW1 1712   1.143   1.546   6.830
  271SOL    HW2 1713   1.190   1.682   6.753
  272SOL     OW 1714   3.203   5.258   4.474
  272SOL    HW1 1715   3.109   5.283   4.450
  272SOL    HW2 1716   3.253   5.340   4.503
  273SOL     OW 1717   2.228   4.171   4.503
  273SOL    HW1 1718   2.147   4.112   4.513
  273SOL    HW2 1719   2.261   4.196   4.594
  274SOL     OW 1720   4.276   1.807   3.190
  274SOL    HW1 1721   4.198   1.825   3.131
  274SOL    HW2 1722   4.301   1.710   3.184
  275SOL     OW 1723   5.934   4.723   5.350
  275SOL    HW1 1724   5.853   4.674   5.381
  275SOL    HW2 1725   6.008   4.710   5.416
  276SOL     OW 1726   0.275   6.021   2.447
  276SOL    HW1 1727   0.198   6.081   2.468
  276SOL    HW2 1728   0.313   6.047   2.358
  277SOL     OW 1729   1.179   3.908   0.841
  277SOL    HW1 1730   1.251   3.934   0.776
  277SOL    HW2 1731   1.098   3.963   0.824
  278SOL     OW 1732   5.955   5.234   1.869
  278SOL    HW1 1733   5.956   5.194   1.777
  278SOL    HW2 1734   6.026   5.191   1.925
  279SOL     OW 1735   6.678   2.730   4.263
  279SOL    HW1 1736   6.730   2.733   4.178
  279SOL    HW2 1737   6.645   2.822   4.285
  280SOL     OW 1738   3.001   0.180   3.123
  280SOL    HW1 1739   3.067   0.228   3.065
  280SOL    HW2 1740   2.924   0.240   3.142
  281SOL     OW 1741   2.634   4.666   2.452
  281SOL    HW1 1742   2.607   4.761   2.469
  281SOL    HW2 1743   2.636   4.649   2.354
  282SOL     OW 1744   3.258   1.634   5.628
  282SOL    HW1 1745   3.217   1.686   5.703
  282SOL    HW2 1746   3.308   1.696   5.567
  283SOL     OW 1747   6.528   1.722   6.284
  283SOL    HW1 1748   6.622   1.722   6.252
  283SOL    HW2 1749   6.496   1.816   6.294
  284SOL     OW 1750   1.437   3.854   4.277
  284SOL    HW1 1751   1.521   3.896   4.311
  284SOL    HW2 1752   1.386   3.813   4.352
  285SOL     OW 1753   6.182   4.704   5.500
  285SOL    HW1 1754   6.177   4.694   5.600
  285SOL    HW2 1755   6.226   4.791   5.479
  286SOL     OW 1756   3.823   6.099   5.121
  286SOL    HW1 1757   3.749   6.165   5.130
  286SOL    HW2 1758   3.792   6.021   5.067
  287SOL     OW 1759   0.220   4.459   6.722
  287SOL    HW1 1760   0.264   4.452   6.812
  287SOL    HW2 1761   0.121   4.464   6.733
  288SOL     OW 1762   3.459   1.663   6.134
  288SOL    HW1 1763   3.404   1.741   6.163
  288SOL    HW2 1764   3.487   1.611   6.215
  289SOL     OW 1765   0.134   4.530   4.823
  289SOL    HW1 1766   0.139   4.625   4.854
  289SOL    HW2 1767   0.039   4.506   4.804
  290SOL     OW 1768   5.992   2.192   4.293
  290SOL    HW1 1769   6.023   2.164   4.202
  290SOL    HW2 1770   5.892   2.202   4.293
  291SOL     OW 1771   1.697   2.369   4.338
  291SOL    HW1 1772   1.750   2.303   4.286
  291SOL    HW2 1773   1.599   2.353   4.323
  292SOL     OW 1774   1.296   1.725   3.085
  292SOL    HW1 1775   1.211   1.737   3.034
  292SOL    HW2 1776   1.304   1.796   3.155
  293SOL     OW 1777   4.374   4.883   1.749
  293SOL    HW1 1778   4.387   4.948   1.824
  293SOL    HW2 1779   4.276   4.864   1.738
  294SOL     OW 1780   6.469   5.653   6.685
  294SOL    HW1 1781   6.568   5.649   6.673
  294SOL    HW2 1782   6.439   5.571   6.735
  295SOL     OW 1783   3.014   1.875   4.306
  295SOL    HW1 1784   3.027   1.783   4.343
  295SOL    HW2 1785   2.948   1.924   4.362
  296SOL     OW 1786   4.831   1.428   2.913
  296SOL    HW1 1787   4.836   1.480   2.999
  296SOL    HW2 1788   4.905   1.458   2.852
  297SOL     OW 1789   2.146   4.555   2.894
  297SOL    HW1 1790   2.191   4.483   2.947
  297SOL    HW2 1791   2.109   4.517   2.810
  298SOL     OW 1792   3.825   6.725   0.766
  298SOL    HW1 1793   3.744   6.670   0.786
  298SOL    HW2 1794   3.799   6.820   0.752
  299SOL     OW 1795   4.255   3.961   6.841
  299SOL    HW1 1796   4.165   3.995   6.865
  299SOL    HW2 1797   4.293   3.908   6.917
  300SOL     OW 1798   6.126   1.136   1.603
  300SOL    HW1 1799   6.051   1.111   1.664
  300SOL    HW2 1800   6.107   1.225   1.561
  301SOL     OW 1801   5.259   3.455   1.576
  301SOL    HW1 1802   5.322   3.462   1.653
  301SOL    HW2 1803   5.267   3.365   1.534
  302SOL     OW 1804   0.651   0.389   3.617
  302SOL    HW1 1805   0.748   0.408   3.600
  302SOL    HW2 1806   0.638   0.291   3.633
  303SOL     OW 1807   6.289   6.899   1.421
  303SOL    HW1 1808   6.215   6.947   1.375
  303SOL    HW2 1809   6.377   6.930   1.384
  304SOL     OW 1810   2.311   0.526   4.266
  304SOL    HW1 1811   2.381   0.532   4.337
  304SOL    HW2 1812   2.339   0.580   4.187
  305SOL     OW 1813   0.560   3.241   0.004
  305SOL    HW1 1814   0.560   3.333   6.980
  305SOL    HW2 1815   0.653   3.218   0.033
  306SOL     OW 1816   2.113   0.546   3.853
  306SOL    HW1 1817   2.151   0.623   3.905
  306SOL    HW2 1818   2.070   0.581   3.770
  307SOL     OW 1819   5.198   6.551   0.591
  307SOL    HW1 1820   5.296   6.572   0.585
  307SOL    HW2 1821   5.186   6.463   0.637
  308SOL     OW 1822   5.603   3.373   5.264
  308SOL    HW1 1823   5.579   3.276   5.257
  308SOL    HW2 1824   5.569   3.422   5.184
  309SOL     OW 1825   3.292   5.289   6.789
  309SOL    HW1 1826   3.253   5.204   6.825
  309SOL    HW2 1827   3.234   5.366   6.817
  310SOL     OW 1828   6.132   0.029   5.103
  310SOL    HW1 1829   6.192   0.060   5.177
  310SOL    HW2 1830   6.164   6.958   5.069
  311SOL     OW 1831   5.554   4.623   2.567
  311SOL    HW1 1832   5.556   4.582   2.476
  311SOL    HW2 1833   5.604   4.710   2.565
  312SOL     OW 1834   4.376   1.465   5.673
  312SOL    HW1 1835   4.304   1.533   5.659
  312SOL    HW2 1836   4.373   1.432   5.767
  313SOL     OW 1837   3.254   4.134   1.831
  313SOL    HW1 1838   3.330   4.090   1.879
  313SOL    HW2 1839   3.168   4.092   1.861
  314SOL     OW 1840   3.718   5.089   6.579
  314SOL    HW1 1841   3.654   5.154   6.619
  314SOL    HW2 1842   3.795   5.139   6.537
  315SOL     OW 1843   1.485   2.582   3.471
  315SOL    HW1 1844   1.555   2.527   3.426
  315SOL    HW2 1845   1.517   2.676   3.479
  316SOL     OW 1846   2.958   1.354   3.418
  316SOL    HW1 1847   2.963   1.420   3.492
  316SOL    HW2 1848   3.029   1.374   3.350
  317SOL     OW 1849   0.370   0.557   0.850
  317SOL    HW1 1850   0.305   0.605   0.791
  317SOL    HW2 1851   0.402   0.619   0.921
  318SOL     OW 1852   1.344   6.109   6.971
  318SOL    HW1 1853   1.381   6.091   6.880
  318SOL    HW2 1854   1.296   6.197   6.970
  319SOL     OW 1855   7.003   0.427   3.838
  319SOL    HW1 1856   6.998   0.446   3.936
  319SOL    HW2 1857   0.074   0.383   3.817
  320SOL     OW 1858   5.843   2.185   0.334
  320SOL    HW1 1859   5.835   2.247   0.257
  320SOL    HW2 1860   5.753   2.171   0.376
  321SOL     OW 1861   3.994   1.505   0.480
  321SOL    HW1 1862   3.976   1.600   0.455
  321SOL    HW2 1863   4.093   1.487   0.476
  322SOL     OW 1864   3.837   3.732   4.410
  322SOL    HW1 1865   3.845   3.643   4.365
  322SOL    HW2 1866   3.770   3.726   4.483
  323SOL     OW 1867   1.080   3.222   6.616
  323SOL    HW1 1868   1.048   3.133   6.583
  323SOL    HW2 1869   1.032   3.245   6.701
  324SOL     OW 1870   2.368   1.905   4.180
  324SOL    HW1 1871   2.376   1.811   4.148
  324SOL    HW2 1872   2.457   1.951   4.170
  325SOL     OW 1873   0.940   2.893   1.699
  325SOL    HW1 1874   1.016   2.955   1.718
  325SOL    HW2 1875   0.964   2.801   1.730
  326SOL     OW 1876   1.000   5.065   7.007
  326SOL    HW1 1877   0.955   5.096   6.923
  326SOL    HW2 1878   1.047   4.978   6.989
  327SOL     OW 1879   1.449   5.013   3.688
  327SOL    HW1 1880   1.355   5.044   3.676
  327SOL    HW2 1881   1.481   4.970   3.603
  328SOL     OW 1882   1.399   5.724   1.695
  328SOL    HW1 1883   1.386   5.811   1.742
  328SOL    HW2 1884   1.419   5.653   1.763
  329SOL     OW 1885   3.974   3.942   4.407
  329SOL    HW1 1886   3.910   3.865   4.405
  329SOL    HW2 1887   3.989   3.976   4.314
  330SOL     OW 1888   2.994   0.443   1.098
  330SOL    HW1 1889   3.050   0.505   1.153
  330SOL    HW2 1890   2.947   0.494   1.026
  331SOL     OW 1891   3.825   5.688   0.356
  331SOL    HW1 1892   3.797   5.622   0.426
  331SOL    HW2 1893   3.820   5.780   0.394
  332SOL     OW 1894   2.940   1.809   4.035
  332SOL    HW1 1895   3.010   1.812   3.963
  332SOL    HW2 1896   2.983   1.821   4.124
  333SOL     OW 1897   3.577   6.369   6.302
  333SOL    HW1 1898   3.582   6.453   6.248
  333SOL    HW2 1899   3.667   6.348   6.340
  334SOL     OW 1900   2.914   0.749   1.416
  334SOL    HW1 1901   3.014   0.743   1.419
  334SOL    HW2 1902   2.883   0.753   1.321
  335SOL     OW 1903   3.482   6.810   4.587
  335SOL    HW1 1904   3.547   6.875   4.548
  335SOL    HW2 1905   3.527   6.757   4.659
  336SOL     OW 1906   2.110   0.933   3.782
  336SOL    HW1 1907   2.147   0.846   3.815
  336SOL    HW2 1908   2.186   0.995   3.760
  337SOL     OW 1909   0.060   3.136   0.151
  337SOL    HW1 1910   0.154   3.170   0.142
  337SOL    HW2 1911   0.042   3.112   0.247
  338SOL     OW 1912   2.986   2.678   1.453
  338SOL    HW1 1913   3.024   2.653   1.542
  338SOL    HW2 1914   2.982   2.778   1.445
  339SOL     OW 1915   3.009   6.987   4.400
  339SOL    HW1 1916   2.991   7.012   4.305
  339SOL    HW2 1917   3.074   6.910   4.403
  340SOL     OW 1918   4.946   4.427   5.913
  340SOL    HW1 1919   4.916   4.379   5.996
  340SOL    HW2 1920   4.866   4.449   5.857
  341SOL     OW 1921   6.675   1.156   4.332
  341SOL    HW1 1922   6.624   1.070   4.333
  341SOL    HW2 1923   6.773   1.136   4.328
  342SOL     OW 1924   5.908   3.909   7.002
  342SOL    HW1 1925   5.960   3.948   0.060
  342SOL    HW2 1926   5.811   3.904   0.009
  343SOL     OW 1927   1.962   5.390   0.747
  343SOL    HW1 1928   1.927   5.451   0.819
  343SOL    HW2 1929   1.908   5.306   0.745
  344SOL     OW 1930   1.078   5.132   1.978
  344SOL    HW1 1931   1.012   5.060   1.955
  344SOL    HW2 1932   1.041   5.189   2.051
  345SOL     OW 1933   5.741   1.093   4.069
  345SOL    HW1 1934   5.705   1.073   4.160
  345SOL    HW2 1935   5.824   1.149   4.077
  346SOL     OW 1936   1.820   0.713   2.762
  346SOL    HW1 1937   1.727   0.688   2.786
  346SOL    HW2 1938   1.856   0.776   2.831
  347SOL     OW 1939   3.272   5.288   6.074
  347SOL    HW1 1940   3.176   5.306   6.093
  347SOL    HW2 1941   3.322   5.375   6.070
  348SOL     OW 1942   5.575   4.748   1.646
  348SOL    HW1 1943   5.647   4.679   1.657
  348SOL    HW2 1944   5.537   4.770   1.736
  349SOL     OW 1945   0.172   4.355   0.702
  349SOL    HW1 1946   0.221   4.428   0.749
  349SOL    HW2 1947   0.181   4.270   0.755
  350SOL     OW 1948   3.844   2.747   0.746
  350SOL    HW1 1949   3.756   2.787   0.773
  350SOL    HW2 1950   3.855   2.658   0.791
  351SOL     OW 1951   2.084   2.662   6.881
  351SOL    HW1 1952   2.048   2.675   6.974
  351SOL    HW2 1953   2.174   2.618   6.886
  352SOL     OW 1954   3.383   0.613   4.772
  352SOL    HW1 1955   3.294   0.573   4.793
  352SOL    HW2 1956   3.455   0.548   4.796
  353SOL     OW 1957   2.650   6.763   0.797
  353SOL    HW1 1958   2.596   6.756   0.881
  353SOL    HW2 1959   2.741   6.796   0.819
  354SOL     OW 1960   3.160   2.818   0.130
  354SOL    HW1 1961   3.121   2.735   0.171
  354SOL    HW2 1962   3.086   2.882   0.108
  355SOL     OW 1963   0.228   3.062   3.036
  355SOL    HW1 1964   0.171   3.048   2.955
  355SOL    HW2 1965   0.189   3.011   3.113
  356SOL     OW 1966   3.536   6.120   5.247
  356SOL    HW1 1967   3.495   6.134   5.338
  356SOL    HW2 1968   3.490   6.044   5.201
  357SOL     OW 1969   6.441   6.654   5.048
  357SOL    HW1 1970   6.468   6.597   5.126
  357SOL    HW2 1971   6.508   6.727   5.036
  358SOL     OW 1972   5.214   0.091   1.597
  358SOL    HW1 1973   5.231   0.050   1.686
  358SOL    HW2 1974   5.127   0.141   1.599
  359SOL     OW 1975   1.106   2.290   2.218
  359SOL    HW1 1976   1.019   2.259   2.257
  359SOL    HW2 1977   1.141   2.367   2.272
  360SOL     OW 1978   1.201   5.945   6.545
  360SOL    HW1 1979   1.114   5.898   6.557
  360SOL    HW2 1980   1.259   5.893   6.482
  361SOL     OW 1981   5.836   6.009   3.425
  361SOL    HW1 1982   5.821   5.921   3.470
  361SOL    HW2 1983   5.851   5.994   3.328
  362SOL     OW 1984   3.694   4.072   1.404
  362SOL    HW1 1985   3.602   4.036   1.416
  362SOL    HW2 1986   3.704   4.109   1.312
  363SOL     OW 1987   5.080   4.487   3.912
  363SOL    HW1 1988   4.992   4.468   3.867
  363SOL    HW2 1989   5.103   4.583   3.900
  364SOL     OW 1990   6.280   5.804   6.163
  364SOL    HW1 1991   6.342   5.731   6.135
  364SOL    HW2 1992   6.305   5.889   6.116
  365SOL     OW 1993   5.703   5.161   1.948
  365SOL    HW1 1994   5.658   5.130   1.864
  365SOL    HW2 1995   5.789   5.207   1.925
  366SOL     OW 1996   6.533   0.681   0.079
  366SOL    HW1 1997   6.571   0.589   0.073
  366SOL    HW2 1998   6.438   0.680   0.045
  367SOL     OW 1999   4.839   3.270   1.372
  367SOL    HW1 2000   4.751   3.233   1.402
  367SOL    HW2 2001   4.872   3.219   1.293
  368SOL     OW 2002   0.025   3.655   4.766
  368SOL    HW1 2003   0.010   3.720   4.691
  368SOL    HW2 2004   6.958   3.604   4.783
  369SOL     OW 2005   6.624   5.500   1.866
  369SOL    HW1 2006   6.565   5.580   1.872
  369SOL    HW2 2007   6.609   5.454   1.779
  370SOL     OW 2008   2.896   1.705   5.874
  370SOL    HW1 2009   2.913   1.693   5.777
  370SOL    HW2 2010   2.797   1.715   5.889
  371SOL     OW 2011   2.533   3.549   6.680
  371SOL    HW1 2012   2.480   3.568   6.763
  371SOL    HW2 2013   2.482   3.580   6.600
  372SOL     OW 2014   0.583   6.939   5.454
  372SOL    HW1 2015   0.554   6.998   5.378
  372SOL    HW2 2016   0.515   6.944   5.527
  373SOL     OW 2017   6.067   6.061   4.989
  373SOL    HW1 2018   6.023   5.981   5.029
  373SOL    HW2 2019   6.093   6.125   5.061
  374SOL     OW 2020   2.718   1.799   2.446
  374SOL    HW1 2021   2.637   1.836   2.491
  374SOL    HW2 2022   2.786   1.871   2.433
  375SOL     OW 2023   0.939   4.441   3.369
  375SOL    HW1 2024   0.849   4.473   3.399
  375SOL    HW2 2025   0.941   4.435   3.270
  376SOL     OW 2026   1.941   2.173   4.729
  376SOL    HW1 2027   1.920   2.265   4.696
  376SOL    HW2 2028   1.955   2.111   4.652
  377SOL     OW 2029   0.191   2.907   2.028
  377SOL    HW1 2030   0.209   2.948   1.938
  377SOL    HW2 2031   0.156   2.814   2.017
  378SOL     OW 2032   3.327   2.970   5.364
  378SOL    HW1 2033   3.402   2.907   5.382
  378SOL    HW2 2034   3.354   3.035   5.293
  379SOL     OW 2035   5.862   3.955   1.636
  379SOL    HW1 2036   5.855   3.988   1.730
  379SOL    HW2 2037   5.898   4.027   1.578
  380SOL     OW 2038   3.004   1.282   1.659
  380SOL    HW1 2039   3.098   1.309   1.681
  380SOL    HW2 2040   3.005   1.190   1.618
  381SOL     OW 2041   1.419   4.370   2.759
  381SOL    HW1 2042   1.357   4.449   2.760
  381SOL    HW2 2043   1.482   4.378   2.682
  382SOL     OW 2044   5.492   6.307   5.913
  382SOL    HW1 2045   5.471   6.307   6.010
  382SOL    HW2 2046   5.490   6.401   5.878
  383SOL     OW 2047   5.494   3.009   6.222
  383SOL    HW1 2048   5.592   3.026   6.211
  383SOL    HW2 2049   5.443   3.056   6.150
  384SOL     OW 2050   6.462   4.997   4.338
  384SOL    HW1 2051   6.531   4.924   4.339
  384SOL    HW2 2052   6.499   5.077   4.385
  385SOL     OW 2053   4.533   5.970   5.821
  385SOL    HW1 2054   4.577   5.901   5.764
  385SOL    HW2 2055   4.577   5.972   5.911
  386SOL     OW 2056   3.140   6.171   5.451
  386SOL    HW1 2057   3.189   6.140   5.370
  386SOL    HW2 2058   3.206   6.199   5.521
  387SOL     OW 2059   0.145   6.635   3.292
  387SOL    HW1 2060   0.208   6.670   3.222
  387SOL    HW2 2061   0.053   6.630   3.253
  388SOL     OW 2062   1.701   2.250   3.947
  388SOL    HW1 2063   1.646   2.332   3.933
  388SOL    HW2 2064   1.642   2.170   3.950
  389SOL     OW 2065   4.153   4.098   1.734
  389SOL    HW1 2066   4.131   4.002   1.753
  389SOL    HW2 2067   4.250   4.114   1.753
  390SOL     OW 2068   3.701   1.123   6.858
  390SOL    HW1 2069   3.647   1.138   6.941
  390SOL    HW2 2070   3.746   1.208   6.831
  391SOL     OW 2071   2.469   4.229   5.292
  391SOL    HW1 2072   2.476   4.199   5.387
  391SOL    HW2 2073   2.407   4.169   5.242
  392SOL     OW 2074   2.019   3.468   1.657
  392SOL    HW1 2075   2.072   3.533   1.712
  392SOL    HW2 2076   2.005   3.384   1.709
  393SOL     OW 2077   1.347   5.083   0.340
  393SOL    HW1 2078   1.271   5.136   0.301
  393SOL    HW2 2079   1.380   5.128   0.423
  394SOL     OW 2080   0.771   3.006   0.091
  394SOL    HW1 2081   0.692   2.945   0.097
  394SOL    HW2 2082   0.775   3.046   7.016
  395SOL     OW 2083   5.144   4.847   2.933
  395SOL    HW1 2084   5.187   4.769   2.979
  395SOL    HW2 2085   5.077   4.888   2.994
  396SOL     OW 2086   2.492   2.753   1.768
  396SOL    HW1 2087   2.500   2.662   1.808
  396SOL    HW2 2088   2.561   2.813   1.808
  397SOL     OW 2089   5.448   1.970   6.383
  397SOL    HW1 2090   5.377   1.996   6.448
  397SOL    HW2 2091   5.408   1.960   6.292
  398SOL     OW 2092   1.777   6.479   3.411
  398SOL    HW1 2093   1.728   6.396   3.439
  398SOL    HW2 2094   1.723   6.527   3.342
  399SOL     OW 2095   5.717   6.665   4.451
  399SOL    HW1 2096   5.627   6.695   4.484
  399SOL    HW2 2097   5.775   6.642   4.530
  400SOL     OW 2098   5.991   6.375   5.818
  400SOL    HW1 2099   5.913   6.384   5.880
  400SOL    HW2 2100   6.039   6.462   5.812
  401SOL     OW 2101   5.394   0.063   5.929
  401SOL    HW1 2102   5.338   7.014   5.879
  401SOL    HW2 2103   5.468   0.096   5.871
  402SOL     OW 2104   6.500   0.299   3.324
  402SOL    HW1 2105   6.590   0.270   3.291
  402SOL    HW2 2106   6.482   0.257   3.413
  403SOL     OW 2107   3.856   0.815   5.537
  403SOL    HW1 2108   3.801   0.886   5.493
  403SOL    HW2 2109   3.836   0.812   5.635
  404SOL     OW 2110   1.942   5.093   4.950
  404SOL    HW1 2111   1.843   5.081   4.941
  404SOL    HW2 2112   1.963   5.190   4.957
  405SOL     OW 2113   2.131   3.620   3.024
  405SOL    HW1 2114   2.147   3.582   3.115
  405SOL    HW2 2115   2.072   3.559   2.972
  406SOL     OW 2116   0.467   4.363   4.423
  406SOL    HW1 2117   0.500   4.290   4.483
  406SOL    HW2 2118   0.406   4.423   4.474
  407SOL     OW 2119   1.997   2.291   5.120
  407SOL    HW1 2120   2.027   2.225   5.051
  407SOL    HW2 2121   1.988   2.244   5.208
  408SOL     OW 2122   3.360   2.092   2.988
  408SOL    HW1 2123   3.434   2.080   2.922
  408SOL    HW2 2124   3.272   2.096   2.940
  409SOL     OW 2125   6.475   3.100   1.635
  409SOL    HW1 2126   6.479   3.184   1.689
  409SOL    HW2 2127   6.502   3.120   1.541
  410SOL     OW 2128   1.283   1.795   1.194
  410SOL    HW1 2129   1.222   1.836   1.126
  410SOL    HW2 2130   1.228   1.754   1.267
  411SOL     OW 2131   6.212   0.844   1.693
  411SOL    HW1 2132   6.125   0.884   1.721
  411SOL    HW2 2133   6.225   0.859   1.595
  412SOL     OW 2134   3.299   5.060   3.171
  412SOL    HW1 2135   3.369   4.988   3.164
  412SOL    HW2 2136   3.329   5.141   3.121
  413SOL     OW 2137   4.754   4.241   1.596
  413SOL    HW1 2138   4.822   4.215   1.526
  413SOL    HW2 2139   4.791   4.222   1.687
  414SOL     OW 2140   3.052   6.724   4.026
  414SOL    HW1 2141   3.133   6.782   4.023
  414SOL    HW2 2142   3.041   6.678   3.937
  415SOL     OW 2143   0.336   0.576   0.137
  415SOL    HW1 2144   0.426   0.608   0.166
  415SOL    HW2 2145   0.274   0.576   0.216
  416SOL     OW 2146   5.094   5.126   4.956
  416SOL    HW1 2147   5.182   5.101   4.995
  416SOL    HW2 2148   5.030   5.050   4.967
  417SOL     OW 2149   2.035   1.068   6.599
  417SOL    HW1 2150   2.040   1.168   6.602
  417SOL    HW2 2151   2.013   1.033   6.690
  418SOL     OW 2152   2.351   6.630   5.790
  418SOL    HW1 2153   2.388   6.694   5.722
  418SOL    HW2 2154   2.334   6.679   5.875
  419SOL     OW 2155   0.559   0.031   2.939
  419SOL    HW1 2156   0.564   0.122   2.979
  419SOL    HW2 2157   0.649   7.003   2.945
  420SOL     OW 2158   5.572   1.551   6.124
  420SOL    HW1 2159   5.584   1.580   6.029
  420SOL    HW2 2160   5.589   1.453   6.131
  421SOL     OW 2161   5.944   3.814   5.038
  421SOL    HW1 2162   5.894   3.844   5.119
  421SOL    HW2 2163   6.039   3.796   5.062
  422SOL     OW 2164   5.237   3.076   0.692
  422SOL    HW1 2165   5.204   3.058   0.600
  422SOL    HW2 2166   5.169   3.130   0.742
  423SOL     OW 2167   2.733   1.599   6.976
  423SOL    HW1 2168   2.649   1.603   0.013
  423SOL    HW2 2169   2.813   1.601   0.020
  424SOL     OW 2170   1.719   4.902   3.055
  424SOL    HW1 2171   1.622   4.924   3.060
  424SOL    HW2 2172   1.751   4.870   3.144
  425SOL     OW 2173   4.856   1.396   4.498
  425SOL    HW1 2174   4.888   1.491   4.498
  425SOL    HW2 2175   4.756   1.395   4.498
  426SOL     OW 2176   2.429   2.697   4.875
  426SOL    HW1 2177   2.427   2.780   4.931
  426SOL    HW2 2178   2.508   2.642   4.900
  427SOL     OW 2179   5.743   0.267   3.669
  427SOL    HW1 2180   5.747   0.262   3.569
  427SOL    HW2 2181   5.836   0.268   3.706
  428SOL     OW 2182   3.384   0.394   2.695
  428SOL    HW1 2183   3.316   0.453   2.739
  428SOL    HW2 2184   3.426   0.442   2.618
  429SOL     OW 2185   0.679   5.127   4.081
  429SOL    HW1 2186   0.614   5.184   4.030
  429SOL    HW2 2187   0.652   5.123   4.177
  430SOL     OW 2188   1.555   0.003   3.656
  430SOL    HW1 2189   1.529   6.978   3.743
  430SOL    HW2 2190   1.540   6.955   3.582
  431SOL     OW 2191   2.387   2.123   0.903
  431SOL    HW1 2192   2.450   2.175   0.962
  431SOL    HW2 2193   2.380   2.029   0.935
  432SOL     OW 2194   6.336   2.217   0.600
  432SOL    HW1 2195   6.332   2.254   0.507
  432SOL    HW2 2196   6.250   2.170   0.621
  433SOL     OW 2197   2.484   5.942   6.000
  433SOL    HW1 2198   2.402   5.948   5.944
  433SOL    HW2 2199   2.463   5.973   6.093
  434SOL     OW 2200   4.274   5.890   4.046
  434SOL    HW1 2201   4.311   5.939   3.967
  434SOL    HW2 2202   4.319   5.801   4.053
  435SOL     OW 2203   3.780   1.966   5.293
  435SOL    HW1 2204   3.829   1.883   5.320
  435SOL    HW2 2205   3.688   1.965   5.332
  436SOL     OW 2206   3.489   6.067   2.538
  436SOL    HW1 2207   3.498   6.154   2.586
  436SOL    HW2 2208   3.525   5.994   2.595
  437SOL     OW 2209   0.096   1.206   5.482
  437SOL    HW1 2210   0.092   1.200   5.382
  437SOL    HW2 2211   0.185   1.173   5.513
  438SOL     OW 2212   1.876   3.715   3.471
  438SOL    HW1 2213   1.971   3.743   3.482
  438SOL    HW2 2214   1.817   3.795   3.477
  439SOL     OW 2215   6.276   6.552   2.614
  439SOL    HW1 2216   6.197   6.559   2.675
  439SOL    HW2 2217   6.245   6.542   2.519
  440SOL     OW 2218   3.602   1.478   6.335
  440SOL    HW1 2219   3.643   1.520   6.416
  440SOL    HW2 2220   3.543   1.402   6.362
  441SOL     OW 2221   5.721   4.212   3.216
  441SOL    HW1 2222   5.720   4.134   3.279
  441SOL    HW2 2223   5.795   4.275   3.243
  442SOL     OW 2224   4.520   4.961   5.472
  442SOL    HW1 2225   4.428   4.937   5.440
  442SOL    HW2 2226   4.585   4.951   5.396
  443SOL     OW 2227   5.952   4.144   4.476
  443SOL    HW1 2228   5.884   4.163   4.547
  443SOL    HW2 2229   6.042   4.133   4.518
  444SOL     OW 2230   4.404   1.200   6.831
  444SOL    HW1 2231   4.380   1.106   6.809
  444SOL    HW2 2232   4.321   1.256   6.835
  445SOL     OW 2233   2.207   5.849   3.263
  445SOL    HW1 2234   2.217   5.836   3.362
  445SOL    HW2 2235   2.242   5.939   3.238
  446SOL     OW 2236   3.937   5.505   3.264
  446SOL    HW1 2237   3.988   5.419   3.262
  446SOL    HW2 2238   3.959   5.555   3.348
  447SOL     OW 2239   6.600   3.161   5.198
  447SOL    HW1 2240   6.628   3.251   5.232
  447SOL    HW2 2241   6.546   3.115   5.267
  448SOL     OW 2242   1.840   1.334   2.741
  448SOL    HW1 2243   1.855   1.294   2.650
  448SOL    HW2 2244   1.802   1.426   2.731
  449SOL     OW 2245   2.497   2.238   3.246
  449SOL    HW1 2246   2.546   2.247   3.159
  449SOL    HW2 2247   2.554   2.275   3.320
  450SOL     OW 2248   1.845   4.877   3.826
  450SOL    HW1 2249   1.847   4.975   3.805
  450SOL    HW2 2250   1.902   4.828   3.760
  451SOL     OW 2251   1.468   2.548   4.161
  451SOL    HW1 2252   1.484   2.639   4.198
  451SOL    HW2 2253   1.374   2.520   4.181
  452SOL     OW 2254   3.803   0.573   1.605
  452SOL    HW1 2255   3.835   0.489   1.562
  452SOL    HW2 2256   3.781   0.640   1.534
  453SOL     OW 2257   3.634   0.048   6.679
  453SOL    HW1 2258   3.643   7.004   6.600
  453SOL    HW2 2259   3.547   0.030   6.725
  454SOL     OW 2260   6.868   3.835   6.641
  454SOL    HW1 2261   6.940   3.856   6.576
  454SOL    HW2 2262   6.829   3.920   6.677
  455SOL     OW 2263   6.431   3.442   5.259
  455SOL    HW1 2264   6.503   3.500   5.298
  455SOL    HW2 2265   6.352   3.441   5.320
  456SOL     OW 2266   1.588   0.563   4.467
  456SOL    HW1 2267   1.560   0.498   4.396
  456SOL    HW2 2268   1.651   0.630   4.427
  457SOL     OW 2269   0.997   4.657   4.598
  457SOL    HW1 2270   1.094   4.634   4.609
  457SOL    HW2 2271   0.942   4.596   4.654
  458SOL     OW 2272   3.734   0.763   3.174
  458SOL    HW1 2273   3.713   0.754   3.077
  458SOL    HW2 2274   3.776   0.852   3.191
  459SOL     OW 2275   2.012   0.423   5.508
  459SOL    HW1 2276   2.038   0.371   5.427
  459SOL    HW2 2277   1.912   0.429   5.513
  460SOL     OW 2278   1.408   1.318   5.153
  460SOL    HW1 2279   1.489   1.371   5.177
  460SOL    HW2 2280   1.436   1.234   5.106
  461SOL     OW 2281   6.455   5.161   5.638
  461SOL    HW1 2282   6.393   5.237   5.656
  461SOL    HW2 2283   6.519   5.152   5.715
  462SOL     OW 2284   3.933   3.729   4.928
  462SOL    HW1 2285   3.957   3.794   5.001
  462SOL    HW2 2286   3.902   3.643   4.968
  463SOL     OW 2287   6.665   0.408   2.875
  463SOL    HW1 2288   6.683   0.430   2.779
  463SOL    HW2 2289   6.639   0.312   2.884
  464SOL     OW 2290   3.240   0.073   5.898
  464SOL    HW1 2291   3.207   0.035   5.984
  464SOL    HW2 2292   3.340   0.067   5.895
  465SOL     OW 2293   0.584   2.578   6.767
  465SOL    HW1 2294   0.668   2.531   6.741
  465SOL    HW2 2295   0.602   2.676   6.779
  466SOL     OW 2296   2.435   6.707   4.198
  466SOL    HW1 2297   2.478   6.747   4.117
  466SOL    HW2 2298   2.437   6.773   4.273
  467SOL     OW 2299   0.879   1.931   2.672
  467SOL    HW1 2300   0.801   1.887   2.628
  467SOL    HW2 2301   0.874   2.030   2.658
  468SOL     OW 2302   4.342   5.986   6.269
  468SOL    HW1 2303   4.330   5.972   6.171
  468SOL    HW2 2304   4.439   5.976   6.292
  469SOL     OW 2305   2.816   4.415   5.716
  469SOL    HW1 2306   2.793   4.504   5.676
  469SOL    HW2 2307   2.844   4.352   5.644
  470SOL     OW 2308   3.935   6.048   2.412
  470SOL    HW1 2309   3.860   6.037   2.347
  470SOL    HW2 2310   3.928   5.977   2.483
  471SOL     OW 2311   2.995   2.260   4.030
  471SOL    HW1 2312   2.927   2.192   4.002
  471SOL    HW2 2313   3.048   2.224   4.106
  472SOL     OW 2314   6.070   5.010   6.819
  472SOL    HW1 2315   6.027   4.944   6.881
  472SOL    HW2 2316   6.066   5.101   6.860
  473SOL     OW 2317   6.691   2.015   2.525
  473SOL    HW1 2318   6.699   2.101   2.475
  473SOL    HW2 2319   6.745   2.020   2.609
  474SOL     OW 2320   6.054   5.045   5.436
  474SOL    HW1 2321   6.078   5.019   5.529
  474SOL    HW2 2322   5.971   5.101   5.437
  475SOL     OW 2323   6.339   3.507   0.047
  475SOL    HW1 2324   6.253   3.458   0.036
  475SOL    HW2 2325   6.409   3.444   0.079
  476SOL     OW 2326   0.416   3.848   1.268
  476SOL    HW1 2327   0.477   3.835   1.190
  476SOL    HW2 2328   0.412   3.764   1.322
  477SOL     OW 2329   1.923   5.858   3.593
  477SOL    HW1 2330   1.902   5.849   3.691
  477SOL    HW2 2331   1.959   5.950   3.576
  478SOL     OW 2332   4.482   6.162   3.573
  478SOL    HW1 2333   4.555   6.229   3.586
  478SOL    HW2 2334   4.414   6.173   3.645
  479SOL     OW 2335   3.231   3.376   4.864
  479SOL    HW1 2336   3.144   3.362   4.910
  479SOL    HW2 2337   3.233   3.323   4.779
  480SOL     OW 2338   1.785   0.281   2.496
  480SOL    HW1 2339   1.757   0.343   2.569
  480SOL    HW2 2340   1.785   0.187   2.531
  481SOL     OW 2341   0.965   6.851   1.372
  481SOL    HW1 2342   0.928   6.942   1.351
  481SOL    HW2 2343   0.997   6.850   1.467
  482SOL     OW 2344   4.433   4.795   2.739
  482SOL    HW1 2345   4.395   4.875   2.786
  482SOL    HW2 2346   4.456   4.819   2.645
  483SOL     OW 2347   6.671   2.277   2.483
  483SOL    HW1 2348   6.731   2.270   2.563
  483SOL    HW2 2349   6.618   2.362   2.489
  484SOL     OW 2350   1.640   4.205   5.147
  484SOL    HW1 2351   1.634   4.264   5.228
  484SOL    HW2 2352   1.732   4.166   5.141
  485SOL     OW 2353   5.416   3.495   2.467
  485SOL    HW1 2354   5.508   3.457   2.462
  485SOL    HW2 2355   5.357   3.434   2.519
  486SOL     OW 2356   5.525   0.787   6.380
  486SOL    HW1 2357   5.537   0.885   6.370
  486SOL    HW2 2358   5.611   0.744   6.406
  487SOL     OW 2359   0.787   0.292   2.796
  487SOL    HW1 2360   0.696   0.315   2.829
  487SOL    HW2 2361   0.800   0.329   2.704
  488SOL     OW 2362   1.530   6.791   3.465
  488SOL    HW1 2363   1.453   6.742   3.506
  488SOL    HW2 2364   1.594   6.725   3.425
  489SOL     OW 2365   5.867   5.456   5.147
  489SOL    HW1 2366   5.912   5.463   5.236
  489SOL    HW2 2367   5.933   5.476   5.075
  490SOL     OW 2368   1.765   5.884   4.758
  490SOL    HW1 2369   1.710   5.948   4.704
  490SOL    HW2 2370   1.786   5.804   4.702
  491SOL     OW 2371   0.735   3.368   0.242
  491SOL    HW1 2372   0.694   3.451   0.203
  491SOL    HW2 2373   0.693   3.348   0.330
  492SOL     OW 2374   1.920   1.578   6.027
  492SOL    HW1 2375   2.011   1.618   6.011
  492SOL    HW2 2376   1.901   1.578   6.125
  493SOL     OW 2377   2.449   6.833   5.644
  493SOL    HW1 2378   2.484   6.899   5.710
  493SOL    HW2 2379   2.488   6.851   5.554
  494SOL     OW 2380   2.447   1.774   6.362
  494SOL    HW1 2381   2.517   1.719   6.409
  494SOL    HW2 2382   2.490   1.829   6.291
  495SOL     OW 2383   4.001   6.341   5.388
  495SOL    HW1 2384   4.043   6.257   5.354
  495SOL    HW2 2385   4.072   6.410   5.402
  496SOL     OW 2386   6.376   1.646   2.234
  496SOL    HW1 2387   6.384   1.547   2.239
  496SOL    HW2 2388   6.349   1.673   2.141
  497SOL     OW 2389   3.635   1.128   4.408
  497SOL    HW1 2390   3.653   1.118   4.506
  497SOL    HW2 2391   3.665   1.218   4.377
  498SOL     OW 2392   0.640   4.798   1.929
  498SOL    HW1 2393   0.656   4.751   1.843
  498SOL    HW2 2394   0.615   4.893   1.911
  499SOL     OW 2395   2.314   5.685   5.670
  499SOL    HW1 2396   2.274   5.606   5.625
  499SOL    HW2 2397   2.366   5.655   5.750
  500SOL     OW 2398   5.259   2.986   5.815
  500SOL    HW1 2399   5.174   3.024   5.779
  500SOL    HW2 2400   5.247   2.889   5.833
  501SOL     OW 2401   2.841   0.045   1.859
  501SOL    HW1 2402   2.888   0.045   1.947
  501SOL    HW2 2403   2.861   0.130   1.810
  502SOL     OW 2404   1.116   4.685   6.746
  502SOL    HW1 2405   1.117   4.785   6.750
  502SOL    HW2 2406   1.190   4.654   6.687
  503SOL     OW 2407   2.077   5.177   6.322
  503SOL    HW1 2408   2.146   5.116   6.283
  503SOL    HW2 2409   2.017   5.125   6.383
  504SOL     OW 2410   0.720   6.014   2.275
  504SOL    HW1 2411   0.672   5.977   2.354
  504SOL    HW2 2412   0.664   5.999   2.193
  505SOL     OW 2413   3.795   0.325   4.914
  505SOL    HW1 2414   3.803   0.375   5.001
  505SOL    HW2 2415   3.803   0.227   4.932
  506SOL     OW 2416   3.274   5.785   2.550
  506SOL    HW1 2417   3.284   5.844   2.470
  506SOL    HW2 2418   3.286   5.840   2.633
  507SOL     OW 2419   4.141   1.034   2.367
  507SOL    HW1 2420   4.043   1.018   2.360
  507SOL    HW2 2421   4.158   1.104   2.436
  508SOL     OW 2422   6.647   2.514   3.469
  508SOL    HW1 2423   6.720   2.507   3.537
  508SOL    HW2 2424   6.609   2.607   3.471
  509SOL     OW 2425   4.744   0.559   6.994
  509SOL    HW1 2426   4.778   0.473   6.957
  509SOL    HW2 2427   4.683   0.602   6.928
  510SOL     OW 2428   6.756   5.049   5.955
  510SOL    HW1 2429   6.838   5.016   6.002
  510SOL    HW2 2430   6.701   4.972   5.924
  511SOL     OW 2431   1.457   1.645   6.671
  511SOL    HW1 2432   1.486   1.734   6.705
  511SOL    HW2 2433   1.369   1.621   6.712
  512SOL     OW 2434   5.917   2.489   6.774
  512SOL    HW1 2435   5.867   2.510   6.858
  512SOL    HW2 2436   5.859   2.505   6.695
  513SOL     OW 2437   5.089   6.385   2.660
  513SOL    HW1 2438   5.147   6.448   2.610
  513SOL    HW2 2439   5.049   6.318   2.597
  514SOL     OW 2440   0.240   0.223   4.030
  514SOL    HW1 2441   0.205   0.307   3.988
  514SOL    HW2 2442   0.170   0.183   4.089
  515SOL     OW 2443   2.214   0.594   6.399
  515SOL    HW1 2444   2.239   0.677   6.351
  515SOL    HW2 2445   2.250   0.514   6.350
  516SOL     OW 2446   2.158   4.453   1.978
  516SOL    HW1 2447   2.187   4.539   1.936
  516SOL    HW2 2448   2.106   4.472   2.061
  517SOL     OW 2449   3.136   4.879   2.419
  517SOL    HW1 2450   3.133   4.882   2.319
  517SOL    HW2 2451   3.043   4.868   2.454
  518SOL     OW 2452   2.577   2.075   4.047
  518SOL    HW1 2453   2.666   2.065   4.001
  518SOL    HW2 2454   2.505   2.081   3.979
  519SOL     OW 2455   0.064   6.793   3.605
  519SOL    HW1 2456   6.991   6.792   3.561
  519SOL    HW2 2457   0.128   6.845   3.549
  520SOL     OW 2458   1.125   4.297   6.672
  520SOL    HW1 2459   1.116   4.238   6.592
  520SOL    HW2 2460   1.055   4.368   6.669
  521SOL     OW 2461   4.561   5.500   4.309
  521SOL    HW1 2462   4.554   5.423   4.371
  521SOL    HW2 2463   4.476   5.553   4.312
  522SOL     OW 2464   4.172   3.829   1.891
  522SOL    HW1 2465   4.154   3.737   1.926
  522SOL    HW2 2466   4.163   3.895   1.965
  523SOL     OW 2467   0.263   6.020   1.712
  523SOL    HW1 2468   0.317   6.030   1.797
  523SOL    HW2 2469   0.325   6.017   1.634
  524SOL     OW 2470   0.862   3.279   2.618
  524SOL    HW1 2471   0.909   3.352   2.668
  524SOL    HW2 2472   0.920   3.198   2.616
  525SOL     OW 2473   2.035   4.021   6.560
  525SOL    HW1 2474   1.946   3.981   6.539
  525SOL    HW2 2475   2.034   4.058   6.653
  526SOL     OW 2476   2.883   0.023   4.141
  526SOL    HW1 2477   2.830   0.108   4.142
  526SOL    HW2 2478   2.869   6.992   4.055
  527SOL     OW 2479   0.535   2.379   6.995
  527SOL    HW1 2480   0.615   2.336   6.954
  527SOL    HW2 2481   0.517   2.466   6.949
  528SOL     OW 2482   1.237   2.714   3.948
  528SOL    HW1 2483   1.288   2.672   3.873
  528SOL    HW2 2484   1.286   2.698   4.034
  529SOL     OW 2485   2.302   0.241   5.476
  529SOL    HW1 2486   2.309   0.335   5.442
  529SOL    HW2 2487   2.212   0.204   5.454
  530SOL     OW 2488   3.698   2.938   2.355
  530SOL    HW1 2489   3.745   2.947   2.443
  530SOL    HW2 2490   3.613   2.887   2.368
  531SOL     OW 2491   1.700   0.952   2.694
  531SOL    HW1 2492   1.752   0.873   2.727
  531SOL    HW2 2493   1.689   1.018   2.769
  532SOL     OW 2494   1.539   3.693   0.597
  532SOL    HW1 2495   1.588   3.641   0.667
  532SOL    HW2 2496   1.535   3.640   0.513
  533SOL     OW 2497   5.083   6.733   4.005
  533SOL    HW1 2498   5.030   6.753   3.922
  533SOL    HW2 2499   5.138   6.812   4.029
  534SOL     OW 2500   6.916   6.203   2.207
  534SOL    HW1 2501   6.893   6.273   2.139
  534SOL    HW2 2502   6.846   6.132   2.209
  535SOL     OW 2503   0.156   4.527   2.850
  535SOL    HW1 2504   0.242   4.556   2.808
  535SOL    HW2 2505   0.126   4.441   2.809
  536SOL     OW 2506   6.455   5.307   2.863
  536SOL    HW1 2507   6.402   5.376   2.815
  536SOL    HW2 2508   6.448   5.321   2.961
  537SOL     OW 2509   3.609   6.833   4.204
  537SOL    HW1 2510   3.522   6.783   4.199
  537SOL    HW2 2511   3.661   6.803   4.284
  538SOL     OW 2512   1.013   4.473   4.889
  538SOL    HW1 2513   1.113   4.468   4.882
  538SOL    HW2 2514   0.984   4.435   4.976
  539SOL     OW 2515   1.638   5.607   2.158
  539SOL    HW1 2516   1.632   5.512   2.189
  539SOL    HW2 2517   1.685   5.661   2.227
  540SOL     OW 2518   1.840   0.750   3.893
  540SOL    HW1 2519   1.857   0.710   3.983
  540SOL    HW2 2520   1.797   0.840   3.904
  541SOL     OW 2521   4.786   5.801   3.705
  541SOL    HW1 2522   4.763   5.732   3.773
  541SOL    HW2 2523   4.881   5.790   3.677
  542SOL     OW 2524   3.684   6.037   6.417
  542SOL    HW1 2525   3.712   6.131   6.434
  542SOL    HW2 2526   3.585   6.033   6.406
  543SOL     OW 2527   5.572   3.504   3.626
  543SOL    HW1 2528   5.551   3.530   3.720
  543SOL    HW2 2529   5.493   3.523   3.568
  544SOL     OW 2530   0.393   4.999   0.363
  544SOL    HW1 2531   0.469   5.042   0.414
  544SOL    HW2 2532   0.321   4.974   0.428
  545SOL     OW 2533   4.507   1.411   0.594
  545SOL    HW1 2534   4.419   1.363   0.591
  545SOL    HW2 2535   4.552   1.392   0.682
  546SOL     OW 2536   1.190   3.812   1.769
  546SOL    HW1 2537   1.114   3.854   1.819
  546SOL    HW2 2538   1.277   3.844   1.807
  547SOL     OW 2539   2.999   3.068   0.874
  547SOL    HW1 2540   3.021   3.155   0.829
  547SOL    HW2 2541   3.083   3.030   0.913
  548SOL     OW 2542   3.711   3.772   1.155
  548SOL    HW1 2543   3.752   3.802   1.242
  548SOL    HW2 2544   3.783   3.754   1.088
  549SOL     OW 2545   5.204   2.507   1.893
  549SOL    HW1 2546   5.169   2.568   1.822
  549SOL    HW2 2547   5.228   2.561   1.974
  550SOL     OW 2548   1.050   5.220   3.357
  550SOL    HW1 2549   1.046   5.253   3.263
  550SOL    HW2 2550   1.133   5.254   3.400
  551SOL     OW 2551   6.785   0.233   1.662
  551SOL    HW1 2552   6.789   0.304   1.732
  551SOL    HW2 2553   6.866   0.239   1.603
  552SOL     OW 2554   5.230   4.310   5.243
  552SOL    HW1 2555   5.311   4.258   5.269
  552SOL    HW2 2556   5.205   4.289   5.148
  553SOL     OW 2557   2.989   6.813   3.468
  553SOL    HW1 2558   3.076   6.768   3.448
  553SOL    HW2 2559   3.006   6.911   3.482
  554SOL     OW 2560   5.840   6.519   0.100
  554SOL    HW1 2561   5.763   6.554   0.153
  554SOL    HW2 2562   5.897   6.461   0.158
  555SOL     OW 2563   2.921   5.219   4.765
  555SOL    HW1 2564   2.899   5.122   4.763
  555SOL    HW2 2565   2.864   5.265   4.833
  556SOL     OW 2566   4.780   1.171   4.195
  556SOL    HW1 2567   4.790   1.072   4.187
  556SOL    HW2 2568   4.720   1.205   4.122
  557SOL     OW 2569   6.787   5.007   6.402
  557SOL    HW1 2570   6.695   4.972   6.387
  557SOL    HW2 2571   6.853   4.946   6.359
  558SOL     OW 2572   3.107   3.151   4.460
  558SOL    HW1 2573   3.107   3.248   4.486
  558SOL    HW2 2574   3.124   3.143   4.362
  559SOL     OW 2575   6.769   5.861   5.699
  559SOL    HW1 2576   6.720   5.922   5.638
  559SOL    HW2 2577   6.722   5.773   5.705
  560SOL     OW 2578   6.412   3.904   2.859
  560SOL    HW1 2579   6.429   3.854   2.944
  560SOL    HW2 2580   6.357   3.985   2.879
  561SOL     OW 2581   0.398   2.344   0.234
  561SOL    HW1 2582   0.443   2.318   0.148
  561SOL    HW2 2583   0.317   2.400   0.213
  562SOL     OW 2584   4.207   1.060   6.173
  562SOL    HW1 2585   4.254   1.145   6.151
  562SOL    HW2 2586   4.112   1.065   6.140
  563SOL     OW 2587   1.990   1.700   3.412
  563SOL    HW1 2588   2.017   1.675   3.319
  563SOL    HW2 2589   2.044   1.779   3.442
  564SOL     OW 2590   1.188   2.457   0.225
  564SOL    HW1 2591   1.143   2.505   0.149
  564SOL    HW2 2592   1.143   2.481   0.311
  565SOL     OW 2593   3.143   3.461   3.091
  565SOL    HW1 2594   3.079   3.399   3.137
  565SOL    HW2 2595   3.098   3.548   3.073
  566SOL     OW 2596   1.850   3.475   3.588
  566SOL    HW1 2597   1.771   3.458   3.646
  566SOL    HW2 2598   1.845   3.568   3.550
  567SOL     OW 2599   3.190   2.525   1.341
  567SOL    HW1 2600   3.274   2.562   1.382
  567SOL    HW2 2601   3.111   2.569   1.383
  568SOL     OW 2602   5.456   6.672   0.117
  568SOL    HW1 2603   5.452   6.730   0.036
  568SOL    HW2 2604   5.376   6.690   0.175
  569SOL     OW 2605   0.790   2.586   0.871
  569SOL    HW1 2606   0.883   2.610   0.896
  569SOL    HW2 2607   0.787   2.554   0.776
  570SOL     OW 2608   3.242   0.009   6.395
  570SOL    HW1 2609   3.161   0.066   6.409
  570SOL    HW2 2610   3.269   6.984   6.482
  571SOL     OW 2611   2.907   5.089   3.885
  571SOL    HW1 2612   2.820   5.134   3.905
  571SOL    HW2 2613   2.970   5.103   3.962
  572SOL     OW 2614   1.836   5.046   5.240
  572SOL    HW1 2615   1.873   5.078   5.153
  572SOL    HW2 2616   1.902   4.986   5.285
  573SOL     OW 2617   6.080   1.157   6.045
  573SOL    HW1 2618   6.071   1.257   6.043
  573SOL    HW2 2619   6.165   1.132   6.092
  574SOL     OW 2620   3.701   0.208   5.201
  574SOL    HW1 2621   3.661   0.281   5.256
  574SOL    HW2 2622   3.765   0.155   5.257
  575SOL     OW 2623   4.251   2.746   1.675
  575SOL    HW1 2624   4.185   2.753   1.749
  575SOL    HW2 2625   4.222   2.675   1.611
  576SOL     OW 2626   1.111   3.368   3.033
  576SOL    HW1 2627   1.139   3.361   3.128
  576SOL    HW2 2628   1.190   3.353   2.974
  577SOL     OW 2629   1.530   0.978   2.209
  577SOL    HW1 2630   1.468   1.051   2.240
  577SOL    HW2 2631   1.571   0.934   2.288
  578SOL     OW 2632   0.574   5.218   5.067
  578SOL    HW1 2633   0.575   5.181   4.974
  578SOL    HW2 2634   0.662   5.258   5.088
  579SOL     OW 2635   1.586   4.246   3.182
  579SOL    HW1 2636   1.602   4.202   3.270
  579SOL    HW2 2637   1.610   4.343   3.188
  580SOL     OW 2638   4.028   5.363   5.482
  580SOL    HW1 2639   4.007   5.267   5.463
  580SOL    HW2 2640   4.026   5.379   5.581
  581SOL     OW 2641   2.094   3.311   2.187
  581SOL    HW1 2642   2.109   3.382   2.118
  581SOL    HW2 2643   2.120   3.222   2.150
  582SOL     OW 2644   4.247   5.587   2.671
  582SOL    HW1 2645   4.270   5.514   2.736
  582SOL    HW2 2646   4.329   5.614   2.622
  583SOL     OW 2647   2.908   6.264   5.514
  583SOL    HW1 2648   2.926   6.329   5.588
  583SOL    HW2 2649   2.995   6.225   5.483
  584SOL     OW 2650   2.926   6.966   6.403
  584SOL    HW1 2651   2.887   6.976   6.495
  584SOL    HW2 2652   2.852   6.968   6.336
  585SOL     OW 2653   4.241   1.243   0.328
  585SOL    HW1 2654   4.157   1.270   0.282
  585SOL    HW2 2655   4.318   1.292   0.289
  586SOL     OW 2656   3.454   0.964   0.482
  586SOL    HW1 2657   3.355   0.977   0.493
  586SOL    HW2 2658   3.476   0.867   0.493
  587SOL     OW 2659   4.504   2.459   3.026
  587SOL    HW1 2660   4.522   2.387   3.093
  587SOL    HW2 2661   4.484   2.417   2.937
  588SOL     OW 2662   2.162   4.995   1.379
  588SOL    HW1 2663   2.184   4.933   1.454
  588SOL    HW2 2664   2.094   5.062   1.411
  589SOL     OW 2665   3.513   5.454   1.798
  589SOL    HW1 2666   3.525   5.382   1.866
  589SOL    HW2 2667   3.513   5.543   1.842
  590SOL     OW 2668   5.590   1.512   1.172
  590SOL    HW1 2669   5.563   1.606   1.189
  590SOL    HW2 2670   5.686   1.508   1.146
  591SOL     OW 2671   3.535   6.268   3.695
  591SOL    HW1 2672   3.454   6.237   3.646
  591SOL    HW2 2673   3.555   6.363   3.671
  592SOL     OW 2674   4.360   0.842   2.318
  592SOL    HW1 2675   4.269   0.882   2.326
  592SOL    HW2 2676   4.359   0.749   2.353
  593SOL     OW 2677   4.887   1.963   3.538
  593SOL    HW1 2678   4.885   1.938   3.441
  593SOL    HW2 2679   4.980   1.953   3.573
  594SOL     OW 2680   5.868   0.204   1.013
  594SOL    HW1 2681   5.780   0.225   0.972
  594SOL    HW2 2682   5.896   0.279   1.073
  595SOL     OW 2683   5.420   6.477   3.540
  595SOL    HW1 2684   5.380   6.556   3.587
  595SOL    HW2 2685   5.384   6.473   3.446
  596SOL     OW 2686   0.492   4.801   3.018
  596SOL    HW1 2687   0.404   4.843   3.036
  596SOL    HW2 2688   0.478   4.715   2.969
  597SOL     OW 2689   2.977   6.483   6.833
  597SOL    HW1 2690   3.010   6.394   6.864
  597SOL    HW2 2691   2.968   6.483   6.733
  598SOL     OW 2692   3.807   4.066   4.576
  598SOL    HW1 2693   3.893   4.040   4.532
  598SOL    HW2 2694   3.738   4.084   4.505
  599SOL     OW 2695   2.286   5.614   2.873
  599SOL    HW1 2696   2.260   5.519   2.888
  599SOL    HW2 2697   2.287   5.662   2.961
  600SOL     OW 2698   5.987   2.603   6.202
  600SOL    HW1 2699   6.039   2.521   6.179
  600SOL    HW2 2700   6.041   2.684   6.179
  601SOL     OW 2701   1.502   0.729   4.229
  601SOL    HW1 2702   1.505   0.629   4.228
  601SOL    HW2 2703   1.453   0.761   4.148
  602SOL     OW 2704   2.313   0.824   6.237
  602SOL    HW1 2705   2.235   0.859   6.288
  602SOL    HW2 2706   2.302   0.846   6.140
  603SOL     OW 2707   2.750   2.573   5.326
  603SOL    HW1 2708   2.686   2.650   5.326
  603SOL    HW2 2709   2.832   2.599   5.376
  604SOL     OW 2710   1.087   1.629   1.317
  604SOL    HW1 2711   1.031   1.682   1.381
  604SOL    HW2 2712   1.028   1.588   1.247
  605SOL     OW 2713   6.454   4.701   1.130
  605SOL    HW1 2714   6.361   4.665   1.124
  605SOL    HW2 2715   6.511   4.639   1.183
  606SOL     OW 2716   5.068   6.566   5.742
  606SOL    HW1 2717   5.050   6.518   5.828
  606SOL    HW2 2718   5.163   6.551   5.715
  607SOL     OW 2719   6.959   4.982   4.907
  607SOL    HW1 2720   6.969   4.950   4.812
  607SOL    HW2 2721   0.017   4.945   4.962
  608SOL     OW 2722   4.045   6.045   6.826
  608SOL    HW1 2723   4.125   6.047   6.766
  608SOL    HW2 2724   4.075   6.043   6.921
  609SOL     OW 2725   3.520   3.058   2.206
  609SOL    HW1 2726   3.581   3.045   2.285
  609SOL    HW2 2727   3.542   2.991   2.135
  610SOL     OW 2728   5.839   3.417   0.126
  610SOL    HW1 2729   5.812   3.499   0.076
  610SOL    HW2 2730   5.764   3.351   0.124
  611SOL     OW 2731   4.591   0.441   1.563
  611SOL    HW1 2732   4.520   0.407   1.625
  611SOL    HW2 2733   4.600   0.540   1.573
  612SOL     OW 2734   3.168   5.742   4.405
  612SOL    HW1 2735   3.100   5.806   4.440
  612SOL    HW2 2736   3.254   5.791   4.386
  613SOL     OW 2737   4.513   4.688   5.699
  613SOL    HW1 2738   4.581   4.759   5.684
  613SOL    HW2 2739   4.421   4.728   5.695
  614SOL     OW 2740   4.900   4.713   5.666
  614SOL    HW1 2741   4.913   4.777   5.741
  614SOL    HW2 2742   4.970   4.642   5.670
  615SOL     OW 2743   6.820   2.482   1.027
  615SOL    HW1 2744   6.917   2.478   1.048
  615SOL    HW2 2745   6.781   2.566   1.066
  616SOL     OW 2746   0.160   2.210   2.096
  616SOL    HW1 2747   0.212   2.291   2.067
  616SOL    HW2 2748   0.172   2.196   2.194
  617SOL     OW 2749   0.344   4.737   5.738
  617SOL    HW1 2750   0.422   4.771   5.685
  617SOL    HW2 2751   0.320   4.645   5.707
  618SOL     OW 2752   1.004   2.258   0.548
  618SOL    HW1 2753   1.074   2.251   0.477
  618SOL    HW2 2754   0.992   2.355   0.572
  619SOL     OW 2755   2.881   1.705   0.941
  619SOL    HW1 2756   2.834   1.718   1.028
  619SOL    HW2 2757   2.947   1.629   0.951
  620SOL     OW 2758   4.489   2.239   0.692
  620SOL    HW1 2759   4.400   2.266   0.657
  620SOL    HW2 2760   4.480   2.158   0.749
  621SOL     OW 2761   3.215   5.847   6.889
  621SOL    HW1 2762   3.283   5.813   6.824
  621SOL    HW2 2763   3.126   5.805   6.869
  622SOL     OW 2764   0.974   0.880   6.496
  622SOL    HW1 2765   1.068   0.849   6.481
  622SOL    HW2 2766   0.969   0.927   6.584
  623SOL     OW 2767   0.949   5.785   6.005
  623SOL    HW1 2768   0.897   5.702   5.981
  623SOL    HW2 2769   0.886   5.863   6.008
  624SOL     OW 2770   0.104   2.421   1.296
  624SOL    HW1 2771   0.110   2.447   1.200
  624SOL    HW2 2772   0.135   2.496   1.353
  625SOL     OW 2773   2.617   1.959   1.633
  625SOL    HW1 2774   2.611   1.860   1.643
  625SOL    HW2 2775   2.713   1.986   1.629
  626SOL     OW 2776   2.631   5.659   3.809
  626SOL    HW1 2777   2.662   5.611   3.728
  626SOL    HW2 2778   2.614   5.594   3.883
  627SOL     OW 2779   5.200   0.522   0.717
  627SOL    HW1 2780   5.103   0.506   0.697
  627SOL    HW2 2781   5.256   0.458   0.665
  628SOL     OW 2782   5.639   5.276   5.806
  628SOL    HW1 2783   5.652   5.186   5.848
  628SOL    HW2 2784   5.551   5.314   5.834
  629SOL     OW 2785   6.707   6.515   0.920
  629SOL    HW1 2786   6.691   6.469   1.007
  629SOL    HW2 2787   6.802   6.546   0.916
  630SOL     OW 2788   6.384   1.367   2.298
  630SOL    HW1 2789   6.289   1.361   2.329
  630SOL    HW2 2790   6.404   1.289   2.238
  631SOL     OW 2791   3.611   6.890   4.973
  631SOL    HW1 2792   3.567   6.979   4.974
  631SOL    HW2 2793   3.675   6.883   5.050
  632SOL     OW 2794   2.588   1.786   0.566
  632SOL    HW1 2795   2.511   1.813   0.509
  632SOL    HW2 2796   2.615   1.692   0.543
  633SOL     OW 2797   4.477   4.999   0.191
  633SOL    HW1 2798   4.535   4.955   0.259
  633SOL    HW2 2799   4.450   4.932   0.122
  634SOL     OW 2800   4.881   4.575   1.728
  634SOL    HW1 2801   4.859   4.612   1.638
  634SOL    HW2 2802   4.803   4.522   1.763
  635SOL     OW 2803   4.655   5.680   1.899
  635SOL    HW1 2804   4.583   5.647   1.838
  635SOL    HW2 2805   4.728   5.722   1.845
  636SOL     OW 2806   5.052   5.801   0.084
  636SOL    HW1 2807   5.013   5.881   0.037
  636SOL    HW2 2808   4.980   5.734   0.101
  637SOL     OW 2809   6.261   3.847   1.850
  637SOL    HW1 2810   6.232   3.862   1.756
  637SOL    HW2 2811   6.215   3.766   1.887
  638SOL     OW 2812   4.915   1.942   2.319
  638SOL    HW1 2813   4.872   1.946   2.410
  638SOL    HW2 2814   5.010   1.914   2.329
  639SOL     OW 2815   5.384   4.041   2.551
  639SOL    HW1 2816   5.299   4.000   2.583
  639SOL    HW2 2817   5.446   3.969   2.519
  640SOL     OW 2818   0.876   4.638   5.175
  640SOL    HW1 2819   0.818   4.581   5.233
  640SOL    HW2 2820   0.828   4.660   5.090
  641SOL     OW 2821   0.033   5.368   4.711
  641SOL    HW1 2822   6.974   5.315   4.674
  641SOL    HW2 2823   0.024   5.463   4.682
  642SOL     OW 2824   6.502   4.066   4.347
  642SOL    HW1 2825   6.463   4.006   4.416
  642SOL    HW2 2826   6.595   4.037   4.326
  643SOL     OW 2827   5.561   4.859   5.361
  643SOL    HW1 2828   5.496   4.867   5.286
  643SOL    HW2 2829   5.635   4.924   5.349
  644SOL     OW 2830   1.320   6.130   3.734
  644SOL    HW1 2831   1.234   6.182   3.734
  644SOL    HW2 2832   1.379   6.164   3.808
  645SOL     OW 2833   5.656   2.140   4.576
  645SOL    HW1 2834   5.634   2.223   4.626
  645SOL    HW2 2835   5.582   2.074   4.586
  646SOL     OW 2836   2.587   1.455   3.316
  646SOL    HW1 2837   2.637   1.488   3.396
  646SOL    HW2 2838   2.651   1.415   3.251
  647SOL     OW 2839   5.860   2.846   5.769
  647SOL    HW1 2840   5.813   2.844   5.857
  647SOL    HW2 2841   5.795   2.866   5.696
  648SOL     OW 2842   6.905   3.945   3.342
  648SOL    HW1 2843   6.867   3.892   3.417
  648SOL    HW2 2844   6.841   3.943   3.265
  649SOL     OW 2845   4.203   3.948   0.948
  649SOL    HW1 2846   4.220   4.036   0.905
  649SOL    HW2 2847   4.249   3.876   0.896
  650SOL     OW 2848   5.121   4.277   0.730
  650SOL    HW1 2849   5.141   4.373   0.709
  650SOL    HW2 2850   5.206   4.224   0.728
  651SOL     OW 2851   0.119   6.742   6.592
  651SOL    HW1 2852   0.074   6.673   6.649
  651SOL    HW2 2853   0.051   6.785   6.533
  652SOL     OW 2854   5.882   6.074   3.742
  652SOL    HW1 2855   5.865   6.083   3.644
  652SOL    HW2 2856   5.973   6.107   3.764
  653SOL     OW 2857   3.580   5.986   4.883
  653SOL    HW1 2858   3.577   6.086   4.879
  653SOL    HW2 2859   3.491   5.949   4.856
  654SOL     OW 2860   0.321   4.175   5.710
  654SOL    HW1 2861   0.239   4.133   5.750
  654SOL    HW2 2862   0.400   4.116   5.726
  655SOL     OW 2863   0.884   6.735   2.002
  655SOL    HW1 2864   0.911   6.745   2.098
  655SOL    HW2 2865   0.860   6.824   1.964
  656SOL     OW 2866   1.703   5.770   1.686
  656SOL    HW1 2867   1.708   5.870   1.686
  656SOL    HW2 2868   1.662   5.738   1.601
  657SOL     OW 2869   1.682   2.054   1.880
  657SOL    HW1 2870   1.699   2.065   1.978
  657SOL    HW2 2871   1.745   1.986   1.842
  658SOL     OW 2872   2.699   3.818   6.277
  658SOL    HW1 2873   2.664   3.726   6.294
  658SOL    HW2 2874   2.786   3.812   6.228
  659SOL     OW 2875   2.498   6.512   6.314
  659SOL    HW1 2876   2.579   6.456   6.330
  659SOL    HW2 2877   2.502   6.552   6.223
  660SOL     OW 2878   5.191   4.091   1.623
  660SOL    HW1 2879   5.136   4.027   1.677
  660SOL    HW2 2880   5.288   4.070   1.635
  661SOL     OW 2881   4.298   6.224   3.770
  661SOL    HW1 2882   4.269   6.319   3.765
  661SOL    HW2 2883   4.263   6.183   3.855
  662SOL     OW 2884   4.140   1.182   4.974
  662SOL    HW1 2885   4.238   1.166   4.965
  662SOL    HW2 2886   4.124   1.270   5.020
  663SOL     OW 2887   2.519   3.968   6.095
  663SOL    HW1 2888   2.429   4.008   6.106
  663SOL    HW2 2889   2.559   3.952   6.185
  664SOL     OW 2890   0.258   6.417   6.360
  664SOL    HW1 2891   0.267   6.420   6.459
  664SOL    HW2 2892   0.190   6.348   6.335
  665SOL     OW 2893   4.443   5.215   1.810
  665SOL    HW1 2894   4.357   5.262   1.789
  665SOL    HW2 2895   4.429   5.155   1.889
  666SOL     OW 2896   5.114   1.363   1.825
  666SOL    HW1 2897   5.075   1.450   1.854
  666SOL    HW2 2898   5.188   1.337   1.887
  667SOL     OW 2899   1.254   4.995   2.459
  667SOL    HW1 2900   1.163   4.973   2.494
  667SOL    HW2 2901   1.274   4.939   2.379
  668SOL     OW 2902   4.717   6.109   6.273
  668SOL    HW1 2903   4.707   6.201   6.311
  668SOL    HW2 2904   4.811   6.079   6.284
  669SOL     OW 2905   5.066   0.125   3.283
  669SOL    HW1 2906   5.097   0.038   3.244
  669SOL    HW2 2907   5.144   0.184   3.299
  670SOL     OW 2908   3.082   2.634   1.707
  670SOL    HW1 2909   3.180   2.638   1.722
  670SOL    HW2 2910   3.041   2.569   1.771
  671SOL     OW 2911   3.287   6.361   1.023
  671SOL    HW1 2912   3.296   6.431   1.094
  671SOL    HW2 2913   3.236   6.399   0.945
  672SOL     OW 2914   6.559   5.693   1.591
  672SOL    HW1 2915   6.521   5.768   1.537
  672SOL    HW2 2916   6.513   5.688   1.679
  673SOL     OW 2917   6.570   0.228   1.352
  673SOL    HW1 2918   6.621   0.229   1.439
  673SOL    HW2 2919   6.566   0.321   1.315
  674SOL     OW 2920   0.390   1.306   5.312
  674SOL    HW1 2921   0.322   1.375   5.289
  674SOL    HW2 2922   0.471   1.350   5.351
  675SOL     OW 2923   0.224   2.229   2.381
  675SOL    HW1 2924   0.308   2.280   2.400
  675SOL    HW2 2925   0.199   2.175   2.462
  676SOL     OW 2926   3.200   5.577   3.792
  676SOL    HW1 2927   3.230   5.485   3.818
  676SOL    HW2 2928   3.101   5.584   3.803
  677SOL     OW 2929   5.441   1.229   0.159
  677SOL    HW1 2930   5.481   1.205   0.248
  677SOL    HW2 2931   5.345   1.252   0.172
  678SOL     OW 2932   2.663   6.454   5.025
  678SOL    HW1 2933   2.700   6.403   5.103
  678SOL    HW2 2934   2.608   6.530   5.059
  679SOL     OW 2935   4.796   2.210   3.925
  679SOL    HW1 2936   4.866   2.140   3.909
  679SOL    HW2 2937   4.706   2.167   3.929
  680SOL     OW 2938   5.104   5.838   4.805
  680SOL    HW1 2939   5.168   5.772   4.764
  680SOL    HW2 2940   5.129   5.854   4.900
  681SOL     OW 2941   4.473   5.384   1.582
  681SOL    HW1 2942   4.477   5.313   1.653
  681SOL    HW2 2943   4.381   5.387   1.543
  682SOL     OW 2944   6.344   0.951   1.936
  682SOL    HW1 2945   6.311   0.923   1.846
  682SOL    HW2 2946   6.444   0.954   1.936
  683SOL     OW 2947   5.414   2.599   0.796
  683SOL    HW1 2948   5.473   2.532   0.842
  683SOL    HW2 2949   5.323   2.596   0.837
  684SOL     OW 2950   6.572   1.228   0.688
  684SOL    HW1 2951   6.668   1.243   0.713
  684SOL    HW2 2952   6.513   1.282   0.747
  685SOL     OW 2953   3.112   1.815   3.838
  685SOL    HW1 2954   3.062   1.777   3.760
  685SOL    HW2 2955   3.189   1.870   3.806
  686SOL     OW 2956   4.682   2.610   4.044
  686SOL    HW1 2957   4.641   2.658   4.122
  686SOL    HW2 2958   4.613   2.596   3.973
  687SOL     OW 2959   0.784   2.065   4.136
  687SOL    HW1 2960   0.804   1.977   4.093
  687SOL    HW2 2961   0.738   2.124   4.070
  688SOL     OW 2962   0.833   2.116   6.358
  688SOL    HW1 2963   0.757   2.120   6.423
  688SOL    HW2 2964   0.878   2.028   6.364
  689SOL     OW 2965   1.126   4.867   6.339
  689SOL    HW1 2966   1.207   4.897   6.390
  689SOL    HW2 2967   1.075   4.801   6.393
  690SOL     OW 2968   6.698   3.162   3.463
  690SOL    HW1 2969   6.781   3.207   3.430
  690SOL    HW2 2970   6.721   3.075   3.505
  691SOL     OW 2971   3.043   1.249   0.259
  691SOL    HW1 2972   2.969   1.292   0.310
  691SOL    HW2 2973   3.036   1.149   0.267
  692SOL     OW 2974   3.952   1.870   3.892
  692SOL    HW1 2975   4.009   1.848   3.813
  692SOL    HW2 2976   3.889   1.944   3.868
  693SOL     OW 2977   4.716   6.888   4.219
  693SOL    HW1 2978   4.780   6.916   4.147
  693SOL    HW2 2979   4.746   6.801   4.258
  694SOL     OW 2980   4.266   6.970   4.460
  694SOL    HW1 2981   4.296   0.046   4.438
  694SOL    HW2 2982   4.286   6.910   4.383
  695SOL     OW 2983   4.384   6.704   3.763
  695SOL    HW1 2984   4.390   6.689   3.861
  695SOL    HW2 2985   4.370   6.801   3.745
  696SOL     OW 2986   4.802   4.594   3.778
  696SOL    HW1 2987   4.790   4.609   3.679
  696SOL    HW2 2988   4.779   4.678   3.827
  697SOL     OW 2989   1.393   4.159   2.515
  697SOL    HW1 2990   1.430   4.075   2.555
  697SOL    HW2 2991   1.437   4.238   2.556
  698SOL     OW 2992   5.157   6.479   1.275
  698SOL    HW1 2993   5.174   6.561   1.222
  698SOL    HW2 2994   5.098   6.502   1.353
  699SOL     OW 2995   1.400   3.331   6.668
  699SOL    HW1 2996   1.383   3.280   6.752
  699SOL    HW2 2997   1.343   3.413   6.667
  700SOL     OW 2998   3.756   0.855   2.394
  700SOL    HW1 2999   3.758   0.830   2.491
  700SOL    HW2 3000   3.820   0.930   2.377
  701SOL     OW 3001   6.669   3.589   0.081
  701SOL    HW1 3002   6.635   3.632   7.015
  701SOL    HW2 3003   6.621   3.503   0.097
  702SOL     OW 3004   1.395   6.389   5.020
  702SOL    HW1 3005   1.409   6.381   4.922
  702SOL    HW2 3006   1.299   6.411   5.039
  703SOL     OW 3007   3.621   3.103   6.015
  703SOL    HW1 3008   3.597   3.042   6.091
  703SOL    HW2 3009   3.547   3.101   5.947
  704SOL     OW 3010   1.327   2.882   6.026
  704SOL    HW1 3011   1.245   2.879   6.082
  704SOL    HW2 3012   1.309   2.836   5.939
  705SOL     OW 3013   6.350   5.431   2.548
  705SOL    HW1 3014   6.439   5.392   2.523
  705SOL    HW2 3015   6.352   5.464   2.642
  706SOL     OW 3016   4.276   1.795   4.783
  706SOL    HW1 3017   4.318   1.859   4.719
  706SOL    HW2 3018   4.227   1.847   4.854
  707SOL     OW 3019   4.622   4.791   3.159
  707SOL    HW1 3020   4.582   4.703   3.182
  707SOL    HW2 3021   4.693   4.778   3.090
  708SOL     OW 3022   3.017   0.710   2.580
  708SOL    HW1 3023   3.041   0.694   2.676
  708SOL    HW2 3024   3.020   0.808   2.560
  709SOL     OW 3025   0.971   5.799   0.653
  709SOL    HW1 3026   0.904   5.869   0.677
  709SOL    HW2 3027   1.019   5.768   0.735
  710SOL     OW 3028   4.258   2.419   1.329
  710SOL    HW1 3029   4.326   2.370   1.383
  710SOL    HW2 3030   4.305   2.480   1.264
  711SOL     OW 3031   0.368   2.893   6.063
  711SOL    HW1 3032   0.321   2.960   6.119
  711SOL    HW2 3033   0.325   2.889   5.972
  712SOL     OW 3034   4.800   2.402   1.670
  712SOL    HW1 3035   4.882   2.353   1.701
  712SOL    HW2 3036   4.725   2.338   1.658
  713SOL     OW 3037   3.650   3.680   5.863
  713SOL    HW1 3038   3.650   3.582   5.882
  713SOL    HW2 3039   3.698   3.698   5.777
  714SOL     OW 3040   0.091   5.303   3.613
  714SOL    HW1 3041   0.092   5.399   3.640
  714SOL    HW2 3042   7.014   5.269   3.613
  715SOL     OW 3043   5.368   5.960   6.809
  715SOL    HW1 3044   5.397   5.867   6.828
  715SOL    HW2 3045   5.363   6.012   6.895
  716SOL     OW 3046   0.657   1.187   1.919
  716SOL    HW1 3047   0.621   1.127   1.990
  716SOL    HW2 3048   0.658   1.282   1.952
  717SOL     OW 3049   6.886   4.634   3.796
  717SOL    HW1 3050   6.985   4.646   3.794
  717SOL    HW2 3051   6.845   4.677   3.716
  718SOL     OW 3052   4.688   3.126   6.026
  718SOL    HW1 3053   4.767   3.182   6.001
  718SOL    HW2 3054   4.616   3.138   5.958
  719SOL     OW 3055   5.882   0.152   2.482
  719SOL    HW1 3056   5.963   0.123   2.432
  719SOL    HW2 3057   5.890   0.125   2.578
  720SOL     OW 3058   2.237   0.326   6.335
  720SOL    HW1 3059   2.197   0.290   6.419
  720SOL    HW2 3060   2.330   0.291   6.325
  721SOL     OW 3061   2.122   1.843   1.923
  721SOL    HW1 3062   2.219   1.818   1.926
  721SOL    HW2 3063   2.106   1.924   1.980
  722SOL     OW 3064   2.651   0.703   5.512
  722SOL    HW1 3065   2.669   0.768   5.586
  722SOL    HW2 3066   2.585   0.743   5.448
  723SOL     OW 3067   1.948   4.282   3.384
  723SOL    HW1 3068   1.876   4.340   3.422
  723SOL    HW2 3069   1.906   4.204   3.337
  724SOL     OW 3070   0.757   1.249   3.755
  724SOL    HW1 3071   0.797   1.288   3.673
  724SOL    HW2 3072   0.664   1.285   3.767
  725SOL     OW 3073   1.350   5.205   2.799
  725SOL    HW1 3074   1.283   5.190   2.726
  725SOL    HW2 3075   1.406   5.285   2.775
  726SOL     OW 3076   3.092   5.121   1.638
  726SOL    HW1 3077   3.148   5.127   1.721
  726SOL    HW2 3078   3.118   5.193   1.574
  727SOL     OW 3079   6.121   4.090   5.912
  727SOL    HW1 3080   6.033   4.106   5.867
  727SOL    HW2 3081   6.142   3.992   5.911
  728SOL     OW 3082   6.709   3.424   4.058
  728SOL    HW1 3083   6.713   3.385   3.966
  728SOL    HW2 3084   6.793   3.401   4.108
  729SOL     OW 3085   0.074   2.441   0.943
  729SOL    HW1 3086   0.146   2.379   0.973
  729SOL    HW2 3087   0.027   2.402   0.864
  730SOL     OW 3088   6.733   0.191   3.910
  730SOL    HW1 3089   6.819   0.181   3.960
  730SOL    HW2 3090   6.660   0.214   3.974
  731SOL     OW 3091   4.242   5.288   6.265
  731SOL    HW1 3092   4.236   5.239   6.352
  731SOL    HW2 3093   4.284   5.378   6.280
  732SOL     OW 3094   5.913   2.859   1.600
  732SOL    HW1 3095   5.855   2.926   1.554
  732SOL    HW2 3096   5.874   2.767   1.586
  733SOL     OW 3097   5.482   0.340   4.949
  733SOL    HW1 3098   5.524   0.430   4.940
  733SOL    HW2 3099   5.525   0.276   4.886
  734SOL     OW 3100   6.120   5.277   2.650
  734SOL    HW1 3101   6.200   5.334   2.633
  734SOL    HW2 3102   6.100   5.278   2.748
  735SOL     OW 3103   3.950   1.779   0.498
  735SOL    HW1 3104   3.928   1.774   0.596
  735SOL    HW2 3105   3.968   1.874   0.473
  736SOL     OW 3106   1.031   0.818   3.743
  736SOL    HW1 3107   0.966   0.834   3.668
  736SOL    HW2 3108   1.124   0.817   3.706
  737SOL     OW 3109   5.319   1.869   5.656
  737SOL    HW1 3110   5.373   1.944   5.618
  737SOL    HW2 3111   5.348   1.783   5.615
  738SOL     OW 3112   2.932   3.710   1.387
  738SOL    HW1 3113   2.983   3.691   1.303
  738SOL    HW2 3114   2.919   3.809   1.397
  739SOL     OW 3115   5.001   0.439   4.331
  739SOL    HW1 3116   5.096   0.460   4.305
  739SOL    HW2 3117   4.973   0.354   4.286
  740SOL     OW 3118   5.716   1.085   2.707
  740SOL    HW1 3119   5.674   1.024   2.639
  740SOL    HW2 3120   5.649   1.105   2.779
  741SOL     OW 3121   1.814   0.099   3.570
  741SOL    HW1 3122   1.725   0.093   3.616
  741SOL    HW2 3123   1.839   0.195   3.559
  742SOL     OW 3124   2.214   6.854   1.630
  742SOL    HW1 3125   2.171   6.892   1.711
  742SOL    HW2 3126   2.244   6.761   1.648
  743SOL     OW 3127   0.646   5.301   3.094
  743SOL    HW1 3128   0.676   5.227   3.154
  743SOL    HW2 3129   0.548   5.293   3.078
  744SOL     OW 3130   5.559   0.866   1.089
  744SOL    HW1 3131   5.561   0.766   1.088
  744SOL    HW2 3132   5.607   0.899   1.170
  745SOL     OW 3133   1.737   5.359   4.960
  745SOL    HW1 3134   1.693   5.431   5.013
  745SOL    HW2 3135   1.697   5.271   4.983
  746SOL     OW 3136   6.011   3.656   6.250
  746SOL    HW1 3137   6.037   3.706   6.332
  746SOL    HW2 3138   6.080   3.670   6.179
  747SOL     OW 3139   3.954   5.992   4.863
  747SOL    HW1 3140   4.032   5.942   4.825
  747SOL    HW2 3141   3.885   5.927   4.894
  748SOL     OW 3142   4.460   5.368   2.512
  748SOL    HW1 3143   4.463   5.370   2.612
  748SOL    HW2 3144   4.365   5.365   2.482
  749SOL     OW 3145   6.012   3.758   4.656
  749SOL    HW1 3146   5.972   3.795   4.573
  749SOL    HW2 3147   5.940   3.742   4.724
  750SOL     OW 3148   3.074   1.324   1.254
  750SOL    HW1 3149   3.173   1.308   1.251
  750SOL    HW2 3150   3.026   1.236   1.266
  751SOL     OW 3151   4.677   1.781   0.234
  751SOL    HW1 3152   4.640   1.829   0.155
  751SOL    HW2 3153   4.700   1.687   0.209
  752SOL     OW 3154   2.594   3.001   0.957
  752SOL    HW1 3155   2.519   2.988   1.021
  752SOL    HW2 3156   2.678   2.965   0.996
  753SOL     OW 3157   0.798   3.734   5.696
  753SOL    HW1 3158   0.789   3.771   5.604
  753SOL    HW2 3159   0.707   3.727   5.738
  754SOL     OW 3160   4.589   1.364   6.452
  754SOL    HW1 3161   4.649   1.441   6.431
  754SOL    HW2 3162   4.586   1.302   6.374
  755SOL     OW 3163   2.123   4.507   4.981
  755SOL    HW1 3164   2.173   4.452   5.048
  755SOL    HW2 3165   2.083   4.448   4.912
  756SOL     OW 3166   2.421   5.600   0.007
  756SOL    HW1 3167   2.355   5.641   6.961
  756SOL    HW2 3168   2.373   5.542   0.073
  757SOL     OW 3169   0.640   6.129   4.588
  757SOL    HW1 3170   0.629   6.142   4.490
  757SOL    HW2 3171   0.678   6.213   4.629
  758SOL     OW 3172   4.691   0.848   3.478
  758SOL    HW1 3173   4.766   0.807   3.426
  758SOL    HW2 3174   4.607   0.797   3.462
  759SOL     OW 3175   0.236   2.756   2.744
  759SOL    HW1 3176   0.282   2.668   2.732
  759SOL    HW2 3177   0.162   2.746   2.812
  760SOL     OW 3178   5.886   6.945   3.697
  760SOL    HW1 3179   5.964   6.889   3.669
  760SOL    HW2 3180   5.818   6.887   3.741
  761SOL     OW 3181   5.378   4.206   6.700
  761SOL    HW1 3182   5.448   4.274   6.680
  761SOL    HW2 3183   5.406   4.152   6.780
  762SOL     OW 3184   3.113   0.218   5.497
  762SOL    HW1 3185   3.072   0.202   5.408
  762SOL    HW2 3186   3.208   0.185   5.497
  763SOL     OW 3187   4.099   6.102   5.922
  763SOL    HW1 3188   4.105   6.067   5.828
  763SOL    HW2 3189   4.004   6.123   5.944
  764SOL     OW 3190   5.411   0.947   5.654
  764SOL    HW1 3191   5.501   0.968   5.693
  764SOL    HW2 3192   5.413   0.960   5.555
  765SOL     OW 3193   1.590   5.722   1.023
  765SOL    HW1 3194   1.643   5.657   0.969
  765SOL    HW2 3195   1.652   5.782   1.073
  766SOL     OW 3196   2.526   1.936   5.223
  766SOL    HW1 3197   2.465   2.013   5.246
  766SOL    HW2 3198   2.484   1.882   5.149
  767SOL     OW 3199   6.607   6.246   3.948
  767SOL    HW1 3200   6.626   6.154   3.912
  767SOL    HW2 3201   6.638   6.315   3.883
  768SOL     OW 3202   1.815   5.034   3.536
  768SOL    HW1 3203   1.726   5.078   3.536
  768SOL    HW2 3204   1.806   4.939   3.507
  769SOL     OW 3205   2.779   0.864   5.700
  769SOL    HW1 3206   2.788   0.955   5.739
  769SOL    HW2 3207   2.867   0.834   5.663
  770SOL     OW 3208   1.423   5.361   4.015
  770SOL    HW1 3209   1.515   5.329   4.038
  770SOL    HW2 3210   1.361   5.283   4.010
  771SOL     OW 3211   1.186   4.835   2.723
  771SOL    HW1 3212   1.138   4.900   2.781
  771SOL    HW2 3213   1.270   4.877   2.689
  772SOL     OW 3214   6.211   4.412   0.139
  772SOL    HW1 3215   6.303   4.419   0.176
  772SOL    HW2 3216   6.154   4.359   0.202
  773SOL     OW 3217   0.528   4.212   3.216
  773SOL    HW1 3218   0.431   4.218   3.190
  773SOL    HW2 3219   0.582   4.265   3.151
  774SOL     OW 3220   1.594   1.472   1.947
  774SOL    HW1 3221   1.575   1.531   2.025
  774SOL    HW2 3222   1.644   1.391   1.977
  775SOL     OW 3223   2.163   1.585   4.133
  775SOL    HW1 3224   2.098   1.573   4.058
  775SOL    HW2 3225   2.200   1.496   4.160
  776SOL     OW 3226   0.043   0.647   6.237
  776SOL    HW1 3227   6.983   0.608   6.287
  776SOL    HW2 3228   0.079   0.580   6.173
  777SOL     OW 3229   1.811   4.358   1.550
  777SOL    HW1 3230   1.802   4.261   1.572
  777SOL    HW2 3231   1.889   4.396   1.598
  778SOL     OW 3232   2.644   0.148   1.618
  778SOL    HW1 3233   2.594   0.150   1.705
  778SOL    HW2 3234   2.611   0.072   1.562
  779SOL     OW 3235   6.932   2.392   1.957
  779SOL    HW1 3236   6.990   2.367   1.880
  779SOL    HW2 3237   6.987   2.436   2.028
  780SOL     OW 3238   0.674   2.366   4.530
  780SOL    HW1 3239   0.749   2.377   4.595
  780SOL    HW2 3240   0.656   2.454   4.485
  781SOL     OW 3241   5.468   6.052   1.161
  781SOL    HW1 3242   5.390   5.991   1.176
  781SOL    HW2 3243   5.439   6.147   1.174
  782SOL     OW 3244   1.471   3.329   5.804
  782SOL    HW1 3245   1.537   3.397   5.774
  782SOL    HW2 3246   1.491   3.303   5.899
  783SOL     OW 3247   4.927   4.709   1.961
  783SOL    HW1 3248   4.923   4.663   1.872
  783SOL    HW2 3249   4.966   4.647   2.029
  784SOL     OW 3250   4.074   5.053   1.904
  784SOL    HW1 3251   4.131   5.027   1.981
  784SOL    HW2 3252   3.977   5.048   1.931
  785SOL     OW 3253   0.687   1.474   3.344
  785SOL    HW1 3254   0.764   1.520   3.299
  785SOL    HW2 3255   0.722   1.416   3.417
  786SOL     OW 3256   6.819   0.415   2.622
  786SOL    HW1 3257   6.910   0.452   2.603
  786SOL    HW2 3258   6.750   0.483   2.600
  787SOL     OW 3259   1.382   0.651   0.094
  787SOL    HW1 3260   1.337   0.644   0.183
  787SOL    HW2 3261   1.430   0.566   0.074
  788SOL     OW 3262   4.751   2.190   1.376
  788SOL    HW1 3263   4.704   2.119   1.323
  788SOL    HW2 3264   4.841   2.207   1.336
  789SOL     OW 3265   4.420   5.061   2.017
  789SOL    HW1 3266   4.337   5.067   2.071
  789SOL    HW2 3267   4.462   4.971   2.030
  790SOL     OW 3268   2.544   1.668   2.846
  790SOL    HW1 3269   2.571   1.576   2.875
  790SOL    HW2 3270   2.464   1.697   2.899
  791SOL     OW 3271   2.660   6.107   5.176
  791SOL    HW1 3272   2.648   6.023   5.229
  791SOL    HW2 3273   2.675   6.084   5.080
  792SOL     OW 3274   0.952   0.702   2.134
  792SOL    HW1 3275   0.858   0.702   2.098
  792SOL    HW2 3276   0.982   0.796   2.147
  793SOL     OW 3277   4.959   5.588   4.873
  793SOL    HW1 3278   4.999   5.678   4.852
  793SOL    HW2 3279   4.938   5.583   4.970
  794SOL     OW 3280   2.727   4.106   5.740
  794SOL    HW1 3281   2.782   4.157   5.674
  794SOL    HW2 3282   2.687   4.169   5.806
  795SOL     OW 3283   4.180   0.498   5.421
  795SOL    HW1 3284   4.199   0.513   5.519
  795SOL    HW2 3285   4.087   0.465   5.410
  796SOL     OW 3286   0.932   2.863   6.817
  796SOL    HW1 3287   0.922   2.775   6.864
  796SOL    HW2 3288   0.994   2.852   6.739
  797SOL     OW 3289   4.863   0.486   0.845
  797SOL    HW1 3290   4.947   0.494   0.898
  797SOL    HW2 3291   4.813   0.573   0.849
  798SOL     OW 3292   3.593   6.988   2.429
  798SOL    HW1 3293   3.660   6.954   2.363
  798SOL    HW2 3294   3.504   6.945   2.412
  799SOL     OW 3295   0.273   0.674   6.399
  799SOL    HW1 3296   0.315   0.764   6.410
  799SOL    HW2 3297   0.208   0.677   6.323
  800SOL     OW 3298   6.633   0.790   2.732
  800SOL    HW1 3299   6.629   0.842   2.817
  800SOL    HW2 3300   6.565   0.825   2.667
  801SOL     OW 3301   2.346   4.447   5.171
  801SOL    HW1 3302   2.396   4.362   5.185
  801SOL    HW2 3303   2.408   4.519   5.141
  802SOL     OW 3304   3.221   2.515   6.698
  802SOL    HW1 3305   3.296   2.581   6.693
  802SOL    HW2 3306   3.231   2.447   6.626
  803SOL     OW 3307   1.434   0.447   5.746
  803SOL    HW1 3308   1.396   0.531   5.708
  803SOL    HW2 3309   1.411   0.442   5.844
  804SOL     OW 3310   6.769   6.468   1.450
  804SOL    HW1 3311   6.851   6.521   1.426
  804SOL    HW2 3312   6.742   6.412   1.371
  805SOL     OW 3313   2.354   1.029   4.218
  805SOL    HW1 3314   2.402   1.047   4.304
  805SOL    HW2 3315   2.257   1.012   4.237
  806SOL     OW 3316   5.709   0.532   5.723
  806SOL    HW1 3317   5.613   0.558   5.721
  806SOL    HW2 3318   5.743   0.521   5.629
  807SOL     OW 3319   0.547   0.042   4.471
  807SOL    HW1 3320   0.573   6.976   4.521
  807SOL    HW2 3321   0.451   0.036   4.446
  808SOL     OW 3322   4.505   3.142   7.009
  808SOL    HW1 3323   4.436   3.191   0.045
  808SOL    HW2 3324   4.537   3.199   6.934
  809SOL     OW 3325   0.939   4.695   0.806
  809SOL    HW1 3326   0.887   4.709   0.890
  809SOL    HW2 3327   0.976   4.602   0.804
  810SOL     OW 3328   3.575   4.476   0.035
  810SOL    HW1 3329   3.506   4.463   0.105
  810SOL    HW2 3330   3.534   4.519   6.972
  811SOL     OW 3331   5.455   5.273   4.200
  811SOL    HW1 3332   5.524   5.329   4.154
  811SOL    HW2 3333   5.476   5.267   4.297
  812SOL     OW 3334   0.013   1.559   2.263
  812SOL    HW1 3335   0.006   1.576   2.361
  812SOL    HW2 3336   7.004   1.641   2.212
  813SOL     OW 3337   3.156   0.436   4.388
  813SOL    HW1 3338   3.189   0.388   4.306
  813SOL    HW2 3339   3.138   0.369   4.460
  814SOL     OW 3340   6.605   5.311   2.487
  814SOL    HW1 3341   6.678   5.264   2.536
  814SOL    HW2 3342   6.631   5.323   2.392
  815SOL     OW 3343   5.922   2.947   3.652
  815SOL    HW1 3344   5.860   2.887   3.703
  815SOL    HW2 3345   5.878   2.974   3.566
  816SOL     OW 3346   5.609   5.220   0.472
  816SOL    HW1 3347   5.584   5.270   0.554
  816SOL    HW2 3348   5.609   5.282   0.394
  817SOL     OW 3349   1.143   5.407   1.400
  817SOL    HW1 3350   1.154   5.411   1.301
  817SOL    HW2 3351   1.053   5.371   1.423
  818SOL     OW 3352   6.170   3.460   3.778
  818SOL    HW1 3353   6.110   3.428   3.705
  818SOL    HW2 3354   6.232   3.387   3.805
  819SOL     OW 3355   6.340   2.928   1.336
  819SOL    HW1 3356   6.281   2.933   1.416
  819SOL    HW2 3357   6.325   2.841   1.288
  820SOL     OW 3358   3.264   2.130   4.773
  820SOL    HW1 3359   3.254   2.193   4.851
  820SOL    HW2 3360   3.190   2.145   4.708
  821SOL     OW 3361   6.454   4.550   6.132
  821SOL    HW1 3362   6.523   4.483   6.104
  821SOL    HW2 3363   6.388   4.506   6.193
  822SOL     OW 3364   0.048   3.581   3.282
  822SOL    HW1 3365   0.014   3.613   3.370
  822SOL    HW2 3366   0.107   3.501   3.295
  823SOL     OW 3367   6.319   4.377   6.287
  823SOL    HW1 3368   6.251   4.314   6.250
  823SOL    HW2 3369   6.289   4.409   6.377
  824SOL     OW 3370   4.548   1.200   6.235
  824SOL    HW1 3371   4.487   1.236   6.164
  824SOL    HW2 3372   4.494   1.160   6.308
  825SOL     OW 3373   6.058   5.534   1.050
  825SOL    HW1 3374   6.077   5.578   1.138
  825SOL    HW2 3375   5.992   5.589   0.999
  826SOL     OW 3376   3.826   2.698   5.588
  826SOL    HW1 3377   3.857   2.721   5.495
  826SOL    HW2 3378   3.895   2.729   5.654
  827SOL     OW 3379   2.619   4.469   5.323
  827SOL    HW1 3380   2.573   4.381   5.325
  827SOL    HW2 3381   2.584   4.523   5.245
  828SOL     OW 3382   5.709   6.477   6.383
  828SOL    HW1 3383   5.727   6.575   6.387
  828SOL    HW2 3384   5.751   6.432   6.463
  829SOL     OW 3385   3.845   3.417   1.869
  829SOL    HW1 3386   3.792   3.342   1.908
  829SOL    HW2 3387   3.836   3.415   1.769
  830SOL     OW 3388   5.792   4.640   6.622
  830SOL    HW1 3389   5.861   4.712   6.616
  830SOL    HW2 3390   5.767   4.627   6.718
  831SOL     OW 3391   5.747   6.991   1.290
  831SOL    HW1 3392   5.830   6.997   1.234
  831SOL    HW2 3393   5.683   6.927   1.248
  832SOL     OW 3394   4.132   2.295   4.285
  832SOL    HW1 3395   4.104   2.254   4.199
  832SOL    HW2 3396   4.053   2.305   4.346
  833SOL     OW 3397   2.094   3.509   6.320
  833SOL    HW1 3398   2.058   3.602   6.325
  833SOL    HW2 3399   2.018   3.444   6.327
  834SOL     OW 3400   5.361   3.461   1.014
  834SOL    HW1 3401   5.304   3.515   0.952
  834SOL    HW2 3402   5.352   3.364   0.991
  835SOL     OW 3403   2.568   7.008   5.049
  835SOL    HW1 3404   2.521   0.062   5.101
  835SOL    HW2 3405   2.506   6.971   4.979
  836SOL     OW 3406   3.823   0.552   5.157
  836SOL    HW1 3407   3.923   0.547   5.155
  836SOL    HW2 3408   3.790   0.519   5.246
  837SOL     OW 3409   0.059   0.672   1.044
  837SOL    HW1 3410   6.991   0.637   1.082
  837SOL    HW2 3411   0.043   0.761   1.003
  838SOL     OW 3412   2.603   6.723   4.598
  838SOL    HW1 3413   2.560   6.680   4.677
  838SOL    HW2 3414   2.703   6.714   4.605
  839SOL     OW 3415   2.097   1.376   1.990
  839SOL    HW1 3416   2.135   1.316   2.060
  839SOL    HW2 3417   2.062   1.320   1.915
  840SOL     OW 3418   6.293   6.088   0.209
  840SOL    HW1 3419   6.248   6.093   0.298
  840SOL    HW2 3420   6.243   6.024   0.150
  841SOL     OW 3421   3.454   5.669   5.769
  841SOL    HW1 3422   3.540   5.721   5.767
  841SOL    HW2 3423   3.387   5.714   5.709
  842SOL     OW 3424   3.822   0.219   5.760
  842SOL    HW1 3425   3.749   0.270   5.806
  842SOL    HW2 3426   3.884   0.181   5.828
  843SOL     OW 3427   0.900   1.840   1.442
  843SOL    HW1 3428   0.810   1.799   1.423
  843SOL    HW2 3429   0.917   1.915   1.378
  844SOL     OW 3430   0.013   6.829   1.055
  844SOL    HW1 3431   0.067   6.909   1.082
  844SOL    HW2 3432   6.942   6.831   1.102
  845SOL     OW 3433   5.266   4.002   3.353
  845SOL    HW1 3434   5.192   4.060   3.387
  845SOL    HW2 3435   5.318   3.966   3.430
  846SOL     OW 3436   2.243   0.543   5.930
  846SOL    HW1 3437   2.317   0.610   5.924
  846SOL    HW2 3438   2.199   0.533   5.840
  847SOL     OW 3439   1.099   3.319   1.637
  847SOL    HW1 3440   1.003   3.337   1.616
  847SOL    HW2 3441   1.149   3.303   1.552
  848SOL     OW 3442   6.541   6.868   5.613
  848SOL    HW1 3443   6.454   6.889   5.657
  848SOL    HW2 3444   6.556   6.769   5.616
  849SOL     OW 3445   6.134   4.199   6.215
  849SOL    HW1 3446   6.118   4.188   6.117
  849SOL    HW2 3447   6.056   4.163   6.266
  850SOL     OW 3448   6.154   6.976   4.746
  850SOL    HW1 3449   6.212   0.034   4.714
  850SOL    HW2 3450   6.209   6.912   4.800
  851SOL     OW 3451   0.294   2.845   0.377
  851SOL    HW1 3452   0.266   2.940   0.390
  851SOL    HW2 3453   0.228   2.784   0.421
  852SOL     OW 3454   1.115   4.225   0.271
  852SOL    HW1 3455   1.054   4.183   0.338
  852SOL    HW2 3456   1.097   4.185   0.181
  853SOL     OW 3457   0.701   4.630   6.982
  853SOL    HW1 3458   0.637   4.702   7.010
  853SOL    HW2 3459   0.793   4.655   7.010
  854SOL     OW 3460   4.751   5.868   0.477
  854SOL    HW1 3461   4.717   5.956   0.444
  854SOL    HW2 3462   4.705   5.845   0.563
  855SOL     OW 3463   6.451   0.142   0.794
  855SOL    HW1 3464   6.471   0.222   0.852
  855SOL    HW2 3465   6.458   0.169   0.698
  856SOL     OW 3466   1.398   1.178   6.799
  856SOL    HW1 3467   1.479   1.133   6.762
  856SOL    HW2 3468   1.362   1.124   6.875
  857SOL     OW 3469   6.194   5.131   2.233
  857SOL    HW1 3470   6.202   5.121   2.134
  857SOL    HW2 3471   6.254   5.065   2.278
  858SOL     OW 3472   3.234   4.773   1.486
  858SOL    HW1 3473   3.230   4.755   1.585
  858SOL    HW2 3474   3.224   4.688   1.436
  859SOL     OW 3475   5.801   6.175   5.183
  859SOL    HW1 3476   5.801   6.100   5.117
  859SOL    HW2 3477   5.880   6.234   5.166
  860SOL     OW 3478   6.736   2.431   6.702
  860SOL    HW1 3479   6.677   2.386   6.770
  860SOL    HW2 3480   6.824   2.383   6.698
  861SOL     OW 3481   2.131   4.772   3.688
  861SOL    HW1 3482   2.200   4.751   3.757
  861SOL    HW2 3483   2.141   4.866   3.658
  862SOL     OW 3484   1.971   4.043   2.831
  862SOL    HW1 3485   1.923   4.109   2.772
  862SOL    HW2 3486   1.972   3.954   2.786
  863SOL     OW 3487   6.255   0.799   5.971
  863SOL    HW1 3488   6.268   0.701   5.983
  863SOL    HW2 3489   6.167   0.816   5.926
  864SOL     OW 3490   4.043   5.867   4.308
  864SOL    HW1 3491   4.100   5.872   4.227
  864SOL    HW2 3492   4.100   5.856   4.389
  865SOL     OW 3493   1.684   6.828   5.725
  865SOL    HW1 3494   1.590   6.861   5.738
  865SOL    HW2 3495   1.698   6.747   5.782
  866SOL     OW 3496   2.738   0.917   0.877
  866SOL    HW1 3497   2.703   1.007   0.851
  866SOL    HW2 3498   2.804   0.927   0.951
  867SOL     OW 3499   5.176   3.570   0.837
  867SOL    HW1 3500   5.184   3.637   0.763
  867SOL    HW2 3501   5.099   3.594   0.896
  868SOL     OW 3502   6.701   1.038   1.424
  868SOL    HW1 3503   6.620   1.086   1.391
  868SOL    HW2 3504   6.763   1.103   1.468
  869SOL     OW 3505   0.124   4.275   2.781
  869SOL    HW1 3506   0.059   4.212   2.823
  869SOL    HW2 3507   0.202   4.222   2.745
  870SOL     OW 3508   3.999   3.721   0.651
  870SOL    HW1 3509   4.014   3.672   0.737
  870SOL    HW2 3510   3.916   3.777   0.659
  871SOL     OW 3511   5.258   2.103   3.405
  871SOL    HW1 3512   5.281   2.046   3.326
  871SOL    HW2 3513   5.302   2.192   3.396
  872SOL     OW 3514   5.760   2.745   3.814
  872SOL    HW1 3515   5.729   2.735   3.719
  872SOL    HW2 3516   5.830   2.676   3.833
  873SOL     OW 3517   5.127   5.347   5.216
  873SOL    HW1 3518   5.116   5.297   5.130
  873SOL    HW2 3519   5.169   5.287   5.284
  874SOL     OW 3520   6.479   3.518   6.518
  874SOL    HW1 3521   6.546   3.452   6.482
  874SOL    HW2 3522   6.523   3.607   6.530
  875SOL     OW 3523   4.854   5.034   1.360
  875SOL    HW1 3524   4.850   5.093   1.440
  875SOL    HW2 3525   4.933   5.059   1.304
  876SOL     OW 3526   0.266   5.096   2.045
  876SOL    HW1 3527   0.358   5.121   2.015
  876SOL    HW2 3528   0.254   5.119   2.141
  877SOL     OW 3529   3.478   4.525   6.045
  877SOL    HW1 3530   3.535   4.549   6.124
  877SOL    HW2 3531   3.532   4.534   5.962
  878SOL     OW 3532   4.696   6.644   4.373
  878SOL    HW1 3533   4.709   6.560   4.320
  878SOL    HW2 3534   4.751   6.640   4.456
  879SOL     OW 3535   4.347   0.943   1.480
  879SOL    HW1 3536   4.272   0.907   1.425
  879SOL    HW2 3537   4.339   0.909   1.574
  880SOL     OW 3538   2.998   3.842   3.920
  880SOL    HW1 3539   2.923   3.878   3.864
  880SOL    HW2 3540   3.075   3.905   3.920
  881SOL     OW 3541   4.934   3.905   5.773
  881SOL    HW1 3542   4.921   3.843   5.850
  881SOL    HW2 3543   4.962   3.853   5.692
  882SOL     OW 3544   1.046   2.176   3.677
  882SOL    HW1 3545   0.955   2.162   3.717
  882SOL    HW2 3546   1.116   2.159   3.746
  883SOL     OW 3547   3.144   0.706   0.535
  883SOL    HW1 3548   3.165   0.804   0.525
  883SOL    HW2 3549   3.089   0.692   0.618
  884SOL     OW 3550   6.909   4.059   6.146
  884SOL    HW1 3551   6.924   4.049   6.048
  884SOL    HW2 3552   6.996   4.070   6.193
  885SOL     OW 3553   4.047   0.683   4.848
  885SOL    HW1 3554   4.108   0.761   4.830
  885SOL    HW2 3555   3.974   0.681   4.780
  886SOL     OW 3556   3.356   0.092   0.687
  886SOL    HW1 3557   3.343   0.137   0.598
  886SOL    HW2 3558   3.278   0.033   0.706
  887SOL     OW 3559   3.637   6.506   3.607
  887SOL    HW1 3560   3.669   6.556   3.687
  887SOL    HW2 3561   3.683   6.541   3.525
  888SOL     OW 3562   0.491   6.006   3.409
  888SOL    HW1 3563   0.561   6.078   3.409
  888SOL    HW2 3564   0.442   6.008   3.496
  889SOL     OW 3565   0.007   1.750   6.575
  889SOL    HW1 3566   0.041   1.751   6.481
  889SOL    HW2 3567   6.931   1.715   6.577
  890SOL     OW 3568   1.999   4.778   3.270
  890SOL    HW1 3569   1.913   4.800   3.316
  890SOL    HW2 3570   2.019   4.681   3.282
  891SOL     OW 3571   6.945   3.973   0.925
  891SOL    HW1 3572   6.977   3.957   1.019
  891SOL    HW2 3573   6.862   4.028   0.928
  892SOL     OW 3574   3.038   3.966   4.485
  892SOL    HW1 3575   3.049   3.918   4.398
  892SOL    HW2 3576   2.990   3.907   4.550
  893SOL     OW 3577   2.249   6.504   3.839
  893SOL    HW1 3578   2.220   6.474   3.748
  893SOL    HW2 3579   2.347   6.519   3.839
  894SOL     OW 3580   1.106   3.141   2.616
  894SOL    HW1 3581   1.123   3.098   2.527
  894SOL    HW2 3582   1.094   3.071   2.686
  895SOL     OW 3583   0.982   5.196   4.124
  895SOL    HW1 3584   0.884   5.199   4.102
  895SOL    HW2 3585   1.010   5.284   4.162
  896SOL     OW 3586   5.240   4.845   1.599
  896SOL    HW1 3587   5.303   4.848   1.521
  896SOL    HW2 3588   5.248   4.757   1.645
  897SOL     OW 3589   3.503   1.014   6.724
  897SOL    HW1 3590   3.580   1.060   6.767
  897SOL    HW2 3591   3.506   0.917   6.744
  898SOL     OW 3592   4.074   6.419   2.845
  898SOL    HW1 3593   3.991   6.451   2.891
  898SOL    HW2 3594   4.127   6.498   2.814
  899SOL     OW 3595   0.288   6.314   0.216
  899SOL    HW1 3596   0.242   6.371   0.149
  899SOL    HW2 3597   0.283   6.357   0.307
  900SOL     OW 3598   5.309   6.810   6.919
  900SOL    HW1 3599   5.365   6.739   6.877
  900SOL    HW2 3600   5.215   6.803   6.886
  901SOL     OW 3601   1.466   0.948   3.881
  901SOL    HW1 3602   1.516   0.899   3.810
  901SOL    HW2 3603   1.418   0.883   3.940
  902SOL     OW 3604   1.198   2.726   1.254
  902SOL    HW1 3605   1.243   2.669   1.185
  902SOL    HW2 3606   1.105   2.692   1.268
  903SOL     OW 3607   0.917   3.188   6.880
  903SOL    HW1 3608   0.869   3.137   6.809
  903SOL    HW2 3609   0.889   3.284   6.878
  904SOL     OW 3610   1.679   1.996   2.498
  904SOL    HW1 3611   1.709   1.928   2.431
  904SOL    HW2 3612   1.756   2.018   2.559
  905SOL     OW 3613   5.311   3.588   6.284
  905SOL    HW1 3614   5.365   3.672   6.279
  905SOL    HW2 3615   5.288   3.569   6.380
  906SOL     OW 3616   0.421   2.149   6.295
  906SOL    HW1 3617   0.371   2.129   6.380
  906SOL    HW2 3618   0.456   2.243   6.298
  907SOL     OW 3619   5.178   2.940   0.426
  907SOL    HW1 3620   5.089   2.985   0.419
  907SOL    HW2 3621   5.165   2.841   0.429
  908SOL     OW 3622   2.386   4.514   3.279
  908SOL    HW1 3623   2.396   4.427   3.231
  908SOL    HW2 3624   2.444   4.514   3.361
  909SOL     OW 3625   3.867   6.926   1.848
  909SOL    HW1 3626   3.796   6.913   1.779
  909SOL    HW2 3627   3.956   6.904   1.809
  910SOL     OW 3628   3.372   1.908   1.241
  910SOL    HW1 3629   3.286   1.859   1.255
  910SOL    HW2 3630   3.384   1.977   1.313
  911SOL     OW 3631   1.212   6.406   6.523
  911SOL    HW1 3632   1.274   6.330   6.541
  911SOL    HW2 3633   1.257   6.492   6.548
  912SOL     OW 3634   6.211   1.046   3.150
  912SOL    HW1 3635   6.292   1.092   3.187
  912SOL    HW2 3636   6.235   0.951   3.126
  913SOL     OW 3637   3.065   0.734   3.899
  913SOL    HW1 3638   3.046   0.666   3.829
  913SOL    HW2 3639   3.003   0.721   3.977
  914SOL     OW 3640   2.035   6.941   5.756
  914SOL    HW1 3641   2.110   6.987   5.803
  914SOL    HW2 3642   1.964   6.918   5.822
  915SOL     OW 3643   6.798   3.266   0.042
  915SOL    HW1 3644   6.780   3.285   6.963
  915SOL    HW2 3645   6.876   3.203   0.050
  916SOL     OW 3646   1.778   3.126   2.710
  916SOL    HW1 3647   1.726   3.115   2.795
  916SOL    HW2 3648   1.874   3.104   2.727
  917SOL     OW 3649   0.765   6.955   1.885
  917SOL    HW1 3650   0.777   0.006   1.812
  917SOL    HW2 3651   0.723   7.000   1.965
  918SOL     OW 3652   3.893   0.555   0.622
  918SOL    HW1 3653   3.958   0.597   0.559
  918SOL    HW2 3654   3.888   0.456   0.605
  919SOL     OW 3655   6.693   6.766   2.586
  919SOL    HW1 3656   6.715   6.861   2.564
  919SOL    HW2 3657   6.699   6.710   2.503
  920SOL     OW 3658   2.374   4.345   2.414
  920SOL    HW1 3659   2.405   4.411   2.345
  920SOL    HW2 3660   2.429   4.357   2.497
  921SOL     OW 3661   3.853   5.457   4.316
  921SOL    HW1 3662   3.853   5.556   4.331
  921SOL    HW2 3663   3.936   5.417   4.354
  922SOL     OW 3664   2.928   3.601   4.000
  922SOL    HW1 3665   2.919   3.596   4.100
  922SOL    HW2 3666   2.939   3.696   3.972
  923SOL     OW 3667   2.401   3.646   6.441
  923SOL    HW1 3668   2.370   3.700   6.363
  923SOL    HW2 3669   2.412   3.551   6.414
  924SOL     OW 3670   6.343   3.611   2.079
  924SOL    HW1 3671   6.328   3.515   2.104
  924SOL    HW2 3672   6.307   3.670   2.151
  925SOL     OW 3673   0.244   2.331   6.580
  925SOL    HW1 3674   0.279   2.372   6.496
  925SOL    HW2 3675   0.300   2.360   6.658
  926SOL     OW 3676   6.466   0.761   1.233
  926SOL    HW1 3677   6.407   0.798   1.160
  926SOL    HW2 3678   6.514   0.836   1.278
  927SOL     OW 3679   5.439   4.234   3.321
  927SOL    HW1 3680   5.523   4.215   3.270
  927SOL    HW2 3681   5.381   4.152   3.321
  928SOL     OW 3682   1.841   5.861   0.415
  928SOL    HW1 3683   1.837   5.786   0.481
  928SOL    HW2 3684   1.890   5.938   0.455
  929SOL     OW 3685   0.291   1.098   6.922
  929SOL    HW1 3686   0.192   1.090   6.908
  929SOL    HW2 3687   0.326   1.012   6.959
  930SOL     OW 3688   5.273   6.545   5.976
  930SOL    HW1 3689   5.343   6.552   6.047
  930SOL    HW2 3690   5.294   6.607   5.901
  931SOL     OW 3691   6.592   1.198   4.768
  931SOL    HW1 3692   6.519   1.223   4.832
  931SOL    HW2 3693   6.676   1.179   4.819
  932SOL     OW 3694   3.228   0.876   3.486
  932SOL    HW1 3695   3.287   0.942   3.532
  932SOL    HW2 3696   3.237   0.787   3.531
  933SOL     OW 3697   1.709   5.980   3.437
  933SOL    HW1 3698   1.654   5.954   3.517
  933SOL    HW2 3699   1.791   5.924   3.434
  934SOL     OW 3700   2.348   6.319   6.823
  934SOL    HW1 3701   2.257   6.336   6.785
  934SOL    HW2 3702   2.417   6.348   6.757
  935SOL     OW 3703   4.729   4.105   4.350
  935SOL    HW1 3704   4.640   4.115   4.395
  935SOL    HW2 3705   4.800   4.147   4.407
  936SOL     OW 3706   6.876   0.711   5.961
  936SOL    HW1 3707   6.933   0.629   5.965
  936SOL    HW2 3708   6.934   0.792   5.970
  937SOL     OW 3709   5.443   1.862   5.934
  937SOL    HW1 3710   5.396   1.868   6.022
  937SOL    HW2 3711   5.376   1.865   5.860
  938SOL     OW 3712   5.919   4.412   6.649
  938SOL    HW1 3713   5.879   4.326   6.618
  938SOL    HW2 3714   5.854   4.487   6.632
  939SOL     OW 3715   0.361   6.777   4.229
  939SOL    HW1 3716   0.351   6.695   4.284
  939SOL    HW2 3717   0.307   6.851   4.269
  940SOL     OW 3718   0.285   4.070   1.373
  940SOL    HW1 3719   0.331   3.984   1.348
  940SOL    HW2 3720   0.353   4.135   1.406
  941SOL     OW 3721   5.866   2.107   6.505
  941SOL    HW1 3722   5.901   2.178   6.566
  941SOL    HW2 3723   5.800   2.051   6.556
  942SOL     OW 3724   6.314   6.717   2.893
  942SOL    HW1 3725   6.389   6.738   2.830
  942SOL    HW2 3726   6.287   6.800   2.942
  943SOL     OW 3727   1.448   4.040   3.038
  943SOL    HW1 3728   1.532   4.005   2.996
  943SOL    HW2 3729   1.471   4.115   3.100
  944SOL     OW 3730   0.074   5.220   5.923
  944SOL    HW1 3731   0.017   5.158   5.977
  944SOL    HW2 3732   0.063   5.199   5.826
  945SOL     OW 3733   0.229   4.180   6.008
  945SOL    HW1 3734   0.301   4.250   6.003
  945SOL    HW2 3735   0.270   4.092   6.031
  946SOL     OW 3736   5.086   4.191   5.436
  946SOL    HW1 3737   5.095   4.198   5.535
  946SOL    HW2 3738   5.155   4.248   5.392
  947SOL     OW 3739   3.669   3.386   3.411
  947SOL    HW1 3740   3.698   3.308   3.356
  947SOL    HW2 3741   3.674   3.470   3.355
  948SOL     OW 3742   5.250   0.958   2.716
  948SOL    HW1 3743   5.162   0.912   2.705
  948SOL    HW2 3744   5.317   0.895   2.756
  949SOL     OW 3745   2.270   5.865   0.613
  949SOL    HW1 3746   2.282   5.774   0.573
  949SOL    HW2 3747   2.357   5.915   0.611
  950SOL     OW 3748   5.772   5.818   2.057
  950SOL    HW1 3749   5.813   5.761   2.128
  950SOL    HW2 3750   5.744   5.906   2.097
  951SOL     OW 3751   1.315   0.164   4.129
  951SOL    HW1 3752   1.248   0.211   4.071
  951SOL    HW2 3753   1.404   0.165   4.084
  952SOL     OW 3754   4.443   2.408   3.468
  952SOL    HW1 3755   4.450   2.352   3.385
  952SOL    HW2 3756   4.518   2.474   3.470
  953SOL     OW 3757   5.665   5.589   4.771
  953SOL    HW1 3758   5.598   5.533   4.819
  953SOL    HW2 3759   5.710   5.534   4.700
  954SOL     OW 3760   3.826   6.074   2.154
  954SOL    HW1 3761   3.757   6.142   2.178
  954SOL    HW2 3762   3.783   5.984   2.150
  955SOL     OW 3763   0.619   3.558   1.190
  955SOL    HW1 3764   0.646   3.552   1.093
  955SOL    HW2 3765   0.687   3.610   1.240
  956SOL     OW 3766   6.314   0.406   1.532
  956SOL    HW1 3767   6.277   0.413   1.625
  956SOL    HW2 3768   6.403   0.362   1.535
  957SOL     OW 3769   5.453   2.893   2.651
  957SOL    HW1 3770   5.411   2.971   2.605
  957SOL    HW2 3771   5.384   2.845   2.707
  958SOL     OW 3772   4.654   0.914   1.351
  958SOL    HW1 3773   4.672   1.002   1.394
  958SOL    HW2 3774   4.659   0.924   1.252
  959SOL     OW 3775   3.262   6.350   4.317
  959SOL    HW1 3776   3.232   6.396   4.401
  959SOL    HW2 3777   3.208   6.382   4.240
  960SOL     OW 3778   0.944   0.144   2.144
  960SOL    HW1 3779   1.004   0.097   2.209
  960SOL    HW2 3780   0.854   0.099   2.143
  961SOL     OW 3781   4.187   6.462   3.400
  961SOL    HW1 3782   4.235   6.549   3.396
  961SOL    HW2 3783   4.100   6.473   3.447
  962SOL     OW 3784   6.678   0.819   4.703
  962SOL    HW1 3785   6.713   0.857   4.789
  962SOL    HW2 3786   6.595   0.868   4.676
  963SOL     OW 3787   5.421   1.372   6.527
  963SOL    HW1 3788   5.363   1.297   6.498
  963SOL    HW2 3789   5.426   1.441   6.455
  964SOL     OW 3790   5.077   5.152   6.952
  964SOL    HW1 3791   5.135   5.153   6.871
  964SOL    HW2 3792   5.132   5.130   0.016
  965SOL     OW 3793   5.921   1.889   2.203
  965SOL    HW1 3794   5.878   1.835   2.131
  965SOL    HW2 3795   5.882   1.864   2.291
  966SOL     OW 3796   5.683   2.783   2.942
  966SOL    HW1 3797   5.730   2.831   2.868
  966SOL    HW2 3798   5.590   2.818   2.951
  967SOL     OW 3799   2.874   4.538   1.389
  967SOL    HW1 3800   2.775   4.533   1.395
  967SOL    HW2 3801   2.915   4.456   1.429
  968SOL     OW 3802   4.443   0.845   1.733
  968SOL    HW1 3803   4.428   0.759   1.781
  968SOL    HW2 3804   4.398   0.919   1.782
  969SOL     OW 3805   2.520   4.527   5.573
  969SOL    HW1 3806   2.461   4.447   5.587
  969SOL    HW2 3807   2.562   4.522   5.482
  970SOL     OW 3808   5.278   0.756   6.478
  970SOL    HW1 3809   5.248   0.843   6.516
  970SOL    HW2 3810   5.356   0.770   6.417
  971SOL     OW 3811   0.028   2.735   2.537
  971SOL    HW1 3812   0.106   2.743   2.599
  971SOL    HW2 3813   6.990   2.818   2.541
  972SOL     OW 3814   5.815   1.710   1.974
  972SOL    HW1 3815   5.823   1.720   1.875
  972SOL    HW2 3816   5.719   1.695   1.999
  973SOL     OW 3817   0.902   5.411   6.658
  973SOL    HW1 3818   0.939   5.483   6.597
  973SOL    HW2 3819   0.968   5.336   6.663
  974SOL     OW 3820   6.023   5.789   1.626
  974SOL    HW1 3821   6.110   5.837   1.634
  974SOL    HW2 3822   6.025   5.706   1.682
  975SOL     OW 3823   1.973   0.186   0.360
  975SOL    HW1 3824   1.927   0.232   0.436
  975SOL    HW2 3825   2.066   0.160   0.388
  976SOL     OW 3826   0.167   3.650   1.195
  976SOL    HW1 3827   0.087   3.638   1.255
  976SOL    HW2 3828   0.200   3.744   1.202
  977SOL     OW 3829   0.341   0.564   1.869
  977SOL    HW1 3830   0.420   0.507   1.891
  977SOL    HW2 3831   0.296   0.593   1.953
  978SOL     OW 3832   5.474   2.381   6.810
  978SOL    HW1 3833   5.509   2.337   6.893
  978SOL    HW2 3834   5.388   2.338   6.783
  979SOL     OW 3835   0.427   3.059   6.760
  979SOL    HW1 3836   0.490   3.133   6.785
  979SOL    HW2 3837   0.387   3.078   6.670
  980SOL     OW 3838   5.443   1.868   3.888
  980SOL    HW1 3839   5.431   1.965   3.865
  980SOL    HW2 3840   5.393   1.812   3.822
  981SOL     OW 3841   6.918   1.193   4.836
  981SOL    HW1 3842   7.005   1.146   4.856
  981SOL    HW2 3843   6.932   1.292   4.841
  982SOL     OW 3844   0.709   1.142   4.766
  982SOL    HW1 3845   0.706   1.179   4.674
  982SOL    HW2 3846   0.649   1.195   4.826
  983SOL     OW 3847   6.592   2.777   3.400
  983SOL    HW1 3848   6.576   2.752   3.305
  983SOL    HW2 3849   6.511   2.822   3.437
  984SOL     OW 3850   2.555   2.487   4.056
  984SOL    HW1 3851   2.576   2.462   4.151
  984SOL    HW2 3852   2.514   2.578   4.054
  985SOL     OW 3853   6.638   3.432   4.911
  985SOL    HW1 3854   6.682   3.518   4.885
  985SOL    HW2 3855   6.707   3.361   4.925
  986SOL     OW 3856   4.282   4.560   1.042
  986SOL    HW1 3857   4.268   4.635   1.107
  986SOL    HW2 3858   4.215   4.488   1.062
  987SOL     OW 3859   4.762   6.697   2.672
  987SOL    HW1 3860   4.676   6.747   2.677
  987SOL    HW2 3861   4.808   6.718   2.586
  988SOL     OW 3862   3.587   4.306   0.970
  988SOL    HW1 3863   3.586   4.396   1.013
  988SOL    HW2 3864   3.651   4.246   1.018
  989SOL     OW 3865   6.862   2.240   6.233
  989SOL    HW1 3866   6.819   2.165   6.184
  989SOL    HW2 3867   6.799   2.277   6.301
  990SOL     OW 3868   3.599   1.084   2.080
  990SOL    HW1 3869   3.654   1.000   2.075
  990SOL    HW2 3870   3.611   1.127   2.169
  991SOL     OW 3871   0.630   3.422   3.859
  991SOL    HW1 3872   0.604   3.457   3.949
  991SOL    HW2 3873   0.642   3.323   3.864
  992SOL     OW 3874   0.459   3.151   2.199
  992SOL    HW1 3875   0.539   3.162   2.258
  992SOL    HW2 3876   0.392   3.223   2.219
  993SOL     OW 3877   0.008   4.703   0.897
  993SOL    HW1 3878   0.005   4.766   0.820
  993SOL    HW2 3879   6.956   4.631   0.885
  994SOL     OW 3880   4.195   5.010   2.186
  994SOL    HW1 3881   4.109   5.028   2.234
  994SOL    HW2 3882   4.231   4.921   2.215
  995SOL     OW 3883   4.029   3.575   5.668
  995SOL    HW1 3884   4.009   3.673   5.668
  995SOL    HW2 3885   4.118   3.559   5.625
  996SOL     OW 3886   3.620   5.118   4.869
  996SOL    HW1 3887   3.570   5.064   4.936
  996SOL    HW2 3888   3.711   5.078   4.855
  997SOL     OW 3889   1.197   6.985   2.847
  997SOL    HW1 3890   1.168   6.894   2.876
  997SOL    HW2 3891   1.282   7.009   2.892
  998SOL     OW 3892   5.692   0.350   5.979
  998SOL    HW1 3893   5.601   0.361   6.020
  998SOL    HW2 3894   5.728   0.440   5.955
  999SOL     OW 3895   5.288   4.205   2.160
  999SOL    HW1 3896   5.192   4.232   2.154
  999SOL    HW2 3897   5.308   4.136   2.091
 1000SOL     OW 3898   4.034   1.552   1.679
 1000SOL    HW1 3899   4.018   1.634   1.625
 1000SOL    HW2 3900   3.946   1.512   1.705
 1001SOL     OW 3901   4.519   5.999   1.754
 1001SOL    HW1 3902   4.445   6.064   1.740
 1001SOL    HW2 3903   4.516   5.965   1.848
 1002SOL     OW 3904   5.672   1.974   0.893
 1002SOL    HW1 3905   5.728   1.892   0.878
 1002SOL    HW2 3906   5.718   2.033   0.959
 1003SOL     OW 3907   1.949   5.448   3.169
 1003SOL    HW1 3908   1.967   5.545   3.154
 1003SOL    HW2 3909   1.924   5.433   3.265
 1004SOL     OW 3910   0.882   1.273   2.270
 1004SOL    HW1 3911   0.922   1.359   2.302
 1004SOL    HW2 3912   0.830   1.290   2.186
 1005SOL     OW 3913   2.019   2.473   4.286
 1005SOL    HW1 3914   1.949   2.427   4.231
 1005SOL    HW2 3915   2.025   2.569   4.259
 1006SOL     OW 3916   1.458   4.193   0.601
 1006SOL    HW1 3917   1.438   4.173   0.506
 1006SOL    HW2 3918   1.462   4.108   0.654
 1007SOL     OW 3919   4.392   0.937   5.601
 1007SOL    HW1 3920   4.394   0.911   5.504
 1007SOL    HW2 3921   4.454   1.014   5.616
 1008SOL     OW 3922   0.592   2.177   5.600
 1008SOL    HW1 3923   0.561   2.269   5.580
 1008SOL    HW2 3924   0.561   2.150   5.692
 1009SOL     OW 3925   0.100   5.489   5.871
 1009SOL    HW1 3926   0.108   5.390   5.879
 1009SOL    HW2 3927   0.191   5.530   5.866
 1010SOL     OW 3928   2.551   2.266   1.072
 1010SOL    HW1 3929   2.578   2.362   1.082
 1010SOL    HW2 3930   2.632   2.208   1.079
 1011SOL     OW 3931   1.284   5.312   3.398
 1011SOL    HW1 3932   1.351   5.268   3.338
 1011SOL    HW2 3933   1.295   5.411   3.393
 1012SOL     OW 3934   0.376   6.727   1.915
 1012SOL    HW1 3935   0.388   6.668   1.835
 1012SOL    HW2 3936   0.286   6.772   1.910
 1013SOL     OW 3937   0.447   0.939   6.296
 1013SOL    HW1 3938   0.397   0.940   6.209
 1013SOL    HW2 3939   0.466   1.033   6.324
 1014SOL     OW 3940   0.457   3.948   5.309
 1014SOL    HW1 3941   0.428   4.031   5.356
 1014SOL    HW2 3942   0.380   3.910   5.257
 1015SOL     OW 3943   2.171   6.960   6.162
 1015SOL    HW1 3944   2.081   6.917   6.149
 1015SOL    HW2 3945   2.214   6.974   6.073
 1016SOL     OW 3946   4.068   3.940   0.402
 1016SOL    HW1 3947   4.035   4.021   0.354
 1016SOL    HW2 3948   4.016   3.860   0.372
 1017SOL     OW 3949   4.193   1.968   1.447
 1017SOL    HW1 3950   4.115   1.932   1.498
 1017SOL    HW2 3951   4.167   2.054   1.402
 1018SOL     OW 3952   1.022   4.082   4.198
 1018SOL    HW1 3953   0.940   4.078   4.255
 1018SOL    HW2 3954   1.097   4.121   4.252
 1019SOL     OW 3955   0.090   6.006   1.092
 1019SOL    HW1 3956   0.075   5.908   1.109
 1019SOL    HW2 3957   0.046   6.030   1.005
 1020SOL     OW 3958   6.387   1.232   1.635
 1020SOL    HW1 3959   6.309   1.169   1.637
 1020SOL    HW2 3960   6.356   1.320   1.598
 1021SOL     OW 3961   5.552   6.756   1.805
 1021SOL    HW1 3962   5.476   6.726   1.863
 1021SOL    HW2 3963   5.571   6.685   1.736
 1022SOL     OW 3964   2.752   4.762   5.230
 1022SOL    HW1 3965   2.833   4.724   5.186
 1022SOL    HW2 3966   2.682   4.691   5.237
 1023SOL     OW 3967   0.416   1.084   2.673
 1023SOL    HW1 3968   0.331   1.064   2.722
 1023SOL    HW2 3969   0.492   1.037   2.718
 1024SOL     OW 3970   6.970   2.019   4.123
 1024SOL    HW1 3971   6.932   2.061   4.205
 1024SOL    HW2 3972   0.052   2.029   4.123
 1025SOL     OW 3973   3.624   3.131   0.853
 1025SOL    HW1 3974   3.671   3.058   0.904
 1025SOL    HW2 3975   3.627   3.216   0.906
 1026SOL     OW 3976   2.499   3.342   1.429
 1026SOL    HW1 3977   2.422   3.370   1.486
 1026SOL    HW2 3978   2.548   3.267   1.473
 1027SOL     OW 3979   2.898   0.058   2.153
 1027SOL    HW1 3980   2.878   6.984   2.192
 1027SOL    HW2 3981   2.825   0.121   2.180
 1028SOL     OW 3982   1.677   6.764   2.691
 1028SOL    HW1 3983   1.651   6.736   2.599
 1028SOL    HW2 3984   1.631   6.849   2.714
 1029SOL     OW 3985   1.343   1.442   6.163
 1029SOL    HW1 3986   1.309   1.371   6.224
 1029SOL    HW2 3987   1.398   1.507   6.215
 1030SOL     OW 3988   3.587   3.125   1.714
 1030SOL    HW1 3989   3.635   3.157   1.796
 1030SOL    HW2 3990   3.513   3.189   1.692
 1031SOL     OW 3991   4.829   3.481   1.842
 1031SOL    HW1 3992   4.792   3.564   1.800
 1031SOL    HW2 3993   4.826   3.406   1.776
 1032SOL     OW 3994   0.770   1.096   5.125
 1032SOL    HW1 3995   0.735   1.165   5.062
 1032SOL    HW2 3996   0.838   1.137   5.185
 1033SOL     OW 3997   1.877   5.503   1.262
 1033SOL    HW1 3998   1.900   5.562   1.339
 1033SOL    HW2 3999   1.778   5.486   1.260
 1034SOL     OW 4000   1.632   5.373   4.354
 1034SOL    HW1 4001   1.676   5.297   4.401
 1034SOL    HW2 4002   1.648   5.365   4.256
 1035SOL     OW 4003   6.937   1.864   6.176
 1035SOL    HW1 4004   6.874   1.941   6.168
 1035SOL    HW2 4005   7.012   1.876   6.111
 1036SOL     OW 4006   4.024   1.002   1.863
 1036SOL    HW1 4007   3.990   0.910   1.883
 1036SOL    HW2 4008   4.121   0.998   1.841
 1037SOL     OW 4009   1.613   1.527   2.598
 1037SOL    HW1 4010   1.576   1.614   2.565
 1037SOL    HW2 4011   1.658   1.479   2.522
 1038SOL     OW 4012   1.825   1.342   5.413
 1038SOL    HW1 4013   1.847   1.259   5.362
 1038SOL    HW2 4014   1.905   1.403   5.413
 1039SOL     OW 4015   4.033   3.839   3.987
 1039SOL    HW1 4016   3.980   3.916   4.022
 1039SOL    HW2 4017   4.039   3.845   3.888
 1040SOL     OW 4018   4.963   1.035   2.108
 1040SOL    HW1 4019   4.896   1.031   2.034
 1040SOL    HW2 4020   4.952   1.120   2.159
 1041SOL     OW 4021   0.266   6.352   3.151
 1041SOL    HW1 4022   0.269   6.253   3.161
 1041SOL    HW2 4023   0.268   6.376   3.053
 1042SOL     OW 4024   4.140   5.202   2.810
 1042SOL    HW1 4025   4.121   5.176   2.715
 1042SOL    HW2 4026   4.095   5.289   2.831
 1043SOL     OW 4027   3.583   2.137   3.169
 1043SOL    HW1 4028   3.508   2.197   3.139
 1043SOL    HW2 4029   3.558   2.042   3.154
 1044SOL     OW 4030   5.942   5.492   2.432
 1044SOL    HW1 4031   5.892   5.406   2.441
 1044SOL    HW2 4032   6.024   5.477   2.377
 1045SOL     OW 4033   4.151   0.787   2.634
 1045SOL    HW1 4034   4.136   0.882   2.610
 1045SOL    HW2 4035   4.064   0.737   2.630
 1046SOL     OW 4036   1.532   1.232   0.222
 1046SOL    HW1 4037   1.472   1.189   0.290
 1046SOL    HW2 4038   1.501   1.326   0.204
 1047SOL     OW 4039   2.390   7.013   4.142
 1047SOL    HW1 4040   2.443   6.964   4.072
 1047SOL    HW2 4041   2.423   6.986   4.233
 1048SOL     OW 4042   3.496   6.482   2.386
 1048SOL    HW1 4043   3.420   6.507   2.446
 1048SOL    HW2 4044   3.462   6.428   2.309
 1049SOL     OW 4045   6.120   6.601   4.183
 1049SOL    HW1 4046   6.156   6.518   4.143
 1049SOL    HW2 4047   6.031   6.622   4.142
 1050SOL     OW 4048   3.543   5.040   2.727
 1050SOL    HW1 4049   3.630   5.089   2.735
 1050SOL    HW2 4050   3.530   5.011   2.632
 1051SOL     OW 4051   0.454   5.179   0.819
 1051SOL    HW1 4052   0.489   5.095   0.861
 1051SOL    HW2 4053   0.513   5.205   0.743
 1052SOL     OW 4054   4.550   1.157   5.677
 1052SOL    HW1 4055   4.585   1.246   5.706
 1052SOL    HW2 4056   4.497   1.116   5.751
 1053SOL     OW 4057   6.072   3.912   2.446
 1053SOL    HW1 4058   6.023   3.887   2.529
 1053SOL    HW2 4059   6.013   3.971   2.390
 1054SOL     OW 4060   2.671   3.682   0.780
 1054SOL    HW1 4061   2.725   3.749   0.730
 1054SOL    HW2 4062   2.686   3.694   0.878
 1055SOL     OW 4063   4.225   6.540   5.376
 1055SOL    HW1 4064   4.200   6.632   5.349
 1055SOL    HW2 4065   4.264   6.542   5.468
 1056SOL     OW 4066   1.594   3.306   0.046
 1056SOL    HW1 4067   1.659   3.270   6.996
 1056SOL    HW2 4068   1.643   3.329   0.130
 1057SOL     OW 4069   3.607   3.328   1.052
 1057SOL    HW1 4070   3.697   3.318   1.095
 1057SOL    HW2 4071   3.568   3.417   1.076
 1058SOL     OW 4072   5.120   2.224   3.946
 1058SOL    HW1 4073   5.109   2.161   3.870
 1058SOL    HW2 4074   5.129   2.317   3.911
 1059SOL     OW 4075   1.941   0.804   2.376
 1059SOL    HW1 4076   1.948   0.724   2.435
 1059SOL    HW2 4077   1.910   0.776   2.285
 1060SOL     OW 4078   0.415   4.646   3.818
 1060SOL    HW1 4079   0.502   4.667   3.774
 1060SOL    HW2 4080   0.431   4.615   3.912
 1061SOL     OW 4081   6.492   3.264   6.320
 1061SOL    HW1 4082   6.520   3.342   6.263
 1061SOL    HW2 4083   6.569   3.202   6.332
 1062SOL     OW 4084   5.137   5.224   5.682
 1062SOL    HW1 4085   5.040   5.240   5.665
 1062SOL    HW2 4086   5.147   5.162   5.760
 1063SOL     OW 4087   0.915   5.810   0.167
 1063SOL    HW1 4088   0.892   5.713   0.168
 1063SOL    HW2 4089   1.011   5.822   0.193
 1064SOL     OW 4090   1.239   4.555   2.789
 1064SOL    HW1 4091   1.156   4.501   2.793
 1064SOL    HW2 4092   1.218   4.646   2.752
 1065SOL     OW 4093   4.521   0.921   2.531
 1065SOL    HW1 4094   4.464   0.908   2.450
 1065SOL    HW2 4095   4.471   0.973   2.600
 1066SOL     OW 4096   4.498   6.765   2.943
 1066SOL    HW1 4097   4.502   6.797   2.848
 1066SOL    HW2 4098   4.591   6.744   2.975
 1067SOL     OW 4099   1.239   2.634   0.007
 1067SOL    HW1 4100   1.286   2.666   0.090
 1067SOL    HW2 4101   1.288   2.666   6.943
 1068SOL     OW 4102   0.018   4.494   1.461
 1068SOL    HW1 4103   0.052   4.588   1.458
 1068SOL    HW2 4104   0.095   4.431   1.466
 1069SOL     OW 4105   5.258   5.979   0.869
 1069SOL    HW1 4106   5.206   5.944   0.791
 1069SOL    HW2 4107   5.194   6.009   0.940
 1070SOL     OW 4108   1.334   0.229   1.377
 1070SOL    HW1 4109   1.385   0.243   1.462
 1070SOL    HW2 4110   1.262   0.299   1.370
 1071SOL     OW 4111   2.281   1.526   3.587
 1071SOL    HW1 4112   2.374   1.548   3.617
 1071SOL    HW2 4113   2.233   1.477   3.661
 1072SOL     OW 4114   2.460   0.995   1.087
 1072SOL    HW1 4115   2.515   1.012   1.169
 1072SOL    HW2 4116   2.442   1.081   1.040
 1073SOL     OW 4117   4.980   0.647   3.802
 1073SOL    HW1 4118   5.060   0.598   3.767
 1073SOL    HW2 4119   4.985   0.743   3.773
 1074SOL     OW 4120   2.405   5.284   1.908
 1074SOL    HW1 4121   2.479   5.249   1.851
 1074SOL    HW2 4122   2.432   5.371   1.949
 1075SOL     OW 4123   6.100   0.085   2.922
 1075SOL    HW1 4124   6.165   0.095   2.847
 1075SOL    HW2 4125   6.134   0.018   2.988
 1076SOL     OW 4126   0.943   2.328   5.534
 1076SOL    HW1 4127   0.989   2.298   5.617
 1076SOL    HW2 4128   0.908   2.421   5.547
 1077SOL     OW 4129   5.974   6.844   0.642
 1077SOL    HW1 4130   5.948   6.854   0.738
 1077SOL    HW2 4131   6.011   6.930   0.608
 1078SOL     OW 4132   0.059   0.878   2.509
 1078SOL    HW1 4133   0.033   0.972   2.486
 1078SOL    HW2 4134   0.005   0.846   2.586
 1079SOL     OW 4135   1.312   5.846   2.030
 1079SOL    HW1 4136   1.375   5.857   2.107
 1079SOL    HW2 4137   1.262   5.932   2.015
 1080SOL     OW 4138   2.034   5.483   3.630
 1080SOL    HW1 4139   1.973   5.480   3.710
 1080SOL    HW2 4140   1.980   5.502   3.548
 1081SOL     OW 4141   6.643   5.609   5.693
 1081SOL    HW1 4142   6.666   5.517   5.726
 1081SOL    HW2 4143   6.548   5.611   5.662
 1082SOL     OW 4144   5.508   2.378   5.710
 1082SOL    HW1 4145   5.531   2.283   5.689
 1082SOL    HW2 4146   5.542   2.437   5.637
 1083SOL     OW 4147   4.546   4.003   0.350
 1083SOL    HW1 4148   4.528   4.061   0.271
 1083SOL    HW2 4149   4.484   3.925   0.349
 1084SOL     OW 4150   6.518   6.568   6.556
 1084SOL    HW1 4151   6.440   6.588   6.616
 1084SOL    HW2 4152   6.538   6.470   6.558
 1085SOL     OW 4153   1.690   3.928   4.404
 1085SOL    HW1 4154   1.771   3.872   4.388
 1085SOL    HW2 4155   1.654   3.910   4.496
 1086SOL     OW 4156   6.797   4.214   0.133
 1086SOL    HW1 4157   6.823   4.207   0.229
 1086SOL    HW2 4158   6.719   4.154   0.115
 1087SOL     OW 4159   0.014   2.226   5.159
 1087SOL    HW1 4160   6.954   2.206   5.099
 1087SOL    HW2 4161   0.021   2.156   5.230
 1088SOL     OW 4162   6.772   3.644   2.547
 1088SOL    HW1 4163   6.779   3.659   2.448
 1088SOL    HW2 4164   6.689   3.592   2.567
 1089SOL     OW 4165   6.359   5.880   4.692
 1089SOL    HW1 4166   6.309   5.956   4.735
 1089SOL    HW2 4167   6.438   5.857   4.749
 1090SOL     OW 4168   3.548   1.855   3.100
 1090SOL    HW1 4169   3.502   1.850   3.188
 1090SOL    HW2 4170   3.481   1.868   3.027
 1091SOL     OW 4171   2.332   2.409   4.318
 1091SOL    HW1 4172   2.293   2.407   4.226
 1091SOL    HW2 4173   2.285   2.342   4.375
 1092SOL     OW 4174   1.055   4.888   0.363
 1092SOL    HW1 4175   1.007   4.838   0.435
 1092SOL    HW2 4176   1.080   4.979   0.397
 1093SOL     OW 4177   2.904   6.679   1.369
 1093SOL    HW1 4178   2.927   6.582   1.364
 1093SOL    HW2 4179   2.825   6.697   1.311
 1094SOL     OW 4180   1.102   6.405   3.279
 1094SOL    HW1 4181   1.183   6.462   3.267
 1094SOL    HW2 4182   1.036   6.426   3.207
 1095SOL     OW 4183   0.576   2.855   5.828
 1095SOL    HW1 4184   0.539   2.766   5.853
 1095SOL    HW2 4185   0.547   2.924   5.895
 1096SOL     OW 4186   3.530   4.486   1.180
 1096SOL    HW1 4187   3.614   4.537   1.196
 1096SOL    HW2 4188   3.507   4.433   1.262
 1097SOL     OW 4189   2.459   5.024   3.892
 1097SOL    HW1 4190   2.398   5.051   3.966
 1097SOL    HW2 4191   2.536   5.086   3.888
 1098SOL     OW 4192   5.018   3.499   6.686
 1098SOL    HW1 4193   4.932   3.520   6.640
 1098SOL    HW2 4194   5.036   3.400   6.680
 1099SOL     OW 4195   3.763   1.235   6.312
 1099SOL    HW1 4196   3.802   1.302   6.375
 1099SOL    HW2 4197   3.664   1.232   6.325
 1100SOL     OW 4198   4.613   1.691   4.617
 1100SOL    HW1 4199   4.549   1.766   4.599
 1100SOL    HW2 4200   4.571   1.627   4.681
 1101SOL     OW 4201   5.733   3.776   5.599
 1101SOL    HW1 4202   5.646   3.824   5.604
 1101SOL    HW2 4203   5.735   3.719   5.516
 1102SOL     OW 4204   1.182   0.916   5.101
 1102SOL    HW1 4205   1.181   0.836   5.041
 1102SOL    HW2 4206   1.126   0.988   5.060
 1103SOL     OW 4207   3.736   1.068   0.149
 1103SOL    HW1 4208   3.828   1.098   0.173
 1103SOL    HW2 4209   3.724   0.972   0.175
 1104SOL     OW 4210   1.878   3.015   4.269
 1104SOL    HW1 4211   1.806   3.026   4.337
 1104SOL    HW2 4212   1.941   3.093   4.274
 1105SOL     OW 4213   5.662   3.201   5.025
 1105SOL    HW1 4214   5.671   3.300   5.016
 1105SOL    HW2 4215   5.566   3.175   5.014
 1106SOL     OW 4216   0.732   2.418   0.638
 1106SOL    HW1 4217   0.718   2.500   0.582
 1106SOL    HW2 4218   0.657   2.354   0.621
 1107SOL     OW 4219   1.282   0.590   0.349
 1107SOL    HW1 4220   1.364   0.572   0.403
 1107SOL    HW2 4221   1.235   0.503   0.331
 1108SOL     OW 4222   3.501   6.844   5.601
 1108SOL    HW1 4223   3.448   6.790   5.666
 1108SOL    HW2 4224   3.557   6.784   5.544
 1109SOL     OW 4225   5.674   1.034   4.311
 1109SOL    HW1 4226   5.713   0.962   4.369
 1109SOL    HW2 4227   5.605   1.085   4.362
 1110SOL     OW 4228   4.216   2.084   2.933
 1110SOL    HW1 4229   4.237   2.175   2.899
 1110SOL    HW2 4230   4.229   2.080   3.032
 1111SOL     OW 4231   5.645   5.744   6.923
 1111SOL    HW1 4232   5.643   5.834   6.967
 1111SOL    HW2 4233   5.552   5.713   6.906
 1112SOL     OW 4234   6.044   1.277   2.269
 1112SOL    HW1 4235   6.079   1.322   2.351
 1112SOL    HW2 4236   5.998   1.345   2.211
 1113SOL     OW 4237   5.423   4.750   1.416
 1113SOL    HW1 4238   5.378   4.663   1.399
 1113SOL    HW2 4239   5.478   4.744   1.499
 1114SOL     OW 4240   2.819   1.053   6.268
 1114SOL    HW1 4241   2.827   1.105   6.354
 1114SOL    HW2 4242   2.889   1.084   6.204
 1115SOL     OW 4243   3.677   3.457   5.598
 1115SOL    HW1 4244   3.683   3.556   5.588
 1115SOL    HW2 4245   3.714   3.430   5.686
 1116SOL     OW 4246   4.960   6.400   6.652
 1116SOL    HW1 4247   5.042   6.433   6.700
 1116SOL    HW2 4248   4.975   6.306   6.621
 1117SOL     OW 4249   0.813   2.338   2.051
 1117SOL    HW1 4250   0.912   2.352   2.044
 1117SOL    HW2 4251   0.792   2.294   2.139
 1118SOL     OW 4252   2.009   5.179   0.392
 1118SOL    HW1 4253   1.990   5.252   0.457
 1118SOL    HW2 4254   1.956   5.193   0.309
 1119SOL     OW 4255   4.104   4.457   1.672
 1119SOL    HW1 4256   4.085   4.523   1.600
 1119SOL    HW2 4257   4.171   4.494   1.735
 1120SOL     OW 4258   6.099   5.811   0.696
 1120SOL    HW1 4259   6.179   5.814   0.755
 1120SOL    HW2 4260   6.048   5.897   0.705
 1121SOL     OW 4261   6.878   4.179   4.595
 1121SOL    HW1 4262   6.795   4.209   4.547
 1121SOL    HW2 4263   6.935   4.258   4.616
 1122SOL     OW 4264   5.482   2.982   1.843
 1122SOL    HW1 4265   5.432   2.948   1.764
 1122SOL    HW2 4266   5.422   3.042   1.897
 1123SOL     OW 4267   5.440   2.387   3.120
 1123SOL    HW1 4268   5.372   2.437   3.066
 1123SOL    HW2 4269   5.505   2.343   3.058
 1124SOL     OW 4270   0.200   3.840   5.229
 1124SOL    HW1 4271   0.143   3.783   5.170
 1124SOL    HW2 4272   0.162   3.841   5.322
 1125SOL     OW 4273   2.016   1.804   3.736
 1125SOL    HW1 4274   2.002   1.795   3.637
 1125SOL    HW2 4275   1.963   1.883   3.770
 1126SOL     OW 4276   5.789   5.843   6.006
 1126SOL    HW1 4277   5.767   5.866   6.101
 1126SOL    HW2 4278   5.883   5.811   6.000
 1127SOL     OW 4279   5.282   6.367   4.505
 1127SOL    HW1 4280   5.370   6.321   4.492
 1127SOL    HW2 4281   5.242   6.339   4.592
 1128SOL     OW 4282   5.689   1.458   4.023
 1128SOL    HW1 4283   5.648   1.407   3.948
 1128SOL    HW2 4284   5.640   1.544   4.037
 1129SOL     OW 4285   1.767   6.779   0.899
 1129SOL    HW1 4286   1.672   6.747   0.901
 1129SOL    HW2 4287   1.773   6.862   0.844
 1130SOL     OW 4288   2.100   5.046   0.841
 1130SOL    HW1 4289   2.179   4.985   0.831
 1130SOL    HW2 4290   2.084   5.064   0.938
 1131SOL     OW 4291   1.018   6.971   5.699
 1131SOL    HW1 4292   1.081   6.920   5.757
 1131SOL    HW2 4293   0.998   0.043   5.740
 1132SOL     OW 4294   4.572   0.047   2.899
 1132SOL    HW1 4295   4.535   0.102   2.824
 1132SOL    HW2 4296   4.646   7.007   2.864
 1133SOL     OW 4297   1.162   1.135   0.170
 1133SOL    HW1 4298   1.245   1.101   0.125
 1133SOL    HW2 4299   1.187   1.184   0.254
 1134SOL     OW 4300   4.849   0.160   2.624
 1134SOL    HW1 4301   4.817   0.075   2.667
 1134SOL    HW2 4302   4.913   0.206   2.686
 1135SOL     OW 4303   1.948   6.509   4.336
 1135SOL    HW1 4304   1.893   6.428   4.358
 1135SOL    HW2 4305   2.039   6.499   4.377
 1136SOL     OW 4306   4.454   4.558   3.190
 1136SOL    HW1 4307   4.433   4.535   3.285
 1136SOL    HW2 4308   4.482   4.476   3.141
 1137SOL     OW 4309   1.268   0.103   0.266
 1137SOL    HW1 4310   1.268   0.089   0.365
 1137SOL    HW2 4311   1.186   0.062   0.226
 1138SOL     OW 4312   6.895   1.269   5.922
 1138SOL    HW1 4313   6.989   1.259   5.890
 1138SOL    HW2 4314   6.862   1.181   5.956
 1139SOL     OW 4315   2.395   5.041   3.273
 1139SOL    HW1 4316   2.490   5.057   3.299
 1139SOL    HW2 4317   2.387   4.951   3.231
 1140SOL     OW 4318   2.874   1.138   2.336
 1140SOL    HW1 4319   2.918   1.126   2.247
 1140SOL    HW2 4320   2.808   1.213   2.331
 1141SOL     OW 4321   0.510   6.155   0.254
 1141SOL    HW1 4322   0.429   6.203   0.220
 1141SOL    HW2 4323   0.580   6.222   0.278
 1142SOL     OW 4324   3.094   0.256   3.989
 1142SOL    HW1 4325   3.171   0.286   3.933
 1142SOL    HW2 4326   3.042   0.187   3.939
 1143SOL     OW 4327   2.394   2.595   2.908
 1143SOL    HW1 4328   2.476   2.565   2.957
 1143SOL    HW2 4329   2.368   2.686   2.939
 1144SOL     OW 4330   6.356   4.384   3.542
 1144SOL    HW1 4331   6.369   4.288   3.566
 1144SOL    HW2 4332   6.381   4.397   3.445
 1145SOL     OW 4333   6.930   3.057   0.729
 1145SOL    HW1 4334   6.868   2.982   0.705
 1145SOL    HW2 4335   0.006   3.022   0.738
 1146SOL     OW 4336   0.286   1.269   1.893
 1146SOL    HW1 4337   0.247   1.358   1.917
 1146SOL    HW2 4338   0.290   1.260   1.794
 1147SOL     OW 4339   3.069   5.449   1.709
 1147SOL    HW1 4340   3.156   5.400   1.707
 1147SOL    HW2 4341   3.076   5.524   1.775
 1148SOL     OW 4342   4.760   6.636   0.494
 1148SOL    HW1 4343   4.787   6.547   0.456
 1148SOL    HW2 4344   4.835   6.673   0.549
 1149SOL     OW 4345   5.516   2.636   2.522
 1149SOL    HW1 4346   5.488   2.719   2.570
 1149SOL    HW2 4347   5.567   2.661   2.440
 1150SOL     OW 4348   0.924   4.491   6.638
 1150SOL    HW1 4349   0.828   4.491   6.668
 1150SOL    HW2 4350   0.982   4.528   6.710
 1151SOL     OW 4351   5.691   4.583   5.492
 1151SOL    HW1 4352   5.670   4.501   5.439
 1151SOL    HW2 4353   5.608   4.638   5.502
 1152SOL     OW 4354   4.769   5.772   6.372
 1152SOL    HW1 4355   4.836   5.846   6.374
 1152SOL    HW2 4356   4.715   5.778   6.288
 1153SOL     OW 4357   0.106   6.787   1.867
 1153SOL    HW1 4358   0.048   6.707   1.857
 1153SOL    HW2 4359   0.099   6.822   1.961
 1154SOL     OW 4360   0.394   4.850   0.768
 1154SOL    HW1 4361   0.355   4.928   0.721
 1154SOL    HW2 4362   0.464   4.881   0.833
 1155SOL     OW 4363   2.894   4.732   5.682
 1155SOL    HW1 4364   2.929   4.784   5.604
 1155SOL    HW2 4365   2.958   4.658   5.704
 1156SOL     OW 4366   4.168   1.744   5.215
 1156SOL    HW1 4367   4.210   1.685   5.284
 1156SOL    HW2 4368   4.240   1.790   5.162
 1157SOL     OW 4369   5.154   1.099   5.938
 1157SOL    HW1 4370   5.211   1.169   5.981
 1157SOL    HW2 4371   5.206   1.014   5.930
 1158SOL     OW 4372   6.776   5.155   5.015
 1158SOL    HW1 4373   6.692   5.106   5.038
 1158SOL    HW2 4374   6.842   5.091   4.977
 1159SOL     OW 4375   6.286   0.082   3.777
 1159SOL    HW1 4376   6.274   0.004   3.716
 1159SOL    HW2 4377   6.297   0.050   3.871
 1160SOL     OW 4378   4.648   5.085   1.154
 1160SOL    HW1 4379   4.628   5.173   1.196
 1160SOL    HW2 4380   4.703   5.030   1.217
 1161SOL     OW 4381   6.944   5.719   6.162
 1161SOL    HW1 4382   6.911   5.633   6.123
 1161SOL    HW2 4383   6.880   5.792   6.139
 1162SOL     OW 4384   2.129   2.111   6.509
 1162SOL    HW1 4385   2.081   2.060   6.438
 1162SOL    HW2 4386   2.217   2.068   6.527
 1163SOL     OW 4387   6.382   4.217   2.194
 1163SOL    HW1 4388   6.316   4.189   2.125
 1163SOL    HW2 4389   6.414   4.310   2.174
 1164SOL     OW 4390   4.885   2.490   3.950
 1164SOL    HW1 4391   4.825   2.555   3.995
 1164SOL    HW2 4392   4.831   2.413   3.915
 1165SOL     OW 4393   4.524   5.570   3.798
 1165SOL    HW1 4394   4.589   5.634   3.839
 1165SOL    HW2 4395   4.501   5.600   3.705
 1166SOL     OW 4396   2.803   6.576   0.167
 1166SOL    HW1 4397   2.837   6.483   0.159
 1166SOL    HW2 4398   2.711   6.582   0.127
 1167SOL     OW 4399   4.321   6.690   0.513
 1167SOL    HW1 4400   4.274   6.602   0.505
 1167SOL    HW2 4401   4.386   6.686   0.589
 1168SOL     OW 4402   5.734   2.943   1.409
 1168SOL    HW1 4403   5.670   2.868   1.393
 1168SOL    HW2 4404   5.786   2.961   1.326
 1169SOL     OW 4405   4.607   1.728   5.730
 1169SOL    HW1 4406   4.614   1.684   5.641
 1169SOL    HW2 4407   4.511   1.738   5.755
 1170SOL     OW 4408   5.055   6.747   2.833
 1170SOL    HW1 4409   5.094   6.822   2.886
 1170SOL    HW2 4410   5.021   6.677   2.896
 1171SOL     OW 4411   3.071   6.235   6.910
 1171SOL    HW1 4412   3.153   6.286   6.936
 1171SOL    HW2 4413   3.068   6.148   6.959
 1172SOL     OW 4414   3.945   3.993   0.761
 1172SOL    HW1 4415   4.033   3.974   0.719
 1172SOL    HW2 4416   3.923   4.090   0.751
 1173SOL     OW 4417   3.500   1.345   0.804
 1173SOL    HW1 4418   3.589   1.363   0.846
 1173SOL    HW2 4419   3.503   1.259   0.755
 1174SOL     OW 4420   2.856   3.962   1.416
 1174SOL    HW1 4421   2.815   4.052   1.400
 1174SOL    HW2 4422   2.883   3.954   1.512
 1175SOL     OW 4423   4.328   3.914   6.297
 1175SOL    HW1 4424   4.422   3.900   6.267
 1175SOL    HW2 4425   4.327   3.923   6.397
 1176SOL     OW 4426   5.195   3.590   0.312
 1176SOL    HW1 4427   5.226   3.578   0.406
 1176SOL    HW2 4428   5.104   3.633   0.312
 1177SOL     OW 4429   6.439   3.778   4.746
 1177SOL    HW1 4430   6.455   3.683   4.722
 1177SOL    HW2 4431   6.342   3.791   4.769
 1178SOL     OW 4432   3.160   4.018   0.521
 1178SOL    HW1 4433   3.067   3.992   0.496
 1178SOL    HW2 4434   3.160   4.057   0.613
 1179SOL     OW 4435   2.767   5.700   0.943
 1179SOL    HW1 4436   2.674   5.726   0.970
 1179SOL    HW2 4437   2.779   5.715   0.845
 1180SOL     OW 4438   2.417   6.221   3.996
 1180SOL    HW1 4439   2.462   6.309   3.981
 1180SOL    HW2 4440   2.341   6.232   4.060
 1181SOL     OW 4441   0.109   5.449   5.100
 1181SOL    HW1 4442   0.207   5.429   5.112
 1181SOL    HW2 4443   0.095   5.497   5.014
 1182SOL     OW 4444   5.396   5.163   3.648
 1182SOL    HW1 4445   5.303   5.175   3.682
 1182SOL    HW2 4446   5.431   5.073   3.676
 1183SOL     OW 4447   2.332   4.877   0.473
 1183SOL    HW1 4448   2.431   4.876   0.487
 1183SOL    HW2 4449   2.304   4.964   0.432
 1184SOL     OW 4450   0.058   1.246   5.209
 1184SOL    HW1 4451   0.056   1.178   5.135
 1184SOL    HW2 4452   0.040   1.337   5.171
 1185SOL     OW 4453   0.640   0.976   1.045
 1185SOL    HW1 4454   0.693   0.951   0.964
 1185SOL    HW2 4455   0.686   0.943   1.127
 1186SOL     OW 4456   4.948   5.874   5.426
 1186SOL    HW1 4457   4.929   5.939   5.499
 1186SOL    HW2 4458   4.906   5.905   5.341
 1187SOL     OW 4459   4.836   0.213   5.786
 1187SOL    HW1 4460   4.743   0.239   5.762
 1187SOL    HW2 4461   4.873   0.278   5.852
 1188SOL     OW 4462   3.233   6.196   6.021
 1188SOL    HW1 4463   3.311   6.199   5.959
 1188SOL    HW2 4464   3.148   6.203   5.968
 1189SOL     OW 4465   6.274   1.785   1.377
 1189SOL    HW1 4466   6.264   1.844   1.297
 1189SOL    HW2 4467   6.370   1.783   1.405
 1190SOL     OW 4468   3.488   5.816   3.880
 1190SOL    HW1 4469   3.526   5.908   3.883
 1190SOL    HW2 4470   3.560   5.751   3.856
 1191SOL     OW 4471   4.401   5.635   4.674
 1191SOL    HW1 4472   4.467   5.577   4.721
 1191SOL    HW2 4473   4.323   5.581   4.646
 1192SOL     OW 4474   5.259   4.832   2.475
 1192SOL    HW1 4475   5.176   4.811   2.527
 1192SOL    HW2 4476   5.335   4.845   2.539
 1193SOL     OW 4477   6.707   1.853   4.913
 1193SOL    HW1 4478   6.688   1.757   4.933
 1193SOL    HW2 4479   6.800   1.875   4.939
 1194SOL     OW 4480   5.596   6.996   1.630
 1194SOL    HW1 4481   5.690   6.963   1.635
 1194SOL    HW2 4482   5.534   6.928   1.669
 1195SOL     OW 4483   0.640   4.096   0.811
 1195SOL    HW1 4484   0.622   4.190   0.842
 1195SOL    HW2 4485   0.559   4.060   0.765
 1196SOL     OW 4486   6.792   5.017   3.341
 1196SOL    HW1 4487   6.730   4.965   3.283
 1196SOL    HW2 4488   6.773   5.114   3.332
 1197SOL     OW 4489   4.542   7.015   5.101
 1197SOL    HW1 4490   4.536   0.074   5.165
 1197SOL    HW2 4491   4.577   6.934   5.148
 1198SOL     OW 4492   1.436   3.145   3.144
 1198SOL    HW1 4493   1.460   3.235   3.182
 1198SOL    HW2 4494   1.519   3.090   3.133
 1199SOL     OW 4495   3.600   3.988   1.046
 1199SOL    HW1 4496   3.648   3.918   1.098
 1199SOL    HW2 4497   3.598   3.961   0.949
 1200SOL     OW 4498   3.517   4.131   3.885
 1200SOL    HW1 4499   3.456   4.093   3.955
 1200SOL    HW2 4500   3.602   4.161   3.928
 1201SOL     OW 4501   0.945   1.441   4.637
 1201SOL    HW1 4502   0.966   1.343   4.642
 1201SOL    HW2 4503   0.900   1.470   4.721
 1202SOL     OW 4504   0.354   5.536   5.783
 1202SOL    HW1 4505   0.379   5.632   5.771
 1202SOL    HW2 4506   0.323   5.499   5.695
 1203SOL     OW 4507   0.077   6.038   0.260
 1203SOL    HW1 4508   0.039   6.130   0.262
 1203SOL    HW2 4509   0.143   6.030   0.185
 1204SOL     OW 4510   4.550   1.360   1.391
 1204SOL    HW1 4511   4.544   1.284   1.456
 1204SOL    HW2 4512   4.610   1.333   1.315
 1205SOL     OW 4513   4.074   2.917   0.717
 1205SOL    HW1 4514   4.005   2.849   0.741
 1205SOL    HW2 4515   4.095   2.973   0.798
 1206SOL     OW 4516   2.626   2.815   5.309
 1206SOL    HW1 4517   2.714   2.855   5.282
 1206SOL    HW2 4518   2.551   2.868   5.270
 1207SOL     OW 4519   2.378   6.406   1.014
 1207SOL    HW1 4520   2.375   6.324   0.957
 1207SOL    HW2 4521   2.285   6.432   1.040
 1208SOL     OW 4522   3.544   3.578   1.238
 1208SOL    HW1 4523   3.590   3.665   1.221
 1208SOL    HW2 4524   3.445   3.593   1.242
 1209SOL     OW 4525   4.094   0.690   4.249
 1209SOL    HW1 4526   4.157   0.647   4.185
 1209SOL    HW2 4527   4.097   0.642   4.337
 1210SOL     OW 4528   3.396   0.134   3.232
 1210SOL    HW1 4529   3.483   0.113   3.187
 1210SOL    HW2 4530   3.354   0.049   3.262
 1211SOL     OW 4531   0.320   3.646   2.774
 1211SOL    HW1 4532   0.286   3.597   2.854
 1211SOL    HW2 4533   0.252   3.713   2.744
 1212SOL     OW 4534   6.051   0.539   0.272
 1212SOL    HW1 4535   6.054   0.629   0.229
 1212SOL    HW2 4536   5.964   0.526   0.319
 1213SOL     OW 4537   6.069   2.342   0.778
 1213SOL    HW1 4538   6.059   2.297   0.689
 1213SOL    HW2 4539   6.074   2.441   0.765
 1214SOL     OW 4540   1.347   3.002   6.741
 1214SOL    HW1 4541   1.371   3.065   6.667
 1214SOL    HW2 4542   1.279   3.045   6.801
 1215SOL     OW 4543   1.158   4.731   3.192
 1215SOL    HW1 4544   1.195   4.657   3.137
 1215SOL    HW2 4545   1.082   4.774   3.143
 1216SOL     OW 4546   5.097   0.404   1.136
 1216SOL    HW1 4547   5.095   0.342   1.058
 1216SOL    HW2 4548   5.064   0.495   1.108
 1217SOL     OW 4549   2.060   4.768   1.078
 1217SOL    HW1 4550   2.108   4.846   1.038
 1217SOL    HW2 4551   1.996   4.801   1.148
 1218SOL     OW 4552   1.364   3.595   4.863
 1218SOL    HW1 4553   1.458   3.626   4.866
 1218SOL    HW2 4554   1.311   3.654   4.802
 1219SOL     OW 4555   5.156   5.991   1.952
 1219SOL    HW1 4556   5.155   6.090   1.945
 1219SOL    HW2 4557   5.247   5.960   1.978
 1220SOL     OW 4558   0.691   4.596   3.315
 1220SOL    HW1 4559   0.721   4.673   3.260
 1220SOL    HW2 4560   0.606   4.619   3.363
 1221SOL     OW 4561   5.047   4.203   6.260
 1221SOL    HW1 4562   5.138   4.223   6.295
 1221SOL    HW2 4563   5.035   4.104   6.254
 1222SOL     OW 4564   6.855   0.410   0.031
 1222SOL    HW1 4565   6.832   0.440   0.124
 1222SOL    HW2 4566   6.860   0.489   6.988
 1223SOL     OW 4567   4.109   1.880   0.149
 1223SOL    HW1 4568   4.127   1.782   0.153
 1223SOL    HW2 4569   4.073   1.911   0.237
 1224SOL     OW 4570   3.620   5.722   0.936
 1224SOL    HW1 4571   3.625   5.640   0.994
 1224SOL    HW2 4572   3.524   5.743   0.916
 1225SOL     OW 4573   2.993   3.201   6.176
 1225SOL    HW1 4574   3.092   3.216   6.173
 1225SOL    HW2 4575   2.948   3.267   6.115
 1226SOL     OW 4576   3.050   6.015   1.928
 1226SOL    HW1 4577   2.994   6.043   1.850
 1226SOL    HW2 4578   3.133   5.970   1.895
 1227SOL     OW 4579   6.818   4.634   6.207
 1227SOL    HW1 4580   6.858   4.658   6.119
 1227SOL    HW2 4581   6.789   4.539   6.206
 1228SOL     OW 4582   3.324   1.675   6.488
 1228SOL    HW1 4583   3.328   1.748   6.421
 1228SOL    HW2 4584   3.228   1.651   6.507
 1229SOL     OW 4585   3.907   5.100   5.468
 1229SOL    HW1 4586   3.813   5.068   5.453
 1229SOL    HW2 4587   3.944   5.056   5.549
 1230SOL     OW 4588   4.514   6.808   2.664
 1230SOL    HW1 4589   4.462   6.734   2.620
 1230SOL    HW2 4590   4.511   6.889   2.606
 1231SOL     OW 4591   1.862   2.871   4.564
 1231SOL    HW1 4592   1.819   2.953   4.603
 1231SOL    HW2 4593   1.798   2.827   4.501
 1232SOL     OW 4594   0.490   1.632   5.092
 1232SOL    HW1 4595   0.482   1.660   4.996
 1232SOL    HW2 4596   0.402   1.598   5.125
 1233SOL     OW 4597   0.759   4.380   5.066
 1233SOL    HW1 4598   0.701   4.378   4.985
 1233SOL    HW2 4599   0.710   4.424   5.142
 1234SOL     OW 4600   6.576   3.823   5.171
 1234SOL    HW1 4601   6.604   3.727   5.175
 1234SOL    HW2 4602   6.629   3.871   5.101
 1235SOL     OW 4603   0.157   5.803   2.583
 1235SOL    HW1 4604   0.222   5.789   2.658
 1235SOL    HW2 4605   0.180   5.887   2.534
 1236SOL     OW 4606   4.562   1.541   6.834
 1236SOL    HW1 4607   4.552   1.462   6.894
 1236SOL    HW2 4608   4.515   1.620   6.873
 1237SOL     OW 4609   2.154   5.123   5.303
 1237SOL    HW1 4610   2.253   5.110   5.308
 1237SOL    HW2 4611   2.111   5.086   5.385
 1238SOL     OW 4612   2.605   1.332   0.387
 1238SOL    HW1 4613   2.594   1.251   0.444
 1238SOL    HW2 4614   2.661   1.309   0.308
 1239SOL     OW 4615   0.100   6.796   5.851
 1239SOL    HW1 4616   0.032   6.812   5.922
 1239SOL    HW2 4617   0.057   6.749   5.773
 1240SOL     OW 4618   5.343   6.657   1.944
 1240SOL    HW1 4619   5.369   6.561   1.944
 1240SOL    HW2 4620   5.252   6.667   1.984
 1241SOL     OW 4621   5.382   3.824   4.164
 1241SOL    HW1 4622   5.466   3.872   4.192
 1241SOL    HW2 4623   5.370   3.831   4.065
 1242SOL     OW 4624   0.442   3.521   2.030
 1242SOL    HW1 4625   0.424   3.474   1.943
 1242SOL    HW2 4626   0.368   3.501   2.094
 1243SOL     OW 4627   6.990   0.201   4.574
 1243SOL    HW1 4628   0.011   0.110   4.557
 1243SOL    HW2 4629   6.979   0.215   4.672
 1244SOL     OW 4630   6.319   0.013   4.037
 1244SOL    HW1 4631   6.330   6.938   3.999
 1244SOL    HW2 4632   6.408   0.049   4.063
 1245SOL     OW 4633   4.723   5.338   0.406
 1245SOL    HW1 4634   4.687   5.274   0.473
 1245SOL    HW2 4635   4.656   5.350   0.332
 1246SOL     OW 4636   2.360   6.197   1.776
 1246SOL    HW1 4637   2.454   6.227   1.760
 1246SOL    HW2 4638   2.322   6.248   1.853
 1247SOL     OW 4639   1.962   0.304   6.936
 1247SOL    HW1 4640   1.993   0.324   0.012
 1247SOL    HW2 4641   1.869   0.340   6.923
 1248SOL     OW 4642   2.274   0.249   4.998
 1248SOL    HW1 4643   2.358   0.249   4.943
 1248SOL    HW2 4644   2.225   0.335   4.983
 1249SOL     OW 4645   6.019   2.051   2.604
 1249SOL    HW1 4646   6.090   2.122   2.598
 1249SOL    HW2 4647   5.934   2.093   2.635
 1250SOL     OW 4648   6.180   5.073   4.402
 1250SOL    HW1 4649   6.269   5.039   4.372
 1250SOL    HW2 4650   6.171   5.061   4.501
 1251SOL     OW 4651   3.257   0.700   4.393
 1251SOL    HW1 4652   3.227   0.606   4.381
 1251SOL    HW2 4653   3.250   0.750   4.306
 1252SOL     OW 4654   3.757   3.284   4.911
 1252SOL    HW1 4655   3.688   3.212   4.915
 1252SOL    HW2 4656   3.721   3.361   4.859
 1253SOL     OW 4657   3.404   5.571   2.161
 1253SOL    HW1 4658   3.433   5.516   2.239
 1253SOL    HW2 4659   3.394   5.666   2.188
 1254SOL     OW 4660   0.957   2.452   2.682
 1254SOL    HW1 4661   0.875   2.421   2.730
 1254SOL    HW2 4662   0.973   2.549   2.701
 1255SOL     OW 4663   6.494   1.990   5.097
 1255SOL    HW1 4664   6.571   1.997   5.033
 1255SOL    HW2 4665   6.485   2.076   5.147
 1256SOL     OW 4666   6.803   6.552   3.533
 1256SOL    HW1 4667   6.818   6.651   3.529
 1256SOL    HW2 4668   6.884   6.507   3.571
 1257SOL     OW 4669   0.080   6.916   4.555
 1257SOL    HW1 4670   0.124   6.948   4.638
 1257SOL    HW2 4671   0.079   6.816   4.554
 1258SOL     OW 4672   1.598   5.236   3.662
 1258SOL    HW1 4673   1.530   5.173   3.700
 1258SOL    HW2 4674   1.574   5.330   3.688
 1259SOL     OW 4675   3.765   1.318   4.064
 1259SOL    HW1 4676   3.791   1.390   4.001
 1259SOL    HW2 4677   3.806   1.231   4.035
 1260SOL     OW 4678   1.523   1.735   0.027
 1260SOL    HW1 4679   1.494   1.792   6.967
 1260SOL    HW2 4680   1.557   1.794   0.101
 1261SOL     OW 4681   0.371   5.615   6.526
 1261SOL    HW1 4682   0.382   5.604   6.427
 1261SOL    HW2 4683   0.454   5.582   6.572
 1262SOL     OW 4684   4.994   4.094   1.414
 1262SOL    HW1 4685   5.081   4.088   1.464
 1262SOL    HW2 4686   4.962   4.002   1.393
 1263SOL     OW 4687   0.236   1.904   2.398
 1263SOL    HW1 4688   0.292   1.842   2.454
 1263SOL    HW2 4689   0.153   1.928   2.448
 1264SOL     OW 4690   6.453   4.378   0.315
 1264SOL    HW1 4691   6.512   4.392   0.236
 1264SOL    HW2 4692   6.443   4.280   0.333
 1265SOL     OW 4693   5.665   4.871   4.826
 1265SOL    HW1 4694   5.671   4.948   4.763
 1265SOL    HW2 4695   5.680   4.902   4.919
 1266SOL     OW 4696   0.392   0.990   4.183
 1266SOL    HW1 4697   0.455   1.067   4.166
 1266SOL    HW2 4698   0.444   0.905   4.186
 1267SOL     OW 4699   5.846   1.274   1.013
 1267SOL    HW1 4700   5.875   1.288   0.918
 1267SOL    HW2 4701   5.838   1.363   1.058
 1268SOL     OW 4702   2.819   2.952   6.325
 1268SOL    HW1 4703   2.844   3.041   6.364
 1268SOL    HW2 4704   2.781   2.894   6.397
 1269SOL     OW 4705   5.989   3.289   4.366
 1269SOL    HW1 4706   6.007   3.299   4.269
 1269SOL    HW2 4707   5.939   3.369   4.400
 1270SOL     OW 4708   1.594   4.375   2.546
 1270SOL    HW1 4709   1.678   4.400   2.595
 1270SOL    HW2 4710   1.617   4.334   2.458
 1271SOL     OW 4711   3.819   1.746   2.679
 1271SOL    HW1 4712   3.915   1.742   2.705
 1271SOL    HW2 4713   3.804   1.822   2.616
 1272SOL     OW 4714   5.643   4.819   6.975
 1272SOL    HW1 4715   5.607   4.864   0.040
 1272SOL    HW2 4716   5.570   4.811   6.908
 1273SOL     OW 4717   1.079   3.840   6.025
 1273SOL    HW1 4718   1.005   3.841   6.091
 1273SOL    HW2 4719   1.087   3.749   5.984
 1274SOL     OW 4720   0.048   4.436   1.103
 1274SOL    HW1 4721   0.132   4.464   1.150
 1274SOL    HW2 4722   6.986   4.461   1.158
 1275SOL     OW 4723   3.430   1.863   3.350
 1275SOL    HW1 4724   3.447   1.824   3.440
 1275SOL    HW2 4725   3.475   1.952   3.343
 1276SOL     OW 4726   5.961   5.110   5.037
 1276SOL    HW1 4727   5.888   5.086   5.102
 1276SOL    HW2 4728   6.004   5.026   5.003
 1277SOL     OW 4729   2.129   5.407   6.474
 1277SOL    HW1 4730   2.116   5.333   6.408
 1277SOL    HW2 4731   2.186   5.375   6.550
 1278SOL     OW 4732   1.084   0.275   4.950
 1278SOL    HW1 4733   0.994   0.268   4.991
 1278SOL    HW2 4734   1.152   0.230   5.009
 1279SOL     OW 4735   1.885   5.023   6.792
 1279SOL    HW1 4736   1.873   5.116   6.758
 1279SOL    HW2 4737   1.930   4.968   6.723
 1280SOL     OW 4738   4.646   6.540   4.008
 1280SOL    HW1 4739   4.547   6.552   4.016
 1280SOL    HW2 4740   4.677   6.468   4.070
 1281SOL     OW 4741   2.720   6.386   2.981
 1281SOL    HW1 4742   2.709   6.316   3.053
 1281SOL    HW2 4743   2.669   6.358   2.900
 1282SOL     OW 4744   6.502   2.132   6.016
 1282SOL    HW1 4745   6.485   2.225   6.046
 1282SOL    HW2 4746   6.415   2.088   5.993
 1283SOL     OW 4747   6.883   3.076   5.222
 1283SOL    HW1 4748   6.881   3.025   5.308
 1283SOL    HW2 4749   6.790   3.104   5.198
 1284SOL     OW 4750   4.733   1.849   2.011
 1284SOL    HW1 4751   4.698   1.846   2.105
 1284SOL    HW2 4752   4.740   1.944   1.980
 1285SOL     OW 4753   4.736   1.435   5.431
 1285SOL    HW1 4754   4.656   1.379   5.454
 1285SOL    HW2 4755   4.815   1.375   5.415
 1286SOL     OW 4756   4.528   2.979   0.702
 1286SOL    HW1 4757   4.485   2.908   0.757
 1286SOL    HW2 4758   4.613   3.009   0.746
 1287SOL     OW 4759   5.396   4.433   5.594
 1287SOL    HW1 4760   5.489   4.427   5.632
 1287SOL    HW2 4761   5.380   4.525   5.560
 1288SOL     OW 4762   3.662   3.981   6.292
 1288SOL    HW1 4763   3.664   3.954   6.389
 1288SOL    HW2 4764   3.676   4.079   6.285
 1289SOL     OW 4765   0.838   0.060   1.333
 1289SOL    HW1 4766   0.846   0.144   1.387
 1289SOL    HW2 4767   0.750   0.016   1.353
 1290SOL     OW 4768   1.269   6.886   0.479
 1290SOL    HW1 4769   1.345   6.823   0.496
 1290SOL    HW2 4770   1.282   6.969   0.532
 1291SOL     OW 4771   0.347   4.139   3.774
 1291SOL    HW1 4772   0.439   4.119   3.741
 1291SOL    HW2 4773   0.340   4.236   3.797
 1292SOL     OW 4774   0.908   5.944   2.511
 1292SOL    HW1 4775   0.846   6.017   2.484
 1292SOL    HW2 4776   0.855   5.863   2.536
 1293SOL     OW 4777   2.315   2.206   6.974
 1293SOL    HW1 4778   2.236   2.146   6.957
 1293SOL    HW2 4779   2.285   2.285   0.010
 1294SOL     OW 4780   0.260   2.843   5.799
 1294SOL    HW1 4781   0.313   2.771   5.756
 1294SOL    HW2 4782   0.224   2.904   5.729
 1295SOL     OW 4783   0.553   3.844   1.030
 1295SOL    HW1 4784   0.618   3.894   1.087
 1295SOL    HW2 4785   0.602   3.793   0.960
 1296SOL     OW 4786   4.263   6.416   5.100
 1296SOL    HW1 4787   4.279   6.435   5.197
 1296SOL    HW2 4788   4.179   6.362   5.090
 1297SOL     OW 4789   0.962   6.914   1.108
 1297SOL    HW1 4790   0.900   6.990   1.129
 1297SOL    HW2 4791   0.995   6.874   1.193
 1298SOL     OW 4792   4.948   5.827   3.389
 1298SOL    HW1 4793   4.894   5.909   3.407
 1298SOL    HW2 4794   4.886   5.748   3.386
 1299SOL     OW 4795   2.566   2.400   3.808
 1299SOL    HW1 4796   2.587   2.444   3.895
 1299SOL    HW2 4797   2.525   2.467   3.746
 1300SOL     OW 4798   1.988   3.082   0.899
 1300SOL    HW1 4799   1.970   3.125   0.811
 1300SOL    HW2 4800   2.084   3.096   0.924
 1301SOL     OW 4801   0.612   6.389   1.747
 1301SOL    HW1 4802   0.586   6.379   1.651
 1301SOL    HW2 4803   0.603   6.485   1.775
 1302SOL     OW 4804   5.039   0.048   5.259
 1302SOL    HW1 4805   5.009   0.045   5.354
 1302SOL    HW2 4806   4.995   0.124   5.212
 1303SOL     OW 4807   4.385   1.067   1.227
 1303SOL    HW1 4808   4.347   1.152   1.263
 1303SOL    HW2 4809   4.372   0.993   1.293
 1304SOL     OW 4810   2.029   0.158   0.768
 1304SOL    HW1 4811   1.974   0.083   0.732
 1304SOL    HW2 4812   1.994   0.245   0.732
 1305SOL     OW 4813   5.988   3.775   0.619
 1305SOL    HW1 4814   6.019   3.682   0.599
 1305SOL    HW2 4815   5.950   3.779   0.711
 1306SOL     OW 4816   1.120   5.910   4.599
 1306SOL    HW1 4817   1.195   5.967   4.632
 1306SOL    HW2 4818   1.033   5.946   4.632
 1307SOL     OW 4819   2.323   4.351   4.050
 1307SOL    HW1 4820   2.311   4.270   4.106
 1307SOL    HW2 4821   2.351   4.324   3.958
 1308SOL     OW 4822   6.881   6.859   5.961
 1308SOL    HW1 4823   6.851   6.876   5.867
 1308SOL    HW2 4824   6.801   6.840   6.019
 1309SOL     OW 4825   5.832   4.971   5.712
 1309SOL    HW1 4826   5.911   5.030   5.727
 1309SOL    HW2 4827   5.796   4.985   5.620
 1310SOL     OW 4828   0.415   3.849   3.145
 1310SOL    HW1 4829   0.361   3.904   3.209
 1310SOL    HW2 4830   0.396   3.752   3.161
 1311SOL     OW 4831   6.868   6.025   6.236
 1311SOL    HW1 4832   6.910   6.115   6.252
 1311SOL    HW2 4833   6.841   6.018   6.141
 1312SOL     OW 4834   1.364   6.758   0.130
 1312SOL    HW1 4835   1.309   6.677   0.111
 1312SOL    HW2 4836   1.326   6.808   0.208
 1313SOL     OW 4837   0.215   4.974   2.718
 1313SOL    HW1 4838   0.255   4.916   2.647
 1313SOL    HW2 4839   0.116   4.957   2.723
 1314SOL     OW 4840   3.738   1.369   4.602
 1314SOL    HW1 4841   3.808   1.407   4.662
 1314SOL    HW2 4842   3.771   1.371   4.508
 1315SOL     OW 4843   6.799   1.556   2.833
 1315SOL    HW1 4844   6.893   1.588   2.834
 1315SOL    HW2 4845   6.767   1.547   2.739
 1316SOL     OW 4846   3.769   6.967   5.645
 1316SOL    HW1 4847   3.764   0.045   5.676
 1316SOL    HW2 4848   3.678   6.937   5.617
 1317SOL     OW 4849   1.787   4.031   6.282
 1317SOL    HW1 4850   1.833   3.947   6.256
 1317SOL    HW2 4851   1.715   4.011   6.349
 1318SOL     OW 4852   1.149   2.612   0.718
 1318SOL    HW1 4853   1.209   2.600   0.797
 1318SOL    HW2 4854   1.063   2.654   0.747
 1319SOL     OW 4855   6.953   6.042   0.832
 1319SOL    HW1 4856   6.915   5.951   0.815
 1319SOL    HW2 4857   7.015   6.067   0.758
 1320SOL     OW 4858   3.815   4.388   6.687
 1320SOL    HW1 4859   3.814   4.387   6.787
 1320SOL    HW2 4860   3.724   4.407   6.652
 1321SOL     OW 4861   4.933   2.801   6.290
 1321SOL    HW1 4862   4.950   2.707   6.260
 1321SOL    HW2 4863   5.018   2.853   6.283
 1322SOL     OW 4864   3.466   1.536   4.277
 1322SOL    HW1 4865   3.435   1.508   4.368
 1322SOL    HW2 4866   3.464   1.636   4.270
 1323SOL     OW 4867   3.508   6.547   6.524
 1323SOL    HW1 4868   3.414   6.525   6.549
 1323SOL    HW2 4869   3.529   6.508   6.434
 1324SOL     OW 4870   0.368   3.421   6.514
 1324SOL    HW1 4871   0.288   3.469   6.549
 1324SOL    HW2 4872   0.372   3.430   6.415
 1325SOL     OW 4873   3.819   6.402   4.903
 1325SOL    HW1 4874   3.862   6.325   4.857
 1325SOL    HW2 4875   3.856   6.488   4.868
 1326SOL     OW 4876   4.965   3.503   5.230
 1326SOL    HW1 4877   4.870   3.512   5.203
 1326SOL    HW2 4878   5.018   3.579   5.194
 1327SOL     OW 4879   1.203   6.329   1.048
 1327SOL    HW1 4880   1.205   6.330   1.148
 1327SOL    HW2 4881   1.295   6.317   1.013
 1328SOL     OW 4882   2.416   3.213   0.015
 1328SOL    HW1 4883   2.421   3.145   6.958
 1328SOL    HW2 4884   2.464   3.296   7.004
 1329SOL     OW 4885   0.709   2.382   2.814
 1329SOL    HW1 4886   0.658   2.335   2.886
 1329SOL    HW2 4887   0.686   2.479   2.815
 1330SOL     OW 4888   1.626   1.767   1.536
 1330SOL    HW1 4889   1.591   1.677   1.564
 1330SOL    HW2 4890   1.718   1.780   1.573
 1331SOL     OW 4891   4.747   2.867   3.244
 1331SOL    HW1 4892   4.814   2.802   3.208
 1331SOL    HW2 4893   4.701   2.826   3.323
 1332SOL     OW 4894   2.760   0.098   0.968
 1332SOL    HW1 4895   2.815   0.100   1.051
 1332SOL    HW2 4896   2.734   0.192   0.943
 1333SOL     OW 4897   3.010   3.692   3.020
 1333SOL    HW1 4898   2.981   3.726   2.930
 1333SOL    HW2 4899   2.965   3.745   3.092
 1334SOL     OW 4900   6.547   1.615   3.849
 1334SOL    HW1 4901   6.591   1.598   3.938
 1334SOL    HW2 4902   6.616   1.644   3.783
 1335SOL     OW 4903   2.626   2.193   2.370
 1335SOL    HW1 4904   2.571   2.176   2.452
 1335SOL    HW2 4905   2.666   2.107   2.339
 1336SOL     OW 4906   2.707   1.663   4.829
 1336SOL    HW1 4907   2.744   1.657   4.922
 1336SOL    HW2 4908   2.680   1.757   4.810
 1337SOL     OW 4909   1.128   1.775   2.837
 1337SOL    HW1 4910   1.067   1.837   2.787
 1337SOL    HW2 4911   1.077   1.692   2.862
 1338SOL     OW 4912   6.836   3.037   4.854
 1338SOL    HW1 4913   6.827   3.013   4.757
 1338SOL    HW2 4914   6.752   3.013   4.902
 1339SOL     OW 4915   6.361   2.030   6.895
 1339SOL    HW1 4916   6.428   2.046   6.968
 1339SOL    HW2 4917   6.405   1.980   6.820
 1340SOL     OW 4918   5.308   1.419   2.565
 1340SOL    HW1 4919   5.227   1.478   2.555
 1340SOL    HW2 4920   5.377   1.447   2.498
 1341SOL     OW 4921   4.236   6.368   6.407
 1341SOL    HW1 4922   4.318   6.383   6.351
 1341SOL    HW2 4923   4.206   6.273   6.395
 1342SOL     OW 4924   2.943   5.347   6.348
 1342SOL    HW1 4925   2.862   5.385   6.392
 1342SOL    HW2 4926   3.025   5.378   6.396
 1343SOL     OW 4927   5.585   5.759   2.931
 1343SOL    HW1 4928   5.609   5.776   3.027
 1343SOL    HW2 4929   5.485   5.764   2.921
 1344SOL     OW 4930   6.903   5.956   4.601
 1344SOL    HW1 4931   6.920   5.913   4.689
 1344SOL    HW2 4932   6.955   6.041   4.594
 1345SOL     OW 4933   0.865   5.643   2.762
 1345SOL    HW1 4934   0.933   5.696   2.813
 1345SOL    HW2 4935   0.897   5.548   2.754
 1346SOL     OW 4936   2.029   5.381   5.017
 1346SOL    HW1 4937   1.932   5.405   5.017
 1346SOL    HW2 4938   2.050   5.327   5.099
 1347SOL     OW 4939   6.934   0.268   5.605
 1347SOL    HW1 4940   6.836   0.276   5.625
 1347SOL    HW2 4941   6.959   0.172   5.597
 1348SOL     OW 4942   6.129   6.548   4.478
 1348SOL    HW1 4943   6.168   6.610   4.409
 1348SOL    HW2 4944   6.089   6.602   4.552
 1349SOL     OW 4945   5.393   2.847   5.050
 1349SOL    HW1 4946   5.305   2.874   5.012
 1349SOL    HW2 4947   5.377   2.793   5.133
 1350SOL     OW 4948   5.204   5.157   5.415
 1350SOL    HW1 4949   5.162   5.068   5.392
 1350SOL    HW2 4950   5.187   5.178   5.511
 1351SOL     OW 4951   5.595   2.062   3.117
 1351SOL    HW1 4952   5.619   2.138   3.057
 1351SOL    HW2 4953   5.646   1.981   3.090
 1352SOL     OW 4954   6.389   5.749   4.027
 1352SOL    HW1 4955   6.330   5.677   4.064
 1352SOL    HW2 4956   6.333   5.822   3.988
 1353SOL     OW 4957   0.772   2.671   0.169
 1353SOL    HW1 4958   0.687   2.687   0.120
 1353SOL    HW2 4959   0.847   2.658   0.104
 1354SOL     OW 4960   0.640   4.698   1.677
 1354SOL    HW1 4961   0.600   4.751   1.602
 1354SOL    HW2 4962   0.581   4.620   1.698
 1355SOL     OW 4963   6.127   3.482   4.727
 1355SOL    HW1 4964   6.074   3.404   4.694
 1355SOL    HW2 4965   6.109   3.562   4.669
 1356SOL     OW 4966   3.147   2.961   1.950
 1356SOL    HW1 4967   3.083   2.885   1.941
 1356SOL    HW2 4968   3.240   2.925   1.957
 1357SOL     OW 4969   0.050   4.280   6.285
 1357SOL    HW1 4970   0.102   4.355   6.324
 1357SOL    HW2 4971   0.012   4.308   6.196
 1358SOL     OW 4972   5.520   6.312   6.570
 1358SOL    HW1 4973   5.577   6.368   6.510
 1358SOL    HW2 4974   5.575   6.239   6.609
 1359SOL     OW 4975   5.834   4.793   2.947
 1359SOL    HW1 4976   5.860   4.826   2.856
 1359SOL    HW2 4977   5.911   4.806   3.010
 1360SOL     OW 4978   2.761   3.850   0.268
 1360SOL    HW1 4979   2.744   3.760   0.306
 1360SOL    HW2 4980   2.830   3.844   0.196
 1361SOL     OW 4981   6.255   5.057   5.286
 1361SOL    HW1 4982   6.172   5.056   5.341
 1361SOL    HW2 4983   6.252   4.984   5.218
 1362SOL     OW 4984   3.906   3.854   3.207
 1362SOL    HW1 4985   3.937   3.870   3.113
 1362SOL    HW2 4986   3.985   3.834   3.264
 1363SOL     OW 4987   0.213   4.968   4.553
 1363SOL    HW1 4988   0.198   4.931   4.461
 1363SOL    HW2 4989   0.294   4.925   4.593
 1364SOL     OW 4990   4.830   4.194   0.645
 1364SOL    HW1 4991   4.927   4.189   0.668
 1364SOL    HW2 4992   4.817   4.258   0.569
 1365SOL     OW 4993   0.004   4.337   6.013
 1365SOL    HW1 4994   6.945   4.287   5.973
 1365SOL    HW2 4995   0.090   4.288   5.996
 1366SOL     OW 4996   1.742   5.726   6.922
 1366SOL    HW1 4997   1.807   5.661   6.884
 1366SOL    HW2 4998   1.721   5.701   7.016
 1367SOL     OW 4999   2.424   6.987   3.060
 1367SOL    HW1 5000   2.471   6.974   3.148
 1367SOL    HW2 5001   2.337   6.937   3.062
 1368SOL     OW 5002   5.317   6.701   3.726
 1368SOL    HW1 5003   5.239   6.762   3.715
 1368SOL    HW2 5004   5.402   6.754   3.723
 1369SOL     OW 5005   2.023   6.490   2.774
 1369SOL    HW1 5006   2.095   6.492   2.843
 1369SOL    HW2 5007   1.976   6.402   2.778
 1370SOL     OW 5008   3.676   1.268   1.253
 1370SOL    HW1 5009   3.753   1.294   1.312
 1370SOL    HW2 5010   3.676   1.326   1.171
 1371SOL     OW 5011   5.216   1.510   4.189
 1371SOL    HW1 5012   5.218   1.513   4.089
 1371SOL    HW2 5013   5.145   1.446   4.219
 1372SOL     OW 5014   1.663   2.531   0.522
 1372SOL    HW1 5015   1.654   2.488   0.612
 1372SOL    HW2 5016   1.572   2.548   0.484
 1373SOL     OW 5017   6.029   4.014   6.755
 1373SOL    HW1 5018   6.101   3.960   6.712
 1373SOL    HW2 5019   5.979   3.958   6.821
 1374SOL     OW 5020   3.570   1.956   0.471
 1374SOL    HW1 5021   3.591   2.054   0.474
 1374SOL    HW2 5022   3.649   1.906   0.437
 1375SOL     OW 5023   0.184   4.743   6.012
 1375SOL    HW1 5024   0.256   4.697   6.063
 1375SOL    HW2 5025   0.217   4.833   5.982
 1376SOL     OW 5026   4.876   3.519   3.786
 1376SOL    HW1 5027   4.912   3.504   3.878
 1376SOL    HW2 5028   4.805   3.451   3.766
 1377SOL     OW 5029   6.542   4.279   5.445
 1377SOL    HW1 5030   6.556   4.180   5.439
 1377SOL    HW2 5031   6.554   4.319   5.354
 1378SOL     OW 5032   6.448   2.118   4.810
 1378SOL    HW1 5033   6.391   2.142   4.732
 1378SOL    HW2 5034   6.460   2.019   4.815
 1379SOL     OW 5035   3.136   0.196   2.094
 1379SOL    HW1 5036   3.205   0.124   2.100
 1379SOL    HW2 5037   3.045   0.156   2.108
 1380SOL     OW 5038   0.020   0.372   2.048
 1380SOL    HW1 5039   6.964   0.320   2.092
 1380SOL    HW2 5040   0.008   0.469   2.068
 1381SOL     OW 5041   5.200   2.857   6.920
 1381SOL    HW1 5042   5.263   2.797   6.869
 1381SOL    HW2 5043   5.236   2.872   7.012
 1382SOL     OW 5044   5.319   4.505   0.070
 1382SOL    HW1 5045   5.267   4.484   7.004
 1382SOL    HW2 5046   5.407   4.457   0.068
 1383SOL     OW 5047   0.793   1.473   0.356
 1383SOL    HW1 5048   0.757   1.386   0.321
 1383SOL    HW2 5049   0.723   1.543   0.347
 1384SOL     OW 5050   3.885   1.039   2.934
 1384SOL    HW1 5051   3.976   1.081   2.934
 1384SOL    HW2 5052   3.817   1.108   2.957
 1385SOL     OW 5053   0.519   2.797   2.945
 1385SOL    HW1 5054   0.434   2.823   2.898
 1385SOL    HW2 5055   0.592   2.860   2.920
 1386SOL     OW 5056   2.218   1.794   4.648
 1386SOL    HW1 5057   2.276   1.870   4.617
 1386SOL    HW2 5058   2.137   1.832   4.693
 1387SOL     OW 5059   3.767   0.591   3.651
 1387SOL    HW1 5060   3.742   0.508   3.600
 1387SOL    HW2 5061   3.804   0.565   3.740
 1388SOL     OW 5062   6.798   6.474   4.191
 1388SOL    HW1 5063   6.824   6.386   4.232
 1388SOL    HW2 5064   6.723   6.459   4.126
 1389SOL     OW 5065   0.688   0.846   3.610
 1389SOL    HW1 5066   0.722   0.822   3.701
 1389SOL    HW2 5067   0.615   0.913   3.618
 1390SOL     OW 5068   4.715   1.604   6.378
 1390SOL    HW1 5069   4.698   1.662   6.457
 1390SOL    HW2 5070   4.812   1.581   6.373
 1391SOL     OW 5071   5.824   1.783   5.795
 1391SOL    HW1 5072   5.816   1.842   5.715
 1391SOL    HW2 5073   5.891   1.822   5.859
 1392SOL     OW 5074   5.097   5.619   5.443
 1392SOL    HW1 5075   5.030   5.548   5.467
 1392SOL    HW2 5076   5.051   5.707   5.433
 1393SOL     OW 5077   5.956   3.051   0.024
 1393SOL    HW1 5078   5.866   3.047   6.998
 1393SOL    HW2 5079   5.945   3.061   0.123
 1394SOL     OW 5080   3.728   6.571   3.852
 1394SOL    HW1 5081   3.805   6.510   3.872
 1394SOL    HW2 5082   3.652   6.549   3.912
 1395SOL     OW 5083   0.281   4.131   2.580
 1395SOL    HW1 5084   0.379   4.119   2.568
 1395SOL    HW2 5085   0.233   4.104   2.496
 1396SOL     OW 5086   1.746   0.051   4.320
 1396SOL    HW1 5087   1.735   0.057   4.419
 1396SOL    HW2 5088   1.831   0.002   4.299
 1397SOL     OW 5089   0.274   6.286   4.894
 1397SOL    HW1 5090   0.341   6.269   4.965
 1397SOL    HW2 5091   0.208   6.211   4.891
 1398SOL     OW 5092   1.776   0.901   1.514
 1398SOL    HW1 5093   1.693   0.899   1.459
 1398SOL    HW2 5094   1.852   0.861   1.462
 1399SOL     OW 5095   4.216   0.588   0.727
 1399SOL    HW1 5096   4.239   0.685   0.729
 1399SOL    HW2 5097   4.171   0.565   0.641
 1400SOL     OW 5098   6.353   0.884   3.957
 1400SOL    HW1 5099   6.437   0.934   3.979
 1400SOL    HW2 5100   6.329   0.899   3.861
 1401SOL     OW 5101   5.654   0.044   3.973
 1401SOL    HW1 5102   5.716   6.984   3.957
 1401SOL    HW2 5103   5.706   0.128   3.981
 1402SOL     OW 5104   6.076   4.177   6.980
 1402SOL    HW1 5105   6.129   4.256   7.011
 1402SOL    HW2 5106   6.117   4.139   6.897
 1403SOL     OW 5107   2.674   3.173   0.505
 1403SOL    HW1 5108   2.758   3.187   0.452
 1403SOL    HW2 5109   2.695   3.115   0.585
 1404SOL     OW 5110   4.659   0.353   1.040
 1404SOL    HW1 5111   4.567   0.321   1.059
 1404SOL    HW2 5112   4.655   0.439   0.988
 1405SOL     OW 5113   1.525   3.563   0.925
 1405SOL    HW1 5114   1.569   3.607   1.004
 1405SOL    HW2 5115   1.431   3.598   0.915
 1406SOL     OW 5116   2.227   4.058   1.587
 1406SOL    HW1 5117   2.131   4.075   1.561
 1406SOL    HW2 5118   2.230   4.014   1.677
 1407SOL     OW 5119   1.150   3.417   2.621
 1407SOL    HW1 5120   1.096   3.457   2.695
 1407SOL    HW2 5121   1.120   3.323   2.606
 1408SOL     OW 5122   6.160   6.745   0.146
 1408SOL    HW1 5123   6.136   6.697   0.061
 1408SOL    HW2 5124   6.229   6.692   0.195
 1409SOL     OW 5125   6.882   1.042   5.497
 1409SOL    HW1 5126   6.917   0.964   5.548
 1409SOL    HW2 5127   6.927   1.126   5.528
 1410SOL     OW 5128   2.610   3.194   6.360
 1410SOL    HW1 5129   2.667   3.208   6.441
 1410SOL    HW2 5130   2.658   3.225   6.279
 1411SOL     OW 5131   3.252   6.174   6.666
 1411SOL    HW1 5132   3.195   6.220   6.735
 1411SOL    HW2 5133   3.327   6.126   6.712
 1412SOL     OW 5134   0.533   3.459   0.862
 1412SOL    HW1 5135   0.591   3.541   0.860
 1412SOL    HW2 5136   0.589   3.378   0.873
 1413SOL     OW 5137   1.580   2.008   4.618
 1413SOL    HW1 5138   1.641   1.959   4.555
 1413SOL    HW2 5139   1.633   2.041   4.696
 1414SOL     OW 5140   1.104   2.937   1.969
 1414SOL    HW1 5141   1.108   3.024   1.921
 1414SOL    HW2 5142   1.192   2.890   1.960
 1415SOL     OW 5143   2.593   1.885   4.490
 1415SOL    HW1 5144   2.593   1.792   4.453
 1415SOL    HW2 5145   2.684   1.925   4.476
 1416SOL     OW 5146   4.283   0.696   5.233
 1416SOL    HW1 5147   4.305   0.791   5.254
 1416SOL    HW2 5148   4.259   0.648   5.318
 1417SOL     OW 5149   3.416   3.520   5.914
 1417SOL    HW1 5150   3.445   3.463   5.991
 1417SOL    HW2 5151   3.441   3.615   5.932
 1418SOL     OW 5152   3.433   3.916   0.799
 1418SOL    HW1 5153   3.527   3.912   0.766
 1418SOL    HW2 5154   3.400   4.010   0.795
 1419SOL     OW 5155   1.425   4.817   4.204
 1419SOL    HW1 5156   1.414   4.720   4.226
 1419SOL    HW2 5157   1.433   4.827   4.105
 1420SOL     OW 5158   4.130   5.081   3.076
 1420SOL    HW1 5159   4.091   4.990   3.090
 1420SOL    HW2 5160   4.119   5.108   2.981
 1421SOL     OW 5161   0.924   4.345   4.476
 1421SOL    HW1 5162   1.015   4.357   4.516
 1421SOL    HW2 5163   0.933   4.308   4.384
 1422SOL     OW 5164   2.423   5.193   5.877
 1422SOL    HW1 5165   2.401   5.202   5.974
 1422SOL    HW2 5166   2.462   5.103   5.860
 1423SOL     OW 5167   4.141   1.845   4.472
 1423SOL    HW1 5168   4.193   1.763   4.496
 1423SOL    HW2 5169   4.080   1.869   4.548
 1424SOL     OW 5170   6.561   3.786   6.586
 1424SOL    HW1 5171   6.625   3.848   6.541
 1424SOL    HW2 5172   6.467   3.814   6.563
 1425SOL     OW 5173   3.255   6.513   5.123
 1425SOL    HW1 5174   3.260   6.488   5.219
 1425SOL    HW2 5175   3.330   6.574   5.100
 1426SOL     OW 5176   2.164   1.607   6.798
 1426SOL    HW1 5177   2.243   1.591   6.740
 1426SOL    HW2 5178   2.107   1.525   6.801
 1427SOL     OW 5179   0.849   0.267   3.275
 1427SOL    HW1 5180   0.887   0.351   3.315
 1427SOL    HW2 5181   0.889   0.251   3.185
 1428SOL     OW 5182   0.257   2.592   1.445
 1428SOL    HW1 5183   0.317   2.568   1.369
 1428SOL    HW2 5184   0.270   2.689   1.467
 1429SOL     OW 5185   6.328   1.139   6.697
 1429SOL    HW1 5186   6.385   1.092   6.765
 1429SOL    HW2 5187   6.322   1.236   6.720
 1430SOL     OW 5188   2.481   4.586   4.343
 1430SOL    HW1 5189   2.562   4.636   4.376
 1430SOL    HW2 5190   2.452   4.521   4.413
 1431SOL     OW 5191   2.766   2.031   5.147
 1431SOL    HW1 5192   2.735   2.090   5.072
 1431SOL    HW2 5193   2.686   2.002   5.200
 1432SOL     OW 5194   1.929   1.249   0.614
 1432SOL    HW1 5195   1.836   1.213   0.603
 1432SOL    HW2 5196   1.944   1.275   0.709
 1433SOL     OW 5197   3.836   6.988   3.551
 1433SOL    HW1 5198   3.834   0.044   3.620
 1433SOL    HW2 5199   3.928   6.950   3.546
 1434SOL     OW 5200   0.500   2.422   6.336
 1434SOL    HW1 5201   0.591   2.447   6.371
 1434SOL    HW2 5202   0.454   2.505   6.304
 1435SOL     OW 5203   0.487   0.423   3.948
 1435SOL    HW1 5204   0.510   0.493   3.880
 1435SOL    HW2 5205   0.388   0.417   3.957
 1436SOL     OW 5206   6.098   3.693   0.928
 1436SOL    HW1 5207   6.043   3.776   0.936
 1436SOL    HW2 5208   6.045   3.614   0.960
 1437SOL     OW 5209   3.608   1.637   5.863
 1437SOL    HW1 5210   3.577   1.664   5.954
 1437SOL    HW2 5211   3.701   1.669   5.849
 1438SOL     OW 5212   3.192   1.094   1.555
 1438SOL    HW1 5213   3.209   1.045   1.469
 1438SOL    HW2 5214   3.277   1.134   1.588
 1439SOL     OW 5215   0.817   5.902   6.955
 1439SOL    HW1 5216   0.904   5.946   6.930
 1439SOL    HW2 5217   0.811   5.893   0.037
 1440SOL     OW 5218   3.371   3.746   3.963
 1440SOL    HW1 5219   3.305   3.672   3.971
 1440SOL    HW2 5220   3.322   3.833   3.954
 1441SOL     OW 5221   6.706   3.366   3.044
 1441SOL    HW1 5222   6.702   3.439   3.112
 1441SOL    HW2 5223   6.752   3.286   3.084
 1442SOL     OW 5224   5.276   4.911   0.955
 1442SOL    HW1 5225   5.324   4.997   0.970
 1442SOL    HW2 5226   5.247   4.873   1.043
 1443SOL     OW 5227   0.864   0.298   3.830
 1443SOL    HW1 5228   0.780   0.268   3.875
 1443SOL    HW2 5229   0.869   0.398   3.834
 1444SOL     OW 5230   3.920   5.834   2.958
 1444SOL    HW1 5231   3.986   5.845   2.883
 1444SOL    HW2 5232   3.882   5.923   2.982
 1445SOL     OW 5233   0.151   2.991   1.766
 1445SOL    HW1 5234   0.054   2.974   1.784
 1445SOL    HW2 5235   0.166   3.089   1.755
 1446SOL     OW 5236   4.658   2.912   0.017
 1446SOL    HW1 5237   4.618   3.003   0.009
 1446SOL    HW2 5238   4.752   2.919   0.050
 1447SOL     OW 5239   6.470   0.706   5.126
 1447SOL    HW1 5240   6.435   0.751   5.208
 1447SOL    HW2 5241   6.440   0.756   5.045
 1448SOL     OW 5242   5.935   1.795   0.329
 1448SOL    HW1 5243   5.957   1.717   0.269
 1448SOL    HW2 5244   5.854   1.842   0.294
 1449SOL     OW 5245   5.954   6.611   0.476
 1449SOL    HW1 5246   5.914   6.696   0.510
 1449SOL    HW2 5247   5.991   6.627   0.384
 1450SOL     OW 5248   6.841   2.628   2.334
 1450SOL    HW1 5249   6.919   2.669   2.382
 1450SOL    HW2 5250   6.870   2.543   2.291
 1451SOL     OW 5251   3.224   0.572   2.821
 1451SOL    HW1 5252   3.162   0.545   2.895
 1451SOL    HW2 5253   3.273   0.655   2.847
 1452SOL     OW 5254   4.893   1.027   4.649
 1452SOL    HW1 5255   4.915   1.121   4.678
 1452SOL    HW2 5256   4.798   1.022   4.620
 1453SOL     OW 5257   5.807   3.392   4.858
 1453SOL    HW1 5258   5.791   3.349   4.769
 1453SOL    HW2 5259   5.880   3.343   4.906
 1454SOL     OW 5260   5.390   2.386   2.605
 1454SOL    HW1 5261   5.437   2.468   2.572
 1454SOL    HW2 5262   5.353   2.335   2.528
 1455SOL     OW 5263   1.059   0.546   1.910
 1455SOL    HW1 5264   1.066   0.618   1.979
 1455SOL    HW2 5265   0.983   0.486   1.932
 1456SOL     OW 5266   6.897   6.752   5.297
 1456SOL    HW1 5267   6.872   6.732   5.202
 1456SOL    HW2 5268   6.881   6.849   5.316
 1457SOL     OW 5269   1.431   6.996   2.981
 1457SOL    HW1 5270   1.412   7.000   3.079
 1457SOL    HW2 5271   1.523   0.014   2.963
 1458SOL     OW 5272   5.456   6.970   5.065
 1458SOL    HW1 5273   5.357   6.987   5.059
 1458SOL    HW2 5274   5.503   0.039   5.084
 1459SOL     OW 5275   2.832   5.164   6.911
 1459SOL    HW1 5276   2.814   5.213   6.996
 1459SOL    HW2 5277   2.863   5.071   6.932
 1460SOL     OW 5278   0.207   5.765   6.194
 1460SOL    HW1 5279   0.109   5.748   6.186
 1460SOL    HW2 5280   0.246   5.778   6.103
 1461SOL     OW 5281   6.534   4.529   3.713
 1461SOL    HW1 5282   6.505   4.484   3.629
 1461SOL    HW2 5283   6.584   4.464   3.771
 1462SOL     OW 5284   6.853   1.999   0.149
 1462SOL    HW1 5285   6.757   2.018   0.128
 1462SOL    HW2 5286   6.896   1.954   0.071
 1463SOL     OW 5287   0.269   0.160   5.738
 1463SOL    HW1 5288   0.342   0.186   5.801
 1463SOL    HW2 5289   0.180   0.179   5.780
 1464SOL     OW 5290   0.658   6.595   0.728
 1464SOL    HW1 5291   0.618   6.615   0.638
 1464SOL    HW2 5292   0.755   6.617   0.727
 1465SOL     OW 5293   1.066   1.207   3.276
 1465SOL    HW1 5294   1.124   1.271   3.226
 1465SOL    HW2 5295   0.983   1.189   3.223
 1466SOL     OW 5296   6.952   6.365   2.689
 1466SOL    HW1 5297   6.890   6.328   2.621
 1466SOL    HW2 5298   6.901   6.395   2.770
 1467SOL     OW 5299   1.427   0.425   2.280
 1467SOL    HW1 5300   1.400   0.329   2.284
 1467SOL    HW2 5301   1.525   0.431   2.262
 1468SOL     OW 5302   5.606   5.843   3.185
 1468SOL    HW1 5303   5.612   5.809   3.279
 1468SOL    HW2 5304   5.598   5.943   3.187
 1469SOL     OW 5305   0.725   0.735   2.904
 1469SOL    HW1 5306   0.691   0.718   2.811
 1469SOL    HW2 5307   0.681   0.817   2.941
 1470SOL     OW 5308   1.099   1.094   2.390
 1470SOL    HW1 5309   1.087   1.008   2.340
 1470SOL    HW2 5310   1.066   1.169   2.334
 1471SOL     OW 5311   0.239   0.885   6.731
 1471SOL    HW1 5312   0.245   0.935   6.645
 1471SOL    HW2 5313   0.303   0.924   6.797
 1472SOL     OW 5314   4.571   6.425   4.571
 1472SOL    HW1 5315   4.665   6.400   4.596
 1472SOL    HW2 5316   4.572   6.512   4.522
 1473SOL     OW 5317   5.993   5.661   3.352
 1473SOL    HW1 5318   6.023   5.720   3.427
 1473SOL    HW2 5319   6.050   5.579   3.349
 1474SOL     OW 5320   6.515   5.926   3.614
 1474SOL    HW1 5321   6.493   6.023   3.620
 1474SOL    HW2 5322   6.451   5.874   3.671
 1475SOL     OW 5323   0.303   0.486   1.559
 1475SOL    HW1 5324   0.373   0.554   1.539
 1475SOL    HW2 5325   0.279   0.490   1.656
 1476SOL     OW 5326   1.242   1.008   1.390
 1476SOL    HW1 5327   1.200   1.004   1.299
 1476SOL    HW2 5328   1.206   0.934   1.446
 1477SOL     OW 5329   3.053   0.237   6.210
 1477SOL    HW1 5330   3.049   0.227   6.309
 1477SOL    HW2 5331   3.027   0.151   6.166
 1478SOL     OW 5332   5.716   4.846   0.671
 1478SOL    HW1 5333   5.745   4.835   0.767
 1478SOL    HW2 5334   5.621   4.877   0.669
 1479SOL     OW 5335   1.320   4.576   0.269
 1479SOL    HW1 5336   1.299   4.529   0.355
 1479SOL    HW2 5337   1.299   4.515   0.192
 1480SOL     OW 5338   2.768   0.720   0.218
 1480SOL    HW1 5339   2.673   0.688   0.219
 1480SOL    HW2 5340   2.803   0.714   0.125
 1481SOL     OW 5341   5.454   1.755   4.940
 1481SOL    HW1 5342   5.420   1.690   5.008
 1481SOL    HW2 5343   5.442   1.848   4.974
 1482SOL     OW 5344   5.877   1.321   0.730
 1482SOL    HW1 5345   5.780   1.328   0.709
 1482SOL    HW2 5346   5.931   1.354   0.653
 1483SOL     OW 5347   0.263   3.656   6.727
 1483SOL    HW1 5348   0.209   3.683   6.806
 1483SOL    HW2 5349   0.205   3.659   6.645
 1484SOL     OW 5350   6.383   4.094   3.570
 1484SOL    HW1 5351   6.473   4.076   3.529
 1484SOL    HW2 5352   6.312   4.048   3.517
 1485SOL     OW 5353   4.608   2.593   2.450
 1485SOL    HW1 5354   4.564   2.638   2.372
 1485SOL    HW2 5355   4.698   2.634   2.466
 1486SOL     OW 5356   4.904   2.588   3.442
 1486SOL    HW1 5357   4.955   2.585   3.528
 1486SOL    HW2 5358   4.964   2.565   3.366
 1487SOL     OW 5359   6.746   2.048   6.078
 1487SOL    HW1 5360   6.649   2.074   6.078
 1487SOL    HW2 5361   6.764   1.990   5.998
 1488SOL     OW 5362   5.935   2.333   3.103
 1488SOL    HW1 5363   5.951   2.234   3.099
 1488SOL    HW2 5364   5.894   2.357   3.191
 1489SOL     OW 5365   3.852   5.009   4.468
 1489SOL    HW1 5366   3.895   4.919   4.480
 1489SOL    HW2 5367   3.759   5.007   4.505
 1490SOL     OW 5368   1.319   2.265   0.629
 1490SOL    HW1 5369   1.253   2.331   0.595
 1490SOL    HW2 5370   1.282   2.173   0.621
 1491SOL     OW 5371   6.878   3.722   3.057
 1491SOL    HW1 5372   6.897   3.707   2.960
 1491SOL    HW2 5373   6.945   3.673   3.112
 1492SOL     OW 5374   5.477   2.105   2.050
 1492SOL    HW1 5375   5.526   2.106   2.138
 1492SOL    HW2 5376   5.417   2.025   2.047
 1493SOL     OW 5377   4.740   0.728   4.717
 1493SOL    HW1 5378   4.743   0.773   4.629
 1493SOL    HW2 5379   4.674   0.652   4.714
 1494SOL     OW 5380   4.350   2.737   5.602
 1494SOL    HW1 5381   4.257   2.725   5.636
 1494SOL    HW2 5382   4.350   2.809   5.532
 1495SOL     OW 5383   0.546   3.292   3.509
 1495SOL    HW1 5384   0.450   3.300   3.536
 1495SOL    HW2 5385   0.557   3.214   3.447
 1496SOL     OW 5386   0.857   0.321   1.931
 1496SOL    HW1 5387   0.877   0.265   1.850
 1496SOL    HW2 5388   0.881   0.270   2.014
 1497SOL     OW 5389   0.158   4.212   3.298
 1497SOL    HW1 5390   0.158   4.113   3.307
 1497SOL    HW2 5391   0.233   4.251   3.353
 1498SOL     OW 5392   1.889   5.040   6.442
 1498SOL    HW1 5393   1.930   4.960   6.486
 1498SOL    HW2 5394   1.848   5.013   6.355
 1499SOL     OW 5395   1.188   4.053   5.085
 1499SOL    HW1 5396   1.102   4.105   5.085
 1499SOL    HW2 5397   1.265   4.116   5.075
 1500SOL     OW 5398   5.592   0.110   0.717
 1500SOL    HW1 5399   5.602   0.199   0.762
 1500SOL    HW2 5400   5.571   0.040   0.785
 1501SOL     OW 5401   4.248   0.601   6.234
 1501SOL    HW1 5402   4.199   0.675   6.280
 1501SOL    HW2 5403   4.327   0.638   6.185
 1502SOL     OW 5404   6.349   6.816   0.519
 1502SOL    HW1 5405   6.331   6.752   0.445
 1502SOL    HW2 5406   6.446   6.813   0.543
 1503SOL     OW 5407   2.152   2.520   1.380
 1503SOL    HW1 5408   2.181   2.496   1.472
 1503SOL    HW2 5409   2.106   2.441   1.338
 1504SOL     OW 5410   2.824   0.619   5.015
 1504SOL    HW1 5411   2.755   0.567   5.067
 1504SOL    HW2 5412   2.890   0.555   4.975
 1505SOL     OW 5413   5.147   6.891   6.254
 1505SOL    HW1 5414   5.106   6.855   6.169
 1505SOL    HW2 5415   5.141   6.991   6.254
 1506SOL     OW 5416   1.259   4.773   3.455
 1506SOL    HW1 5417   1.211   4.755   3.369
 1506SOL    HW2 5418   1.310   4.691   3.482
 1507SOL     OW 5419   1.475   1.775   4.704
 1507SOL    HW1 5420   1.497   1.873   4.700
 1507SOL    HW2 5421   1.521   1.727   4.629
 1508SOL     OW 5422   4.498   7.014   1.037
 1508SOL    HW1 5423   4.548   6.998   1.122
 1508SOL    HW2 5424   4.400   6.999   1.053
 1509SOL     OW 5425   4.578   2.702   5.989
 1509SOL    HW1 5426   4.657   2.699   6.051
 1509SOL    HW2 5427   4.513   2.630   6.015
 1510SOL     OW 5428   5.496   2.151   4.148
 1510SOL    HW1 5429   5.477   2.181   4.054
 1510SOL    HW2 5430   5.440   2.070   4.168
 1511SOL     OW 5431   2.128   1.872   0.207
 1511SOL    HW1 5432   2.149   1.776   0.185
 1511SOL    HW2 5433   2.150   1.930   0.129
 1512SOL     OW 5434   6.682   6.659   1.616
 1512SOL    HW1 5435   6.702   6.587   1.549
 1512SOL    HW2 5436   6.660   6.744   1.568
 1513SOL     OW 5437   4.871   1.160   3.766
 1513SOL    HW1 5438   4.838   1.070   3.796
 1513SOL    HW2 5439   4.833   1.231   3.824
 1514SOL     OW 5440   5.380   1.701   4.669
 1514SOL    HW1 5441   5.434   1.680   4.750
 1514SOL    HW2 5442   5.397   1.631   4.599
 1515SOL     OW 5443   0.102   2.764   5.497
 1515SOL    HW1 5444   0.032   2.832   5.479
 1515SOL    HW2 5445   0.061   2.684   5.542
 1516SOL     OW 5446   0.233   0.710   0.680
 1516SOL    HW1 5447   0.139   0.726   0.651
 1516SOL    HW2 5448   0.295   0.731   0.604
 1517SOL     OW 5449   4.582   5.335   3.878
 1517SOL    HW1 5450   4.634   5.348   3.962
 1517SOL    HW2 5451   4.532   5.419   3.856
 1518SOL     OW 5452   6.936   3.545   6.745
 1518SOL    HW1 5453   0.015   3.550   6.771
 1518SOL    HW2 5454   6.891   3.632   6.768
 1519SOL     OW 5455   0.072   4.086   1.571
 1519SOL    HW1 5456   0.092   4.066   1.475
 1519SOL    HW2 5457   0.007   4.018   1.606
 1520SOL     OW 5458   1.865   3.371   2.319
 1520SOL    HW1 5459   1.955   3.355   2.276
 1520SOL    HW2 5460   1.794   3.369   2.249
 1521SOL     OW 5461   1.906   2.966   6.818
 1521SOL    HW1 5462   1.911   3.038   6.888
 1521SOL    HW2 5463   1.997   2.929   6.802
 1522SOL     OW 5464   6.910   1.782   5.588
 1522SOL    HW1 5465   6.963   1.720   5.646
 1522SOL    HW2 5466   6.934   1.877   5.609
 1523SOL     OW 5467   4.957   4.138   6.655
 1523SOL    HW1 5468   4.888   4.121   6.724
 1523SOL    HW2 5469   5.001   4.052   6.629
 1524SOL     OW 5470   0.799   2.349   1.598
 1524SOL    HW1 5471   0.766   2.442   1.583
 1524SOL    HW2 5472   0.814   2.304   1.510
 1525SOL     OW 5473   4.934   2.086   5.789
 1525SOL    HW1 5474   4.842   2.056   5.765
 1525SOL    HW2 5475   4.930   2.145   5.869
 1526SOL     OW 5476   0.465   1.182   1.059
 1526SOL    HW1 5477   0.532   1.108   1.064
 1526SOL    HW2 5478   0.385   1.158   1.114
 1527SOL     OW 5479   3.464   1.337   4.725
 1527SOL    HW1 5480   3.549   1.351   4.674
 1527SOL    HW2 5481   3.445   1.418   4.781
 1528SOL     OW 5482   4.836   5.985   2.925
 1528SOL    HW1 5483   4.877   5.979   3.016
 1528SOL    HW2 5484   4.789   6.073   2.915
 1529SOL     OW 5485   4.651   1.401   5.714
 1529SOL    HW1 5486   4.564   1.427   5.670
 1529SOL    HW2 5487   4.714   1.478   5.710
 1530SOL     OW 5488   3.200   0.718   1.485
 1530SOL    HW1 5489   3.174   0.694   1.579
 1530SOL    HW2 5490   3.290   0.760   1.484
 1531SOL     OW 5491   5.888   1.112   5.394
 1531SOL    HW1 5492   5.806   1.070   5.433
 1531SOL    HW2 5493   5.933   1.047   5.334
 1532SOL     OW 5494   2.629   2.266   4.545
 1532SOL    HW1 5495   2.635   2.366   4.536
 1532SOL    HW2 5496   2.586   2.228   4.463
 1533SOL     OW 5497   0.118   3.621   6.503
 1533SOL    HW1 5498   0.169   3.635   6.418
 1533SOL    HW2 5499   0.043   3.686   6.508
 1534SOL     OW 5500   1.550   5.066   0.163
 1534SOL    HW1 5501   1.584   4.989   0.218
 1534SOL    HW2 5502   1.462   5.097   0.200
 1535SOL     OW 5503   5.766   5.314   4.508
 1535SOL    HW1 5504   5.821   5.339   4.588
 1535SOL    HW2 5505   5.823   5.313   4.427
 1536SOL     OW 5506   3.298   5.004   4.468
 1536SOL    HW1 5507   3.277   5.101   4.472
 1536SOL    HW2 5508   3.224   4.955   4.422
 1537SOL     OW 5509   3.698   5.629   3.848
 1537SOL    HW1 5510   3.741   5.637   3.938
 1537SOL    HW2 5511   3.764   5.593   3.782
 1538SOL     OW 5512   3.624   4.878   5.949
 1538SOL    HW1 5513   3.597   4.869   5.853
 1538SOL    HW2 5514   3.724   4.873   5.956
 1539SOL     OW 5515   4.251   4.205   1.455
 1539SOL    HW1 5516   4.286   4.171   1.367
 1539SOL    HW2 5517   4.327   4.217   1.519
 1540SOL     OW 5518   0.598   0.029   5.002
 1540SOL    HW1 5519   0.645   6.987   4.936
 1540SOL    HW2 5520   0.666   0.080   5.054
 1541SOL     OW 5521   3.636   2.528   1.253
 1541SOL    HW1 5522   3.610   2.566   1.165
 1541SOL    HW2 5523   3.570   2.458   1.280
 1542SOL     OW 5524   6.938   6.321   1.898
 1542SOL    HW1 5525   6.886   6.265   1.834
 1542SOL    HW2 5526   0.018   6.314   1.877
 1543SOL     OW 5527   2.893   3.568   3.333
 1543SOL    HW1 5528   2.948   3.642   3.295
 1543SOL    HW2 5529   2.881   3.582   3.432
 1544SOL     OW 5530   2.960   3.792   2.184
 1544SOL    HW1 5531   3.039   3.735   2.204
 1544SOL    HW2 5532   2.877   3.747   2.218
 1545SOL     OW 5533   5.217   0.687   5.169
 1545SOL    HW1 5534   5.234   0.742   5.252
 1545SOL    HW2 5535   5.304   0.659   5.129
 1546SOL     OW 5536   5.232   0.285   6.004
 1546SOL    HW1 5537   5.189   0.269   6.093
 1546SOL    HW2 5538   5.292   0.209   5.981
 1547SOL     OW 5539   2.117   4.281   2.415
 1547SOL    HW1 5540   2.087   4.193   2.452
 1547SOL    HW2 5541   2.216   4.282   2.408
 1548SOL     OW 5542   4.402   4.273   5.424
 1548SOL    HW1 5543   4.400   4.363   5.467
 1548SOL    HW2 5544   4.433   4.282   5.329
 1549SOL     OW 5545   6.523   1.176   2.083
 1549SOL    HW1 5546   6.528   1.178   1.983
 1549SOL    HW2 5547   6.601   1.224   2.121
 1550SOL     OW 5548   2.983   6.782   5.960
 1550SOL    HW1 5549   2.958   6.803   5.865
 1550SOL    HW2 5550   2.912   6.726   6.002
 1551SOL     OW 5551   1.599   3.315   1.413
 1551SOL    HW1 5552   1.556   3.370   1.485
 1551SOL    HW2 5553   1.698   3.327   1.417
 1552SOL     OW 5554   1.386   6.938   1.501
 1552SOL    HW1 5555   1.371   6.918   1.405
 1552SOL    HW2 5556   1.324   7.010   1.530
 1553SOL     OW 5557   6.275   2.015   5.917
 1553SOL    HW1 5558   6.190   1.971   5.948
 1553SOL    HW2 5559   6.334   1.947   5.873
 1554SOL     OW 5560   3.861   2.194   3.143
 1554SOL    HW1 5561   3.764   2.172   3.157
 1554SOL    HW2 5562   3.890   2.162   3.053
 1555SOL     OW 5563   5.057   2.280   5.327
 1555SOL    HW1 5564   5.018   2.193   5.296
 1555SOL    HW2 5565   5.157   2.277   5.319
 1556SOL     OW 5566   3.503   0.705   0.551
 1556SOL    HW1 5567   3.430   0.661   0.604
 1556SOL    HW2 5568   3.579   0.728   0.611
 1557SOL     OW 5569   2.454   2.628   1.077
 1557SOL    HW1 5570   2.480   2.632   0.980
 1557SOL    HW2 5571   2.530   2.590   1.130
 1558SOL     OW 5572   5.928   2.293   4.871
 1558SOL    HW1 5573   5.927   2.305   4.772
 1558SOL    HW2 5574   5.975   2.371   4.913
 1559SOL     OW 5575   0.387   3.567   1.325
 1559SOL    HW1 5576   0.447   3.543   1.248
 1559SOL    HW2 5577   0.296   3.590   1.290
 1560SOL     OW 5578   3.184   1.218   6.617
 1560SOL    HW1 5579   3.204   1.233   6.714
 1560SOL    HW2 5580   3.130   1.295   6.582
 1561SOL     OW 5581   5.019   5.979   3.141
 1561SOL    HW1 5582   4.998   5.938   3.229
 1561SOL    HW2 5583   5.099   5.934   3.101
 1562SOL     OW 5584   3.502   6.213   2.067
 1562SOL    HW1 5585   3.428   6.238   2.005
 1562SOL    HW2 5586   3.583   6.268   2.047
 1563SOL     OW 5587   3.045   2.046   4.967
 1563SOL    HW1 5588   2.957   2.094   4.962
 1563SOL    HW2 5589   3.119   2.113   4.976
 1564SOL     OW 5590   1.052   1.513   2.466
 1564SOL    HW1 5591   1.047   1.612   2.482
 1564SOL    HW2 5592   0.960   1.478   2.449
 1565SOL     OW 5593   4.255   5.532   4.906
 1565SOL    HW1 5594   4.197   5.505   4.829
 1565SOL    HW2 5595   4.215   5.612   4.951
 1566SOL     OW 5596   6.236   4.804   4.070
 1566SOL    HW1 5597   6.260   4.723   4.016
 1566SOL    HW2 5598   6.205   4.776   4.160
 1567SOL     OW 5599   5.936   5.171   6.584
 1567SOL    HW1 5600   5.901   5.251   6.633
 1567SOL    HW2 5601   5.975   5.106   6.649
 1568SOL     OW 5602   2.679   6.146   3.551
 1568SOL    HW1 5603   2.711   6.076   3.615
 1568SOL    HW2 5604   2.580   6.137   3.538
 1569SOL     OW 5605   3.857   0.511   3.211
 1569SOL    HW1 5606   3.837   0.607   3.231
 1569SOL    HW2 5607   3.877   0.464   3.297
 1570SOL     OW 5608   2.534   6.701   6.534
 1570SOL    HW1 5609   2.456   6.759   6.558
 1570SOL    HW2 5610   2.509   6.640   6.459
 1571SOL     OW 5611   0.938   3.294   3.706
 1571SOL    HW1 5612   0.872   3.345   3.762
 1571SOL    HW2 5613   0.889   3.223   3.654
 1572SOL     OW 5614   1.757   5.277   2.165
 1572SOL    HW1 5615   1.679   5.272   2.102
 1572SOL    HW2 5616   1.838   5.240   2.120
 1573SOL     OW 5617   5.613   5.050   2.227
 1573SOL    HW1 5618   5.618   4.957   2.264
 1573SOL    HW2 5619   5.678   5.059   2.151
 1574SOL     OW 5620   6.314   3.067   2.179
 1574SOL    HW1 5621   6.345   2.974   2.159
 1574SOL    HW2 5622   6.229   3.086   2.130
 1575SOL     OW 5623   2.054   0.644   1.941
 1575SOL    HW1 5624   2.122   0.596   1.886
 1575SOL    HW2 5625   2.036   0.734   1.901
 1576SOL     OW 5626   1.359   6.188   3.029
 1576SOL    HW1 5627   1.263   6.194   3.001
 1576SOL    HW2 5628   1.364   6.188   3.129
 1577SOL     OW 5629   2.569   0.743   6.279
 1577SOL    HW1 5630   2.611   0.703   6.198
 1577SOL    HW2 5631   2.474   0.768   6.258
 1578SOL     OW 5632   4.605   0.880   6.525
 1578SOL    HW1 5633   4.673   0.892   6.596
 1578SOL    HW2 5634   4.540   0.956   6.527
 1579SOL     OW 5635   0.389   2.842   1.575
 1579SOL    HW1 5636   0.474   2.891   1.594
 1579SOL    HW2 5637   0.311   2.896   1.607
 1580SOL     OW 5638   3.132   4.013   2.765
 1580SOL    HW1 5639   3.175   3.971   2.685
 1580SOL    HW2 5640   3.112   4.109   2.746
 1581SOL     OW 5641   6.810   4.509   5.489
 1581SOL    HW1 5642   6.878   4.559   5.436
 1581SOL    HW2 5643   6.730   4.566   5.504
 1582SOL     OW 5644   3.775   5.775   4.916
 1582SOL    HW1 5645   3.689   5.824   4.908
 1582SOL    HW2 5646   3.772   5.714   4.996
 1583SOL     OW 5647   0.418   5.533   4.878
 1583SOL    HW1 5648   0.370   5.619   4.898
 1583SOL    HW2 5649   0.514   5.552   4.858
 1584SOL     OW 5650   1.908   4.811   6.967
 1584SOL    HW1 5651   1.947   4.807   0.042
 1584SOL    HW2 5652   1.902   4.906   6.937
 1585SOL     OW 5653   4.093   1.320   3.150
 1585SOL    HW1 5654   4.029   1.269   3.208
 1585SOL    HW2 5655   4.042   1.384   3.093
 1586SOL     OW 5656   2.866   4.775   3.221
 1586SOL    HW1 5657   2.894   4.801   3.128
 1586SOL    HW2 5658   2.948   4.760   3.277
 1587SOL     OW 5659   1.676   5.239   5.385
 1587SOL    HW1 5660   1.579   5.258   5.370
 1587SOL    HW2 5661   1.699   5.149   5.347
 1588SOL     OW 5662   4.631   0.584   2.497
 1588SOL    HW1 5663   4.686   0.666   2.487
 1588SOL    HW2 5664   4.656   0.517   2.426
 1589SOL     OW 5665   6.733   3.429   2.793
 1589SOL    HW1 5666   6.714   3.404   2.888
 1589SOL    HW2 5667   6.779   3.518   2.791
 1590SOL     OW 5668   5.513   1.126   3.530
 1590SOL    HW1 5669   5.419   1.111   3.499
 1590SOL    HW2 5670   5.537   1.059   3.601
 1591SOL     OW 5671   6.854   5.621   1.481
 1591SOL    HW1 5672   6.769   5.654   1.523
 1591SOL    HW2 5673   6.927   5.688   1.496
 1592SOL     OW 5674   1.580   4.031   0.192
 1592SOL    HW1 5675   1.627   4.111   0.230
 1592SOL    HW2 5676   1.617   4.012   0.101
 1593SOL     OW 5677   0.736   0.074   6.400
 1593SOL    HW1 5678   0.722   0.173   6.404
 1593SOL    HW2 5679   0.652   0.028   6.429
 1594SOL     OW 5680   0.156   6.392   1.763
 1594SOL    HW1 5681   0.127   6.344   1.680
 1594SOL    HW2 5682   0.209   6.473   1.738
 1595SOL     OW 5683   1.212   4.303   0.685
 1595SOL    HW1 5684   1.203   4.359   0.603
 1595SOL    HW2 5685   1.306   4.270   0.693
 1596SOL     OW 5686   6.342   2.945   2.446
 1596SOL    HW1 5687   6.246   2.917   2.446
 1596SOL    HW2 5688   6.361   3.001   2.365
 1597SOL     OW 5689   2.771   5.967   1.437
 1597SOL    HW1 5690   2.818   5.942   1.522
 1597SOL    HW2 5691   2.802   5.908   1.363
 1598SOL     OW 5692   1.196   5.588   6.264
 1598SOL    HW1 5693   1.282   5.539   6.269
 1598SOL    HW2 5694   1.125   5.528   6.226
 1599SOL     OW 5695   4.625   4.914   5.142
 1599SOL    HW1 5696   4.602   5.009   5.118
 1599SOL    HW2 5697   4.574   4.852   5.083
 1600SOL     OW 5698   2.846   0.976   1.904
 1600SOL    HW1 5699   2.835   0.983   1.805
 1600SOL    HW2 5700   2.874   0.883   1.929
 1601SOL     OW 5701   0.045   6.611   4.130
 1601SOL    HW1 5702   0.089   6.593   4.042
 1601SOL    HW2 5703   6.985   6.548   4.142
 1602SOL     OW 5704   4.825   5.313   4.447
 1602SOL    HW1 5705   4.842   5.411   4.439
 1602SOL    HW2 5706   4.909   5.267   4.476
 1603SOL     OW 5707   2.657   5.196   3.961
 1603SOL    HW1 5708   2.677   5.179   4.057
 1603SOL    HW2 5709   2.597   5.276   3.953
 1604SOL     OW 5710   4.078   5.143   1.399
 1604SOL    HW1 5711   4.010   5.169   1.330
 1604SOL    HW2 5712   4.038   5.154   1.490
 1605SOL     OW 5713   6.398   5.614   1.137
 1605SOL    HW1 5714   6.382   5.711   1.156
 1605SOL    HW2 5715   6.309   5.568   1.124
 1606SOL     OW 5716   4.103   5.744   5.335
 1606SOL    HW1 5717   4.049   5.828   5.332
 1606SOL    HW2 5718   4.196   5.763   5.302
 1607SOL     OW 5719   4.286   0.290   1.019
 1607SOL    HW1 5720   4.306   0.204   0.971
 1607SOL    HW2 5721   4.305   0.367   0.959
 1608SOL     OW 5722   0.021   1.282   2.688
 1608SOL    HW1 5723   6.974   1.307   2.615
 1608SOL    HW2 5724   0.008   1.343   2.766
 1609SOL     OW 5725   3.348   0.400   0.846
 1609SOL    HW1 5726   3.406   0.319   0.839
 1609SOL    HW2 5727   3.390   0.465   0.909
 1610SOL     OW 5728   5.138   6.297   0.998
 1610SOL    HW1 5729   5.197   6.320   1.076
 1610SOL    HW2 5730   5.098   6.206   1.012
 1611SOL     OW 5731   1.574   3.316   0.805
 1611SOL    HW1 5732   1.520   3.239   0.841
 1611SOL    HW2 5733   1.567   3.394   0.867
 1612SOL     OW 5734   3.389   6.516   1.237
 1612SOL    HW1 5735   3.363   6.604   1.195
 1612SOL    HW2 5736   3.354   6.513   1.330
 1613SOL     OW 5737   0.547   5.625   2.271
 1613SOL    HW1 5738   0.614   5.627   2.198
 1613SOL    HW2 5739   0.593   5.637   2.359
 1614SOL     OW 5740   5.583   2.096   5.800
 1614SOL    HW1 5741   5.561   2.155   5.877
 1614SOL    HW2 5742   5.572   2.000   5.827
 1615SOL     OW 5743   6.467   5.453   6.472
 1615SOL    HW1 5744   6.453   5.529   6.535
 1615SOL    HW2 5745   6.559   5.416   6.484
 1616SOL     OW 5746   4.367   0.490   3.614
 1616SOL    HW1 5747   4.454   0.478   3.662
 1616SOL    HW2 5748   4.301   0.532   3.676
 1617SOL     OW 5749   4.902   6.238   3.173
 1617SOL    HW1 5750   4.851   6.260   3.089
 1617SOL    HW2 5751   4.949   6.151   3.161
 1618SOL     OW 5752   0.999   5.537   2.096
 1618SOL    HW1 5753   1.070   5.559   2.163
 1618SOL    HW2 5754   1.019   5.584   2.010
 1619SOL     OW 5755   0.365   5.608   6.858
 1619SOL    HW1 5756   0.325   5.529   6.905
 1619SOL    HW2 5757   0.384   5.583   6.763
 1620SOL     OW 5758   2.965   4.784   1.626
 1620SOL    HW1 5759   3.026   4.748   1.697
 1620SOL    HW2 5760   2.870   4.763   1.650
 1621SOL     OW 5761   5.623   0.287   0.919
 1621SOL    HW1 5762   5.628   0.386   0.933
 1621SOL    HW2 5763   5.541   0.252   0.964
 1622SOL     OW 5764   0.653   3.886   5.470
 1622SOL    HW1 5765   0.567   3.904   5.424
 1622SOL    HW2 5766   0.708   3.822   5.416
 1623SOL     OW 5767   6.971   2.098   4.761
 1623SOL    HW1 5768   6.899   2.054   4.708
 1623SOL    HW2 5769   6.965   2.197   4.749
 1624SOL     OW 5770   4.187   1.785   6.558
 1624SOL    HW1 5771   4.093   1.790   6.590
 1624SOL    HW2 5772   4.232   1.706   6.600
 1625SOL     OW 5773   1.573   5.257   6.643
 1625SOL    HW1 5774   1.642   5.267   6.571
 1625SOL    HW2 5775   1.497   5.319   6.625
 1626SOL     OW 5776   3.658   1.536   1.561
 1626SOL    HW1 5777   3.634   1.610   1.498
 1626SOL    HW2 5778   3.615   1.552   1.650
 1627SOL     OW 5779   5.434   2.656   3.455
 1627SOL    HW1 5780   5.459   2.728   3.520
 1627SOL    HW2 5781   5.511   2.638   3.394
 1628SOL     OW 5782   4.582   5.214   6.774
 1628SOL    HW1 5783   4.600   5.118   6.796
 1628SOL    HW2 5784   4.629   5.273   6.839
 1629SOL     OW 5785   2.296   1.028   3.352
 1629SOL    HW1 5786   2.209   1.000   3.392
 1629SOL    HW2 5787   2.282   1.108   3.293
 1630SOL     OW 5788   0.248   4.478   5.400
 1630SOL    HW1 5789   0.210   4.458   5.490
 1630SOL    HW2 5790   0.190   4.436   5.329
 1631SOL     OW 5791   0.160   2.910   0.751
 1631SOL    HW1 5792   0.233   2.978   0.747
 1631SOL    HW2 5793   0.192   2.828   0.798
 1632SOL     OW 5794   4.748   4.146   2.745
 1632SOL    HW1 5795   4.732   4.112   2.653
 1632SOL    HW2 5796   4.704   4.235   2.757
 1633SOL     OW 5797   5.129   4.181   4.993
 1633SOL    HW1 5798   5.227   4.185   4.969
 1633SOL    HW2 5799   5.080   4.133   4.921
 1634SOL     OW 5800   4.510   0.884   4.121
 1634SOL    HW1 5801   4.443   0.949   4.084
 1634SOL    HW2 5802   4.504   0.883   4.221
 1635SOL     OW 5803   1.303   5.251   6.459
 1635SOL    HW1 5804   1.319   5.339   6.414
 1635SOL    HW2 5805   1.241   5.264   6.537
 1636SOL     OW 5806   3.452   5.608   1.307
 1636SOL    HW1 5807   3.373   5.642   1.256
 1636SOL    HW2 5808   3.424   5.586   1.401
 1637SOL     OW 5809   6.411   0.132   3.534
 1637SOL    HW1 5810   6.473   0.054   3.528
 1637SOL    HW2 5811   6.360   0.129   3.620
 1638SOL     OW 5812   0.641   3.160   1.982
 1638SOL    HW1 5813   0.569   3.184   2.047
 1638SOL    HW2 5814   0.693   3.242   1.957
 1639SOL     OW 5815   6.179   4.747   2.062
 1639SOL    HW1 5816   6.093   4.768   2.109
 1639SOL    HW2 5817   6.168   4.760   1.964
 1640SOL     OW 5818   6.793   0.103   0.177
 1640SOL    HW1 5819   6.798   0.167   0.100
 1640SOL    HW2 5820   6.736   0.142   0.249
 1641SOL     OW 5821   6.771   2.871   3.869
 1641SOL    HW1 5822   6.682   2.825   3.870
 1641SOL    HW2 5823   6.840   2.813   3.911
 1642SOL     OW 5824   6.925   2.917   6.531
 1642SOL    HW1 5825   6.934   2.909   6.432
 1642SOL    HW2 5826   6.877   2.838   6.567
 1643SOL     OW 5827   2.625   4.717   3.383
 1643SOL    HW1 5828   2.536   4.752   3.354
 1643SOL    HW2 5829   2.693   4.736   3.312
 1644SOL     OW 5830   5.632   3.161   6.701
 1644SOL    HW1 5831   5.576   3.132   6.624
 1644SOL    HW2 5832   5.626   3.260   6.712
 1645SOL     OW 5833   2.945   6.529   6.547
 1645SOL    HW1 5834   2.921   6.616   6.591
 1645SOL    HW2 5835   2.874   6.505   6.481
 1646SOL     OW 5836   1.825   6.341   0.439
 1646SOL    HW1 5837   1.767   6.293   0.505
 1646SOL    HW2 5838   1.848   6.279   0.364
 1647SOL     OW 5839   5.811   2.486   4.228
 1647SOL    HW1 5840   5.901   2.490   4.273
 1647SOL    HW2 5841   5.781   2.391   4.222
 1648SOL     OW 5842   5.493   6.596   0.562
 1648SOL    HW1 5843   5.514   6.520   0.501
 1648SOL    HW2 5844   5.534   6.580   0.652
 1649SOL     OW 5845   3.719   1.390   4.325
 1649SOL    HW1 5846   3.759   1.358   4.239
 1649SOL    HW2 5847   3.630   1.430   4.307
 1650SOL     OW 5848   1.094   5.832   5.459
 1650SOL    HW1 5849   1.076   5.823   5.557
 1650SOL    HW2 5850   1.182   5.789   5.438
 1651SOL     OW 5851   0.377   2.036   2.985
 1651SOL    HW1 5852   0.336   1.956   3.027
 1651SOL    HW2 5853   0.384   2.022   2.886
 1652SOL     OW 5854   1.189   3.804   2.096
 1652SOL    HW1 5855   1.126   3.736   2.057
 1652SOL    HW2 5856   1.282   3.767   2.097
 1653SOL     OW 5857   7.016   5.813   1.544
 1653SOL    HW1 5858   6.937   5.873   1.553
 1653SOL    HW2 5859   0.042   5.800   1.633
 1654SOL     OW 5860   0.154   3.374   1.116
 1654SOL    HW1 5861   0.170   3.467   1.149
 1654SOL    HW2 5862   0.221   3.351   1.045
 1655SOL     OW 5863   6.653   1.302   4.112
 1655SOL    HW1 5864   6.559   1.291   4.079
 1655SOL    HW2 5865   6.667   1.242   4.190
 1656SOL     OW 5866   2.139   5.386   2.961
 1656SOL    HW1 5867   2.075   5.414   3.033
 1656SOL    HW2 5868   2.189   5.305   2.991
 1657SOL     OW 5869   6.143   0.221   4.087
 1657SOL    HW1 5870   6.084   0.195   4.163
 1657SOL    HW2 5871   6.213   0.151   4.074
 1658SOL     OW 5872   6.507   0.429   0.851
 1658SOL    HW1 5873   6.443   0.444   0.776
 1658SOL    HW2 5874   6.560   0.513   0.866
 1659SOL     OW 5875   3.686   7.008   0.075
 1659SOL    HW1 5876   3.664   0.076   0.124
 1659SOL    HW2 5877   3.607   6.980   0.020
 1660SOL     OW 5878   1.885   6.674   2.893
 1660SOL    HW1 5879   1.812   6.715   2.838
 1660SOL    HW2 5880   1.935   6.607   2.838
 1661SOL     OW 5881   2.784   5.697   1.783
 1661SOL    HW1 5882   2.686   5.703   1.764
 1661SOL    HW2 5883   2.799   5.695   1.882
 1662SOL     OW 5884   6.729   0.344   4.719
 1662SOL    HW1 5885   6.811   0.347   4.777
 1662SOL    HW2 5886   6.734   0.416   4.650
 1663SOL     OW 5887   4.900   5.431   2.691
 1663SOL    HW1 5888   4.925   5.366   2.763
 1663SOL    HW2 5889   4.940   5.403   2.604
 1664SOL     OW 5890   2.374   6.084   5.476
 1664SOL    HW1 5891   2.424   6.028   5.541
 1664SOL    HW2 5892   2.435   6.114   5.403
 1665SOL     OW 5893   0.039   3.722   1.623
 1665SOL    HW1 5894   6.967   3.763   1.640
 1665SOL    HW2 5895   0.033   3.658   1.547
 1666SOL     OW 5896   5.623   0.115   0.434
 1666SOL    HW1 5897   5.639   0.127   0.532
 1666SOL    HW2 5898   5.537   0.066   0.420
 1667SOL     OW 5899   6.613   6.193   1.877
 1667SOL    HW1 5900   6.522   6.208   1.839
 1667SOL    HW2 5901   6.607   6.188   1.977
 1668SOL     OW 5902   5.010   4.594   3.355
 1668SOL    HW1 5903   5.062   4.558   3.433
 1668SOL    HW2 5904   4.940   4.527   3.329
 1669SOL     OW 5905   6.672   4.504   5.880
 1669SOL    HW1 5906   6.734   4.430   5.905
 1669SOL    HW2 5907   6.627   4.483   5.794
 1670SOL     OW 5908   0.411   4.572   4.911
 1670SOL    HW1 5909   0.342   4.637   4.941
 1670SOL    HW2 5910   0.398   4.485   4.958
 1671SOL     OW 5911   5.730   0.844   3.134
 1671SOL    HW1 5912   5.701   0.929   3.178
 1671SOL    HW2 5913   5.766   0.781   3.204
 1672SOL     OW 5914   2.202   4.101   6.356
 1672SOL    HW1 5915   2.193   4.192   6.316
 1672SOL    HW2 5916   2.131   4.087   6.425
 1673SOL     OW 5917   1.670   1.440   5.178
 1673SOL    HW1 5918   1.731   1.425   5.256
 1673SOL    HW2 5919   1.640   1.536   5.178
 1674SOL     OW 5920   0.139   3.181   2.387
 1674SOL    HW1 5921   0.201   3.117   2.433
 1674SOL    HW2 5922   0.128   3.263   2.443
 1675SOL     OW 5923   5.045   0.024   6.901
 1675SOL    HW1 5924   4.980   0.093   6.871
 1675SOL    HW2 5925   5.119   0.067   6.953
 1676SOL     OW 5926   2.375   2.162   2.135
 1676SOL    HW1 5927   2.353   2.160   2.037
 1676SOL    HW2 5928   2.473   2.172   2.147
 1677SOL     OW 5929   4.123   3.721   3.476
 1677SOL    HW1 5930   4.023   3.712   3.484
 1677SOL    HW2 5931   4.168   3.657   3.538
 1678SOL     OW 5932   0.110   5.613   1.897
 1678SOL    HW1 5933   0.018   5.581   1.875
 1678SOL    HW2 5934   0.174   5.577   1.830
 1679SOL     OW 5935   2.085   1.356   5.099
 1679SOL    HW1 5936   2.090   1.415   5.179
 1679SOL    HW2 5937   2.121   1.265   5.123
 1680SOL     OW 5938   6.144   3.712   5.311
 1680SOL    HW1 5939   6.113   3.801   5.344
 1680SOL    HW2 5940   6.165   3.718   5.214
 1681SOL     OW 5941   1.607   6.111   5.653
 1681SOL    HW1 5942   1.696   6.082   5.687
 1681SOL    HW2 5943   1.613   6.205   5.619
 1682SOL     OW 5944   2.219   0.897   5.521
 1682SOL    HW1 5945   2.271   0.951   5.587
 1682SOL    HW2 5946   2.121   0.910   5.536
 1683SOL     OW 5947   6.328   5.527   2.795
 1683SOL    HW1 5948   6.230   5.548   2.799
 1683SOL    HW2 5949   6.375   5.573   2.869
 1684SOL     OW 5950   0.272   5.570   2.367
 1684SOL    HW1 5951   0.207   5.584   2.442
 1684SOL    HW2 5952   0.314   5.657   2.343
 1685SOL     OW 5953   2.201   1.652   5.976
 1685SOL    HW1 5954   2.285   1.689   5.937
 1685SOL    HW2 5955   2.214   1.555   5.997
 1686SOL     OW 5956   3.431   5.851   4.337
 1686SOL    HW1 5957   3.495   5.928   4.342
 1686SOL    HW2 5958   3.476   5.773   4.294
 1687SOL     OW 5959   0.414   3.094   1.743
 1687SOL    HW1 5960   0.508   3.068   1.768
 1687SOL    HW2 5961   0.413   3.129   1.650
 1688SOL     OW 5962   1.464   1.393   4.136
 1688SOL    HW1 5963   1.375   1.402   4.181
 1688SOL    HW2 5964   1.451   1.371   4.040
 1689SOL     OW 5965   6.333   0.611   2.481
 1689SOL    HW1 5966   6.261   0.601   2.413
 1689SOL    HW2 5967   6.324   0.698   2.528
 1690SOL     OW 5968   0.949   3.337   4.862
 1690SOL    HW1 5969   1.004   3.275   4.918
 1690SOL    HW2 5970   0.860   3.296   4.843
 1691SOL     OW 5971   5.432   3.032   4.082
 1691SOL    HW1 5972   5.348   3.022   4.135
 1691SOL    HW2 5973   5.500   2.965   4.114
 1692SOL     OW 5974   4.785   6.059   1.751
 1692SOL    HW1 5975   4.703   6.002   1.747
 1692SOL    HW2 5976   4.759   6.155   1.744
 1693SOL     OW 5977   6.804   2.154   3.942
 1693SOL    HW1 5978   6.849   2.099   4.013
 1693SOL    HW2 5979   6.738   2.098   3.892
 1694SOL     OW 5980   6.349   1.285   4.081
 1694SOL    HW1 5981   6.323   1.341   4.002
 1694SOL    HW2 5982   6.287   1.304   4.157
 1695SOL     OW 5983   3.452   0.329   6.701
 1695SOL    HW1 5984   3.547   0.342   6.730
 1695SOL    HW2 5985   3.420   0.411   6.653
 1696SOL     OW 5986   3.798   6.317   0.897
 1696SOL    HW1 5987   3.832   6.391   0.955
 1696SOL    HW2 5988   3.784   6.350   0.804
 1697SOL     OW 5989   6.222   2.359   1.185
 1697SOL    HW1 5990   6.206   2.425   1.112
 1697SOL    HW2 5991   6.305   2.307   1.166
 1698SOL     OW 5992   3.994   0.849   1.232
 1698SOL    HW1 5993   4.091   0.829   1.250
 1698SOL    HW2 5994   3.972   0.940   1.268
 1699SOL     OW 5995   2.426   1.750   5.867
 1699SOL    HW1 5996   2.510   1.708   5.902
 1699SOL    HW2 5997   2.446   1.845   5.840
 1700SOL     OW 5998   6.044   3.785   2.992
 1700SOL    HW1 5999   5.984   3.762   3.068
 1700SOL    HW2 6000   6.101   3.864   3.017
 1701SOL     OW 6001   5.870   5.782   5.337
 1701SOL    HW1 6002   5.773   5.803   5.349
 1701SOL    HW2 6003   5.924   5.837   5.401
 1702SOL     OW 6004   0.370   1.394   0.933
 1702SOL    HW1 6005   0.338   1.358   0.845
 1702SOL    HW2 6006   0.414   1.321   0.984
 1703SOL     OW 6007   3.876   1.418   6.469
 1703SOL    HW1 6008   3.970   1.416   6.504
 1703SOL    HW2 6009   3.827   1.496   6.509
 1704SOL     OW 6010   1.642   2.282   0.330
 1704SOL    HW1 6011   1.737   2.306   0.350
 1704SOL    HW2 6012   1.589   2.366   0.318
 1705SOL     OW 6013   3.470   2.445   1.685
 1705SOL    HW1 6014   3.380   2.400   1.686
 1705SOL    HW2 6015   3.534   2.391   1.740
 1706SOL     OW 6016   4.384   2.031   1.613
 1706SOL    HW1 6017   4.368   2.063   1.706
 1706SOL    HW2 6018   4.296   2.022   1.566
 1707SOL     OW 6019   4.906   2.598   2.815
 1707SOL    HW1 6020   4.959   2.625   2.734
 1707SOL    HW2 6021   4.809   2.606   2.794
 1708SOL     OW 6022   4.247   5.336   1.416
 1708SOL    HW1 6023   4.192   5.413   1.448
 1708SOL    HW2 6024   4.186   5.260   1.391
 1709SOL     OW 6025   3.571   6.805   1.356
 1709SOL    HW1 6026   3.608   6.781   1.266
 1709SOL    HW2 6027   3.478   6.840   1.345
 1710SOL     OW 6028   3.725   5.236   3.768
 1710SOL    HW1 6029   3.673   5.310   3.725
 1710SOL    HW2 6030   3.686   5.216   3.858
 1711SOL     OW 6031   2.150   4.756   4.891
 1711SOL    HW1 6032   2.165   4.667   4.932
 1711SOL    HW2 6033   2.090   4.747   4.811
 1712SOL     OW 6034   0.012   1.518   4.817
 1712SOL    HW1 6035   0.063   1.480   4.740
 1712SOL    HW2 6036   6.941   1.554   4.785
 1713SOL     OW 6037   4.435   1.675   2.474
 1713SOL    HW1 6038   4.356   1.723   2.512
 1713SOL    HW2 6039   4.407   1.621   2.395
 1714SOL     OW 6040   4.308   1.485   6.464
 1714SOL    HW1 6041   4.397   1.463   6.424
 1714SOL    HW2 6042   4.321   1.519   6.557
 1715SOL     OW 6043   2.420   5.430   3.133
 1715SOL    HW1 6044   2.480   5.494   3.086
 1715SOL    HW2 6045   2.369   5.478   3.204
 1716SOL     OW 6046   4.258   0.202   3.682
 1716SOL    HW1 6047   4.309   0.286   3.699
 1716SOL    HW2 6048   4.199   0.214   3.602
 1717SOL     OW 6049   3.654   5.439   5.009
 1717SOL    HW1 6050   3.594   5.463   4.933
 1717SOL    HW2 6051   3.609   5.370   5.066
 1718SOL     OW 6052   2.635   1.658   2.220
 1718SOL    HW1 6053   2.687   1.711   2.153
 1718SOL    HW2 6054   2.666   1.682   2.312
 1719SOL     OW 6055   2.163   3.560   0.988
 1719SOL    HW1 6056   2.165   3.660   0.988
 1719SOL    HW2 6057   2.068   3.528   1.000
 1720SOL     OW 6058   6.994   2.601   6.080
 1720SOL    HW1 6059   0.013   2.515   6.043
 1720SOL    HW2 6060   6.929   2.581   6.154
 1721SOL     OW 6061   1.651   0.178   1.296
 1721SOL    HW1 6062   1.686   0.146   1.385
 1721SOL    HW2 6063   1.570   0.234   1.311
 1722SOL     OW 6064   4.354   1.314   3.486
 1722SOL    HW1 6065   4.394   1.300   3.576
 1722SOL    HW2 6066   4.422   1.292   3.416
 1723SOL     OW 6067   4.440   2.379   0.300
 1723SOL    HW1 6068   4.471   2.464   0.341
 1723SOL    HW2 6069   4.505   2.306   0.321
 1724SOL     OW 6070   6.547   2.544   1.700
 1724SOL    HW1 6071   6.490   2.474   1.745
 1724SOL    HW2 6072   6.571   2.615   1.766
 1725SOL     OW 6073   1.876   5.284   6.728
 1725SOL    HW1 6074   1.873   5.333   6.641
 1725SOL    HW2 6075   1.954   5.315   6.782
 1726SOL     OW 6076   5.444   3.970   4.794
 1726SOL    HW1 6077   5.364   3.922   4.758
 1726SOL    HW2 6078   5.526   3.936   4.748
 1727SOL     OW 6079   3.720   3.623   3.267
 1727SOL    HW1 6080   3.650   3.628   3.197
 1727SOL    HW2 6081   3.811   3.623   3.224
 1728SOL     OW 6082   5.096   4.527   5.610
 1728SOL    HW1 6083   5.180   4.540   5.663
 1728SOL    HW2 6084   5.118   4.526   5.513
 1729SOL     OW 6085   1.304   3.892   3.201
 1729SOL    HW1 6086   1.250   3.820   3.157
 1729SOL    HW2 6087   1.359   3.940   3.133
 1730SOL     OW 6088   2.984   0.156   5.227
 1730SOL    HW1 6089   2.933   0.071   5.217
 1730SOL    HW2 6090   3.055   0.161   5.156
 1731SOL     OW 6091   6.180   4.599   3.492
 1731SOL    HW1 6092   6.091   4.575   3.531
 1731SOL    HW2 6093   6.248   4.530   3.520
 1732SOL     OW 6094   1.888   4.494   6.404
 1732SOL    HW1 6095   1.962   4.551   6.369
 1732SOL    HW2 6096   1.822   4.550   6.453
 1733SOL     OW 6097   2.374   3.792   1.562
 1733SOL    HW1 6098   2.287   3.831   1.531
 1733SOL    HW2 6099   2.449   3.837   1.514
 1734SOL     OW 6100   5.510   2.738   1.596
 1734SOL    HW1 6101   5.421   2.783   1.599
 1734SOL    HW2 6102   5.558   2.765   1.512
 1735SOL     OW 6103   4.469   5.609   5.584
 1735SOL    HW1 6104   4.400   5.675   5.612
 1735SOL    HW2 6105   4.434   5.516   5.599
 1736SOL     OW 6106   3.510   3.697   0.523
 1736SOL    HW1 6107   3.541   3.633   0.452
 1736SOL    HW2 6108   3.493   3.647   0.608
 1737SOL     OW 6109   5.013   6.797   4.805
 1737SOL    HW1 6110   4.984   6.869   4.868
 1737SOL    HW2 6111   5.072   6.835   4.734
 1738SOL     OW 6112   1.939   3.299   4.262
 1738SOL    HW1 6113   2.035   3.322   4.248
 1738SOL    HW2 6114   1.885   3.336   4.186
 1739SOL     OW 6115   6.199   0.684   4.130
 1739SOL    HW1 6116   6.118   0.736   4.158
 1739SOL    HW2 6117   6.244   0.730   4.054
 1740SOL     OW 6118   6.310   1.528   5.253
 1740SOL    HW1 6119   6.263   1.471   5.186
 1740SOL    HW2 6120   6.282   1.623   5.242
 1741SOL     OW 6121   2.890   1.111   4.299
 1741SOL    HW1 6122   2.970   1.135   4.353
 1741SOL    HW2 6123   2.908   1.129   4.203
 1742SOL     OW 6124   5.572   0.928   5.946
 1742SOL    HW1 6125   5.559   0.859   6.017
 1742SOL    HW2 6126   5.595   1.016   5.988
 1743SOL     OW 6127   1.037   1.122   2.681
 1743SOL    HW1 6128   1.005   1.122   2.587
 1743SOL    HW2 6129   1.108   1.192   2.693
 1744SOL     OW 6130   5.722   2.479   2.694
 1744SOL    HW1 6131   5.810   2.524   2.681
 1744SOL    HW2 6132   5.650   2.531   2.649
 1745SOL     OW 6133   6.244   6.325   2.224
 1745SOL    HW1 6134   6.231   6.248   2.287
 1745SOL    HW2 6135   6.268   6.290   2.133
 1746SOL     OW 6136   2.156   3.943   4.057
 1746SOL    HW1 6137   2.100   4.021   4.028
 1746SOL    HW2 6138   2.227   3.975   4.119
 1747SOL     OW 6139   3.508   1.812   2.050
 1747SOL    HW1 6140   3.498   1.733   2.110
 1747SOL    HW2 6141   3.424   1.824   1.996
 1748SOL     OW 6142   6.080   1.388   4.301
 1748SOL    HW1 6143   6.113   1.319   4.365
 1748SOL    HW2 6144   6.138   1.469   4.306
 1749SOL     OW 6145   2.748   6.793   0.004
 1749SOL    HW1 6146   2.795   6.715   0.045
 1749SOL    HW2 6147   2.685   6.761   6.950
 1750SOL     OW 6148   4.928   0.478   3.998
 1750SOL    HW1 6149   4.923   0.551   3.931
 1750SOL    HW2 6150   4.835   0.446   4.019
 1751SOL     OW 6151   5.699   1.861   4.839
 1751SOL    HW1 6152   5.674   1.958   4.844
 1751SOL    HW2 6153   5.627   1.805   4.879
 1752SOL     OW 6154   5.840   0.252   1.436
 1752SOL    HW1 6155   5.749   0.292   1.450
 1752SOL    HW2 6156   5.875   0.218   1.523
 1753SOL     OW 6157   6.822   1.283   1.797
 1753SOL    HW1 6158   6.735   1.236   1.782
 1753SOL    HW2 6159   6.806   1.371   1.840
 1754SOL     OW 6160   1.692   5.594   6.299
 1754SOL    HW1 6161   1.634   5.625   6.375
 1754SOL    HW2 6162   1.761   5.664   6.280
 1755SOL     OW 6163   0.221   6.025   6.358
 1755SOL    HW1 6164   0.219   5.958   6.283
 1755SOL    HW2 6165   0.265   5.983   6.438
 1756SOL     OW 6166   3.810   6.267   6.442
 1756SOL    HW1 6167   3.868   6.235   6.517
 1756SOL    HW2 6168   3.865   6.320   6.377
 1757SOL     OW 6169   3.416   4.954   4.973
 1757SOL    HW1 6170   3.332   4.978   4.924
 1757SOL    HW2 6171   3.416   4.856   4.994
 1758SOL     OW 6172   1.716   0.334   4.710
 1758SOL    HW1 6173   1.684   0.384   4.629
 1758SOL    HW2 6174   1.778   0.391   4.762
 1759SOL     OW 6175   1.208   6.651   5.281
 1759SOL    HW1 6176   1.299   6.666   5.318
 1759SOL    HW2 6177   1.141   6.650   5.356
 1760SOL     OW 6178   5.947   0.793   4.218
 1760SOL    HW1 6179   5.952   0.702   4.259
 1760SOL    HW2 6180   5.874   0.845   4.263
 1761SOL     OW 6181   6.518   0.509   1.318
 1761SOL    HW1 6182   6.532   0.525   1.415
 1761SOL    HW2 6183   6.501   0.596   1.272
 1762SOL     OW 6184   6.724   1.546   4.759
 1762SOL    HW1 6185   6.631   1.575   4.779
 1762SOL    HW2 6186   6.742   1.458   4.804
 1763SOL     OW 6187   1.281   4.724   5.017
 1763SOL    HW1 6188   1.270   4.661   4.940
 1763SOL    HW2 6189   1.249   4.680   5.101
 1764SOL     OW 6190   0.665   3.174   2.409
 1764SOL    HW1 6191   0.668   3.079   2.379
 1764SOL    HW2 6192   0.758   3.208   2.423
 1765SOL     OW 6193   3.779   2.109   1.510
 1765SOL    HW1 6194   3.783   2.199   1.554
 1765SOL    HW2 6195   3.758   2.121   1.413
 1766SOL     OW 6196   5.445   4.720   3.997
 1766SOL    HW1 6197   5.456   4.672   4.084
 1766SOL    HW2 6198   5.490   4.809   4.003
 1767SOL     OW 6199   0.865   4.734   2.754
 1767SOL    HW1 6200   0.913   4.723   2.666
 1767SOL    HW2 6201   0.846   4.644   2.792
 1768SOL     OW 6202   4.193   0.658   6.870
 1768SOL    HW1 6203   4.232   0.576   6.913
 1768SOL    HW2 6204   4.235   0.739   6.910
 1769SOL     OW 6205   5.846   0.822   0.478
 1769SOL    HW1 6206   5.861   0.903   0.422
 1769SOL    HW2 6207   5.858   0.740   0.421
 1770SOL     OW 6208   0.694   3.947   5.141
 1770SOL    HW1 6209   0.628   3.952   5.216
 1770SOL    HW2 6210   0.786   3.937   5.179
 1771SOL     OW 6211   2.041   4.798   0.184
 1771SOL    HW1 6212   2.043   4.839   0.275
 1771SOL    HW2 6213   2.048   4.699   0.192
 1772SOL     OW 6214   4.105   5.321   4.384
 1772SOL    HW1 6215   4.124   5.227   4.414
 1772SOL    HW2 6216   4.141   5.334   4.292
 1773SOL     OW 6217   0.827   1.771   5.511
 1773SOL    HW1 6218   0.749   1.722   5.550
 1773SOL    HW2 6219   0.911   1.745   5.558
 1774SOL     OW 6220   5.382   6.395   2.259
 1774SOL    HW1 6221   5.374   6.482   2.308
 1774SOL    HW2 6222   5.377   6.319   2.325
 1775SOL     OW 6223   1.993   5.650   6.710
 1775SOL    HW1 6224   2.052   5.598   6.771
 1775SOL    HW2 6225   1.956   5.588   6.640
 1776SOL     OW 6226   5.003   0.661   5.873
 1776SOL    HW1 6227   4.938   0.686   5.801
 1776SOL    HW2 6228   5.090   0.707   5.856
 1777SOL     OW 6229   4.161   6.787   6.356
 1777SOL    HW1 6230   4.089   6.730   6.396
 1777SOL    HW2 6231   4.153   6.880   6.391
 1778SOL     OW 6232   4.621   1.238   4.431
 1778SOL    HW1 6233   4.602   1.333   4.406
 1778SOL    HW2 6234   4.707   1.209   4.389
 1779SOL     OW 6235   5.030   6.801   5.558
 1779SOL    HW1 6236   4.994   6.883   5.602
 1779SOL    HW2 6237   5.018   6.722   5.618
 1780SOL     OW 6238   1.735   4.094   4.699
 1780SOL    HW1 6239   1.699   4.182   4.728
 1780SOL    HW2 6240   1.666   4.023   4.713
 1781SOL     OW 6241   4.871   0.010   4.929
 1781SOL    HW1 6242   4.813   6.960   4.883
 1781SOL    HW2 6243   4.822   0.047   5.008
 1782SOL     OW 6244   2.055   1.755   2.745
 1782SOL    HW1 6245   2.090   1.664   2.768
 1782SOL    HW2 6246   2.062   1.769   2.646
 1783SOL     OW 6247   2.312   3.804   6.225
 1783SOL    HW1 6248   2.221   3.803   6.266
 1783SOL    HW2 6249   2.305   3.778   6.128
 1784SOL     OW 6250   2.612   1.272   2.064
 1784SOL    HW1 6251   2.573   1.364   2.065
 1784SOL    HW2 6252   2.695   1.271   2.008
 1785SOL     OW 6253   6.907   6.244   4.270
 1785SOL    HW1 6254   6.947   6.217   4.357
 1785SOL    HW2 6255   6.977   6.241   4.199
 1786SOL     OW 6256   2.027   5.571   0.542
 1786SOL    HW1 6257   2.014   5.490   0.600
 1786SOL    HW2 6258   1.979   5.649   0.582
 1787SOL     OW 6259   2.238   2.298   5.886
 1787SOL    HW1 6260   2.145   2.335   5.881
 1787SOL    HW2 6261   2.278   2.295   5.794
 1788SOL     OW 6262   4.617   3.618   0.377
 1788SOL    HW1 6263   4.616   3.518   0.373
 1788SOL    HW2 6264   4.674   3.647   0.454
 1789SOL     OW 6265   6.347   2.889   1.749
 1789SOL    HW1 6266   6.418   2.821   1.768
 1789SOL    HW2 6267   6.389   2.974   1.719
 1790SOL     OW 6268   3.375   1.107   4.566
 1790SOL    HW1 6269   3.432   1.094   4.485
 1790SOL    HW2 6270   3.432   1.134   4.643
 1791SOL     OW 6271   6.448   1.122   3.289
 1791SOL    HW1 6272   6.515   1.054   3.320
 1791SOL    HW2 6273   6.493   1.186   3.226
 1792SOL     OW 6274   6.541   1.812   4.427
 1792SOL    HW1 6275   6.588   1.898   4.447
 1792SOL    HW2 6276   6.469   1.797   4.494
 1793SOL     OW 6277   6.172   1.349   4.643
 1793SOL    HW1 6278   6.119   1.313   4.566
 1793SOL    HW2 6279   6.269   1.344   4.622
 1794SOL     OW 6280   6.066   0.208   6.041
 1794SOL    HW1 6281   6.111   0.174   6.124
 1794SOL    HW2 6282   6.033   0.301   6.057
 1795SOL     OW 6283   6.171   5.309   0.921
 1795SOL    HW1 6284   6.139   5.389   0.971
 1795SOL    HW2 6285   6.265   5.288   0.948
 1796SOL     OW 6286   1.977   1.042   5.403
 1796SOL    HW1 6287   1.994   1.116   5.467
 1796SOL    HW2 6288   1.881   1.014   5.410
 1797SOL     OW 6289   1.239   0.151   5.157
 1797SOL    HW1 6290   1.330   0.136   5.195
 1797SOL    HW2 6291   1.176   0.082   5.192
 1798SOL     OW 6292   3.305   2.971   4.493
 1798SOL    HW1 6293   3.254   2.932   4.417
 1798SOL    HW2 6294   3.260   3.056   4.523
 1799SOL     OW 6295   4.412   2.336   6.607
 1799SOL    HW1 6296   4.388   2.288   6.523
 1799SOL    HW2 6297   4.361   2.421   6.613
 1800SOL     OW 6298   5.407   4.474   3.834
 1800SOL    HW1 6299   5.404   4.567   3.870
 1800SOL    HW2 6300   5.476   4.469   3.762
 1801SOL     OW 6301   0.546   2.033   1.811
 1801SOL    HW1 6302   0.559   2.006   1.715
 1801SOL    HW2 6303   0.594   2.119   1.828
 1802SOL     OW 6304   6.339   5.717   3.643
 1802SOL    HW1 6305   6.328   5.641   3.706
 1802SOL    HW2 6306   6.254   5.731   3.592
 1803SOL     OW 6307   7.017   6.787   2.145
 1803SOL    HW1 6308   0.013   6.688   2.140
 1803SOL    HW2 6309   0.032   6.821   2.234
 1804SOL     OW 6310   3.228   3.592   5.477
 1804SOL    HW1 6311   3.283   3.592   5.394
 1804SOL    HW2 6312   3.282   3.555   5.553
 1805SOL     OW 6313   1.022   5.742   5.700
 1805SOL    HW1 6314   1.114   5.702   5.702
 1805SOL    HW2 6315   0.983   5.738   5.792
 1806SOL     OW 6316   0.005   2.417   2.277
 1806SOL    HW1 6317   0.090   2.371   2.302
 1806SOL    HW2 6318   6.947   2.350   2.275
 1807SOL     OW 6319   6.344   3.749   6.921
 1807SOL    HW1 6320   6.430   3.769   6.873
 1807SOL    HW2 6321   6.346   3.655   6.954
 1808SOL     OW 6322   5.604   3.554   4.646
 1808SOL    HW1 6323   5.628   3.466   4.687
 1808SOL    HW2 6324   5.516   3.546   4.599
 1809SOL     OW 6325   2.991   1.918   5.282
 1809SOL    HW1 6326   2.947   1.988   5.226
 1809SOL    HW2 6327   3.017   1.958   5.370
 1810SOL     OW 6328   0.152   0.713   4.713
 1810SOL    HW1 6329   0.147   0.753   4.621
 1810SOL    HW2 6330   0.060   0.688   4.744
 1811SOL     OW 6331   4.693   4.540   1.506
 1811SOL    HW1 6332   4.725   4.455   1.548
 1811SOL    HW2 6333   4.610   4.571   1.552
 1812SOL     OW 6334   4.434   6.989   6.039
 1812SOL    HW1 6335   4.475   0.063   6.040
 1812SOL    HW2 6336   4.356   6.988   5.977
 1813SOL     OW 6337   4.573   4.442   2.224
 1813SOL    HW1 6338   4.622   4.357   2.203
 1813SOL    HW2 6339   4.494   4.451   2.165
 1814SOL     OW 6340   6.689   6.790   0.241
 1814SOL    HW1 6341   6.633   6.868   0.212
 1814SOL    HW2 6342   6.648   6.748   0.322
 1815SOL     OW 6343   5.927   5.860   2.929
 1815SOL    HW1 6344   6.026   5.862   2.921
 1815SOL    HW2 6345   5.887   5.819   2.847
 1816SOL     OW 6346   4.260   6.180   5.640
 1816SOL    HW1 6347   4.244   6.084   5.618
 1816SOL    HW2 6348   4.359   6.198   5.637
 1817SOL     OW 6349   3.356   1.749   2.904
 1817SOL    HW1 6350   3.382   1.760   2.808
 1817SOL    HW2 6351   3.258   1.768   2.914
 1818SOL     OW 6352   1.731   6.582   0.562
 1818SOL    HW1 6353   1.781   6.665   0.537
 1818SOL    HW2 6354   1.763   6.506   0.506
 1819SOL     OW 6355   1.556   5.262   1.995
 1819SOL    HW1 6356   1.473   5.307   1.964
 1819SOL    HW2 6357   1.535   5.169   2.025
 1820SOL     OW 6358   4.097   0.643   2.904
 1820SOL    HW1 6359   4.158   0.639   2.826
 1820SOL    HW2 6360   4.128   0.581   2.976
 1821SOL     OW 6361   3.680   1.182   1.847
 1821SOL    HW1 6362   3.724   1.094   1.826
 1821SOL    HW2 6363   3.646   1.181   1.941
 1822SOL     OW 6364   1.136   3.375   2.091
 1822SOL    HW1 6365   1.134   3.455   2.031
 1822SOL    HW2 6366   1.177   3.401   2.178
 1823SOL     OW 6367   3.528   6.298   2.702
 1823SOL    HW1 6368   3.504   6.389   2.668
 1823SOL    HW2 6369   3.609   6.305   2.761
 1824SOL     OW 6370   3.706   3.851   0.814
 1824SOL    HW1 6371   3.791   3.894   0.786
 1824SOL    HW2 6372   3.725   3.763   0.857
 1825SOL     OW 6373   0.500   3.008   4.899
 1825SOL    HW1 6374   0.460   3.091   4.939
 1825SOL    HW2 6375   0.570   3.035   4.833
 1826SOL     OW 6376   3.755   1.440   0.874
 1826SOL    HW1 6377   3.729   1.527   0.832
 1826SOL    HW2 6378   3.778   1.455   0.970
 1827SOL     OW 6379   4.857   5.319   1.133
 1827SOL    HW1 6380   4.830   5.380   1.208
 1827SOL    HW2 6381   4.925   5.254   1.166
 1828SOL     OW 6382   1.645   3.611   6.365
 1828SOL    HW1 6383   1.614   3.519   6.339
 1828SOL    HW2 6384   1.741   3.608   6.390
 1829SOL     OW 6385   3.676   0.819   3.534
 1829SOL    HW1 6386   3.727   0.745   3.579
 1829SOL    HW2 6387   3.729   0.903   3.538
 1830SOL     OW 6388   5.750   6.518   5.033
 1830SOL    HW1 6389   5.749   6.569   5.119
 1830SOL    HW2 6390   5.666   6.465   5.025
 1831SOL     OW 6391   5.047   5.838   3.634
 1831SOL    HW1 6392   5.130   5.891   3.617
 1831SOL    HW2 6393   5.006   5.811   3.547
 1832SOL     OW 6394   3.264   3.947   0.087
 1832SOL    HW1 6395   3.309   3.900   0.011
 1832SOL    HW2 6396   3.294   3.905   0.173
 1833SOL     OW 6397   4.830   0.037   1.216
 1833SOL    HW1 6398   4.763   7.001   1.268
 1833SOL    HW2 6399   4.829   0.132   1.246
 1834SOL     OW 6400   3.189   2.915   1.121
 1834SOL    HW1 6401   3.125   2.850   1.082
 1834SOL    HW2 6402   3.280   2.873   1.128
 1835SOL     OW 6403   1.094   5.391   1.015
 1835SOL    HW1 6404   1.122   5.480   0.978
 1835SOL    HW2 6405   1.169   5.352   1.068
 1836SOL     OW 6406   4.861   1.292   2.207
 1836SOL    HW1 6407   4.951   1.310   2.248
 1836SOL    HW2 6408   4.819   1.378   2.180
 1837SOL     OW 6409   1.690   0.908   5.649
 1837SOL    HW1 6410   1.684   0.987   5.709
 1837SOL    HW2 6411   1.674   0.937   5.554
 1838SOL     OW 6412   6.474   0.808   6.685
 1838SOL    HW1 6413   6.411   0.820   6.762
 1838SOL    HW2 6414   6.422   0.782   6.603
 1839SOL     OW 6415   6.254   1.741   6.344
 1839SOL    HW1 6416   6.353   1.737   6.338
 1839SOL    HW2 6417   6.227   1.807   6.414
 1840SOL     OW 6418   3.683   0.209   3.153
 1840SOL    HW1 6419   3.627   0.276   3.104
 1840SOL    HW2 6420   3.774   0.246   3.169
 1841SOL     OW 6421   2.540   0.390   2.284
 1841SOL    HW1 6422   2.448   0.395   2.323
 1841SOL    HW2 6423   2.575   0.483   2.268
 1842SOL     OW 6424   1.719   5.128   0.486
 1842SOL    HW1 6425   1.752   5.219   0.459
 1842SOL    HW2 6426   1.768   5.098   0.567
 1843SOL     OW 6427   3.985   1.193   4.626
 1843SOL    HW1 6428   3.953   1.221   4.717
 1843SOL    HW2 6429   4.042   1.265   4.588
 1844SOL     OW 6430   4.592   2.114   5.496
 1844SOL    HW1 6431   4.495   2.130   5.512
 1844SOL    HW2 6432   4.638   2.202   5.484
 1845SOL     OW 6433   2.806   0.747   3.607
 1845SOL    HW1 6434   2.772   0.807   3.680
 1845SOL    HW2 6435   2.733   0.732   3.540
 1846SOL     OW 6436   5.009   0.480   2.928
 1846SOL    HW1 6437   4.972   0.417   2.995
 1846SOL    HW2 6438   5.091   0.524   2.965
 1847SOL     OW 6439   1.358   0.660   4.949
 1847SOL    HW1 6440   1.321   0.570   4.926
 1847SOL    HW2 6441   1.424   0.688   4.880
 1848SOL     OW 6442   2.683   6.175   4.055
 1848SOL    HW1 6443   2.584   6.165   4.044
 1848SOL    HW2 6444   2.703   6.260   4.102
 1849SOL     OW 6445   4.875   3.068   2.152
 1849SOL    HW1 6446   4.807   3.024   2.093
 1849SOL    HW2 6447   4.967   3.043   2.122
 1850SOL     OW 6448   5.413   1.831   2.557
 1850SOL    HW1 6449   5.317   1.814   2.578
 1850SOL    HW2 6450   5.468   1.755   2.591
 1851SOL     OW 6451   0.332   3.331   6.240
 1851SOL    HW1 6452   0.281   3.247   6.258
 1851SOL    HW2 6453   0.417   3.310   6.194
 1852SOL     OW 6454   0.122   4.756   1.414
 1852SOL    HW1 6455   0.072   4.758   1.328
 1852SOL    HW2 6456   0.215   4.722   1.398
 1853SOL     OW 6457   6.880   2.700   4.084
 1853SOL    HW1 6458   6.867   2.603   4.063
 1853SOL    HW2 6459   6.977   2.722   4.080
 1854SOL     OW 6460   1.416   5.645   3.569
 1854SOL    HW1 6461   1.480   5.575   3.536
 1854SOL    HW2 6462   1.322   5.617   3.547
 1855SOL     OW 6463   5.733   3.258   4.603
 1855SOL    HW1 6464   5.765   3.169   4.636
 1855SOL    HW2 6465   5.668   3.245   4.528
 1856SOL     OW 6466   4.507   2.923   6.621
 1856SOL    HW1 6467   4.500   3.004   6.563
 1856SOL    HW2 6468   4.453   2.937   6.704
 1857SOL     OW 6469   5.853   1.039   0.228
 1857SOL    HW1 6470   5.921   1.096   0.182
 1857SOL    HW2 6471   5.851   0.949   0.185
 1858SOL     OW 6472   5.129   2.519   3.896
 1858SOL    HW1 6473   5.035   2.533   3.926
 1858SOL    HW2 6474   5.192   2.566   3.958
 1859SOL     OW 6475   5.374   1.996   4.639
 1859SOL    HW1 6476   5.375   1.896   4.642
 1859SOL    HW2 6477   5.321   2.027   4.560
 1860SOL     OW 6478   0.740   1.908   5.051
 1860SOL    HW1 6479   0.788   1.863   5.127
 1860SOL    HW2 6480   0.720   1.840   4.980
 1861SOL     OW 6481   5.669   0.091   3.068
 1861SOL    HW1 6482   5.732   0.092   2.990
 1861SOL    HW2 6483   5.678   0.004   3.117
 1862SOL     OW 6484   1.784   6.720   6.850
 1862SOL    HW1 6485   1.743   6.694   6.763
 1862SOL    HW2 6486   1.861   6.660   6.870
 1863SOL     OW 6487   0.401   3.004   1.192
 1863SOL    HW1 6488   0.455   2.949   1.256
 1863SOL    HW2 6489   0.305   2.976   1.198
 1864SOL     OW 6490   2.865   5.396   4.010
 1864SOL    HW1 6491   2.813   5.467   4.057
 1864SOL    HW2 6492   2.804   5.344   3.950
 1865SOL     OW 6493   4.086   1.398   1.108
 1865SOL    HW1 6494   4.097   1.363   1.201
 1865SOL    HW2 6495   4.134   1.338   1.044
 1866SOL     OW 6496   6.136   4.296   4.302
 1866SOL    HW1 6497   6.074   4.239   4.358
 1866SOL    HW2 6498   6.082   4.366   4.255
 1867SOL     OW 6499   2.535   2.707   1.507
 1867SOL    HW1 6500   2.447   2.737   1.471
 1867SOL    HW2 6501   2.547   2.740   1.600
 1868SOL     OW 6502   4.757   4.073   5.099
 1868SOL    HW1 6503   4.732   3.979   5.124
 1868SOL    HW2 6504   4.801   4.117   5.177
 1869SOL     OW 6505   5.275   2.658   4.047
 1869SOL    HW1 6506   5.214   2.737   4.047
 1869SOL    HW2 6507   5.370   2.689   4.048
 1870SOL     OW 6508   0.657   3.253   4.331
 1870SOL    HW1 6509   0.750   3.290   4.332
 1870SOL    HW2 6510   0.604   3.293   4.406
 1871SOL     OW 6511   6.882   6.237   0.324
 1871SOL    HW1 6512   6.852   6.170   0.392
 1871SOL    HW2 6513   6.806   6.296   0.299
 1872SOL     OW 6514   2.879   2.489   0.547
 1872SOL    HW1 6515   2.927   2.577   0.548
 1872SOL    HW2 6516   2.856   2.465   0.453
 1873SOL     OW 6517   6.319   0.877   6.918
 1873SOL    HW1 6518   6.231   0.924   6.923
 1873SOL    HW2 6519   6.377   0.907   6.994
 1874SOL     OW 6520   0.877   0.728   6.859
 1874SOL    HW1 6521   0.873   0.729   6.959
 1874SOL    HW2 6522   0.849   0.818   6.824
 1875SOL     OW 6523   6.510   6.138   0.641
 1875SOL    HW1 6524   6.563   6.139   0.726
 1875SOL    HW2 6525   6.455   6.221   0.635
 1876SOL     OW 6526   5.625   6.537   5.951
 1876SOL    HW1 6527   5.685   6.570   5.878
 1876SOL    HW2 6528   5.589   6.615   6.002
 1877SOL     OW 6529   6.852   1.336   2.465
 1877SOL    HW1 6530   6.861   1.426   2.508
 1877SOL    HW2 6531   6.755   1.311   2.459
 1878SOL     OW 6532   6.915   4.269   3.379
 1878SOL    HW1 6533   7.005   4.277   3.336
 1878SOL    HW2 6534   6.884   4.174   3.376
 1879SOL     OW 6535   2.516   5.049   4.742
 1879SOL    HW1 6536   2.557   4.993   4.814
 1879SOL    HW2 6537   2.589   5.092   4.688
 1880SOL     OW 6538   0.152   2.111   3.341
 1880SOL    HW1 6539   0.180   2.023   3.303
 1880SOL    HW2 6540   0.161   2.182   3.271
 1881SOL     OW 6541   0.828   2.556   3.594
 1881SOL    HW1 6542   0.748   2.558   3.654
 1881SOL    HW2 6543   0.823   2.476   3.535
 1882SOL     OW 6544   1.159   5.857   0.240
 1882SOL    HW1 6545   1.257   5.851   0.224
 1882SOL    HW2 6546   1.137   5.822   0.331
 1883SOL     OW 6547   1.329   3.695   2.587
 1883SOL    HW1 6548   1.312   3.597   2.592
 1883SOL    HW2 6549   1.246   3.745   2.613
 1884SOL     OW 6550   4.677   0.701   0.896
 1884SOL    HW1 6551   4.584   0.667   0.882
 1884SOL    HW2 6552   4.674   0.786   0.949
 1885SOL     OW 6553   6.480   2.108   0.865
 1885SOL    HW1 6554   6.448   2.096   0.771
 1885SOL    HW2 6555   6.565   2.161   0.865
 1886SOL     OW 6556   1.612   1.921   0.222
 1886SOL    HW1 6557   1.631   2.009   0.179
 1886SOL    HW2 6558   1.569   1.936   0.311
 1887SOL     OW 6559   0.293   4.437   5.680
 1887SOL    HW1 6560   0.375   4.438   5.623
 1887SOL    HW2 6561   0.275   4.344   5.711
 1888SOL     OW 6562   1.973   1.412   5.793
 1888SOL    HW1 6563   1.928   1.462   5.867
 1888SOL    HW2 6564   2.055   1.461   5.764
 1889SOL     OW 6565   4.309   3.531   0.220
 1889SOL    HW1 6566   4.378   3.537   0.148
 1889SOL    HW2 6567   4.331   3.455   0.281
 1890SOL     OW 6568   1.455   5.773   6.162
 1890SOL    HW1 6569   1.374   5.752   6.109
 1890SOL    HW2 6570   1.535   5.773   6.102
 1891SOL     OW 6571   5.323   3.225   5.436
 1891SOL    HW1 6572   5.392   3.203   5.506
 1891SOL    HW2 6573   5.232   3.201   5.469
 1892SOL     OW 6574   3.762   6.584   1.714
 1892SOL    HW1 6575   3.739   6.499   1.667
 1892SOL    HW2 6576   3.680   6.638   1.727
 1893SOL     OW 6577   3.473   2.091   4.594
 1893SOL    HW1 6578   3.463   2.148   4.512
 1893SOL    HW2 6579   3.391   2.100   4.651
 1894SOL     OW 6580   4.329   3.732   1.693
 1894SOL    HW1 6581   4.272   3.753   1.772
 1894SOL    HW2 6582   4.391   3.808   1.674
 1895SOL     OW 6583   6.072   0.746   2.030
 1895SOL    HW1 6584   6.067   0.794   2.117
 1895SOL    HW2 6585   6.163   0.758   1.990
 1896SOL     OW 6586   6.595   1.013   3.934
 1896SOL    HW1 6587   6.556   1.063   3.857
 1896SOL    HW2 6588   6.680   1.056   3.963
 1897SOL     OW 6589   6.871   5.615   3.649
 1897SOL    HW1 6590   6.968   5.611   3.626
 1897SOL    HW2 6591   6.819   5.564   3.580
 1898SOL     OW 6592   4.279   6.171   1.738
 1898SOL    HW1 6593   4.257   6.139   1.646
 1898SOL    HW2 6594   4.194   6.199   1.784
 1899SOL     OW 6595   0.117   3.794   2.642
 1899SOL    HW1 6596   0.141   3.742   2.560
 1899SOL    HW2 6597   0.042   3.857   2.621
 1900SOL     OW 6598   1.016   0.081   6.398
 1900SOL    HW1 6599   0.918   0.063   6.385
 1900SOL    HW2 6600   1.042   0.161   6.343
 1901SOL     OW 6601   2.238   1.482   0.456
 1901SOL    HW1 6602   2.290   1.525   0.382
 1901SOL    HW2 6603   2.283   1.396   0.482
 1902SOL     OW 6604   1.166   2.524   4.727
 1902SOL    HW1 6605   1.180   2.552   4.822
 1902SOL    HW2 6606   1.245   2.552   4.673
 1903SOL     OW 6607   6.700   3.942   3.070
 1903SOL    HW1 6608   6.673   3.971   2.978
 1903SOL    HW2 6609   6.776   3.877   3.064
 1904SOL     OW 6610   6.894   6.889   4.358
 1904SOL    HW1 6611   6.948   6.935   4.429
 1904SOL    HW2 6612   6.894   6.791   4.373
 1905SOL     OW 6613   0.006   2.735   3.684
 1905SOL    HW1 6614   0.027   2.832   3.677
 1905SOL    HW2 6615   0.090   2.682   3.684
 1906SOL     OW 6616   2.732   0.172   5.566
 1906SOL    HW1 6617   2.745   0.228   5.648
 1906SOL    HW2 6618   2.779   0.085   5.577
 1907SOL     OW 6619   2.804   0.169   3.636
 1907SOL    HW1 6620   2.862   0.142   3.713
 1907SOL    HW2 6621   2.724   0.218   3.671
 1908SOL     OW 6622   4.430   1.056   5.910
 1908SOL    HW1 6623   4.518   1.062   5.957
 1908SOL    HW2 6624   4.356   1.067   5.976
 1909SOL     OW 6625   2.180   4.588   4.333
 1909SOL    HW1 6626   2.189   4.673   4.385
 1909SOL    HW2 6627   2.270   4.545   4.324
 1910SOL     OW 6628   5.299   2.671   6.563
 1910SOL    HW1 6629   5.333   2.646   6.654
 1910SOL    HW2 6630   5.257   2.591   6.520
 1911SOL     OW 6631   6.635   1.811   5.285
 1911SOL    HW1 6632   6.614   1.782   5.379
 1911SOL    HW2 6633   6.564   1.873   5.253
 1912SOL     OW 6634   3.778   6.522   2.639
 1912SOL    HW1 6635   3.710   6.578   2.592
 1912SOL    HW2 6636   3.790   6.436   2.590
 1913SOL     OW 6637   1.769   6.420   5.314
 1913SOL    HW1 6638   1.790   6.348   5.379
 1913SOL    HW2 6639   1.756   6.380   5.223
 1914SOL     OW 6640   2.296   2.308   6.420
 1914SOL    HW1 6641   2.279   2.336   6.325
 1914SOL    HW2 6642   2.247   2.222   6.438
 1915SOL     OW 6643   4.083   1.393   5.694
 1915SOL    HW1 6644   4.075   1.406   5.793
 1915SOL    HW2 6645   4.067   1.297   5.671
 1916SOL     OW 6646   4.388   6.126   1.019
 1916SOL    HW1 6647   4.304   6.155   1.065
 1916SOL    HW2 6648   4.394   6.170   0.929
 1917SOL     OW 6649   3.888   3.253   4.224
 1917SOL    HW1 6650   3.940   3.214   4.300
 1917SOL    HW2 6651   3.790   3.240   4.240
 1918SOL     OW 6652   6.160   6.570   5.901
 1918SOL    HW1 6653   6.220   6.532   5.971
 1918SOL    HW2 6654   6.085   6.620   5.944
 1919SOL     OW 6655   1.717   6.276   2.112
 1919SOL    HW1 6656   1.646   6.323   2.165
 1919SOL    HW2 6657   1.785   6.341   2.081
 1920SOL     OW 6658   0.371   4.464   3.431
 1920SOL    HW1 6659   0.456   4.411   3.424
 1920SOL    HW2 6660   0.391   4.554   3.468
 1921SOL     OW 6661   7.010   5.277   6.859
 1921SOL    HW1 6662   0.017   5.373   6.872
 1921SOL    HW2 6663   6.982   5.261   6.764
 1922SOL     OW 6664   4.233   3.204   1.207
 1922SOL    HW1 6665   4.327   3.200   1.241
 1922SOL    HW2 6666   4.184   3.278   1.252
 1923SOL     OW 6667   3.506   1.123   0.268
 1923SOL    HW1 6668   3.498   1.054   0.340
 1923SOL    HW2 6669   3.596   1.116   0.225
 1924SOL     OW 6670   6.229   4.464   1.952
 1924SOL    HW1 6671   6.212   4.497   2.045
 1924SOL    HW2 6672   6.150   4.412   1.920
 1925SOL     OW 6673   3.033   3.565   1.593
 1925SOL    HW1 6674   2.983   3.603   1.515
 1925SOL    HW2 6675   3.101   3.631   1.625
 1926SOL     OW 6676   1.417   0.203   4.776
 1926SOL    HW1 6677   1.481   0.233   4.846
 1926SOL    HW2 6678   1.444   0.113   4.742
 1927SOL     OW 6679   3.404   4.263   6.236
 1927SOL    HW1 6680   3.503   4.275   6.243
 1927SOL    HW2 6681   3.380   4.246   6.140
 1928SOL     OW 6682   6.278   3.278   6.129
 1928SOL    HW1 6683   6.223   3.344   6.181
 1928SOL    HW2 6684   6.361   3.256   6.180
 1929SOL     OW 6685   0.950   5.549   1.749
 1929SOL    HW1 6686   1.009   5.589   1.819
 1929SOL    HW2 6687   0.934   5.616   1.677
 1930SOL     OW 6688   5.749   4.460   0.368
 1930SOL    HW1 6689   5.729   4.367   0.336
 1930SOL    HW2 6690   5.818   4.501   0.308
 1931SOL     OW 6691   6.986   3.312   2.884
 1931SOL    HW1 6692   0.047   3.366   2.914
 1931SOL    HW2 6693   6.912   3.373   2.857
 1932SOL     OW 6694   5.171   3.838   2.598
 1932SOL    HW1 6695   5.224   3.777   2.657
 1932SOL    HW2 6696   5.085   3.862   2.643
 1933SOL     OW 6697   2.682   4.938   1.045
 1933SOL    HW1 6698   2.778   4.959   1.025
 1933SOL    HW2 6699   2.678   4.882   1.129
 1934SOL     OW 6700   0.934   0.063   5.289
 1934SOL    HW1 6701   0.891   0.122   5.358
 1934SOL    HW2 6702   0.991   7.012   5.334
 1935SOL     OW 6703   3.292   0.019   5.016
 1935SOL    HW1 6704   3.370   0.079   5.032
 1935SOL    HW2 6705   3.298   6.997   4.925
 1936SOL     OW 6706   5.711   5.148   4.754
 1936SOL    HW1 6707   5.747   5.123   4.664
 1936SOL    HW2 6708   5.739   5.241   4.776
 1937SOL     OW 6709   4.120   0.320   2.133
 1937SOL    HW1 6710   4.073   0.302   2.220
 1937SOL    HW2 6711   4.116   0.238   2.076
 1938SOL     OW 6712   4.341   1.548   2.911
 1938SOL    HW1 6713   4.343   1.603   2.994
 1938SOL    HW2 6714   4.251   1.504   2.903
 1939SOL     OW 6715   0.903   6.737   4.171
 1939SOL    HW1 6716   0.805   6.741   4.187
 1939SOL    HW2 6717   0.937   6.828   4.145
 1940SOL     OW 6718   5.327   5.416   6.730
 1940SOL    HW1 6719   5.395   5.483   6.700
 1940SOL    HW2 6720   5.283   5.449   6.814
 1941SOL     OW 6721   6.660   4.071   2.838
 1941SOL    HW1 6722   6.726   4.111   2.774
 1941SOL    HW2 6723   6.577   4.044   2.788
 1942SOL     OW 6724   6.476   6.439   2.737
 1942SOL    HW1 6725   6.399   6.483   2.693
 1942SOL    HW2 6726   6.558   6.452   2.682
 1943SOL     OW 6727   3.273   5.874   1.850
 1943SOL    HW1 6728   3.362   5.872   1.897
 1943SOL    HW2 6729   3.278   5.936   1.772
 1944SOL     OW 6730   5.139   2.161   6.297
 1944SOL    HW1 6731   5.171   2.219   6.222
 1944SOL    HW2 6732   5.150   2.065   6.272
 1945SOL     OW 6733   4.585   5.716   3.174
 1945SOL    HW1 6734   4.493   5.678   3.175
 1945SOL    HW2 6735   4.613   5.733   3.079
 1946SOL     OW 6736   0.052   0.982   0.240
 1946SOL    HW1 6737   0.073   1.079   0.243
 1946SOL    HW2 6738   0.108   0.937   0.170
 1947SOL     OW 6739   5.294   6.564   4.229
 1947SOL    HW1 6740   5.307   6.624   4.308
 1947SOL    HW2 6741   5.371   6.500   4.224
 1948SOL     OW 6742   6.660   5.264   3.446
 1948SOL    HW1 6743   6.643   5.358   3.474
 1948SOL    HW2 6744   6.638   5.254   3.349
 1949SOL     OW 6745   4.275   4.513   5.558
 1949SOL    HW1 6746   4.332   4.594   5.570
 1949SOL    HW2 6747   4.269   4.464   5.645
 1950SOL     OW 6748   3.944   3.819   1.009
 1950SOL    HW1 6749   3.965   3.872   1.091
 1950SOL    HW2 6750   3.945   3.879   0.929
 1951SOL     OW 6751   6.604   2.856   0.447
 1951SOL    HW1 6752   6.622   2.790   0.374
 1951SOL    HW2 6753   6.615   2.949   0.411
 1952SOL     OW 6754   3.559   2.395   6.932
 1952SOL    HW1 6755   3.506   2.337   6.869
 1952SOL    HW2 6756   3.497   2.452   6.985
 1953SOL     OW 6757   6.299   2.183   6.288
 1953SOL    HW1 6758   6.224   2.117   6.294
 1953SOL    HW2 6759   6.386   2.134   6.279
 1954SOL     OW 6760   5.455   1.200   4.384
 1954SOL    HW1 6761   5.370   1.157   4.354
 1954SOL    HW2 6762   5.469   1.285   4.333
 1955SOL     OW 6763   1.340   0.175   2.334
 1955SOL    HW1 6764   1.272   0.170   2.407
 1955SOL    HW2 6765   1.310   0.120   2.256
 1956SOL     OW 6766   5.720   6.268   2.997
 1956SOL    HW1 6767   5.777   6.233   2.923
 1956SOL    HW2 6768   5.681   6.356   2.972
 1957SOL     OW 6769   6.583   4.654   4.875
 1957SOL    HW1 6770   6.521   4.732   4.867
 1957SOL    HW2 6771   6.614   4.645   4.970
 1958SOL     OW 6772   6.141   2.720   3.983
 1958SOL    HW1 6773   6.194   2.734   3.900
 1958SOL    HW2 6774   6.195   2.668   4.049
 1959SOL     OW 6775   0.434   2.082   5.864
 1959SOL    HW1 6776   0.390   2.159   5.909
 1959SOL    HW2 6777   0.365   2.024   5.821
 1960SOL     OW 6778   6.190   5.020   1.312
 1960SOL    HW1 6779   6.107   4.966   1.299
 1960SOL    HW2 6780   6.261   4.988   1.249
 1961SOL     OW 6781   5.536   4.559   4.207
 1961SOL    HW1 6782   5.486   4.532   4.290
 1961SOL    HW2 6783   5.631   4.580   4.231
 1962SOL     OW 6784   2.274   6.069   2.903
 1962SOL    HW1 6785   2.312   5.985   2.944
 1962SOL    HW2 6786   2.240   6.049   2.812
 1963SOL     OW 6787   0.713   0.606   1.823
 1963SOL    HW1 6788   0.659   0.522   1.825
 1963SOL    HW2 6789   0.790   0.598   1.886
 1964SOL     OW 6790   4.514   2.654   1.454
 1964SOL    HW1 6791   4.486   2.571   1.501
 1964SOL    HW2 6792   4.497   2.733   1.513
 1965SOL     OW 6793   0.937   3.135   2.995
 1965SOL    HW1 6794   0.984   3.092   2.917
 1965SOL    HW2 6795   0.984   3.219   3.020
 1966SOL     OW 6796   6.971   5.267   5.225
 1966SOL    HW1 6797   7.015   5.338   5.170
 1966SOL    HW2 6798   6.915   5.209   5.167
 1967SOL     OW 6799   4.683   1.997   5.738
 1967SOL    HW1 6800   4.668   2.044   5.650
 1967SOL    HW2 6801   4.654   1.902   5.730
 1968SOL     OW 6802   2.945   5.927   0.382
 1968SOL    HW1 6803   3.006   5.991   0.429
 1968SOL    HW2 6804   2.854   5.968   0.374
 1969SOL     OW 6805   0.418   1.530   1.584
 1969SOL    HW1 6806   0.513   1.561   1.594
 1969SOL    HW2 6807   0.356   1.606   1.601
 1970SOL     OW 6808   2.393   1.097   6.353
 1970SOL    HW1 6809   2.467   1.086   6.286
 1970SOL    HW2 6810   2.331   1.019   6.346
 1971SOL     OW 6811   6.513   6.613   6.277
 1971SOL    HW1 6812   6.515   6.618   6.377
 1971SOL    HW2 6813   6.523   6.518   6.248
 1972SOL     OW 6814   6.727   2.471   3.082
 1972SOL    HW1 6815   6.644   2.521   3.104
 1972SOL    HW2 6816   6.775   2.445   3.166
 1973SOL     OW 6817   2.622   3.348   1.194
 1973SOL    HW1 6818   2.588   3.338   1.288
 1973SOL    HW2 6819   2.554   3.397   1.140
 1974SOL     OW 6820   6.345   6.008   3.918
 1974SOL    HW1 6821   6.359   6.079   3.987
 1974SOL    HW2 6822   6.429   5.956   3.905
 1975SOL     OW 6823   2.465   0.967   2.994
 1975SOL    HW1 6824   2.537   0.960   3.063
 1975SOL    HW2 6825   2.402   1.041   3.020
 1976SOL     OW 6826   0.994   5.492   6.917
 1976SOL    HW1 6827   0.930   5.442   6.859
 1976SOL    HW2 6828   1.006   5.585   6.881
 1977SOL     OW 6829   1.666   2.383   3.347
 1977SOL    HW1 6830   1.626   2.355   3.259
 1977SOL    HW2 6831   1.765   2.380   3.341
 1978SOL     OW 6832   0.852   7.003   4.065
 1978SOL    HW1 6833   0.821   0.072   4.104
 1978SOL    HW2 6834   0.772   6.951   4.032
 1979SOL     OW 6835   6.569   3.983   4.874
 1979SOL    HW1 6836   6.488   4.041   4.886
 1979SOL    HW2 6837   6.544   3.898   4.828
 1980SOL     OW 6838   3.260   0.717   6.816
 1980SOL    HW1 6839   3.250   0.806   6.860
 1980SOL    HW2 6840   3.178   0.662   6.832
 1981SOL     OW 6841   5.964   2.448   2.418
 1981SOL    HW1 6842   5.977   2.375   2.351
 1981SOL    HW2 6843   6.052   2.466   2.464
 1982SOL     OW 6844   6.345   4.222   5.872
 1982SOL    HW1 6845   6.381   4.248   5.962
 1982SOL    HW2 6846   6.255   4.179   5.883
 1983SOL     OW 6847   1.002   2.197   2.618
 1983SOL    HW1 6848   0.997   2.294   2.640
 1983SOL    HW2 6849   1.096   2.173   2.593
 1984SOL     OW 6850   5.404   0.468   5.400
 1984SOL    HW1 6851   5.350   0.418   5.333
 1984SOL    HW2 6852   5.416   0.412   5.482
 1985SOL     OW 6853   1.274   0.648   2.227
 1985SOL    HW1 6854   1.243   0.695   2.310
 1985SOL    HW2 6855   1.327   0.567   2.252
 1986SOL     OW 6856   1.504   0.534   0.503
 1986SOL    HW1 6857   1.523   0.474   0.581
 1986SOL    HW2 6858   1.581   0.595   0.487
 1987SOL     OW 6859   1.719   3.455   2.099
 1987SOL    HW1 6860   1.795   3.519   2.083
 1987SOL    HW2 6861   1.674   3.435   2.012
 1988SOL     OW 6862   4.255   4.925   0.689
 1988SOL    HW1 6863   4.349   4.917   0.721
 1988SOL    HW2 6864   4.238   4.859   0.616
 1989SOL     OW 6865   2.807   6.611   5.323
 1989SOL    HW1 6866   2.765   6.597   5.412
 1989SOL    HW2 6867   2.826   6.523   5.280
 1990SOL     OW 6868   3.428   0.005   1.127
 1990SOL    HW1 6869   3.486   0.083   1.104
 1990SOL    HW2 6870   3.380   0.023   1.213
 1991SOL     OW 6871   3.967   5.296   6.210
 1991SOL    HW1 6872   4.065   5.316   6.219
 1991SOL    HW2 6873   3.955   5.212   6.158
 1992SOL     OW 6874   1.476   0.026   6.670
 1992SOL    HW1 6875   1.446   7.011   6.759
 1992SOL    HW2 6876   1.397   0.052   6.615
 1993SOL     OW 6877   4.147   3.804   5.146
 1993SOL    HW1 6878   4.114   3.887   5.100
 1993SOL    HW2 6879   4.203   3.751   5.082
 1994SOL     OW 6880   1.559   2.151   1.455
 1994SOL    HW1 6881   1.540   2.093   1.376
 1994SOL    HW2 6882   1.591   2.240   1.423
 1995SOL     OW 6883   6.336   2.690   1.223
 1995SOL    HW1 6884   6.294   2.626   1.287
 1995SOL    HW2 6885   6.351   2.644   1.136
 1996SOL     OW 6886   2.959   3.767   0.625
 1996SOL    HW1 6887   2.934   3.858   0.592
 1996SOL    HW2 6888   3.047   3.772   0.672
 1997SOL     OW 6889   5.141   0.423   5.589
 1997SOL    HW1 6890   5.167   0.475   5.670
 1997SOL    HW2 6891   5.162   0.326   5.604
 1998SOL     OW 6892   3.182   3.848   5.646
 1998SOL    HW1 6893   3.111   3.877   5.582
 1998SOL    HW2 6894   3.213   3.756   5.622
 1999SOL     OW 6895   2.561   0.036   1.870
 1999SOL    HW1 6896   2.657   0.015   1.887
 1999SOL    HW2 6897   2.518   0.066   1.955
 2000SOL     OW 6898   3.794   2.000   5.746
 2000SOL    HW1 6899   3.714   1.992   5.805
 2000SOL    HW2 6900   3.776   2.067   5.674
 2001SOL     OW 6901   3.372   2.117   1.817
 2001SOL    HW1 6902   3.457   2.162   1.844
 2001SOL    HW2 6903   3.303   2.187   1.798
 2002SOL     OW 6904   0.825   5.744   6.281
 2002SOL    HW1 6905   0.863   5.760   6.190
 2002SOL    HW2 6906   0.736   5.789   6.289
 2003SOL     OW 6907   5.100   6.897   3.166
 2003SOL    HW1 6908   5.144   6.917   3.079
 2003SOL    HW2 6909   5.031   6.825   3.153
 2004SOL     OW 6910   5.233   1.159   5.082
 2004SOL    HW1 6911   5.169   1.088   5.052
 2004SOL    HW2 6912   5.184   1.228   5.136
 2005SOL     OW 6913   1.166   5.233   0.136
 2005SOL    HW1 6914   1.125   5.164   0.077
 2005SOL    HW2 6915   1.130   5.323   0.113
 2006SOL     OW 6916   5.113   4.190   4.077
 2006SOL    HW1 6917   5.014   4.179   4.074
 2006SOL    HW2 6918   5.150   4.143   4.158
 2007SOL     OW 6919   4.598   5.951   0.754
 2007SOL    HW1 6920   4.601   6.047   0.781
 2007SOL    HW2 6921   4.517   5.934   0.698
 2008SOL     OW 6922   1.005   5.826   2.950
 2008SOL    HW1 6923   1.006   5.827   3.050
 2008SOL    HW2 6924   0.986   5.918   2.916
 2009SOL     OW 6925   6.939   7.007   1.427
 2009SOL    HW1 6926   0.003   6.953   1.448
 2009SOL    HW2 6927   6.955   0.086   1.453
 2010SOL     OW 6928   1.241   1.155   0.881
 2010SOL    HW1 6929   1.236   1.219   0.957
 2010SOL    HW2 6930   1.158   1.162   0.826
 2011SOL     OW 6931   6.828   1.780   4.621
 2011SOL    HW1 6932   6.793   1.703   4.675
 2011SOL    HW2 6933   6.763   1.856   4.625
 2012SOL     OW 6934   0.884   3.044   1.404
 2012SOL    HW1 6935   0.980   3.069   1.413
 2012SOL    HW2 6936   0.829   3.102   1.465
 2013SOL     OW 6937   5.696   0.359   3.380
 2013SOL    HW1 6938   5.770   0.419   3.411
 2013SOL    HW2 6939   5.735   0.283   3.327
 2014SOL     OW 6940   1.465   5.236   3.224
 2014SOL    HW1 6941   1.482   5.141   3.197
 2014SOL    HW2 6942   1.441   5.290   3.144
 2015SOL     OW 6943   2.656   1.238   6.922
 2015SOL    HW1 6944   2.556   1.246   6.921
 2015SOL    HW2 6945   2.695   1.308   6.862
 2016SOL     OW 6946   0.751   5.290   5.424
 2016SOL    HW1 6947   0.736   5.205   5.474
 2016SOL    HW2 6948   0.663   5.333   5.405
 2017SOL     OW 6949   2.948   6.430   4.510
 2017SOL    HW1 6950   2.858   6.459   4.478
 2017SOL    HW2 6951   2.943   6.410   4.608
 2018SOL     OW 6952   5.952   6.152   6.253
 2018SOL    HW1 6953   5.993   6.075   6.303
 2018SOL    HW2 6954   5.856   6.130   6.232
 2019SOL     OW 6955   4.641   2.683   2.136
 2019SOL    HW1 6956   4.628   2.768   2.086
 2019SOL    HW2 6957   4.666   2.610   2.072
 2020SOL     OW 6958   0.930   5.087   4.985
 2020SOL    HW1 6959   0.961   4.995   4.961
 2020SOL    HW2 6960   0.932   5.145   4.904
 2021SOL     OW 6961   2.404   6.681   3.122
 2021SOL    HW1 6962   2.475   6.727   3.175
 2021SOL    HW2 6963   2.345   6.749   3.080
 2022SOL     OW 6964   2.106   3.588   2.542
 2022SOL    HW1 6965   2.120   3.490   2.554
 2022SOL    HW2 6966   2.101   3.610   2.445
 2023SOL     OW 6967   0.206   1.635   0.206
 2023SOL    HW1 6968   0.143   1.622   0.282
 2023SOL    HW2 6969   0.290   1.584   0.223
 2024SOL     OW 6970   0.380   0.558   2.670
 2024SOL    HW1 6971   0.329   0.628   2.619
 2024SOL    HW2 6972   0.320   0.519   2.741
 2025SOL     OW 6973   1.586   2.843   2.248
 2025SOL    HW1 6974   1.673   2.793   2.259
 2025SOL    HW2 6975   1.604   2.941   2.255
 2026SOL     OW 6976   1.575   2.539   6.061
 2026SOL    HW1 6977   1.618   2.474   6.124
 2026SOL    HW2 6978   1.580   2.503   5.968
 2027SOL     OW 6979   1.581   1.376   1.257
 2027SOL    HW1 6980   1.579   1.302   1.190
 2027SOL    HW2 6981   1.490   1.388   1.297
 2028SOL     OW 6982   3.417   1.424   6.600
 2028SOL    HW1 6983   3.383   1.505   6.551
 2028SOL    HW2 6984   3.423   1.347   6.537
 2029SOL     OW 6985   0.003   0.290   0.809
 2029SOL    HW1 6986   6.993   0.210   0.756
 2029SOL    HW2 6987   6.956   0.365   0.791
 2030SOL     OW 6988   2.347   0.743   3.338
 2030SOL    HW1 6989   2.356   0.841   3.325
 2030SOL    HW2 6990   2.258   0.712   3.302
 2031SOL     OW 6991   5.002   6.123   2.497
 2031SOL    HW1 6992   4.904   6.139   2.482
 2031SOL    HW2 6993   5.014   6.064   2.577
 2032SOL     OW 6994   3.994   6.576   1.890
 2032SOL    HW1 6995   3.934   6.582   1.810
 2032SOL    HW2 6996   4.057   6.654   1.890
 2033SOL     OW 6997   3.410   5.000   6.638
 2033SOL    HW1 6998   3.477   5.061   6.596
 2033SOL    HW2 6999   3.318   5.038   6.627
 2034SOL     OW 7000   3.129   0.239   4.560
 2034SOL    HW1 7001   3.105   0.167   4.495
 2034SOL    HW2 7002   3.065   0.238   4.636
 2035SOL     OW 7003   0.529   1.036   2.105
 2035SOL    HW1 7004   0.468   0.961   2.078
 2035SOL    HW2 7005   0.513   1.060   2.201
 2036SOL     OW 7006   0.679   5.817   3.454
 2036SOL    HW1 7007   0.763   5.870   3.438
 2036SOL    HW2 7008   0.600   5.876   3.438
 2037SOL     OW 7009   0.252   2.206   6.029
 2037SOL    HW1 7010   0.321   2.191   6.100
 2037SOL    HW2 7011   0.197   2.123   6.018
 2038SOL     OW 7012   1.245   1.351   6.603
 2038SOL    HW1 7013   1.235   1.431   6.662
 2038SOL    HW2 7014   1.286   1.276   6.655
 2039SOL     OW 7015   0.068   4.927   2.355
 2039SOL    HW1 7016   0.004   4.957   2.426
 2039SOL    HW2 7017   0.024   4.933   2.266
 2040SOL     OW 7018   3.167   2.796   5.192
 2040SOL    HW1 7019   3.234   2.838   5.254
 2040SOL    HW2 7020   3.153   2.701   5.220
 2041SOL     OW 7021   6.568   6.065   6.306
 2041SOL    HW1 7022   6.626   6.050   6.226
 2041SOL    HW2 7023   6.609   6.020   6.386
 2042SOL     OW 7024   5.979   5.589   0.188
 2042SOL    HW1 7025   6.065   5.637   0.173
 2042SOL    HW2 7026   5.992   5.515   0.254
 2043SOL     OW 7027   6.696   4.134   2.183
 2043SOL    HW1 7028   6.611   4.184   2.164
 2043SOL    HW2 7029   6.673   4.041   2.210
 2044SOL     OW 7030   4.934   0.128   2.006
 2044SOL    HW1 7031   5.017   0.183   1.999
 2044SOL    HW2 7032   4.855   0.187   2.022
 2045SOL     OW 7033   1.897   4.470   5.179
 2045SOL    HW1 7034   1.973   4.514   5.131
 2045SOL    HW2 7035   1.907   4.371   5.172
 2046SOL     OW 7036   6.489   0.917   4.342
 2046SOL    HW1 7037   6.536   0.836   4.307
 2046SOL    HW2 7038   6.400   0.926   4.296
 2047SOL     OW 7039   4.266   2.030   0.414
 2047SOL    HW1 7040   4.357   2.056   0.381
 2047SOL    HW2 7041   4.274   1.983   0.502
 2048SOL     OW 7042   2.598   5.513   0.386
 2048SOL    HW1 7043   2.658   5.558   0.319
 2048SOL    HW2 7044   2.639   5.426   0.414
 2049SOL     OW 7045   4.546   1.611   6.130
 2049SOL    HW1 7046   4.619   1.605   6.198
 2049SOL    HW2 7047   4.487   1.690   6.152
 2050SOL     OW 7048   6.257   2.235   3.423
 2050SOL    HW1 7049   6.206   2.294   3.486
 2050SOL    HW2 7050   6.221   2.141   3.429
 2051SOL     OW 7051   0.084   5.215   0.573
 2051SOL    HW1 7052   0.117   5.260   0.490
 2051SOL    HW2 7053   0.020   5.276   0.620
 2052SOL     OW 7054   0.516   4.222   0.523
 2052SOL    HW1 7055   0.512   4.214   0.623
 2052SOL    HW2 7056   0.423   4.228   0.487
 2053SOL     OW 7057   6.256   0.590   7.004
 2053SOL    HW1 7058   6.266   0.570   6.907
 2053SOL    HW2 7059   6.176   0.542   0.023
 2054SOL     OW 7060   4.885   3.016   1.750
 2054SOL    HW1 7061   4.851   2.944   1.690
 2054SOL    HW2 7062   4.847   3.004   1.842
 2055SOL     OW 7063   6.114   3.006   3.010
 2055SOL    HW1 7064   6.022   3.019   2.971
 2055SOL    HW2 7065   6.151   3.095   3.037
 2056SOL     OW 7066   2.464   0.785   2.798
 2056SOL    HW1 7067   2.471   0.875   2.841
 2056SOL    HW2 7068   2.420   0.721   2.861
 2057SOL     OW 7069   5.536   2.288   3.608
 2057SOL    HW1 7070   5.496   2.345   3.537
 2057SOL    HW2 7071   5.594   2.344   3.667
 2058SOL     OW 7072   1.228   1.402   3.108
 2058SOL    HW1 7073   1.253   1.499   3.110
 2058SOL    HW2 7074   1.308   1.347   3.086
 2059SOL     OW 7075   2.745   6.407   6.380
 2059SOL    HW1 7076   2.779   6.322   6.420
 2059SOL    HW2 7077   2.786   6.420   6.290
 2060SOL     OW 7078   6.675   4.191   0.630
 2060SOL    HW1 7079   6.588   4.142   0.643
 2060SOL    HW2 7080   6.732   4.180   0.711
 2061SOL     OW 7081   0.955   1.571   2.949
 2061SOL    HW1 7082   0.968   1.476   2.919
 2061SOL    HW2 7083   0.949   1.575   3.048
 2062SOL     OW 7084   5.795   0.064   3.457
 2062SOL    HW1 7085   5.802   0.025   3.366
 2062SOL    HW2 7086   5.830   7.016   3.524
 2063SOL     OW 7087   1.536   0.619   6.101
 2063SOL    HW1 7088   1.564   0.601   6.195
 2063SOL    HW2 7089   1.609   0.669   6.053
 2064SOL     OW 7090   1.033   1.580   5.907
 2064SOL    HW1 7091   0.996   1.671   5.931
 2064SOL    HW2 7092   0.961   1.511   5.921
 2065SOL     OW 7093   6.515   3.480   2.616
 2065SOL    HW1 7094   6.452   3.401   2.617
 2065SOL    HW2 7095   6.576   3.475   2.695
 2066SOL     OW 7096   0.652   6.121   3.939
 2066SOL    HW1 7097   0.730   6.059   3.932
 2066SOL    HW2 7098   0.581   6.081   3.996
 2067SOL     OW 7099   6.349   5.947   0.519
 2067SOL    HW1 7100   6.417   5.896   0.467
 2067SOL    HW2 7101   6.394   6.020   0.571
 2068SOL     OW 7102   1.315   1.697   5.505
 2068SOL    HW1 7103   1.394   1.680   5.565
 2068SOL    HW2 7104   1.346   1.706   5.411
 2069SOL     OW 7105   0.937   3.014   3.808
 2069SOL    HW1 7106   0.963   3.109   3.828
 2069SOL    HW2 7107   0.903   3.009   3.714
 2070SOL     OW 7108   1.557   0.629   2.840
 2070SOL    HW1 7109   1.520   0.699   2.901
 2070SOL    HW2 7110   1.482   0.580   2.796
 2071SOL     OW 7111   6.588   5.964   5.331
 2071SOL    HW1 7112   6.527   5.888   5.355
 2071SOL    HW2 7113   6.536   6.050   5.335
 2072SOL     OW 7114   4.318   6.561   2.195
 2072SOL    HW1 7115   4.335   6.463   2.206
 2072SOL    HW2 7116   4.234   6.586   2.244
 2073SOL     OW 7117   3.492   0.098   4.236
 2073SOL    HW1 7118   3.511   7.017   4.242
 2073SOL    HW2 7119   3.573   0.149   4.264
 2074SOL     OW 7120   0.965   3.524   0.814
 2074SOL    HW1 7121   1.025   3.495   0.889
 2074SOL    HW2 7122   1.019   3.531   0.730
 2075SOL     OW 7123   5.292   2.891   1.624
 2075SOL    HW1 7124   5.221   2.954   1.590
 2075SOL    HW2 7125   5.250   2.823   1.683
 2076SOL     OW 7126   4.628   6.946   6.806
 2076SOL    HW1 7127   4.610   0.027   6.803
 2076SOL    HW2 7128   4.699   6.922   6.740
 2077SOL     OW 7129   4.994   2.244   2.556
 2077SOL    HW1 7130   4.938   2.255   2.637
 2077SOL    HW2 7131   4.982   2.152   2.519
 2078SOL     OW 7132   1.483   6.342   6.357
 2078SOL    HW1 7133   1.481   6.247   6.325
 2078SOL    HW2 7134   1.491   6.343   6.457
 2079SOL     OW 7135   5.679   1.046   3.297
 2079SOL    HW1 7136   5.764   1.085   3.261
 2079SOL    HW2 7137   5.684   1.042   3.397
 2080SOL     OW 7138   1.186   0.787   4.462
 2080SOL    HW1 7139   1.232   0.704   4.493
 2080SOL    HW2 7140   1.254   0.851   4.425
 2081SOL     OW 7141   2.236   5.352   4.790
 2081SOL    HW1 7142   2.172   5.373   4.864
 2081SOL    HW2 7143   2.236   5.254   4.772
 2082SOL     OW 7144   6.870   0.371   3.031
 2082SOL    HW1 7145   6.834   0.346   3.121
 2082SOL    HW2 7146   6.795   0.402   2.973
 2083SOL     OW 7147   4.809   4.700   6.432
 2083SOL    HW1 7148   4.778   4.778   6.486
 2083SOL    HW2 7149   4.875   4.730   6.364
 2084SOL     OW 7150   6.688   4.074   4.081
 2084SOL    HW1 7151   6.608   4.090   4.139
 2084SOL    HW2 7152   6.659   4.032   3.995
 2085SOL     OW 7153   4.805   0.855   6.721
 2085SOL    HW1 7154   4.875   0.864   6.650
 2085SOL    HW2 7155   4.846   0.870   6.811
 2086SOL     OW 7156   3.385   6.743   5.304
 2086SOL    HW1 7157   3.366   6.664   5.361
 2086SOL    HW2 7158   3.419   6.712   5.215
 2087SOL     OW 7159   5.209   6.978   1.826
 2087SOL    HW1 7160   5.267   6.954   1.904
 2087SOL    HW2 7161   5.145   6.903   1.807
 2088SOL     OW 7162   2.788   6.248   0.635
 2088SOL    HW1 7163   2.719   6.260   0.564
 2088SOL    HW2 7164   2.775   6.159   0.680
 2089SOL     OW 7165   5.229   2.252   6.695
 2089SOL    HW1 7166   5.144   2.243   6.643
 2089SOL    HW2 7167   5.217   2.209   6.785
 2090SOL     OW 7168   3.504   3.804   5.436
 2090SOL    HW1 7169   3.586   3.761   5.473
 2090SOL    HW2 7170   3.469   3.751   5.359
 2091SOL     OW 7171   6.728   5.267   0.085
 2091SOL    HW1 7172   6.768   5.358   0.085
 2091SOL    HW2 7173   6.646   5.266   0.143
 2092SOL     OW 7174   4.327   4.822   7.006
 2092SOL    HW1 7175   4.283   4.792   0.074
 2092SOL    HW2 7176   4.258   4.854   6.942
 2093SOL     OW 7177   2.551   2.504   1.850
 2093SOL    HW1 7178   2.581   2.496   1.945
 2093SOL    HW2 7179   2.618   2.462   1.790
 2094SOL     OW 7180   5.791   1.750   0.884
 2094SOL    HW1 7181   5.889   1.762   0.871
 2094SOL    HW2 7182   5.752   1.701   0.806
 2095SOL     OW 7183   5.176   0.385   4.883
 2095SOL    HW1 7184   5.275   0.400   4.881
 2095SOL    HW2 7185   5.154   0.295   4.847
 2096SOL     OW 7186   4.423   4.518   2.708
 2096SOL    HW1 7187   4.357   4.490   2.777
 2096SOL    HW2 7188   4.439   4.617   2.715
 2097SOL     OW 7189   1.479   3.133   6.513
 2097SOL    HW1 7190   1.444   3.211   6.563
 2097SOL    HW2 7191   1.548   3.086   6.568
 2098SOL     OW 7192   4.112   5.275   3.490
 2098SOL    HW1 7193   4.126   5.302   3.585
 2098SOL    HW2 7194   4.042   5.204   3.485
 2099SOL     OW 7195   2.710   3.134   5.362
 2099SOL    HW1 7196   2.784   3.078   5.324
 2099SOL    HW2 7197   2.622   3.099   5.330
 2100SOL     OW 7198   4.255   3.288   5.929
 2100SOL    HW1 7199   4.247   3.315   5.833
 2100SOL    HW2 7200   4.183   3.332   5.982
 2101SOL     OW 7201   1.724   5.835   3.168
 2101SOL    HW1 7202   1.712   5.908   3.236
 2101SOL    HW2 7203   1.643   5.777   3.167
 2102SOL     OW 7204   6.165   5.074   1.964
 2102SOL    HW1 7205   6.168   5.004   1.892
 2102SOL    HW2 7206   6.237   5.141   1.948
 2103SOL     OW 7207   2.945   3.747   6.137
 2103SOL    HW1 7208   2.942   3.651   6.109
 2103SOL    HW2 7209   3.011   3.796   6.080
 2104SOL     OW 7210   1.138   3.210   0.584
 2104SOL    HW1 7211   1.199   3.272   0.634
 2104SOL    HW2 7212   1.153   3.221   0.486
 2105SOL     OW 7213   4.925   5.621   4.439
 2105SOL    HW1 7214   5.024   5.616   4.446
 2105SOL    HW2 7215   4.885   5.627   4.531
 2106SOL     OW 7216   4.534   4.389   0.753
 2106SOL    HW1 7217   4.604   4.318   0.743
 2106SOL    HW2 7218   4.530   4.419   0.848
 2107SOL     OW 7219   5.399   2.883   5.460
 2107SOL    HW1 7220   5.494   2.853   5.463
 2107SOL    HW2 7221   5.395   2.983   5.463
 2108SOL     OW 7222   6.869   6.440   5.179
 2108SOL    HW1 7223   6.940   6.384   5.221
 2108SOL    HW2 7224   6.809   6.478   5.250
 2109SOL     OW 7225   4.452   6.244   3.288
 2109SOL    HW1 7226   4.462   6.199   3.376
 2109SOL    HW2 7227   4.356   6.245   3.261
 2110SOL     OW 7228   2.964   2.360   6.373
 2110SOL    HW1 7229   3.026   2.321   6.442
 2110SOL    HW2 7230   2.883   2.303   6.365
 2111SOL     OW 7231   1.682   2.158   0.096
 2111SOL    HW1 7232   1.704   2.214   0.176
 2111SOL    HW2 7233   1.714   2.203   0.013
 2112SOL     OW 7234   5.348   2.569   0.524
 2112SOL    HW1 7235   5.380   2.581   0.618
 2112SOL    HW2 7236   5.262   2.617   0.511
 2113SOL     OW 7237   0.991   0.673   5.423
 2113SOL    HW1 7238   0.903   0.721   5.431
 2113SOL    HW2 7239   0.989   0.591   5.480
 2114SOL     OW 7240   1.839   2.831   1.026
 2114SOL    HW1 7241   1.858   2.915   0.976
 2114SOL    HW2 7242   1.808   2.853   1.119
 2115SOL     OW 7243   2.107   3.392   2.807
 2115SOL    HW1 7244   2.128   3.356   2.716
 2115SOL    HW2 7245   2.189   3.434   2.845
 2116SOL     OW 7246   0.433   5.159   3.273
 2116SOL    HW1 7247   0.492   5.110   3.337
 2116SOL    HW2 7248   0.453   5.129   3.180
 2117SOL     OW 7249   6.778   4.473   1.585
 2117SOL    HW1 7250   6.853   4.459   1.521
 2117SOL    HW2 7251   6.811   4.524   1.664
 2118SOL     OW 7252   6.627   3.271   1.362
 2118SOL    HW1 7253   6.666   3.180   1.368
 2118SOL    HW2 7254   6.620   3.298   1.265
 2119SOL     OW 7255   2.439   5.902   1.212
 2119SOL    HW1 7256   2.360   5.942   1.165
 2119SOL    HW2 7257   2.407   5.840   1.284
 2120SOL     OW 7258   0.586   4.668   4.162
 2120SOL    HW1 7259   0.671   4.616   4.173
 2120SOL    HW2 7260   0.518   4.611   4.116
 2121SOL     OW 7261   1.093   4.044   5.435
 2121SOL    HW1 7262   1.041   4.048   5.521
 2121SOL    HW2 7263   1.036   4.005   5.363
 2122SOL     OW 7264   5.384   4.194   6.089
 2122SOL    HW1 7265   5.309   4.211   6.152
 2122SOL    HW2 7266   5.362   4.232   5.999
 2123SOL     OW 7267   6.867   5.523   1.901
 2123SOL    HW1 7268   6.769   5.510   1.888
 2123SOL    HW2 7269   6.895   5.480   1.987
 2124SOL     OW 7270   2.975   1.708   1.622
 2124SOL    HW1 7271   3.006   1.653   1.700
 2124SOL    HW2 7272   3.041   1.703   1.548
 2125SOL     OW 7273   1.970   0.616   1.565
 2125SOL    HW1 7274   2.031   0.597   1.641
 2125SOL    HW2 7275   2.022   0.621   1.480
 2126SOL     OW 7276   3.893   0.940   6.942
 2126SOL    HW1 7277   3.974   0.998   6.942
 2126SOL    HW2 7278   3.810   0.996   6.948
 2127SOL     OW 7279   6.646   3.137   4.456
 2127SOL    HW1 7280   6.597   3.111   4.539
 2127SOL    HW2 7281   6.716   3.205   4.479
 2128SOL     OW 7282   6.599   3.351   3.688
 2128SOL    HW1 7283   6.596   3.286   3.612
 2128SOL    HW2 7284   6.513   3.346   3.740
 2129SOL     OW 7285   4.559   3.602   5.874
 2129SOL    HW1 7286   4.582   3.694   5.905
 2129SOL    HW2 7287   4.521   3.605   5.782
 2130SOL     OW 7288   3.335   0.976   2.092
 2130SOL    HW1 7289   3.415   1.031   2.070
 2130SOL    HW2 7290   3.352   0.926   2.178
 2131SOL     OW 7291   6.478   0.127   0.156
 2131SOL    HW1 7292   6.451   0.133   0.252
 2131SOL    HW2 7293   6.454   0.037   0.119
 2132SOL     OW 7294   3.877   1.856   1.533
 2132SOL    HW1 7295   3.844   1.943   1.496
 2132SOL    HW2 7296   3.914   1.871   1.625
 2133SOL     OW 7297   2.667   3.314   6.639
 2133SOL    HW1 7298   2.761   3.329   6.669
 2133SOL    HW2 7299   2.609   3.390   6.671
 2134SOL     OW 7300   0.193   2.788   0.136
 2134SOL    HW1 7301   0.241   2.806   0.223
 2134SOL    HW2 7302   0.212   2.863   0.072
 2135SOL     OW 7303   0.086   3.893   4.050
 2135SOL    HW1 7304   0.046   3.806   4.081
 2135SOL    HW2 7305   0.043   3.920   3.964
 2136SOL     OW 7306   1.651   4.258   2.868
 2136SOL    HW1 7307   1.573   4.320   2.855
 2136SOL    HW2 7308   1.629   4.193   2.941
 2137SOL     OW 7309   2.931   5.473   5.307
 2137SOL    HW1 7310   2.952   5.570   5.303
 2137SOL    HW2 7311   2.998   5.422   5.253
 2138SOL     OW 7312   6.729   6.448   2.886
 2138SOL    HW1 7313   6.770   6.361   2.913
 2138SOL    HW2 7314   6.634   6.432   2.858
 2139SOL     OW 7315   4.525   0.748   3.756
 2139SOL    HW1 7316   4.593   0.725   3.687
 2139SOL    HW2 7317   4.434   0.723   3.724
 2140SOL     OW 7318   3.295   0.262   4.197
 2140SOL    HW1 7319   3.365   0.191   4.196
 2140SOL    HW2 7320   3.226   0.242   4.128
 2141SOL     OW 7321   6.506   3.256   2.163
 2141SOL    HW1 7322   6.440   3.181   2.162
 2141SOL    HW2 7323   6.555   3.257   2.250
 2142SOL     OW 7324   1.550   1.346   3.512
 2142SOL    HW1 7325   1.561   1.398   3.597
 2142SOL    HW2 7326   1.607   1.386   3.441
 2143SOL     OW 7327   3.223   5.003   1.344
 2143SOL    HW1 7328   3.278   5.085   1.365
 2143SOL    HW2 7329   3.258   4.925   1.396
 2144SOL     OW 7330   0.395   5.477   4.497
 2144SOL    HW1 7331   0.488   5.472   4.459
 2144SOL    HW2 7332   0.374   5.391   4.543
 2145SOL     OW 7333   3.814   6.383   4.135
 2145SOL    HW1 7334   3.718   6.378   4.107
 2145SOL    HW2 7335   3.848   6.476   4.119
 2146SOL     OW 7336   2.260   3.397   0.738
 2146SOL    HW1 7337   2.248   3.372   0.834
 2146SOL    HW2 7338   2.302   3.321   0.689
 2147SOL     OW 7339   6.068   1.708   6.159
 2147SOL    HW1 7340   6.155   1.701   6.209
 2147SOL    HW2 7341   6.003   1.763   6.211
 2148SOL     OW 7342   6.053   3.355   6.279
 2148SOL    HW1 7343   6.088   3.336   6.371
 2148SOL    HW2 7344   6.028   3.452   6.273
 2149SOL     OW 7345   2.428   1.760   1.041
 2149SOL    HW1 7346   2.408   1.822   1.117
 2149SOL    HW2 7347   2.353   1.695   1.030
 2150SOL     OW 7348   2.375   2.491   2.197
 2150SOL    HW1 7349   2.474   2.478   2.197
 2150SOL    HW2 7350   2.331   2.410   2.238
 2151SOL     OW 7351   2.029   6.609   6.519
 2151SOL    HW1 7352   1.961   6.668   6.476
 2151SOL    HW2 7353   2.070   6.657   6.597
 2152SOL     OW 7354   3.703   4.885   2.201
 2152SOL    HW1 7355   3.676   4.827   2.278
 2152SOL    HW2 7356   3.659   4.852   2.117
 2153SOL     OW 7357   4.655   1.508   2.566
 2153SOL    HW1 7358   4.623   1.424   2.611
 2153SOL    HW2 7359   4.578   1.569   2.551
 2154SOL     OW 7360   5.044   0.413   4.605
 2154SOL    HW1 7361   5.076   0.500   4.642
 2154SOL    HW2 7362   5.016   0.425   4.510
 2155SOL     OW 7363   3.987   6.663   1.248
 2155SOL    HW1 7364   4.077   6.703   1.235
 2155SOL    HW2 7365   3.917   6.733   1.231
 2156SOL     OW 7366   0.521   1.282   4.953
 2156SOL    HW1 7367   0.452   1.228   5.002
 2156SOL    HW2 7368   0.512   1.378   4.977
 2157SOL     OW 7369   6.032   6.732   2.834
 2157SOL    HW1 7370   6.024   6.708   2.930
 2157SOL    HW2 7371   6.122   6.706   2.800
 2158SOL     OW 7372   3.907   6.091   1.078
 2158SOL    HW1 7373   3.859   6.134   1.001
 2158SOL    HW2 7374   3.852   6.015   1.113
 2159SOL     OW 7375   1.516   0.771   4.717
 2159SOL    HW1 7376   1.546   0.860   4.684
 2159SOL    HW2 7377   1.592   0.706   4.711
 2160SOL     OW 7378   4.385   4.197   6.933
 2160SOL    HW1 7379   4.337   4.110   6.945
 2160SOL    HW2 7380   4.470   4.181   6.882
 2161SOL     OW 7381   5.894   4.625   2.207
 2161SOL    HW1 7382   5.947   4.555   2.254
 2161SOL    HW2 7383   5.916   4.715   2.246
 2162SOL     OW 7384   3.544   0.415   2.197
 2162SOL    HW1 7385   3.565   0.510   2.222
 2162SOL    HW2 7386   3.486   0.374   2.267
 2163SOL     OW 7387   1.700   4.271   0.290
 2163SOL    HW1 7388   1.653   4.287   0.376
 2163SOL    HW2 7389   1.716   4.358   0.243
 2164SOL     OW 7390   1.813   1.717   6.537
 2164SOL    HW1 7391   1.812   1.772   6.621
 2164SOL    HW2 7392   1.739   1.746   6.477
 2165SOL     OW 7393   6.952   2.154   3.486
 2165SOL    HW1 7394   0.024   2.153   3.440
 2165SOL    HW2 7395   6.959   2.203   3.572
 2166SOL     OW 7396   1.594   2.694   4.705
 2166SOL    HW1 7397   1.687   2.669   4.734
 2166SOL    HW2 7398   1.529   2.671   4.778
 2167SOL     OW 7399   1.932   2.030   3.874
 2167SOL    HW1 7400   2.014   2.009   3.926
 2167SOL    HW2 7401   1.851   2.006   3.928
 2168SOL     OW 7402   0.961   1.671   3.236
 2168SOL    HW1 7403   0.883   1.723   3.202
 2168SOL    HW2 7404   1.020   1.731   3.291
 2169SOL     OW 7405   5.535   2.341   0.084
 2169SOL    HW1 7406   5.573   2.414   0.141
 2169SOL    HW2 7407   5.606   2.274   0.063
 2170SOL     OW 7408   6.707   4.180   5.006
 2170SOL    HW1 7409   6.801   4.167   4.973
 2170SOL    HW2 7410   6.649   4.109   4.966
 2171SOL     OW 7411   0.118   5.464   1.550
 2171SOL    HW1 7412   0.197   5.510   1.591
 2171SOL    HW2 7413   0.078   5.403   1.618
 2172SOL     OW 7414   2.098   1.859   6.736
 2172SOL    HW1 7415   2.079   1.763   6.758
 2172SOL    HW2 7416   2.166   1.863   6.662
 2173SOL     OW 7417   4.345   0.651   5.626
 2173SOL    HW1 7418   4.316   0.616   5.715
 2173SOL    HW2 7419   4.380   0.744   5.636
 2174SOL     OW 7420   6.801   5.574   5.163
 2174SOL    HW1 7421   6.738   5.545   5.234
 2174SOL    HW2 7422   6.794   5.512   5.085
 2175SOL     OW 7423   1.506   2.812   4.214
 2175SOL    HW1 7424   1.557   2.792   4.298
 2175SOL    HW2 7425   1.503   2.911   4.201
 2176SOL     OW 7426   5.557   2.114   0.689
 2176SOL    HW1 7427   5.458   2.114   0.703
 2176SOL    HW2 7428   5.599   2.042   0.745
 2177SOL     OW 7429   6.987   1.616   2.526
 2177SOL    HW1 7430   0.007   1.638   2.616
 2177SOL    HW2 7431   6.932   1.692   2.493
 2178SOL     OW 7432   1.543   1.768   2.191
 2178SOL    HW1 7433   1.525   1.681   2.236
 2178SOL    HW2 7434   1.532   1.758   2.092
 2179SOL     OW 7435   1.886   4.935   5.848
 2179SOL    HW1 7436   1.930   4.980   5.926
 2179SOL    HW2 7437   1.878   5.000   5.772
 2180SOL     OW 7438   1.451   2.567   2.217
 2180SOL    HW1 7439   1.468   2.659   2.253
 2180SOL    HW2 7440   1.538   2.518   2.207
 2181SOL     OW 7441   4.525   4.890   4.505
 2181SOL    HW1 7442   4.594   4.916   4.437
 2181SOL    HW2 7443   4.559   4.909   4.597
 2182SOL     OW 7444   1.745   3.956   3.583
 2182SOL    HW1 7445   1.691   3.902   3.648
 2182SOL    HW2 7446   1.758   4.048   3.619
 2183SOL     OW 7447   2.260   4.489   6.646
 2183SOL    HW1 7448   2.161   4.471   6.646
 2183SOL    HW2 7449   2.308   4.406   6.673
 2184SOL     OW 7450   4.641   0.897   5.965
 2184SOL    HW1 7451   4.714   0.849   6.013
 2184SOL    HW2 7452   4.670   0.918   5.871
 2185SOL     OW 7453   0.639   0.513   0.770
 2185SOL    HW1 7454   0.643   0.475   0.677
 2185SOL    HW2 7455   0.544   0.516   0.800
 2186SOL     OW 7456   6.379   5.564   0.260
 2186SOL    HW1 7457   6.327   5.543   0.177
 2186SOL    HW2 7458   6.319   5.607   0.327
 2187SOL     OW 7459   6.935   5.710   2.534
 2187SOL    HW1 7460   6.946   5.637   2.467
 2187SOL    HW2 7461   0.007   5.736   2.569
 2188SOL     OW 7462   0.028   5.689   5.275
 2188SOL    HW1 7463   0.097   5.633   5.228
 2188SOL    HW2 7464   6.956   5.673   5.233
 2189SOL     OW 7465   2.345   0.249   1.687
 2189SOL    HW1 7466   2.250   0.219   1.692
 2189SOL    HW2 7467   2.376   0.276   1.778
 2190SOL     OW 7468   6.961   3.459   1.956
 2190SOL    HW1 7469   7.006   3.541   1.921
 2190SOL    HW2 7470   6.938   3.472   2.052
 2191SOL     OW 7471   2.626   1.865   6.206
 2191SOL    HW1 7472   2.712   1.845   6.254
 2191SOL    HW2 7473   2.640   1.942   6.144
 2192SOL     OW 7474   4.880   1.096   2.403
 2192SOL    HW1 7475   4.842   1.148   2.479
 2192SOL    HW2 7476   4.854   1.139   2.316
 2193SOL     OW 7477   5.946   0.054   6.862
 2193SOL    HW1 7478   5.906   0.010   6.942
 2193SOL    HW2 7479   6.033   0.010   6.840
 2194SOL     OW 7480   2.083   4.603   6.016
 2194SOL    HW1 7481   2.172   4.605   5.970
 2194SOL    HW2 7482   2.020   4.545   5.963
 2195SOL     OW 7483   6.818   0.007   5.299
 2195SOL    HW1 7484   6.720   0.028   5.299
 2195SOL    HW2 7485   6.852   0.006   5.205
 2196SOL     OW 7486   3.857   0.379   4.609
 2196SOL    HW1 7487   3.844   0.404   4.705
 2196SOL    HW2 7488   3.877   0.282   4.602
 2197SOL     OW 7489   2.912   3.372   6.747
 2197SOL    HW1 7490   3.012   3.373   6.744
 2197SOL    HW2 7491   2.882   3.375   6.842
 2198SOL     OW 7492   5.355   0.261   1.037
 2198SOL    HW1 7493   5.255   0.254   1.034
 2198SOL    HW2 7494   5.390   0.204   1.111
 2199SOL     OW 7495   5.325   6.223   3.799
 2199SOL    HW1 7496   5.346   6.294   3.866
 2199SOL    HW2 7497   5.250   6.166   3.834
 2200SOL     OW 7498   2.157   1.998   3.996
 2200SOL    HW1 7499   2.183   2.094   4.001
 2200SOL    HW2 7500   2.239   1.941   4.002
 2201SOL     OW 7501   6.356   2.931   3.532
 2201SOL    HW1 7502   6.281   2.943   3.596
 2201SOL    HW2 7503   6.382   3.020   3.494
 2202SOL     OW 7504   3.604   5.774   2.386
 2202SOL    HW1 7505   3.523   5.788   2.330
 2202SOL    HW2 7506   3.686   5.790   2.331
 2203SOL     OW 7507   2.016   3.060   1.238
 2203SOL    HW1 7508   2.102   3.110   1.225
 2203SOL    HW2 7509   1.992   3.014   1.153
 2204SOL     OW 7510   4.994   1.707   1.143
 2204SOL    HW1 7511   5.090   1.727   1.125
 2204SOL    HW2 7512   4.937   1.782   1.107
 2205SOL     OW 7513   0.771   6.471   6.612
 2205SOL    HW1 7514   0.847   6.492   6.549
 2205SOL    HW2 7515   0.755   6.549   6.672
 2206SOL     OW 7516   3.499   5.135   5.811
 2206SOL    HW1 7517   3.481   5.227   5.775
 2206SOL    HW2 7518   3.420   5.104   5.864
 2207SOL     OW 7519   2.532   5.211   6.347
 2207SOL    HW1 7520   2.552   5.294   6.399
 2207SOL    HW2 7521   2.603   5.198   6.278
 2208SOL     OW 7522   1.507   4.980   3.420
 2208SOL    HW1 7523   1.488   4.890   3.381
 2208SOL    HW2 7524   1.452   5.050   3.373
 2209SOL     OW 7525   1.459   0.120   5.638
 2209SOL    HW1 7526   1.405   0.091   5.559
 2209SOL    HW2 7527   1.431   0.067   5.718
 2210SOL     OW 7528   0.097   4.089   4.225
 2210SOL    HW1 7529   0.095   4.173   4.171
 2210SOL    HW2 7530   0.116   4.011   4.166
 2211SOL     OW 7531   6.334   0.480   0.641
 2211SOL    HW1 7532   6.304   0.572   0.666
 2211SOL    HW2 7533   6.307   0.460   0.547
 2212SOL     OW 7534   2.775   5.962   0.737
 2212SOL    HW1 7535   2.845   5.956   0.808
 2212SOL    HW2 7536   2.760   5.872   0.696
 2213SOL     OW 7537   3.449   1.386   5.102
 2213SOL    HW1 7538   3.352   1.406   5.087
 2213SOL    HW2 7539   3.504   1.464   5.073
 2214SOL     OW 7540   3.235   4.051   4.659
 2214SOL    HW1 7541   3.163   4.034   4.592
 2214SOL    HW2 7542   3.194   4.072   4.748
 2215SOL     OW 7543   5.670   1.388   0.070
 2215SOL    HW1 7544   5.581   1.343   0.079
 2215SOL    HW2 7545   5.659   1.472   0.016
 2216SOL     OW 7546   1.574   0.848   6.908
 2216SOL    HW1 7547   1.640   0.840   6.834
 2216SOL    HW2 7548   1.505   0.776   6.899
 2217SOL     OW 7549   4.087   0.017   2.466
 2217SOL    HW1 7550   4.063   6.981   2.385
 2217SOL    HW2 7551   4.153   6.983   2.522
 2218SOL     OW 7552   6.729   5.148   6.862
 2218SOL    HW1 7553   6.723   5.194   6.950
 2218SOL    HW2 7554   6.817   5.100   6.854
 2219SOL     OW 7555   5.513   1.303   0.731
 2219SOL    HW1 7556   5.567   1.229   0.773
 2219SOL    HW2 7557   5.447   1.338   0.798
 2220SOL     OW 7558   2.435   6.302   5.209
 2220SOL    HW1 7559   2.354   6.284   5.154
 2220SOL    HW2 7560   2.502   6.229   5.195
 2221SOL     OW 7561   5.960   1.932   5.344
 2221SOL    HW1 7562   6.035   1.897   5.287
 2221SOL    HW2 7563   5.916   1.856   5.391
 2222SOL     OW 7564   5.632   0.690   0.663
 2222SOL    HW1 7565   5.546   0.732   0.692
 2222SOL    HW2 7566   5.678   0.750   0.597
 2223SOL     OW 7567   5.515   1.312   5.797
 2223SOL    HW1 7568   5.548   1.406   5.807
 2223SOL    HW2 7569   5.542   1.278   5.707
 2224SOL     OW 7570   6.881   3.423   0.454
 2224SOL    HW1 7571   6.819   3.459   0.385
 2224SOL    HW2 7572   6.838   3.429   0.544
 2225SOL     OW 7573   6.110   6.646   3.842
 2225SOL    HW1 7574   6.040   6.686   3.902
 2225SOL    HW2 7575   6.118   6.548   3.860
 2226SOL     OW 7576   3.802   5.844   0.761
 2226SOL    HW1 7577   3.885   5.890   0.792
 2226SOL    HW2 7578   3.758   5.800   0.839
 2227SOL     OW 7579   5.713   3.051   6.938
 2227SOL    HW1 7580   5.633   3.071   6.994
 2227SOL    HW2 7581   5.704   3.096   6.849
 2228SOL     OW 7582   4.552   5.621   1.289
 2228SOL    HW1 7583   4.545   5.709   1.242
 2228SOL    HW2 7584   4.476   5.562   1.259
 2229SOL     OW 7585   4.440   2.575   5.417
 2229SOL    HW1 7586   4.505   2.637   5.374
 2229SOL    HW2 7587   4.394   2.622   5.492
 2230SOL     OW 7588   5.993   6.345   0.334
 2230SOL    HW1 7589   6.050   6.263   0.344
 2230SOL    HW2 7590   6.030   6.417   0.392
 2231SOL     OW 7591   0.376   1.191   1.559
 2231SOL    HW1 7592   0.413   1.239   1.479
 2231SOL    HW2 7593   0.289   1.233   1.585
 2232SOL     OW 7594   0.902   2.101   4.378
 2232SOL    HW1 7595   0.867   2.040   4.448
 2232SOL    HW2 7596   0.852   2.086   4.292
 2233SOL     OW 7597   2.090   2.727   0.382
 2233SOL    HW1 7598   2.053   2.659   0.447
 2233SOL    HW2 7599   2.087   2.818   0.424
 2234SOL     OW 7600   4.597   1.630   1.091
 2234SOL    HW1 7601   4.583   1.531   1.093
 2234SOL    HW2 7602   4.572   1.669   1.180
 2235SOL     OW 7603   2.921   0.546   1.590
 2235SOL    HW1 7604   2.893   0.617   1.525
 2235SOL    HW2 7605   3.017   0.559   1.614
 2236SOL     OW 7606   2.328   3.893   6.790
 2236SOL    HW1 7607   2.282   3.805   6.793
 2236SOL    HW2 7608   2.410   3.887   6.734
 2237SOL     OW 7609   5.945   4.520   3.603
 2237SOL    HW1 7610   5.909   4.428   3.585
 2237SOL    HW2 7611   5.873   4.575   3.646
 2238SOL     OW 7612   4.535   5.026   1.579
 2238SOL    HW1 7613   4.467   4.976   1.634
 2238SOL    HW2 7614   4.511   5.017   1.482
 2239SOL     OW 7615   3.881   5.082   4.169
 2239SOL    HW1 7616   3.883   5.082   4.269
 2239SOL    HW2 7617   3.787   5.069   4.137
 2240SOL     OW 7618   3.356   5.910   3.393
 2240SOL    HW1 7619   3.423   5.931   3.464
 2240SOL    HW2 7620   3.333   5.813   3.397
 2241SOL     OW 7621   0.890   5.528   3.580
 2241SOL    HW1 7622   0.872   5.499   3.674
 2241SOL    HW2 7623   0.812   5.502   3.522
 2242SOL     OW 7624   5.641   3.294   2.698
 2242SOL    HW1 7625   5.580   3.339   2.763
 2242SOL    HW2 7626   5.627   3.331   2.607
 2243SOL     OW 7627   1.737   6.570   5.862
 2243SOL    HW1 7628   1.702   6.482   5.832
 2243SOL    HW2 7629   1.822   6.557   5.914
 2244SOL     OW 7630   2.336   6.600   1.341
 2244SOL    HW1 7631   2.404   6.544   1.293
 2244SOL    HW2 7632   2.384   6.665   1.401
 2245SOL     OW 7633   0.510   1.935   1.292
 2245SOL    HW1 7634   0.443   1.862   1.303
 2245SOL    HW2 7635   0.490   1.986   1.208
 2246SOL     OW 7636   1.767   0.801   4.368
 2246SOL    HW1 7637   1.682   0.819   4.319
 2246SOL    HW2 7638   1.816   0.888   4.383
 2247SOL     OW 7639   3.268   3.161   3.496
 2247SOL    HW1 7640   3.300   3.249   3.461
 2247SOL    HW2 7641   3.343   3.095   3.496
 2248SOL     OW 7642   6.558   4.002   5.385
 2248SOL    HW1 7643   6.570   3.936   5.311
 2248SOL    HW2 7644   6.505   3.960   5.458
 2249SOL     OW 7645   5.640   6.470   3.948
 2249SOL    HW1 7646   5.684   6.507   4.030
 2249SOL    HW2 7647   5.541   6.471   3.960
 2250SOL     OW 7648   3.390   3.601   5.260
 2250SOL    HW1 7649   3.384   3.666   5.184
 2250SOL    HW2 7650   3.403   3.509   5.225
 2251SOL     OW 7651   5.278   0.311   6.421
 2251SOL    HW1 7652   5.316   0.372   6.491
 2251SOL    HW2 7653   5.343   0.236   6.405
 2252SOL     OW 7654   4.507   2.177   2.683
 2252SOL    HW1 7655   4.429   2.146   2.738
 2252SOL    HW2 7656   4.482   2.262   2.636
 2253SOL     OW 7657   7.013   3.944   6.932
 2253SOL    HW1 7658   6.963   3.924   7.017
 2253SOL    HW2 7659   6.983   4.032   6.896
 2254SOL     OW 7660   3.549   3.078   4.837
 2254SOL    HW1 7661   3.582   3.096   4.744
 2254SOL    HW2 7662   3.613   3.018   4.884
 2255SOL     OW 7663   4.025   3.426   5.945
 2255SOL    HW1 7664   4.015   3.472   5.857
 2255SOL    HW2 7665   4.012   3.492   6.019
 2256SOL     OW 7666   4.623   5.983   2.409
 2256SOL    HW1 7667   4.524   5.969   2.408
 2256SOL    HW2 7668   4.643   6.074   2.445
 2257SOL     OW 7669   0.206   2.458   4.303
 2257SOL    HW1 7670   0.247   2.420   4.385
 2257SOL    HW2 7671   0.269   2.524   4.262
 2258SOL     OW 7672   1.226   5.224   4.721
 2258SOL    HW1 7673   1.295   5.286   4.684
 2258SOL    HW2 7674   1.146   5.223   4.661
 2259SOL     OW 7675   5.112   3.567   6.095
 2259SOL    HW1 7676   5.191   3.577   6.155
 2259SOL    HW2 7677   5.085   3.656   6.059
 2260SOL     OW 7678   0.358   4.608   1.412
 2260SOL    HW1 7679   0.307   4.523   1.399
 2260SOL    HW2 7680   0.456   4.589   1.411
 2261SOL     OW 7681   5.705   4.775   0.319
 2261SOL    HW1 7682   5.755   4.860   0.335
 2261SOL    HW2 7683   5.766   4.697   0.333
 2262SOL     OW 7684   6.157   0.831   3.444
 2262SOL    HW1 7685   6.193   0.909   3.393
 2262SOL    HW2 7686   6.186   0.837   3.539
 2263SOL     OW 7687   2.985   5.683   6.515
 2263SOL    HW1 7688   3.032   5.749   6.457
 2263SOL    HW2 7689   2.893   5.717   6.537
 2264SOL     OW 7690   2.776   5.292   0.128
 2264SOL    HW1 7691   2.745   5.387   0.137
 2264SOL    HW2 7692   2.866   5.282   0.172
 2265SOL     OW 7693   1.264   0.523   4.295
 2265SOL    HW1 7694   1.256   0.513   4.394
 2265SOL    HW2 7695   1.190   0.582   4.262
 2266SOL     OW 7696   5.008   2.085   0.190
 2266SOL    HW1 7697   5.049   1.996   0.208
 2266SOL    HW2 7698   4.979   2.126   0.277
 2267SOL     OW 7699   4.983   2.435   4.752
 2267SOL    HW1 7700   5.047   2.358   4.748
 2267SOL    HW2 7701   5.015   2.508   4.692
 2268SOL     OW 7702   6.238   3.944   0.095
 2268SOL    HW1 7703   6.286   4.031   0.085
 2268SOL    HW2 7704   6.280   3.875   0.036
 2269SOL     OW 7705   6.759   4.952   5.439
 2269SOL    HW1 7706   6.760   5.051   5.446
 2269SOL    HW2 7707   6.782   4.911   5.527
 2270SOL     OW 7708   2.957   2.848   5.824
 2270SOL    HW1 7709   2.933   2.850   5.921
 2270SOL    HW2 7710   3.008   2.765   5.803
 2271SOL     OW 7711   5.195   4.342   0.256
 2271SOL    HW1 7712   5.261   4.290   0.311
 2271SOL    HW2 7713   5.244   4.389   0.182
 2272SOL     OW 7714   6.146   2.389   6.422
 2272SOL    HW1 7715   6.105   2.464   6.370
 2272SOL    HW2 7716   6.236   2.367   6.385
 2273SOL     OW 7717   1.504   2.018   2.276
 2273SOL    HW1 7718   1.522   1.993   2.371
 2273SOL    HW2 7719   1.509   1.936   2.218
 2274SOL     OW 7720   0.677   2.360   6.074
 2274SOL    HW1 7721   0.763   2.342   6.027
 2274SOL    HW2 7722   0.695   2.408   6.160
 2275SOL     OW 7723   6.304   6.758   4.287
 2275SOL    HW1 7724   6.228   6.714   4.240
 2275SOL    HW2 7725   6.386   6.701   4.279
 2276SOL     OW 7726   2.147   5.847   1.394
 2276SOL    HW1 7727   2.167   5.945   1.398
 2276SOL    HW2 7728   2.232   5.795   1.397
 2277SOL     OW 7729   4.112   3.559   4.384
 2277SOL    HW1 7730   4.119   3.653   4.417
 2277SOL    HW2 7731   4.132   3.496   4.459
 2278SOL     OW 7732   6.387   4.630   4.436
 2278SOL    HW1 7733   6.315   4.698   4.420
 2278SOL    HW2 7734   6.392   4.568   4.358
 2279SOL     OW 7735   5.823   6.902   5.378
 2279SOL    HW1 7736   5.857   6.829   5.319
 2279SOL    HW2 7737   5.734   6.875   5.416
 2280SOL     OW 7738   6.818   6.638   4.415
 2280SOL    HW1 7739   6.810   6.579   4.335
 2280SOL    HW2 7740   6.727   6.661   4.450
 2281SOL     OW 7741   3.259   1.414   1.768
 2281SOL    HW1 7742   3.253   1.430   1.867
 2281SOL    HW2 7743   3.254   1.501   1.720
 2282SOL     OW 7744   5.718   0.151   5.553
 2282SOL    HW1 7745   5.654   0.150   5.476
 2282SOL    HW2 7746   5.809   0.126   5.521
 2283SOL     OW 7747   1.036   5.152   1.174
 2283SOL    HW1 7748   1.034   5.099   1.259
 2283SOL    HW2 7749   1.115   5.213   1.174
 2284SOL     OW 7750   1.130   2.691   6.648
 2284SOL    HW1 7751   1.192   2.715   6.723
 2284SOL    HW2 7752   1.147   2.597   6.618
 2285SOL     OW 7753   2.002   2.319   1.265
 2285SOL    HW1 7754   2.053   2.233   1.274
 2285SOL    HW2 7755   2.046   2.377   1.197
 2286SOL     OW 7756   6.118   0.205   3.526
 2286SOL    HW1 7757   6.213   0.186   3.502
 2286SOL    HW2 7758   6.061   0.202   3.443
 2287SOL     OW 7759   1.991   0.105   3.166
 2287SOL    HW1 7760   1.966   0.020   3.120
 2287SOL    HW2 7761   2.017   0.084   3.260
 2288SOL     OW 7762   6.111   4.721   4.292
 2288SOL    HW1 7763   6.043   4.793   4.301
 2288SOL    HW2 7764   6.070   4.642   4.245
 2289SOL     OW 7765   1.037   4.694   1.272
 2289SOL    HW1 7766   0.950   4.732   1.239
 2289SOL    HW2 7767   1.080   4.642   1.198
 2290SOL     OW 7768   0.745   4.289   0.388
 2290SOL    HW1 7769   0.654   4.259   0.414
 2290SOL    HW2 7770   0.808   4.211   0.388
 2291SOL     OW 7771   2.533   2.257   5.887
 2291SOL    HW1 7772   2.439   2.284   5.867
 2291SOL    HW2 7773   2.580   2.332   5.934
 2292SOL     OW 7774   0.234   2.818   4.650
 2292SOL    HW1 7775   0.216   2.797   4.554
 2292SOL    HW2 7776   0.167   2.884   4.682
 2293SOL     OW 7777   4.677   6.139   2.140
 2293SOL    HW1 7778   4.754   6.121   2.201
 2293SOL    HW2 7779   4.657   6.237   2.139
 2294SOL     OW 7780   3.293   0.043   0.017
 2294SOL    HW1 7781   3.266   0.126   0.065
 2294SOL    HW2 7782   3.279   6.981   0.077
 2295SOL     OW 7783   0.538   2.293   3.023
 2295SOL    HW1 7784   0.491   2.207   3.002
 2295SOL    HW2 7785   0.499   2.334   3.105
 2296SOL     OW 7786   4.621   5.532   0.824
 2296SOL    HW1 7787   4.704   5.476   0.822
 2296SOL    HW2 7788   4.570   5.514   0.908
 2297SOL     OW 7789   4.003   4.209   5.292
 2297SOL    HW1 7790   3.905   4.219   5.274
 2297SOL    HW2 7791   4.047   4.299   5.289
 2298SOL     OW 7792   3.993   3.088   1.346
 2298SOL    HW1 7793   4.086   3.085   1.311
 2298SOL    HW2 7794   3.988   3.156   1.420
 2299SOL     OW 7795   4.572   6.041   4.998
 2299SOL    HW1 7796   4.664   6.079   4.991
 2299SOL    HW2 7797   4.532   6.032   4.907
 2300SOL     OW 7798   2.180   5.658   2.198
 2300SOL    HW1 7799   2.100   5.598   2.200
 2300SOL    HW2 7800   2.264   5.603   2.196
 2301SOL     OW 7801   3.549   2.871   2.715
 2301SOL    HW1 7802   3.452   2.858   2.697
 2301SOL    HW2 7803   3.602   2.823   2.645
 2302SOL     OW 7804   3.601   0.218   1.145
 2302SOL    HW1 7805   3.614   0.209   1.244
 2302SOL    HW2 7806   3.664   0.287   1.109
 2303SOL     OW 7807   2.144   2.856   5.997
 2303SOL    HW1 7808   2.122   2.802   6.078
 2303SOL    HW2 7809   2.218   2.812   5.947
 2304SOL     OW 7810   4.779   6.745   3.878
 2304SOL    HW1 7811   4.755   6.648   3.892
 2304SOL    HW2 7812   4.713   6.802   3.927
 2305SOL     OW 7813   2.616   6.840   2.780
 2305SOL    HW1 7814   2.601   6.927   2.827
 2305SOL    HW2 7815   2.686   6.788   2.828
 2306SOL     OW 7816   2.998   5.279   2.423
 2306SOL    HW1 7817   2.961   5.219   2.494
 2306SOL    HW2 7818   3.052   5.224   2.359
 2307SOL     OW 7819   6.786   4.170   2.566
 2307SOL    HW1 7820   6.708   4.192   2.507
 2307SOL    HW2 7821   6.861   4.232   2.546
 2308SOL     OW 7822   1.210   6.064   0.464
 2308SOL    HW1 7823   1.122   6.017   0.473
 2308SOL    HW2 7824   1.231   6.075   0.367
 2309SOL     OW 7825   1.429   0.280   6.315
 2309SOL    HW1 7826   1.518   0.296   6.358
 2309SOL    HW2 7827   1.392   0.367   6.282
 2310SOL     OW 7828   4.887   6.353   1.426
 2310SOL    HW1 7829   4.947   6.425   1.460
 2310SOL    HW2 7830   4.794   6.388   1.415
 2311SOL     OW 7831   2.293   5.917   2.154
 2311SOL    HW1 7832   2.361   5.928   2.228
 2311SOL    HW2 7833   2.253   5.825   2.160
 2312SOL     OW 7834   3.528   6.507   4.030
 2312SOL    HW1 7835   3.537   6.482   4.127
 2312SOL    HW2 7836   3.437   6.483   3.997
 2313SOL     OW 7837   5.077   5.583   1.766
 2313SOL    HW1 7838   4.997   5.626   1.725
 2313SOL    HW2 7839   5.092   5.494   1.724
 2314SOL     OW 7840   5.747   0.058   5.160
 2314SOL    HW1 7841   5.789   7.000   5.211
 2314SOL    HW2 7842   5.805   0.081   5.081
 2315SOL     OW 7843   4.710   3.102   5.337
 2315SOL    HW1 7844   4.768   3.065   5.265
 2315SOL    HW2 7845   4.717   3.045   5.419
 2316SOL     OW 7846   3.170   0.880   4.204
 2316SOL    HW1 7847   3.101   0.807   4.200
 2316SOL    HW2 7848   3.132   0.959   4.253
 2317SOL     OW 7849   0.476   6.424   3.773
 2317SOL    HW1 7850   0.399   6.453   3.716
 2317SOL    HW2 7851   0.541   6.372   3.718
 2318SOL     OW 7852   2.143   2.918   4.657
 2318SOL    HW1 7853   2.171   2.825   4.680
 2318SOL    HW2 7854   2.056   2.915   4.607
 2319SOL     OW 7855   2.307   5.272   4.408
 2319SOL    HW1 7856   2.303   5.351   4.469
 2319SOL    HW2 7857   2.236   5.206   4.434
 2320SOL     OW 7858   0.434   3.275   5.014
 2320SOL    HW1 7859   0.514   3.330   4.988
 2320SOL    HW2 7860   0.357   3.336   5.035
 2321SOL     OW 7861   2.311   6.610   0.225
 2321SOL    HW1 7862   2.391   6.597   0.284
 2321SOL    HW2 7863   2.258   6.688   0.257
 2322SOL     OW 7864   1.794   2.570   4.063
 2322SOL    HW1 7865   1.719   2.533   4.117
 2322SOL    HW2 7866   1.770   2.661   4.031
 2323SOL     OW 7867   3.235   5.201   1.841
 2323SOL    HW1 7868   3.230   5.266   1.917
 2323SOL    HW2 7869   3.292   5.123   1.867
 2324SOL     OW 7870   6.847   6.331   0.745
 2324SOL    HW1 7871   6.771   6.390   0.773
 2324SOL    HW2 7872   6.838   6.242   0.790
 2325SOL     OW 7873   0.837   4.387   1.308
 2325SOL    HW1 7874   0.795   4.346   1.227
 2325SOL    HW2 7875   0.922   4.433   1.281
 2326SOL     OW 7876   3.741   5.429   6.132
 2326SOL    HW1 7877   3.819   5.387   6.177
 2326SOL    HW2 7878   3.674   5.358   6.109
 2327SOL     OW 7879   6.605   2.376   3.931
 2327SOL    HW1 7880   6.662   2.294   3.944
 2327SOL    HW2 7881   6.569   2.377   3.838
 2328SOL     OW 7882   2.280   1.975   2.752
 2328SOL    HW1 7883   2.193   1.998   2.795
 2328SOL    HW2 7884   2.274   1.988   2.653
 2329SOL     OW 7885   1.542   4.619   4.409
 2329SOL    HW1 7886   1.553   4.717   4.396
 2329SOL    HW2 7887   1.632   4.576   4.418
 2330SOL     OW 7888   1.136   3.970   1.516
 2330SOL    HW1 7889   1.174   4.051   1.561
 2330SOL    HW2 7890   1.171   3.888   1.560
 2331SOL     OW 7891   4.085   5.732   6.612
 2331SOL    HW1 7892   4.033   5.800   6.559
 2331SOL    HW2 7893   4.053   5.731   6.706
 2332SOL     OW 7894   5.287   1.706   5.379
 2332SOL    HW1 7895   5.369   1.650   5.394
 2332SOL    HW2 7896   5.269   1.713   5.281
 2333SOL     OW 7897   6.997   4.736   2.764
 2333SOL    HW1 7898   0.012   4.664   2.826
 2333SOL    HW2 7899   0.027   4.728   2.676
 2334SOL     OW 7900   1.796   0.323   0.556
 2334SOL    HW1 7901   1.871   0.354   0.615
 2334SOL    HW2 7902   1.714   0.308   0.612
 2335SOL     OW 7903   6.907   0.992   2.753
 2335SOL    HW1 7904   6.819   1.019   2.792
 2335SOL    HW2 7905   6.967   1.072   2.748
 2336SOL     OW 7906   4.718   2.599   4.736
 2336SOL    HW1 7907   4.624   2.579   4.765
 2336SOL    HW2 7908   4.768   2.513   4.722
 2337SOL     OW 7909   4.485   1.379   2.018
 2337SOL    HW1 7910   4.402   1.367   1.964
 2337SOL    HW2 7911   4.528   1.290   2.034
 2338SOL     OW 7912   0.921   2.119   5.348
 2338SOL    HW1 7913   0.993   2.064   5.389
 2338SOL    HW2 7914   0.911   2.205   5.398
 2339SOL     OW 7915   3.614   3.715   4.545
 2339SOL    HW1 7916   3.569   3.714   4.455
 2339SOL    HW2 7917   3.580   3.793   4.598
 2340SOL     OW 7918   6.129   4.417   0.854
 2340SOL    HW1 7919   6.063   4.491   0.847
 2340SOL    HW2 7920   6.126   4.362   0.771
 2341SOL     OW 7921   4.309   4.602   1.394
 2341SOL    HW1 7922   4.336   4.689   1.353
 2341SOL    HW2 7923   4.356   4.591   1.482
 2342SOL     OW 7924   6.985   0.023   5.515
 2342SOL    HW1 7925   0.062   0.043   5.488
 2342SOL    HW2 7926   6.924   0.042   5.438
 2343SOL     OW 7927   2.703   5.556   2.747
 2343SOL    HW1 7928   2.787   5.598   2.713
 2343SOL    HW2 7929   2.695   5.463   2.712
 2344SOL     OW 7930   1.827   6.745   0.271
 2344SOL    HW1 7931   1.745   6.703   0.233
 2344SOL    HW2 7932   1.837   6.837   0.234
 2345SOL     OW 7933   3.352   5.510   4.409
 2345SOL    HW1 7934   3.292   5.590   4.400
 2345SOL    HW2 7935   3.443   5.532   4.376
 2346SOL     OW 7936   4.594   2.786   5.302
 2346SOL    HW1 7937   4.566   2.768   5.208
 2346SOL    HW2 7938   4.690   2.815   5.304
 2347SOL     OW 7939   2.528   3.141   1.651
 2347SOL    HW1 7940   2.511   3.214   1.718
 2347SOL    HW2 7941   2.449   3.080   1.648
 2348SOL     OW 7942   2.840   6.866   3.911
 2348SOL    HW1 7943   2.821   6.826   3.822
 2348SOL    HW2 7944   2.925   6.828   3.948
 2349SOL     OW 7945   0.862   3.920   6.227
 2349SOL    HW1 7946   0.817   4.007   6.207
 2349SOL    HW2 7947   0.956   3.937   6.257
 2350SOL     OW 7948   4.542   6.277   6.710
 2350SOL    HW1 7949   4.580   6.308   6.797
 2350SOL    HW2 7950   4.605   6.214   6.667
 2351SOL     OW 7951   2.892   5.265   3.586
 2351SOL    HW1 7952   2.978   5.216   3.598
 2351SOL    HW2 7953   2.824   5.229   3.649
 2352SOL     OW 7954   0.540   5.061   1.897
 2352SOL    HW1 7955   0.536   5.139   1.959
 2352SOL    HW2 7956   0.609   5.078   1.827
 2353SOL     OW 7957   3.062   4.469   5.535
 2353SOL    HW1 7958   3.064   4.369   5.544
 2353SOL    HW2 7959   3.083   4.511   5.623
 2354SOL     OW 7960   2.861   1.435   5.933
 2354SOL    HW1 7961   2.869   1.531   5.905
 2354SOL    HW2 7962   2.783   1.393   5.886
 2355SOL     OW 7963   2.334   5.646   0.462
 2355SOL    HW1 7964   2.422   5.600   0.459
 2355SOL    HW2 7965   2.275   5.602   0.530
 2356SOL     OW 7966   1.317   3.497   0.052
 2356SOL    HW1 7967   1.341   3.401   0.044
 2356SOL    HW2 7968   1.234   3.515   7.016
 2357SOL     OW 7969   4.827   6.062   3.494
 2357SOL    HW1 7970   4.864   6.127   3.561
 2357SOL    HW2 7971   4.784   6.111   3.419
 2358SOL     OW 7972   4.048   5.080   5.239
 2358SOL    HW1 7973   4.001   5.128   5.165
 2358SOL    HW2 7974   3.987   5.070   5.317
 2359SOL     OW 7975   6.999   0.915   6.348
 2359SOL    HW1 7976   6.986   0.896   6.446
 2359SOL    HW2 7977   0.000   0.829   6.300
 2360SOL     OW 7978   5.928   4.828   6.943
 2360SOL    HW1 7979   5.957   4.736   6.914
 2360SOL    HW2 7980   5.829   4.835   6.937
 2361SOL     OW 7981   2.162   0.507   4.995
 2361SOL    HW1 7982   2.091   0.562   5.039
 2361SOL    HW2 7983   2.202   0.558   4.919
 2362SOL     OW 7984   2.514   0.147   5.310
 2362SOL    HW1 7985   2.593   0.207   5.301
 2362SOL    HW2 7986   2.452   0.183   5.380
 2363SOL     OW 7987   4.247   2.213   5.300
 2363SOL    HW1 7988   4.153   2.178   5.299
 2363SOL    HW2 7989   4.304   2.157   5.240
 2364SOL     OW 7990   0.710   1.909   2.443
 2364SOL    HW1 7991   0.624   1.928   2.396
 2364SOL    HW2 7992   0.786   1.913   2.378
 2365SOL     OW 7993   6.532   3.024   6.682
 2365SOL    HW1 7994   6.515   3.120   6.703
 2365SOL    HW2 7995   6.451   2.970   6.704
 2366SOL     OW 7996   1.622   5.116   6.098
 2366SOL    HW1 7997   1.635   5.130   6.000
 2366SOL    HW2 7998   1.631   5.203   6.146
 2367SOL     OW 7999   3.140   4.462   0.728
 2367SOL    HW1 8000   3.041   4.457   0.717
 2367SOL    HW2 8001   3.163   4.536   0.791
 2368SOL     OW 8002   4.785   0.062   3.116
 2368SOL    HW1 8003   4.755   0.055   3.211
 2368SOL    HW2 8004   4.723   0.010   3.058
 2369SOL     OW 8005   0.964   2.752   6.051
 2369SOL    HW1 8006   1.049   2.752   6.105
 2369SOL    HW2 8007   0.885   2.753   6.113
 2370SOL     OW 8008   5.077   3.876   6.553
 2370SOL    HW1 8009   5.138   3.873   6.633
 2370SOL    HW2 8010   5.068   3.785   6.515
 2371SOL     OW 8011   0.663   6.631   1.859
 2371SOL    HW1 8012   0.747   6.666   1.900
 2371SOL    HW2 8013   0.624   6.700   1.797
 2372SOL     OW 8014   6.494   2.484   1.445
 2372SOL    HW1 8015   6.568   2.458   1.382
 2372SOL    HW2 8016   6.533   2.522   1.529
 2373SOL     OW 8017   0.143   1.085   0.572
 2373SOL    HW1 8018   0.178   1.051   0.484
 2373SOL    HW2 8019   0.045   1.101   0.565
 2374SOL     OW 8020   6.305   1.263   3.471
 2374SOL    HW1 8021   6.356   1.279   3.555
 2374SOL    HW2 8022   6.360   1.208   3.408
 2375SOL     OW 8023   2.465   0.176   4.468
 2375SOL    HW1 8024   2.465   0.076   4.474
 2375SOL    HW2 8025   2.553   0.207   4.431
 2376SOL     OW 8026   6.578   2.499   4.709
 2376SOL    HW1 8027   6.516   2.479   4.786
 2376SOL    HW2 8028   6.652   2.558   4.741
 2377SOL     OW 8029   3.453   4.061   2.944
 2377SOL    HW1 8030   3.359   4.080   2.973
 2377SOL    HW2 8031   3.467   4.097   2.851
 2378SOL     OW 8032   4.910   2.898   0.104
 2378SOL    HW1 8033   4.965   2.838   0.045
 2378SOL    HW2 8034   4.919   2.870   0.199
 2379SOL     OW 8035   5.376   2.631   6.834
 2379SOL    HW1 8036   5.427   2.545   6.828
 2379SOL    HW2 8037   5.430   2.698   6.886
 2380SOL     OW 8038   6.963   0.260   5.164
 2380SOL    HW1 8039   7.013   0.194   5.220
 2380SOL    HW2 8040   6.990   0.353   5.190
 2381SOL     OW 8041   2.104   3.543   4.407
 2381SOL    HW1 8042   2.139   3.534   4.314
 2381SOL    HW2 8043   2.005   3.530   4.408
 2382SOL     OW 8044   2.288   4.319   3.516
 2382SOL    HW1 8045   2.326   4.403   3.552
 2382SOL    HW2 8046   2.318   4.306   3.421
 2383SOL     OW 8047   5.969   6.639   1.014
 2383SOL    HW1 8048   5.951   6.548   1.053
 2383SOL    HW2 8049   6.062   6.667   1.038
 2384SOL     OW 8050   6.332   6.761   1.985
 2384SOL    HW1 8051   6.424   6.738   1.954
 2384SOL    HW2 8052   6.272   6.681   1.975
 2385SOL     OW 8053   0.623   6.393   0.963
 2385SOL    HW1 8054   0.640   6.428   0.871
 2385SOL    HW2 8055   0.660   6.300   0.971
 2386SOL     OW 8056   5.038   4.990   4.120
 2386SOL    HW1 8057   5.030   5.047   4.202
 2386SOL    HW2 8058   5.007   5.042   4.040
 2387SOL     OW 8059   0.863   1.278   3.456
 2387SOL    HW1 8060   0.809   1.200   3.426
 2387SOL    HW2 8061   0.945   1.286   3.399
 2388SOL     OW 8062   1.872   2.071   3.601
 2388SOL    HW1 8063   1.903   2.070   3.696
 2388SOL    HW2 8064   1.810   2.149   3.587
 2389SOL     OW 8065   5.244   3.702   2.860
 2389SOL    HW1 8066   5.255   3.609   2.897
 2389SOL    HW2 8067   5.175   3.750   2.913
 2390SOL     OW 8068   3.661   3.978   3.297
 2390SOL    HW1 8069   3.578   3.938   3.257
 2390SOL    HW2 8070   3.736   3.913   3.291
 2391SOL     OW 8071   4.938   4.879   5.903
 2391SOL    HW1 8072   4.867   4.890   5.972
 2391SOL    HW2 8073   4.999   4.805   5.929
 2392SOL     OW 8074   3.498   0.006   5.268
 2392SOL    HW1 8075   3.574   0.030   5.208
 2392SOL    HW2 8076   3.509   6.928   5.299
 2393SOL     OW 8077   4.788   4.086   6.104
 2393SOL    HW1 8078   4.846   4.140   6.165
 2393SOL    HW2 8079   4.822   4.094   6.010
 2394SOL     OW 8080   2.069   3.566   4.890
 2394SOL    HW1 8081   2.138   3.619   4.842
 2394SOL    HW2 8082   2.103   3.473   4.906
 2395SOL     OW 8083   6.453   2.504   6.507
 2395SOL    HW1 8084   6.483   2.507   6.603
 2395SOL    HW2 8085   6.416   2.593   6.481
 2396SOL     OW 8086   4.051   5.567   1.620
 2396SOL    HW1 8087   4.068   5.652   1.571
 2396SOL    HW2 8088   3.959   5.534   1.597
 2397SOL     OW 8089   0.298   3.986   6.668
 2397SOL    HW1 8090   0.262   3.925   6.598
 2397SOL    HW2 8091   0.395   4.004   6.651
 2398SOL     OW 8092   3.202   3.794   6.576
 2398SOL    HW1 8093   3.228   3.698   6.583
 2398SOL    HW2 8094   3.141   3.807   6.498
 2399SOL     OW 8095   4.608   1.160   2.183
 2399SOL    HW1 8096   4.553   1.217   2.245
 2399SOL    HW2 8097   4.702   1.192   2.182
 2400SOL     OW 8098   3.562   5.018   0.163
 2400SOL    HW1 8099   3.569   5.114   0.133
 2400SOL    HW2 8100   3.477   5.005   0.214
 2401SOL     OW 8101   4.370   6.721   6.677
 2401SOL    HW1 8102   4.372   6.714   6.577
 2401SOL    HW2 8103   4.445   6.667   6.716
 2402SOL     OW 8104   0.687   0.655   4.286
 2402SOL    HW1 8105   0.759   0.621   4.227
 2402SOL    HW2 8106   0.720   0.658   4.380
 2403SOL     OW 8107   2.251   2.359   1.084
 2403SOL    HW1 8108   2.262   2.458   1.085
 2403SOL    HW2 8109   2.339   2.315   1.067
 2404SOL     OW 8110   5.100   1.042   1.375
 2404SOL    HW1 8111   5.140   1.074   1.289
 2404SOL    HW2 8112   5.134   1.097   1.451
 2405SOL     OW 8113   3.670   3.542   2.798
 2405SOL    HW1 8114   3.726   3.618   2.831
 2405SOL    HW2 8115   3.724   3.485   2.737
 2406SOL     OW 8116   2.763   0.012   3.317
 2406SOL    HW1 8117   2.829   6.985   3.256
 2406SOL    HW2 8118   2.812   0.066   3.385
 2407SOL     OW 8119   5.439   2.208   2.805
 2407SOL    HW1 8120   5.534   2.223   2.833
 2407SOL    HW2 8121   5.415   2.273   2.732
 2408SOL     OW 8122   4.430   4.767   3.487
 2408SOL    HW1 8123   4.509   4.797   3.540
 2408SOL    HW2 8124   4.421   4.824   3.405
 2409SOL     OW 8125   1.092   3.198   1.890
 2409SOL    HW1 8126   1.099   3.267   1.961
 2409SOL    HW2 8127   1.068   3.242   1.803
 2410SOL     OW 8128   4.875   2.381   6.213
 2410SOL    HW1 8129   4.912   2.461   6.167
 2410SOL    HW2 8130   4.805   2.410   6.279
 2411SOL     OW 8131   4.431   5.332   5.601
 2411SOL    HW1 8132   4.357   5.358   5.538
 2411SOL    HW2 8133   4.403   5.252   5.653
 2412SOL     OW 8134   4.280   4.799   1.203
 2412SOL    HW1 8135   4.338   4.870   1.163
 2412SOL    HW2 8136   4.237   4.834   1.286
 2413SOL     OW 8137   6.341   2.077   0.260
 2413SOL    HW1 8138   6.244   2.051   0.259
 2413SOL    HW2 8139   6.349   2.170   0.296
 2414SOL     OW 8140   5.108   3.737   2.315
 2414SOL    HW1 8141   5.071   3.780   2.398
 2414SOL    HW2 8142   5.036   3.728   2.247
 2415SOL     OW 8143   0.244   0.128   2.108
 2415SOL    HW1 8144   0.231   0.078   2.023
 2415SOL    HW2 8145   0.174   0.198   2.117
 2416SOL     OW 8146   3.777   2.090   4.863
 2416SOL    HW1 8147   3.736   2.145   4.936
 2416SOL    HW2 8148   3.803   2.150   4.787
 2417SOL     OW 8149   4.247   3.571   5.531
 2417SOL    HW1 8150   4.337   3.615   5.542
 2417SOL    HW2 8151   4.190   3.628   5.472
 2418SOL     OW 8152   3.267   4.175   4.085
 2418SOL    HW1 8153   3.331   4.251   4.073
 2418SOL    HW2 8154   3.255   4.157   4.183
 2419SOL     OW 8155   0.799   5.713   4.829
 2419SOL    HW1 8156   0.763   5.634   4.880
 2419SOL    HW2 8157   0.815   5.788   4.893
 2420SOL     OW 8158   3.849   1.389   1.454
 2420SOL    HW1 8159   3.764   1.442   1.462
 2420SOL    HW2 8160   3.926   1.452   1.445
 2421SOL     OW 8161   2.790   1.416   5.159
 2421SOL    HW1 8162   2.788   1.384   5.254
 2421SOL    HW2 8163   2.824   1.511   5.157
 2422SOL     OW 8164   5.895   0.167   1.693
 2422SOL    HW1 8165   5.900   0.076   1.652
 2422SOL    HW2 8166   5.980   0.186   1.742
 2423SOL     OW 8167   1.297   6.519   3.824
 2423SOL    HW1 8168   1.351   6.436   3.840
 2423SOL    HW2 8169   1.258   6.550   3.910
 2424SOL     OW 8170   6.328   6.458   6.076
 2424SOL    HW1 8171   6.264   6.411   6.137
 2424SOL    HW2 8172   6.421   6.450   6.113
 2425SOL     OW 8173   6.273   0.419   3.887
 2425SOL    HW1 8174   6.192   0.464   3.849
 2425SOL    HW2 8175   6.259   0.320   3.886
 2426SOL     OW 8176   0.905   5.428   4.458
 2426SOL    HW1 8177   0.918   5.523   4.488
 2426SOL    HW2 8178   0.961   5.410   4.378
 2427SOL     OW 8179   5.281   5.345   6.447
 2427SOL    HW1 8180   5.309   5.376   6.356
 2427SOL    HW2 8181   5.343   5.384   6.515
 2428SOL     OW 8182   6.200   0.561   3.429
 2428SOL    HW1 8183   6.181   0.658   3.414
 2428SOL    HW2 8184   6.281   0.551   3.486
 2429SOL     OW 8185   6.254   5.191   4.027
 2429SOL    HW1 8186   6.225   5.221   4.118
 2429SOL    HW2 8187   6.332   5.129   4.036
 2430SOL     OW 8188   6.245   1.463   0.954
 2430SOL    HW1 8189   6.342   1.439   0.945
 2430SOL    HW2 8190   6.212   1.434   1.044
 2431SOL     OW 8191   4.287   0.557   2.244
 2431SOL    HW1 8192   4.239   0.486   2.192
 2431SOL    HW2 8193   4.225   0.596   2.312
 2432SOL     OW 8194   3.133   6.969   3.039
 2432SOL    HW1 8195   3.206   6.943   3.102
 2432SOL    HW2 8196   3.086   0.033   3.074
 2433SOL     OW 8197   3.197   0.594   1.227
 2433SOL    HW1 8198   3.179   0.612   1.324
 2433SOL    HW2 8199   3.245   0.507   1.218
 2434SOL     OW 8200   4.180   0.876   4.605
 2434SOL    HW1 8201   4.246   0.806   4.578
 2434SOL    HW2 8202   4.102   0.873   4.542
 2435SOL     OW 8203   4.288   4.859   5.711
 2435SOL    HW1 8204   4.234   4.888   5.632
 2435SOL    HW2 8205   4.349   4.933   5.739
 2436SOL     OW 8206   1.944   6.865   2.083
 2436SOL    HW1 8207   1.956   6.857   2.182
 2436SOL    HW2 8208   1.876   6.935   2.063
 2437SOL     OW 8209   4.373   6.124   0.491
 2437SOL    HW1 8210   4.366   6.025   0.495
 2437SOL    HW2 8211   4.299   6.165   0.543
 2438SOL     OW 8212   3.554   1.261   5.989
 2438SOL    HW1 8213   3.563   1.193   6.062
 2438SOL    HW2 8214   3.641   1.309   5.978
 2439SOL     OW 8215   0.656   4.386   6.319
 2439SOL    HW1 8216   0.703   4.306   6.357
 2439SOL    HW2 8217   0.564   4.390   6.357
 2440SOL     OW 8218   4.980   6.028   5.693
 2440SOL    HW1 8219   4.943   6.095   5.756
 2440SOL    HW2 8220   5.053   6.070   5.638
 2441SOL     OW 8221   6.908   6.977   0.394
 2441SOL    HW1 8222   6.823   6.931   0.418
 2441SOL    HW2 8223   6.930   6.960   0.297
 2442SOL     OW 8224   6.755   4.902   4.585
 2442SOL    HW1 8225   6.755   4.904   4.485
 2442SOL    HW2 8226   6.847   4.923   4.619
 2443SOL     OW 8227   4.142   6.420   5.706
 2443SOL    HW1 8228   4.044   6.403   5.692
 2443SOL    HW2 8229   4.195   6.341   5.675
 2444SOL     OW 8230   3.048   4.168   5.984
 2444SOL    HW1 8231   3.016   4.140   5.893
 2444SOL    HW2 8232   3.148   4.161   5.987
 2445SOL     OW 8233   0.348   0.831   2.010
 2445SOL    HW1 8234   0.352   0.832   1.910
 2445SOL    HW2 8235   0.253   0.844   2.039
 2446SOL     OW 8236   0.606   4.145   3.682
 2446SOL    HW1 8237   0.645   4.235   3.702
 2446SOL    HW2 8238   0.620   4.123   3.586
 2447SOL     OW 8239   2.677   1.868   0.825
 2447SOL    HW1 8240   2.755   1.807   0.839
 2447SOL    HW2 8241   2.643   1.859   0.731
 2448SOL     OW 8242   0.053   0.876   5.356
 2448SOL    HW1 8243   7.007   0.937   5.404
 2448SOL    HW2 8244   0.011   0.843   5.272
 2449SOL     OW 8245   0.582   5.063   1.198
 2449SOL    HW1 8246   0.483   5.079   1.203
 2449SOL    HW2 8247   0.611   5.009   1.278
 2450SOL     OW 8248   2.623   4.780   3.962
 2450SOL    HW1 8249   2.593   4.874   3.949
 2450SOL    HW2 8250   2.543   4.721   3.975
 2451SOL     OW 8251   0.589   0.142   3.278
 2451SOL    HW1 8252   0.520   0.191   3.331
 2451SOL    HW2 8253   0.677   0.187   3.289
 2452SOL     OW 8254   1.570   2.863   2.931
 2452SOL    HW1 8255   1.640   2.856   3.002
 2452SOL    HW2 8256   1.607   2.833   2.843
 2453SOL     OW 8257   6.648   3.843   0.740
 2453SOL    HW1 8258   6.623   3.776   0.671
 2453SOL    HW2 8259   6.745   3.835   0.762
 2454SOL     OW 8260   3.783   1.356   0.367
 2454SOL    HW1 8261   3.785   1.275   0.425
 2454SOL    HW2 8262   3.855   1.420   0.395
 2455SOL     OW 8263   5.466   6.449   1.025
 2455SOL    HW1 8264   5.527   6.441   1.104
 2455SOL    HW2 8265   5.401   6.524   1.040
 2456SOL     OW 8266   5.873   0.049   0.459
 2456SOL    HW1 8267   5.890   6.974   0.424
 2456SOL    HW2 8268   5.778   0.076   0.440
 2457SOL     OW 8269   6.746   6.109   0.509
 2457SOL    HW1 8270   6.659   6.159   0.513
 2457SOL    HW2 8271   6.731   6.014   0.538
 2458SOL     OW 8272   2.729   5.942   3.716
 2458SOL    HW1 8273   2.806   5.901   3.668
 2458SOL    HW2 8274   2.685   5.874   3.775
 2459SOL     OW 8275   2.652   7.007   0.291
 2459SOL    HW1 8276   2.714   6.965   0.224
 2459SOL    HW2 8277   2.704   0.047   0.354
 2460SOL     OW 8278   2.407   0.374   1.454
 2460SOL    HW1 8279   2.385   0.315   1.532
 2460SOL    HW2 8280   2.431   0.465   1.487
 2461SOL     OW 8281   5.000   0.424   2.645
 2461SOL    HW1 8282   5.068   0.353   2.628
 2461SOL    HW2 8283   5.009   0.458   2.739
 2462SOL     OW 8284   2.251   5.776   6.880
 2462SOL    HW1 8285   2.293   5.764   6.790
 2462SOL    HW2 8286   2.249   5.873   6.903
 2463SOL     OW 8287   5.895   2.531   3.942
 2463SOL    HW1 8288   5.845   2.514   4.026
 2463SOL    HW2 8289   5.971   2.594   3.960
 2464SOL     OW 8290   1.519   4.964   1.341
 2464SOL    HW1 8291   1.508   5.053   1.297
 2464SOL    HW2 8292   1.429   4.925   1.362
 2465SOL     OW 8293   6.865   5.535   1.055
 2465SOL    HW1 8294   6.905   5.465   0.995
 2465SOL    HW2 8295   6.857   5.499   1.148
 2466SOL     OW 8296   3.469   0.845   1.476
 2466SOL    HW1 8297   3.515   0.809   1.557
 2466SOL    HW2 8298   3.495   0.941   1.462
 2467SOL     OW 8299   5.454   1.583   5.619
 2467SOL    HW1 8300   5.498   1.638   5.547
 2467SOL    HW2 8301   5.491   1.608   5.708
 2468SOL     OW 8302   6.466   5.994   2.110
 2468SOL    HW1 8303   6.442   5.898   2.104
 2468SOL    HW2 8304   6.399   6.049   2.060
 2469SOL     OW 8305   3.632   4.791   5.291
 2469SOL    HW1 8306   3.579   4.706   5.298
 2469SOL    HW2 8307   3.692   4.798   5.371
 2470SOL     OW 8308   3.035   3.869   6.406
 2470SOL    HW1 8309   3.004   3.804   6.337
 2470SOL    HW2 8310   3.069   3.952   6.361
 2471SOL     OW 8311   2.242   6.533   1.607
 2471SOL    HW1 8312   2.252   6.563   1.513
 2471SOL    HW2 8313   2.270   6.437   1.615
 2472SOL     OW 8314   5.784   1.206   4.810
 2472SOL    HW1 8315   5.861   1.269   4.821
 2472SOL    HW2 8316   5.755   1.205   4.715
 2473SOL     OW 8317   1.936   4.030   4.526
 2473SOL    HW1 8318   1.870   4.049   4.598
 2473SOL    HW2 8319   1.991   3.950   4.550
 2474SOL     OW 8320   6.872   5.398   0.356
 2474SOL    HW1 8321   6.971   5.387   0.362
 2474SOL    HW2 8322   6.827   5.323   0.406
 2475SOL     OW 8323   4.625   1.995   1.207
 2475SOL    HW1 8324   4.571   1.936   1.267
 2475SOL    HW2 8325   4.587   1.992   1.115
 2476SOL     OW 8326   0.286   2.718   3.402
 2476SOL    HW1 8327   0.258   2.722   3.498
 2476SOL    HW2 8328   0.260   2.629   3.364
 2477SOL     OW 8329   6.341   0.517   1.990
 2477SOL    HW1 8330   6.296   0.432   2.017
 2477SOL    HW2 8331   6.328   0.586   2.062
 2478SOL     OW 8332   5.373   6.507   2.768
 2478SOL    HW1 8333   5.315   6.538   2.692
 2478SOL    HW2 8334   5.390   6.409   2.759
 2479SOL     OW 8335   0.689   3.703   1.662
 2479SOL    HW1 8336   0.711   3.798   1.684
 2479SOL    HW2 8337   0.730   3.642   1.730
 2480SOL     OW 8338   6.318   3.263   1.053
 2480SOL    HW1 8339   6.404   3.228   1.016
 2480SOL    HW2 8340   6.314   3.244   1.151
 2481SOL     OW 8341   3.508   6.193   0.128
 2481SOL    HW1 8342   3.601   6.230   0.127
 2481SOL    HW2 8343   3.498   6.124   0.056
 2482SOL     OW 8344   4.657   3.030   5.614
 2482SOL    HW1 8345   4.676   2.934   5.636
 2482SOL    HW2 8346   4.589   3.067   5.677
 2483SOL     OW 8347   2.103   1.552   0.912
 2483SOL    HW1 8348   2.117   1.623   0.981
 2483SOL    HW2 8349   2.062   1.592   0.830
 2484SOL     OW 8350   1.860   0.876   0.677
 2484SOL    HW1 8351   1.917   0.891   0.757
 2484SOL    HW2 8352   1.914   0.890   0.594
 2485SOL     OW 8353   4.658   5.244   2.826
 2485SOL    HW1 8354   4.708   5.220   2.909
 2485SOL    HW2 8355   4.708   5.212   2.746
 2486SOL     OW 8356   2.600   6.127   2.905
 2486SOL    HW1 8357   2.549   6.043   2.886
 2486SOL    HW2 8358   2.691   6.122   2.864
 2487SOL     OW 8359   3.985   6.115   0.410
 2487SOL    HW1 8360   3.990   6.102   0.311
 2487SOL    HW2 8361   3.990   6.026   0.455
 2488SOL     OW 8362   2.523   4.196   1.622
 2488SOL    HW1 8363   2.452   4.162   1.684
 2488SOL    HW2 8364   2.509   4.156   1.532
 2489SOL     OW 8365   2.693   4.837   4.274
 2489SOL    HW1 8366   2.627   4.912   4.276
 2489SOL    HW2 8367   2.672   4.777   4.196
 2490SOL     OW 8368   6.383   5.236   1.053
 2490SOL    HW1 8369   6.355   5.166   1.119
 2490SOL    HW2 8370   6.451   5.296   1.095
 2491SOL     OW 8371   2.444   5.800   3.052
 2491SOL    HW1 8372   2.472   5.839   3.139
 2491SOL    HW2 8373   2.504   5.723   3.028
 2492SOL     OW 8374   3.960   3.093   6.401
 2492SOL    HW1 8375   3.926   3.069   6.310
 2492SOL    HW2 8376   4.045   3.145   6.392
 2493SOL     OW 8377   5.818   0.062   2.827
 2493SOL    HW1 8378   5.858   0.154   2.818
 2493SOL    HW2 8379   5.870   7.015   2.770
 2494SOL     OW 8380   5.297   3.104   2.517
 2494SOL    HW1 8381   5.281   3.201   2.533
 2494SOL    HW2 8382   5.255   3.077   2.431
 2495SOL     OW 8383   4.869   0.721   5.349
 2495SOL    HW1 8384   4.904   0.813   5.332
 2495SOL    HW2 8385   4.802   0.697   5.278
 2496SOL     OW 8386   0.750   4.986   0.122
 2496SOL    HW1 8387   0.844   4.984   0.087
 2496SOL    HW2 8388   0.712   5.078   0.109
 2497SOL     OW 8389   0.656   2.059   6.580
 2497SOL    HW1 8390   0.686   1.982   6.523
 2497SOL    HW2 8391   0.558   2.073   6.568
 2498SOL     OW 8392   2.455   2.624   3.640
 2498SOL    HW1 8393   2.493   2.716   3.649
 2498SOL    HW2 8394   2.361   2.623   3.675
 2499SOL     OW 8395   5.849   0.561   4.328
 2499SOL    HW1 8396   5.792   0.573   4.410
 2499SOL    HW2 8397   5.800   0.503   4.263
 2500SOL     OW 8398   4.536   3.953   5.376
 2500SOL    HW1 8399   4.520   4.032   5.317
 2500SOL    HW2 8400   4.617   3.904   5.344
 2501SOL     OW 8401   6.256   4.584   6.875
 2501SOL    HW1 8402   6.293   4.598   6.783
 2501SOL    HW2 8403   6.161   4.552   6.869
 2502SOL     OW 8404   2.856   6.579   3.409
 2502SOL    HW1 8405   2.924   6.508   3.390
 2502SOL    HW2 8406   2.902   6.666   3.427
 2503SOL     OW 8407   3.900   5.935   5.575
 2503SOL    HW1 8408   3.857   6.013   5.621
 2503SOL    HW2 8409   3.986   5.913   5.621
 2504SOL     OW 8410   2.750   5.402   4.921
 2504SOL    HW1 8411   2.730   5.500   4.926
 2504SOL    HW2 8412   2.756   5.364   5.013
 2505SOL     OW 8413   3.255   6.299   4.720
 2505SOL    HW1 8414   3.256   6.387   4.673
 2505SOL    HW2 8415   3.164   6.284   4.760
 2506SOL     OW 8416   6.842   3.358   5.985
 2506SOL    HW1 8417   6.932   3.371   6.026
 2506SOL    HW2 8418   6.828   3.425   5.913
 2507SOL     OW 8419   6.297   5.151   0.121
 2507SOL    HW1 8420   6.247   5.233   0.093
 2507SOL    HW2 8421   6.271   5.127   0.215
 2508SOL     OW 8422   2.614   2.241   1.993
 2508SOL    HW1 8423   2.700   2.289   2.008
 2508SOL    HW2 8424   2.582   2.257   1.899
 2509SOL     OW 8425   5.356   1.540   2.066
 2509SOL    HW1 8426   5.314   1.459   2.025
 2509SOL    HW2 8427   5.405   1.513   2.149
 2510SOL     OW 8428   2.324   4.289   0.659
 2510SOL    HW1 8429   2.385   4.215   0.629
 2510SOL    HW2 8430   2.360   4.329   0.744
 2511SOL     OW 8431   1.321   1.677   4.990
 2511SOL    HW1 8432   1.351   1.753   4.933
 2511SOL    HW2 8433   1.285   1.604   4.932
 2512SOL     OW 8434   5.748   4.319   4.944
 2512SOL    HW1 8435   5.756   4.235   4.998
 2512SOL    HW2 8436   5.685   4.382   4.988
 2513SOL     OW 8437   0.934   2.343   5.979
 2513SOL    HW1 8438   0.937   2.415   5.910
 2513SOL    HW2 8439   1.008   2.357   6.045
 2514SOL     OW 8440   0.134   2.777   4.041
 2514SOL    HW1 8441   0.127   2.869   4.001
 2514SOL    HW2 8442   0.175   2.715   3.974
 2515SOL     OW 8443   1.273   6.810   1.058
 2515SOL    HW1 8444   1.253   6.832   0.962
 2515SOL    HW2 8445   1.269   6.894   1.112
 2516SOL     OW 8446   6.092   5.432   3.145
 2516SOL    HW1 8447   6.076   5.399   3.238
 2516SOL    HW2 8448   6.008   5.476   3.111
 2517SOL     OW 8449   2.216   4.963   6.238
 2517SOL    HW1 8450   2.148   4.924   6.175
 2517SOL    HW2 8451   2.230   4.899   6.314
 2518SOL     OW 8452   2.185   2.911   6.799
 2518SOL    HW1 8453   2.258   2.978   6.813
 2518SOL    HW2 8454   2.185   2.846   6.875
 2519SOL     OW 8455   4.444   4.904   4.045
 2519SOL    HW1 8456   4.482   4.978   4.100
 2519SOL    HW2 8457   4.395   4.840   4.105
 2520SOL     OW 8458   1.754   2.611   0.861
 2520SOL    HW1 8459   1.779   2.695   0.909
 2520SOL    HW2 8460   1.768   2.533   0.921
 2521SOL     OW 8461   0.725   0.113   5.734
 2521SOL    HW1 8462   0.789   0.137   5.807
 2521SOL    HW2 8463   0.719   0.014   5.725
 2522SOL     OW 8464   0.856   2.812   4.559
 2522SOL    HW1 8465   0.761   2.819   4.531
 2522SOL    HW2 8466   0.862   2.797   4.658
 2523SOL     OW 8467   6.891   3.233   0.948
 2523SOL    HW1 8468   6.910   3.157   0.887
 2523SOL    HW2 8469   6.976   3.267   0.988
 2524SOL     OW 8470   0.273   6.162   4.495
 2524SOL    HW1 8471   0.345   6.122   4.552
 2524SOL    HW2 8472   0.314   6.205   4.415
 2525SOL     OW 8473   1.546   3.285   4.570
 2525SOL    HW1 8474   1.551   3.185   4.572
 2525SOL    HW2 8475   1.635   3.323   4.546
 2526SOL     OW 8476   0.410   3.149   5.521
 2526SOL    HW1 8477   0.471   3.086   5.567
 2526SOL    HW2 8478   0.427   3.147   5.422
 2527SOL     OW 8479   6.043   0.029   5.535
 2527SOL    HW1 8480   5.968   6.986   5.509
 2527SOL    HW2 8481   6.058   0.023   5.633
 2528SOL     OW 8482   5.233   4.818   1.200
 2528SOL    HW1 8483   5.179   4.734   1.209
 2528SOL    HW2 8484   5.321   4.805   1.247
 2529SOL     OW 8485   5.248   4.584   6.255
 2529SOL    HW1 8486   5.273   4.496   6.214
 2529SOL    HW2 8487   5.227   4.569   6.352
 2530SOL     OW 8488   1.014   6.228   4.476
 2530SOL    HW1 8489   1.045   6.138   4.504
 2530SOL    HW2 8490   1.027   6.293   4.551
 2531SOL     OW 8491   5.707   6.645   4.788
 2531SOL    HW1 8492   5.745   6.585   4.858
 2531SOL    HW2 8493   5.607   6.644   4.794
 2532SOL     OW 8494   0.731   5.940   0.333
 2532SOL    HW1 8495   0.811   5.915   0.278
 2532SOL    HW2 8496   0.711   5.866   0.397
 2533SOL     OW 8497   5.270   6.504   5.123
 2533SOL    HW1 8498   5.217   6.549   5.051
 2533SOL    HW2 8499   5.274   6.563   5.204
 2534SOL     OW 8500   2.417   0.568   3.007
 2534SOL    HW1 8501   2.391   0.512   3.086
 2534SOL    HW2 8502   2.398   0.518   2.923
 2535SOL     OW 8503   1.748   1.913   6.144
 2535SOL    HW1 8504   1.846   1.932   6.144
 2535SOL    HW2 8505   1.716   1.908   6.049
 2536SOL     OW 8506   6.929   1.890   3.555
 2536SOL    HW1 8507   6.946   1.978   3.511
 2536SOL    HW2 8508   6.935   1.817   3.487
 2537SOL     OW 8509   4.987   6.378   0.792
 2537SOL    HW1 8510   5.062   6.363   0.856
 2537SOL    HW2 8511   5.017   6.356   0.699
 2538SOL     OW 8512   1.997   4.336   4.814
 2538SOL    HW1 8513   2.060   4.269   4.774
 2538SOL    HW2 8514   1.961   4.395   4.742
 2539SOL     OW 8515   4.163   0.092   5.521
 2539SOL    HW1 8516   4.092   0.161   5.510
 2539SOL    HW2 8517   4.223   0.116   5.597
 2540SOL     OW 8518   5.857   1.325   1.371
 2540SOL    HW1 8519   5.865   1.260   1.295
 2540SOL    HW2 8520   5.832   1.277   1.454
 2541SOL     OW 8521   1.442   0.423   5.407
 2541SOL    HW1 8522   1.424   0.509   5.360
 2541SOL    HW2 8523   1.360   0.367   5.407
 2542SOL     OW 8524   3.930   1.879   4.319
 2542SOL    HW1 8525   4.012   1.848   4.367
 2542SOL    HW2 8526   3.857   1.812   4.330
 2543SOL     OW 8527   1.394   0.310   2.908
 2543SOL    HW1 8528   1.463   0.335   2.976
 2543SOL    HW2 8529   1.308   0.356   2.929
 2544SOL     OW 8530   0.765   5.040   1.707
 2544SOL    HW1 8531   0.822   5.123   1.701
 2544SOL    HW2 8532   0.824   4.961   1.723
 2545SOL     OW 8533   1.852   1.451   1.544
 2545SOL    HW1 8534   1.832   1.354   1.551
 2545SOL    HW2 8535   1.817   1.487   1.458
 2546SOL     OW 8536   6.962   3.330   1.304
 2546SOL    HW1 8537   6.876   3.369   1.272
 2546SOL    HW2 8538   0.009   3.324   1.228
 2547SOL     OW 8539   5.511   5.098   0.957
 2547SOL    HW1 8540   5.536   5.166   0.889
 2547SOL    HW2 8541   5.562   5.013   0.939
 2548SOL     OW 8542   1.855   0.498   4.875
 2548SOL    HW1 8543   1.896   0.415   4.913
 2548SOL    HW2 8544   1.927   0.563   4.851
 2549SOL     OW 8545   2.282   2.792   1.462
 2549SOL    HW1 8546   2.236   2.720   1.411
 2549SOL    HW2 8547   2.239   2.880   1.441
 2550SOL     OW 8548   5.453   0.153   6.624
 2550SOL    HW1 8549   5.529   0.091   6.646
 2550SOL    HW2 8550   5.439   0.154   6.525
 2551SOL     OW 8551   3.791   4.878   0.085
 2551SOL    HW1 8552   3.726   4.952   0.101
 2551SOL    HW2 8553   3.776   4.806   0.153
 2552SOL     OW 8554   2.386   5.415   6.747
 2552SOL    HW1 8555   2.306   5.389   6.800
 2552SOL    HW2 8556   2.463   5.356   6.771
 2553SOL     OW 8557   3.627   2.778   6.073
 2553SOL    HW1 8558   3.601   2.815   5.984
 2553SOL    HW2 8559   3.619   2.678   6.071
 2554SOL     OW 8560   1.633   6.002   6.566
 2554SOL    HW1 8561   1.624   5.940   6.488
 2554SOL    HW2 8562   1.678   6.086   6.536
 2555SOL     OW 8563   6.183   6.057   6.612
 2555SOL    HW1 8564   6.142   6.013   6.532
 2555SOL    HW2 8565   6.238   5.990   6.661
 2556SOL     OW 8566   3.863   0.358   1.438
 2556SOL    HW1 8567   3.869   0.364   1.338
 2556SOL    HW2 8568   3.878   0.264   1.466
 2557SOL     OW 8569   2.794   1.244   0.157
 2557SOL    HW1 8570   2.890   1.214   0.156
 2557SOL    HW2 8571   2.760   1.251   0.063
 2558SOL     OW 8572   4.933   3.776   6.016
 2558SOL    HW1 8573   4.970   3.841   6.082
 2558SOL    HW2 8574   4.895   3.697   6.066
 2559SOL     OW 8575   6.836   3.295   3.809
 2559SOL    HW1 8576   6.751   3.312   3.759
 2559SOL    HW2 8577   6.828   3.210   3.860
 2560SOL     OW 8578   4.873   3.743   3.424
 2560SOL    HW1 8579   4.886   3.647   3.399
 2560SOL    HW2 8580   4.872   3.751   3.524
 2561SOL     OW 8581   3.823   1.468   3.108
 2561SOL    HW1 8582   3.730   1.442   3.134
 2561SOL    HW2 8583   3.834   1.566   3.119
 2562SOL     OW 8584   3.169   6.108   3.321
 2562SOL    HW1 8585   3.089   6.079   3.372
 2562SOL    HW2 8586   3.239   6.036   3.325
 2563SOL     OW 8587   3.701   1.592   6.599
 2563SOL    HW1 8588   3.617   1.575   6.650
 2563SOL    HW2 8589   3.686   1.668   6.535
 2564SOL     OW 8590   2.112   6.883   0.625
 2564SOL    HW1 8591   2.189   6.828   0.594
 2564SOL    HW2 8592   2.027   6.833   0.610
 2565SOL     OW 8593   0.028   1.132   6.848
 2565SOL    HW1 8594   7.014   1.064   6.781
 2565SOL    HW2 8595   6.974   1.145   6.917
 2566SOL     OW 8596   2.700   6.451   1.547
 2566SOL    HW1 8597   2.715   6.510   1.627
 2566SOL    HW2 8598   2.652   6.368   1.576
 2567SOL     OW 8599   1.543   1.190   1.057
 2567SOL    HW1 8600   1.480   1.118   1.084
 2567SOL    HW2 8601   1.600   1.158   0.981
 2568SOL     OW 8602   2.896   6.901   0.831
 2568SOL    HW1 8603   2.967   6.875   0.897
 2568SOL    HW2 8604   2.856   6.988   0.857
 2569SOL     OW 8605   2.937   2.136   1.852
 2569SOL    HW1 8606   2.930   2.091   1.941
 2569SOL    HW2 8607   2.880   2.218   1.851
 2570SOL     OW 8608   5.158   6.013   6.095
 2570SOL    HW1 8609   5.163   6.097   6.040
 2570SOL    HW2 8610   5.183   5.935   6.039
 2571SOL     OW 8611   3.683   3.125   4.612
 2571SOL    HW1 8612   3.712   3.033   4.584
 2571SOL    HW2 8613   3.761   3.187   4.605
 2572SOL     OW 8614   2.526   6.184   1.334
 2572SOL    HW1 8615   2.596   6.114   1.320
 2572SOL    HW2 8616   2.436   6.147   1.315
 2573SOL     OW 8617   6.513   2.325   3.666
 2573SOL    HW1 8618   6.489   2.229   3.652
 2573SOL    HW2 8619   6.535   2.367   3.578
 2574SOL     OW 8620   6.252   3.345   0.792
 2574SOL    HW1 8621   6.246   3.319   0.889
 2574SOL    HW2 8622   6.242   3.263   0.735
 2575SOL     OW 8623   5.272   3.721   1.400
 2575SOL    HW1 8624   5.263   3.628   1.362
 2575SOL    HW2 8625   5.354   3.727   1.455
 2576SOL     OW 8626   3.261   0.042   3.699
 2576SOL    HW1 8627   3.304   6.970   3.718
 2576SOL    HW2 8628   3.333   0.108   3.677
 2577SOL     OW 8629   4.624   0.430   3.722
 2577SOL    HW1 8630   4.636   0.342   3.769
 2577SOL    HW2 8631   4.697   0.492   3.750
 2578SOL     OW 8632   5.151   2.913   5.010
 2578SOL    HW1 8633   5.100   2.992   4.977
 2578SOL    HW2 8634   5.098   2.867   5.082
 2579SOL     OW 8635   0.932   1.384   5.559
 2579SOL    HW1 8636   0.959   1.319   5.630
 2579SOL    HW2 8637   0.987   1.467   5.566
 2580SOL     OW 8638   2.128   2.591   5.739
 2580SOL    HW1 8639   2.151   2.564   5.646
 2580SOL    HW2 8640   2.206   2.638   5.781
 2581SOL     OW 8641   5.831   4.606   1.832
 2581SOL    HW1 8642   5.840   4.649   1.742
 2581SOL    HW2 8643   5.812   4.677   1.900
 2582SOL     OW 8644   2.078   4.525   3.277
 2582SOL    HW1 8645   2.176   4.533   3.298
 2582SOL    HW2 8646   2.041   4.444   3.322
 2583SOL     OW 8647   1.211   0.933   1.128
 2583SOL    HW1 8648   1.130   0.877   1.113
 2583SOL    HW2 8649   1.275   0.920   1.051
 2584SOL     OW 8650   4.331   6.490   0.993
 2584SOL    HW1 8651   4.337   6.575   0.941
 2584SOL    HW2 8652   4.371   6.415   0.940
 2585SOL     OW 8653   2.946   0.519   0.424
 2585SOL    HW1 8654   2.856   0.558   0.402
 2585SOL    HW2 8655   3.006   0.591   0.460
 2586SOL     OW 8656   5.351   1.437   4.858
 2586SOL    HW1 8657   5.447   1.436   4.887
 2586SOL    HW2 8658   5.342   1.392   4.769
 2587SOL     OW 8659   6.661   0.005   4.352
 2587SOL    HW1 8660   6.657   0.044   4.444
 2587SOL    HW2 8661   6.744   6.968   4.341
 2588SOL     OW 8662   5.077   7.004   0.643
 2588SOL    HW1 8663   5.160   0.041   0.629
 2588SOL    HW2 8664   5.012   0.007   0.570
 2589SOL     OW 8665   6.967   6.913   5.060
 2589SOL    HW1 8666   6.916   6.827   5.060
 2589SOL    HW2 8667   0.048   6.894   5.073
 2590SOL     OW 8668   3.820   0.550   2.925
 2590SOL    HW1 8669   3.839   0.533   3.022
 2590SOL    HW2 8670   3.869   0.484   2.869
 2591SOL     OW 8671   6.027   6.278   1.983
 2591SOL    HW1 8672   6.072   6.197   2.021
 2591SOL    HW2 8673   6.047   6.358   2.040
 2592SOL     OW 8674   2.752   6.371   1.988
 2592SOL    HW1 8675   2.843   6.354   2.028
 2592SOL    HW2 8676   2.757   6.452   1.929
 2593SOL     OW 8677   3.761   6.852   2.268
 2593SOL    HW1 8678   3.682   6.840   2.208
 2593SOL    HW2 8679   3.804   6.764   2.286
 2594SOL     OW 8680   0.612   6.520   6.251
 2594SOL    HW1 8681   0.526   6.545   6.206
 2594SOL    HW2 8682   0.665   6.602   6.270
 2595SOL     OW 8683   0.136   2.199   5.594
 2595SOL    HW1 8684   0.174   2.167   5.507
 2595SOL    HW2 8685   0.172   2.290   5.615
 2596SOL     OW 8686   3.781   2.363   1.656
 2596SOL    HW1 8687   3.715   2.343   1.730
 2596SOL    HW2 8688   3.846   2.432   1.687
 2597SOL     OW 8689   2.198   3.840   0.936
 2597SOL    HW1 8690   2.281   3.894   0.921
 2597SOL    HW2 8691   2.118   3.893   0.908
 2598SOL     OW 8692   5.839   3.020   4.659
 2598SOL    HW1 8693   5.781   2.952   4.702
 2598SOL    HW2 8694   5.848   3.000   4.561
 2599SOL     OW 8695   3.692   5.652   6.799
 2599SOL    HW1 8696   3.784   5.687   6.820
 2599SOL    HW2 8697   3.643   5.719   6.742
 2600SOL     OW 8698   4.818   3.892   4.177
 2600SOL    HW1 8699   4.899   3.879   4.235
 2600SOL    HW2 8700   4.767   3.972   4.209
 2601SOL     OW 8701   3.530   2.378   6.577
 2601SOL    HW1 8702   3.606   2.313   6.585
 2601SOL    HW2 8703   3.467   2.364   6.654
 2602SOL     OW 8704   6.703   4.464   3.345
 2602SOL    HW1 8705   6.750   4.551   3.360
 2602SOL    HW2 8706   6.767   4.388   3.358
 2603SOL     OW 8707   2.834   1.996   1.358
 2603SOL    HW1 8708   2.876   1.998   1.448
 2603SOL    HW2 8709   2.809   2.089   1.331
 2604SOL     OW 8710   5.106   1.288   1.524
 2604SOL    HW1 8711   5.047   1.279   1.604
 2604SOL    HW2 8712   5.200   1.306   1.553
 2605SOL     OW 8713   4.097   4.845   3.414
 2605SOL    HW1 8714   4.123   4.781   3.486
 2605SOL    HW2 8715   4.006   4.882   3.435
 2606SOL     OW 8716   6.499   4.965   0.658
 2606SOL    HW1 8717   6.400   4.951   0.661
 2606SOL    HW2 8718   6.522   5.050   0.703
 2607SOL     OW 8719   0.623   1.956   5.390
 2607SOL    HW1 8720   0.710   1.928   5.430
 2607SOL    HW2 8721   0.635   2.040   5.338
 2608SOL     OW 8722   4.736   6.254   2.926
 2608SOL    HW1 8723   4.790   6.327   2.885
 2608SOL    HW2 8724   4.664   6.226   2.862
 2609SOL     OW 8725   0.589   2.236   0.945
 2609SOL    HW1 8726   0.642   2.320   0.934
 2609SOL    HW2 8727   0.651   2.158   0.950
 2610SOL     OW 8728   6.575   5.069   4.720
 2610SOL    HW1 8729   6.631   5.100   4.797
 2610SOL    HW2 8730   6.620   4.992   4.674
 2611SOL     OW 8731   6.267   6.684   0.991
 2611SOL    HW1 8732   6.240   6.679   0.895
 2611SOL    HW2 8733   6.287   6.780   1.014
 2612SOL     OW 8734   6.597   6.543   4.790
 2612SOL    HW1 8735   6.697   6.543   4.797
 2612SOL    HW2 8736   6.568   6.612   4.724
 2613SOL     OW 8737   2.952   6.565   2.212
 2613SOL    HW1 8738   2.908   6.505   2.278
 2613SOL    HW2 8739   2.883   6.617   2.161
 2614SOL     OW 8740   6.551   6.183   5.962
 2614SOL    HW1 8741   6.611   6.255   5.997
 2614SOL    HW2 8742   6.496   6.219   5.887
 2615SOL     OW 8743   5.346   4.988   3.119
 2615SOL    HW1 8744   5.299   4.906   3.153
 2615SOL    HW2 8745   5.415   4.960   3.052
 2616SOL     OW 8746   4.031   3.324   3.765
 2616SOL    HW1 8747   4.054   3.420   3.747
 2616SOL    HW2 8748   4.104   3.282   3.819
 2617SOL     OW 8749   3.316   5.917   1.041
 2617SOL    HW1 8750   3.391   5.981   1.060
 2617SOL    HW2 8751   3.228   5.965   1.049
 2618SOL     OW 8752   0.227   6.546   3.922
 2618SOL    HW1 8753   0.286   6.501   3.989
 2618SOL    HW2 8754   0.260   6.526   3.830
 2619SOL     OW 8755   3.242   1.443   2.688
 2619SOL    HW1 8756   3.286   1.393   2.613
 2619SOL    HW2 8757   3.312   1.476   2.752
 2620SOL     OW 8758   1.108   5.847   3.624
 2620SOL    HW1 8759   1.118   5.755   3.586
 2620SOL    HW2 8760   1.122   5.844   3.723
 2621SOL     OW 8761   1.549   5.892   3.647
 2621SOL    HW1 8762   1.608   5.859   3.721
 2621SOL    HW2 8763   1.492   5.818   3.614
 2622SOL     OW 8764   2.208   2.506   6.585
 2622SOL    HW1 8765   2.218   2.433   6.517
 2622SOL    HW2 8766   2.112   2.532   6.592
 2623SOL     OW 8767   3.965   1.881   4.681
 2623SOL    HW1 8768   3.981   1.915   4.774
 2623SOL    HW2 8769   3.877   1.913   4.648
 2624SOL     OW 8770   6.755   3.130   4.013
 2624SOL    HW1 8771   6.686   3.131   4.085
 2624SOL    HW2 8772   6.741   3.051   3.954
 2625SOL     OW 8773   2.309   2.865   5.347
 2625SOL    HW1 8774   2.360   2.914   5.276
 2625SOL    HW2 8775   2.353   2.777   5.364
 2626SOL     OW 8776   0.584   6.792   4.066
 2626SOL    HW1 8777   0.594   6.693   4.060
 2626SOL    HW2 8778   0.499   6.814   4.113
 2627SOL     OW 8779   0.509   0.754   4.069
 2627SOL    HW1 8780   0.532   0.717   3.979
 2627SOL    HW2 8781   0.560   0.704   4.139
 2628SOL     OW 8782   3.687   5.485   6.585
 2628SOL    HW1 8783   3.675   5.546   6.663
 2628SOL    HW2 8784   3.773   5.434   6.595
 2629SOL     OW 8785   3.455   3.968   2.056
 2629SOL    HW1 8786   3.524   4.017   2.110
 2629SOL    HW2 8787   3.367   3.974   2.102
 2630SOL     OW 8788   3.742   1.907   2.283
 2630SOL    HW1 8789   3.806   1.982   2.271
 2630SOL    HW2 8790   3.658   1.925   2.232
 2631SOL     OW 8791   4.552   6.723   3.526
 2631SOL    HW1 8792   4.595   6.814   3.528
 2631SOL    HW2 8793   4.515   6.702   3.617
 2632SOL     OW 8794   2.928   2.163   5.898
 2632SOL    HW1 8795   2.924   2.263   5.892
 2632SOL    HW2 8796   2.944   2.125   5.807
 2633SOL     OW 8797   6.506   2.409   6.099
 2633SOL    HW1 8798   6.572   2.474   6.138
 2633SOL    HW2 8799   6.451   2.454   6.030
 2634SOL     OW 8800   2.131   3.892   3.011
 2634SOL    HW1 8801   2.089   3.946   2.938
 2634SOL    HW2 8802   2.135   3.796   2.983
 2635SOL     OW 8803   5.774   5.626   4.347
 2635SOL    HW1 8804   5.830   5.633   4.430
 2635SOL    HW2 8805   5.680   5.652   4.368
 2636SOL     OW 8806   5.226   0.505   5.849
 2636SOL    HW1 8807   5.143   0.555   5.875
 2636SOL    HW2 8808   5.228   0.417   5.896
 2637SOL     OW 8809   6.593   0.944   3.470
 2637SOL    HW1 8810   6.521   0.952   3.539
 2637SOL    HW2 8811   6.603   0.849   3.442
 2638SOL     OW 8812   0.033   6.874   2.956
 2638SOL    HW1 8813   6.979   6.810   2.928
 2638SOL    HW2 8814   0.121   6.844   2.919
 2639SOL     OW 8815   6.928   6.596   1.811
 2639SOL    HW1 8816   6.840   6.629   1.778
 2639SOL    HW2 8817   6.932   6.497   1.805
 2640SOL     OW 8818   6.868   6.628   5.752
 2640SOL    HW1 8819   6.908   6.616   5.661
 2640SOL    HW2 8820   6.832   6.720   5.760
 2641SOL     OW 8821   5.383   3.232   1.454
 2641SOL    HW1 8822   5.435   3.173   1.392
 2641SOL    HW2 8823   5.423   3.228   1.546
 2642SOL     OW 8824   5.031   0.663   4.729
 2642SOL    HW1 8825   4.940   0.704   4.721
 2642SOL    HW2 8826   5.051   0.645   4.825
 2643SOL     OW 8827   0.943   4.853   2.994
 2643SOL    HW1 8828   1.011   4.924   2.975
 2643SOL    HW2 8829   0.932   4.795   2.913
 2644SOL     OW 8830   0.475   4.365   5.064
 2644SOL    HW1 8831   0.457   4.318   5.151
 2644SOL    HW2 8832   0.492   4.297   4.992
 2645SOL     OW 8833   4.907   6.533   4.852
 2645SOL    HW1 8834   4.911   6.633   4.849
 2645SOL    HW2 8835   4.836   6.504   4.916
 2646SOL     OW 8836   6.016   6.781   6.704
 2646SOL    HW1 8837   5.948   6.753   6.773
 2646SOL    HW2 8838   6.100   6.809   6.750
 2647SOL     OW 8839   5.528   0.982   0.569
 2647SOL    HW1 8840   5.549   1.037   0.488
 2647SOL    HW2 8841   5.565   1.028   0.650
 2648SOL     OW 8842   6.764   6.764   3.933
 2648SOL    HW1 8843   6.809   6.786   4.020
 2648SOL    HW2 8844   6.756   6.846   3.877
 2649SOL     OW 8845   4.262   1.872   6.302
 2649SOL    HW1 8846   4.356   1.903   6.294
 2649SOL    HW2 8847   4.241   1.851   6.398
 2650SOL     OW 8848   0.337   3.966   3.981
 2650SOL    HW1 8849   0.246   3.950   4.019
 2650SOL    HW2 8850   0.331   4.036   3.910
 2651SOL     OW 8851   1.369   1.775   0.502
 2651SOL    HW1 8852   1.399   1.794   0.409
 2651SOL    HW2 8853   1.405   1.686   0.531
 2652SOL     OW 8854   2.992   3.839   3.257
 2652SOL    HW1 8855   2.956   3.885   3.338
 2652SOL    HW2 8856   3.089   3.817   3.272
 2653SOL     OW 8857   5.190   6.984   5.057
 2653SOL    HW1 8858   5.166   0.020   4.977
 2653SOL    HW2 8859   5.118   6.992   5.126
 2654SOL     OW 8860   4.645   3.351   0.251
 2654SOL    HW1 8861   4.610   3.267   0.293
 2654SOL    HW2 8862   4.724   3.329   0.193
 2655SOL     OW 8863   4.586   4.547   4.690
 2655SOL    HW1 8864   4.649   4.620   4.664
 2655SOL    HW2 8865   4.493   4.584   4.697
 2656SOL     OW 8866   4.007   4.867   4.040
 2656SOL    HW1 8867   3.979   4.946   4.094
 2656SOL    HW2 8868   4.096   4.884   3.998
 2657SOL     OW 8869   2.659   4.585   6.381
 2657SOL    HW1 8870   2.669   4.665   6.441
 2657SOL    HW2 8871   2.561   4.566   6.367
 2658SOL     OW 8872   5.072   4.205   0.050
 2658SOL    HW1 8873   5.113   4.258   0.125
 2658SOL    HW2 8874   5.104   4.111   0.054
 2659SOL     OW 8875   6.341   2.366   4.262
 2659SOL    HW1 8876   6.413   2.358   4.331
 2659SOL    HW2 8877   6.320   2.276   4.225
 2660SOL     OW 8878   0.918   1.984   1.194
 2660SOL    HW1 8879   0.886   1.916   1.128
 2660SOL    HW2 8880   1.005   2.023   1.161
 2661SOL     OW 8881   2.195   6.374   1.961
 2661SOL    HW1 8882   2.133   6.452   1.950
 2661SOL    HW2 8883   2.284   6.406   1.993
 2662SOL     OW 8884   4.382   0.103   4.883
 2662SOL    HW1 8885   4.309   0.035   4.878
 2662SOL    HW2 8886   4.435   0.088   4.966
 2663SOL     OW 8887   2.439   4.615   1.162
 2663SOL    HW1 8888   2.359   4.644   1.109
 2663SOL    HW2 8889   2.416   4.615   1.259
 2664SOL     OW 8890   3.839   3.720   3.492
 2664SOL    HW1 8891   3.776   3.682   3.424
 2664SOL    HW2 8892   3.791   3.788   3.547
 2665SOL     OW 8893   3.223   1.757   4.529
 2665SOL    HW1 8894   3.191   1.828   4.591
 2665SOL    HW2 8895   3.147   1.697   4.505
 2666SOL     OW 8896   4.764   3.600   1.517
 2666SOL    HW1 8897   4.822   3.559   1.447
 2666SOL    HW2 8898   4.701   3.530   1.552
 2667SOL     OW 8899   1.807   5.708   4.404
 2667SOL    HW1 8900   1.899   5.694   4.440
 2667SOL    HW2 8901   1.771   5.621   4.371
 2668SOL     OW 8902   6.434   3.151   3.392
 2668SOL    HW1 8903   6.530   3.138   3.417
 2668SOL    HW2 8904   6.414   3.248   3.384
 2669SOL     OW 8905   2.665   5.010   5.273
 2669SOL    HW1 8906   2.755   5.049   5.256
 2669SOL    HW2 8907   2.672   4.910   5.280
 2670SOL     OW 8908   6.127   1.055   6.507
 2670SOL    HW1 8909   6.154   0.995   6.431
 2670SOL    HW2 8910   6.209   1.083   6.557
 2671SOL     OW 8911   2.980   5.019   0.601
 2671SOL    HW1 8912   2.987   5.034   0.503
 2671SOL    HW2 8913   2.917   5.085   0.641
 2672SOL     OW 8914   0.593   5.525   6.670
 2672SOL    HW1 8915   0.675   5.582   6.667
 2672SOL    HW2 8916   0.610   5.439   6.621
 2673SOL     OW 8917   5.465   2.325   3.899
 2673SOL    HW1 8918   5.410   2.271   3.835
 2673SOL    HW2 8919   5.414   2.406   3.926
 2674SOL     OW 8920   2.249   4.157   4.224
 2674SOL    HW1 8921   2.154   4.182   4.244
 2674SOL    HW2 8922   2.297   4.137   4.310
 2675SOL     OW 8923   0.576   4.771   5.580
 2675SOL    HW1 8924   0.654   4.713   5.601
 2675SOL    HW2 8925   0.532   4.740   5.495
 2676SOL     OW 8926   4.577   0.517   3.205
 2676SOL    HW1 8927   4.597   0.429   3.248
 2676SOL    HW2 8928   4.663   0.567   3.192
 2677SOL     OW 8929   3.197   5.373   1.109
 2677SOL    HW1 8930   3.192   5.473   1.104
 2677SOL    HW2 8931   3.269   5.339   1.049
 2678SOL     OW 8932   0.179   4.107   0.868
 2678SOL    HW1 8933   0.241   4.048   0.919
 2678SOL    HW2 8934   0.091   4.061   0.856
 2679SOL     OW 8935   4.359   5.442   1.179
 2679SOL    HW1 8936   4.270   5.468   1.140
 2679SOL    HW2 8937   4.345   5.376   1.253
 2680SOL     OW 8938   1.505   1.401   0.895
 2680SOL    HW1 8939   1.499   1.337   0.972
 2680SOL    HW2 8940   1.452   1.483   0.916
 2681SOL     OW 8941   1.238   2.440   4.233
 2681SOL    HW1 8942   1.151   2.448   4.281
 2681SOL    HW2 8943   1.292   2.366   4.273
 2682SOL     OW 8944   5.714   3.151   1.931
 2682SOL    HW1 8945   5.744   3.061   1.901
 2682SOL    HW2 8946   5.690   3.147   2.029
 2683SOL     OW 8947   1.529   3.553   0.264
 2683SOL    HW1 8948   1.573   3.463   0.262
 2683SOL    HW2 8949   1.456   3.555   0.194
 2684SOL     OW 8950   3.945   5.193   3.262
 2684SOL    HW1 8951   4.019   5.185   3.195
 2684SOL    HW2 8952   3.915   5.102   3.291
 2685SOL     OW 8953   6.803   6.875   5.692
 2685SOL    HW1 8954   6.719   6.902   5.646
 2685SOL    HW2 8955   6.882   6.896   5.634
 2686SOL     OW 8956   1.800   2.274   5.641
 2686SOL    HW1 8957   1.897   2.289   5.625
 2686SOL    HW2 8958   1.776   2.179   5.620
 2687SOL     OW 8959   4.240   4.656   2.991
 2687SOL    HW1 8960   4.255   4.753   3.009
 2687SOL    HW2 8961   4.316   4.603   3.028
 2688SOL     OW 8962   4.450   5.490   6.279
 2688SOL    HW1 8963   4.397   5.566   6.242
 2688SOL    HW2 8964   4.455   5.498   6.379
 2689SOL     OW 8965   2.151   2.400   3.481
 2689SOL    HW1 8966   2.211   2.321   3.464
 2689SOL    HW2 8967   2.120   2.398   3.576
 2690SOL     OW 8968   2.883   3.602   3.608
 2690SOL    HW1 8969   2.983   3.598   3.613
 2690SOL    HW2 8970   2.845   3.589   3.700
 2691SOL     OW 8971   1.454   5.112   2.347
 2691SOL    HW1 8972   1.492   5.029   2.306
 2691SOL    HW2 8973   1.395   5.088   2.424
 2692SOL     OW 8974   4.930   5.757   4.182
 2692SOL    HW1 8975   4.926   5.717   4.274
 2692SOL    HW2 8976   4.973   5.847   4.186
 2693SOL     OW 8977   1.821   4.444   2.981
 2693SOL    HW1 8978   1.908   4.408   3.016
 2693SOL    HW2 8979   1.776   4.373   2.925
 2694SOL     OW 8980   3.713   0.848   2.916
 2694SOL    HW1 8981   3.728   0.779   2.846
 2694SOL    HW2 8982   3.751   0.935   2.886
 2695SOL     OW 8983   5.890   1.704   2.868
 2695SOL    HW1 8984   5.878   1.608   2.895
 2695SOL    HW2 8985   5.955   1.709   2.792
 2696SOL     OW 8986   3.575   3.146   5.325
 2696SOL    HW1 8987   3.538   3.114   5.238
 2696SOL    HW2 8988   3.654   3.089   5.351
 2697SOL     OW 8989   4.562   2.162   3.640
 2697SOL    HW1 8990   4.638   2.178   3.577
 2697SOL    HW2 8991   4.573   2.073   3.684
 2698SOL     OW 8992   2.178   5.350   0.921
 2698SOL    HW1 8993   2.215   5.260   0.895
 2698SOL    HW2 8994   2.088   5.361   0.880
 2699SOL     OW 8995   3.243   5.401   0.315
 2699SOL    HW1 8996   3.146   5.391   0.291
 2699SOL    HW2 8997   3.252   5.474   0.383
 2700SOL     OW 8998   2.152   3.268   1.831
 2700SOL    HW1 8999   2.169   3.360   1.867
 2700SOL    HW2 9000   2.133   3.206   1.907
 2701SOL     OW 9001   4.226   0.111   6.447
 2701SOL    HW1 9002   4.164   0.078   6.518
 2701SOL    HW2 9003   4.180   0.182   6.393
 2702SOL     OW 9004   0.406   1.812   3.862
 2702SOL    HW1 9005   0.331   1.775   3.807
 2702SOL    HW2 9006   0.479   1.744   3.868
 2703SOL     OW 9007   2.326   1.114   2.526
 2703SOL    HW1 9008   2.236   1.091   2.490
 2703SOL    HW2 9009   2.394   1.052   2.486
 2704SOL     OW 9010   1.061   5.095   0.781
 2704SOL    HW1 9011   1.143   5.152   0.787
 2704SOL    HW2 9012   0.980   5.153   0.795
 2705SOL     OW 9013   1.015   5.461   4.197
 2705SOL    HW1 9014   0.924   5.494   4.171
 2705SOL    HW2 9015   1.078   5.538   4.205
 2706SOL     OW 9016   0.706   0.526   1.384
 2706SOL    HW1 9017   0.633   0.588   1.413
 2706SOL    HW2 9018   0.722   0.538   1.286
 2707SOL     OW 9019   2.458   0.484   5.462
 2707SOL    HW1 9020   2.528   0.539   5.507
 2707SOL    HW2 9021   2.433   0.527   5.375
 2708SOL     OW 9022   1.609   2.702   1.523
 2708SOL    HW1 9023   1.607   2.616   1.574
 2708SOL    HW2 9024   1.696   2.748   1.540
 2709SOL     OW 9025   5.636   6.374   1.250
 2709SOL    HW1 9026   5.646   6.465   1.289
 2709SOL    HW2 9027   5.642   6.306   1.324
 2710SOL     OW 9028   6.700   2.811   2.739
 2710SOL    HW1 9029   6.723   2.717   2.765
 2710SOL    HW2 9030   6.624   2.810   2.675
 2711SOL     OW 9031   3.155   0.905   2.756
 2711SOL    HW1 9032   3.182   0.973   2.824
 2711SOL    HW2 9033   3.071   0.859   2.785
 2712SOL     OW 9034   3.964   5.278   0.930
 2712SOL    HW1 9035   4.039   5.252   0.868
 2712SOL    HW2 9036   3.877   5.251   0.889
 2713SOL     OW 9037   1.892   2.406   4.535
 2713SOL    HW1 9038   1.799   2.393   4.500
 2713SOL    HW2 9039   1.938   2.477   4.482
 2714SOL     OW 9040   4.832   2.203   0.047
 2714SOL    HW1 9041   4.834   2.299   0.074
 2714SOL    HW2 9042   4.903   2.152   0.096
 2715SOL     OW 9043   5.726   0.199   0.203
 2715SOL    HW1 9044   5.825   0.184   0.196
 2715SOL    HW2 9045   5.696   0.176   0.295
 2716SOL     OW 9046   5.892   5.466   1.994
 2716SOL    HW1 9047   5.897   5.381   1.942
 2716SOL    HW2 9048   5.802   5.473   2.037
 2717SOL     OW 9049   1.297   5.458   1.851
 2717SOL    HW1 9050   1.222   5.525   1.844
 2717SOL    HW2 9051   1.266   5.370   1.816
 2718SOL     OW 9052   2.123   3.802   4.544
 2718SOL    HW1 9053   2.119   3.791   4.643
 2718SOL    HW2 9054   2.141   3.713   4.501
 2719SOL     OW 9055   5.038   4.990   1.698
 2719SOL    HW1 9056   4.946   4.951   1.705
 2719SOL    HW2 9057   5.102   4.919   1.669
 2720SOL     OW 9058   2.003   6.279   3.306
 2720SOL    HW1 9059   1.906   6.272   3.282
 2720SOL    HW2 9060   2.022   6.217   3.382
 2721SOL     OW 9061   2.782   0.309   5.332
 2721SOL    HW1 9062   2.759   0.272   5.422
 2721SOL    HW2 9063   2.855   0.254   5.291
 2722SOL     OW 9064   6.678   5.521   2.806
 2722SOL    HW1 9065   6.623   5.439   2.819
 2722SOL    HW2 9066   6.764   5.497   2.761
 2723SOL     OW 9067   1.765   0.070   6.168
 2723SOL    HW1 9068   1.841   0.087   6.231
 2723SOL    HW2 9069   1.711   7.009   6.200
 2724SOL     OW 9070   3.246   6.746   6.004
 2724SOL    HW1 9071   3.147   6.744   5.995
 2724SOL    HW2 9072   3.272   6.796   6.087
 2725SOL     OW 9073   6.103   5.243   2.920
 2725SOL    HW1 9074   6.098   5.318   2.987
 2725SOL    HW2 9075   6.136   5.160   2.965
 2726SOL     OW 9076   6.037   4.255   1.152
 2726SOL    HW1 9077   6.042   4.157   1.131
 2726SOL    HW2 9078   5.952   4.293   1.114
 2727SOL     OW 9079   0.102   4.712   2.534
 2727SOL    HW1 9080   0.190   4.665   2.538
 2727SOL    HW2 9081   0.105   4.783   2.464
 2728SOL     OW 9082   3.578   0.404   5.597
 2728SOL    HW1 9083   3.594   0.321   5.544
 2728SOL    HW2 9084   3.523   0.468   5.543
 2729SOL     OW 9085   6.812   5.814   1.965
 2729SOL    HW1 9086   6.886   5.856   1.912
 2729SOL    HW2 9087   6.805   5.717   1.940
 2730SOL     OW 9088   1.790   6.423   1.065
 2730SOL    HW1 9089   1.792   6.497   1.132
 2730SOL    HW2 9090   1.714   6.362   1.086
 2731SOL     OW 9091   3.551   3.796   1.523
 2731SOL    HW1 9092   3.625   3.753   1.472
 2731SOL    HW2 9093   3.577   3.802   1.620
 2732SOL     OW 9094   6.082   2.984   1.791
 2732SOL    HW1 9095   6.014   2.936   1.736
 2732SOL    HW2 9096   6.173   2.950   1.770
 2733SOL     OW 9097   0.249   6.932   5.134
 2733SOL    HW1 9098   0.333   6.880   5.116
 2733SOL    HW2 9099   0.243   7.009   5.070
 2734SOL     OW 9100   2.059   5.169   2.371
 2734SOL    HW1 9101   2.076   5.147   2.275
 2734SOL    HW2 9102   2.000   5.251   2.376
 2735SOL     OW 9103   0.721   3.684   2.879
 2735SOL    HW1 9104   0.794   3.667   2.945
 2735SOL    HW2 9105   0.686   3.597   2.844
 2736SOL     OW 9106   5.204   0.531   3.694
 2736SOL    HW1 9107   5.206   0.431   3.696
 2736SOL    HW2 9108   5.291   0.565   3.659
 2737SOL     OW 9109   3.361   3.415   5.670
 2737SOL    HW1 9110   3.409   3.330   5.651
 2737SOL    HW2 9111   3.371   3.438   5.767
 2738SOL     OW 9112   5.122   5.162   4.427
 2738SOL    HW1 9113   5.044   5.135   4.482
 2738SOL    HW2 9114   5.204   5.166   4.485
 2739SOL     OW 9115   6.320   4.620   0.472
 2739SOL    HW1 9116   6.337   4.625   0.571
 2739SOL    HW2 9117   6.349   4.530   0.438
 2740SOL     OW 9118   5.759   2.202   2.663
 2740SOL    HW1 9119   5.684   2.179   2.601
 2740SOL    HW2 9120   5.774   2.301   2.662
 2741SOL     OW 9121   6.808   1.648   6.274
 2741SOL    HW1 9122   6.866   1.714   6.228
 2741SOL    HW2 9123   6.807   1.562   6.222
 2742SOL     OW 9124   1.862   5.502   6.519
 2742SOL    HW1 9125   1.809   5.423   6.488
 2742SOL    HW2 9126   1.951   5.503   6.474
 2743SOL     OW 9127   6.335   5.256   1.894
 2743SOL    HW1 9128   6.407   5.304   1.945
 2743SOL    HW2 9129   6.312   5.307   1.812
 2744SOL     OW 9130   3.906   2.857   6.834
 2744SOL    HW1 9131   3.931   2.873   6.739
 2744SOL    HW2 9132   3.812   2.824   6.838
 2745SOL     OW 9133   1.362   0.281   6.777
 2745SOL    HW1 9134   1.316   0.335   6.707
 2745SOL    HW2 9135   1.320   0.190   6.781
 2746SOL     OW 9136   2.126   2.206   4.343
 2746SOL    HW1 9137   2.093   2.125   4.392
 2746SOL    HW2 9138   2.058   2.279   4.350
 2747SOL     OW 9139   5.481   3.926   5.625
 2747SOL    HW1 9140   5.495   3.962   5.718
 2747SOL    HW2 9141   5.399   3.868   5.625
 2748SOL     OW 9142   3.829   1.474   1.129
 2748SOL    HW1 9143   3.803   1.549   1.190
 2748SOL    HW2 9144   3.928   1.462   1.129
 2749SOL     OW 9145   5.803   4.329   4.176
 2749SOL    HW1 9146   5.827   4.232   4.177
 2749SOL    HW2 9147   5.774   4.357   4.268
 2750SOL     OW 9148   0.500   5.258   1.627
 2750SOL    HW1 9149   0.445   5.217   1.700
 2750SOL    HW2 9150   0.578   5.306   1.668
 2751SOL     OW 9151   1.787   6.990   0.705
 2751SOL    HW1 9152   1.688   6.991   0.718
 2751SOL    HW2 9153   1.809   7.011   0.610
 2752SOL     OW 9154   5.393   5.507   5.143
 2752SOL    HW1 9155   5.303   5.513   5.187
 2752SOL    HW2 9156   5.464   5.502   5.213
 2753SOL     OW 9157   1.600   6.654   6.069
 2753SOL    HW1 9158   1.509   6.682   6.038
 2753SOL    HW2 9159   1.660   6.643   5.990
 2754SOL     OW 9160   6.446   0.505   4.554
 2754SOL    HW1 9161   6.539   0.542   4.557
 2754SOL    HW2 9162   6.443   0.425   4.494
 2755SOL     OW 9163   3.066   6.844   2.799
 2755SOL    HW1 9164   3.058   6.890   2.711
 2755SOL    HW2 9165   3.101   6.909   2.867
 2756SOL     OW 9166   6.127   3.831   4.379
 2756SOL    HW1 9167   6.164   3.839   4.287
 2756SOL    HW2 9168   6.144   3.739   4.414
 2757SOL     OW 9169   2.595   1.648   6.742
 2757SOL    HW1 9170   2.660   1.722   6.728
 2757SOL    HW2 9171   2.619   1.598   6.825
 2758SOL     OW 9172   5.587   6.112   3.781
 2758SOL    HW1 9173   5.489   6.125   3.766
 2758SOL    HW2 9174   5.601   6.043   3.852
 2759SOL     OW 9175   3.711   4.987   5.143
 2759SOL    HW1 9176   3.806   4.981   5.111
 2759SOL    HW2 9177   3.691   4.910   5.203
 2760SOL     OW 9178   6.808   4.943   2.883
 2760SOL    HW1 9179   6.849   4.976   2.968
 2760SOL    HW2 9180   6.858   4.862   2.851
 2761SOL     OW 9181   1.972   4.091   3.941
 2761SOL    HW1 9182   2.024   4.062   3.861
 2761SOL    HW2 9183   1.938   4.184   3.927
 2762SOL     OW 9184   1.320   2.118   6.702
 2762SOL    HW1 9185   1.411   2.137   6.664
 2762SOL    HW2 9186   1.305   2.176   6.782
 2763SOL     OW 9187   5.056   2.304   5.605
 2763SOL    HW1 9188   4.964   2.290   5.641
 2763SOL    HW2 9189   5.055   2.293   5.506
 2764SOL     OW 9190   0.310   5.391   2.674
 2764SOL    HW1 9191   0.389   5.334   2.651
 2764SOL    HW2 9192   0.342   5.483   2.697
 2765SOL     OW 9193   6.929   0.252   1.228
 2765SOL    HW1 9194   6.891   0.234   1.138
 2765SOL    HW2 9195   6.928   0.167   1.282
 2766SOL     OW 9196   4.154   1.138   6.570
 2766SOL    HW1 9197   4.060   1.107   6.561
 2766SOL    HW2 9198   4.162   1.201   6.648
 2767SOL     OW 9199   5.847   5.894   6.660
 2767SOL    HW1 9200   5.827   5.832   6.736
 2767SOL    HW2 9201   5.910   5.850   6.596
 2768SOL     OW 9202   4.104   1.109   7.009
 2768SOL    HW1 9203   4.173   1.039   0.008
 2768SOL    HW2 9204   4.066   1.140   0.080
 2769SOL     OW 9205   2.585   4.601   6.042
 2769SOL    HW1 9206   2.673   4.561   6.016
 2769SOL    HW2 9207   2.601   4.688   6.089
 2770SOL     OW 9208   4.101   6.115   6.324
 2770SOL    HW1 9209   4.070   6.154   6.237
 2770SOL    HW2 9210   4.198   6.091   6.317
 2771SOL     OW 9211   5.612   0.193   4.773
 2771SOL    HW1 9212   5.699   0.212   4.819
 2771SOL    HW2 9213   5.597   0.094   4.769
 2772SOL     OW 9214   3.013   1.586   2.212
 2772SOL    HW1 9215   2.995   1.519   2.284
 2772SOL    HW2 9216   2.930   1.601   2.160
 2773SOL     OW 9217   0.169   3.038   3.952
 2773SOL    HW1 9218   0.254   3.076   3.915
 2773SOL    HW2 9219   0.131   3.100   4.020
 2774SOL     OW 9220   5.215   3.020   2.759
 2774SOL    HW1 9221   5.227   3.051   2.664
 2774SOL    HW2 9222   5.276   3.072   2.819
 2775SOL     OW 9223   6.555   3.743   3.795
 2775SOL    HW1 9224   6.471   3.726   3.742
 2775SOL    HW2 9225   6.546   3.701   3.885
 2776SOL     OW 9226   5.494   4.907   6.140
 2776SOL    HW1 9227   5.500   4.904   6.240
 2776SOL    HW2 9228   5.410   4.954   6.113
 2777SOL     OW 9229   2.377   1.495   6.651
 2777SOL    HW1 9230   2.363   1.439   6.569
 2777SOL    HW2 9231   2.470   1.531   6.651
 2778SOL     OW 9232   2.034   6.014   6.371
 2778SOL    HW1 9233   2.066   5.966   6.453
 2778SOL    HW2 9234   1.956   6.072   6.395
 2779SOL     OW 9235   5.584   6.746   2.163
 2779SOL    HW1 9236   5.506   6.775   2.107
 2779SOL    HW2 9237   5.632   6.672   2.116
 2780SOL     OW 9238   6.844   0.232   6.057
 2780SOL    HW1 9239   6.863   0.301   6.127
 2780SOL    HW2 9240   6.774   0.266   5.994
 2781SOL     OW 9241   5.941   0.285   2.837
 2781SOL    HW1 9242   5.994   0.357   2.793
 2781SOL    HW2 9243   6.002   0.216   2.876
 2782SOL     OW 9244   4.313   1.392   5.383
 2782SOL    HW1 9245   4.282   1.407   5.477
 2782SOL    HW2 9246   4.367   1.308   5.379
 2783SOL     OW 9247   6.562   3.825   1.205
 2783SOL    HW1 9248   6.485   3.761   1.202
 2783SOL    HW2 9249   6.557   3.888   1.127
 2784SOL     OW 9250   3.277   1.686   1.703
 2784SOL    HW1 9251   3.278   1.675   1.604
 2784SOL    HW2 9252   3.273   1.784   1.726
 2785SOL     OW 9253   5.392   2.264   0.983
 2785SOL    HW1 9254   5.372   2.169   0.958
 2785SOL    HW2 9255   5.374   2.277   1.080
 2786SOL     OW 9256   6.648   5.978   1.144
 2786SOL    HW1 9257   6.735   6.004   1.185
 2786SOL    HW2 9258   6.654   5.885   1.107
 2787SOL     OW 9259   6.781   5.977   5.956
 2787SOL    HW1 9260   6.806   5.935   5.868
 2787SOL    HW2 9261   6.715   6.050   5.940
 2788SOL     OW 9262   3.178   5.859   6.413
 2788SOL    HW1 9263   3.141   5.951   6.419
 2788SOL    HW2 9264   3.195   5.836   6.318
 2789SOL     OW 9265   1.664   2.266   3.580
 2789SOL    HW1 9266   1.577   2.287   3.626
 2789SOL    HW2 9267   1.657   2.288   3.483
 2790SOL     OW 9268   3.218   4.887   0.706
 2790SOL    HW1 9269   3.143   4.927   0.652
 2790SOL    HW2 9270   3.258   4.957   0.765
 2791SOL     OW 9271   0.297   4.247   2.252
 2791SOL    HW1 9272   0.300   4.338   2.293
 2791SOL    HW2 9273   0.384   4.200   2.267
 2792SOL     OW 9274   3.149   1.159   4.403
 2792SOL    HW1 9275   3.227   1.170   4.464
 2792SOL    HW2 9276   3.166   1.208   4.318
 2793SOL     OW 9277   5.122   3.867   1.793
 2793SOL    HW1 9278   5.221   3.885   1.795
 2793SOL    HW2 9279   5.107   3.773   1.761
 2794SOL     OW 9280   6.714   1.867   5.873
 2794SOL    HW1 9281   6.769   1.833   5.797
 2794SOL    HW2 9282   6.632   1.811   5.882
 2795SOL     OW 9283   0.578   4.960   0.952
 2795SOL    HW1 9284   0.662   4.909   0.935
 2795SOL    HW2 9285   0.588   5.013   1.036
 2796SOL     OW 9286   0.422   5.179   4.280
 2796SOL    HW1 9287   0.369   5.095   4.291
 2796SOL    HW2 9288   0.515   5.163   4.314
 2797SOL     OW 9289   5.222   5.719   5.969
 2797SOL    HW1 9290   5.179   5.635   5.935
 2797SOL    HW2 9291   5.291   5.749   5.903
 2798SOL     OW 9292   6.939   5.494   2.718
 2798SOL    HW1 9293   6.941   5.570   2.654
 2798SOL    HW2 9294   6.974   5.412   2.674
 2799SOL     OW 9295   4.886   5.441   5.554
 2799SOL    HW1 9296   4.849   5.350   5.567
 2799SOL    HW2 9297   4.816   5.501   5.516
 2800SOL     OW 9298   6.304   0.858   6.252
 2800SOL    HW1 9299   6.241   0.852   6.174
 2800SOL    HW2 9300   6.390   0.814   6.229
 2801SOL     OW 9301   1.700   5.350   5.636
 2801SOL    HW1 9302   1.648   5.434   5.620
 2801SOL    HW2 9303   1.741   5.319   5.550
 2802SOL     OW 9304   6.712   6.498   5.463
 2802SOL    HW1 9305   6.803   6.534   5.483
 2802SOL    HW2 9306   6.655   6.504   5.545
 2803SOL     OW 9307   3.395   4.167   5.694
 2803SOL    HW1 9308   3.448   4.155   5.610
 2803SOL    HW2 9309   3.378   4.265   5.708
 2804SOL     OW 9310   0.371   3.700   3.884
 2804SOL    HW1 9311   0.377   3.798   3.907
 2804SOL    HW2 9312   0.423   3.648   3.952
 2805SOL     OW 9313   5.754   3.889   2.365
 2805SOL    HW1 9314   5.778   3.810   2.308
 2805SOL    HW2 9315   5.677   3.864   2.424
 2806SOL     OW 9316   1.411   4.694   6.815
 2806SOL    HW1 9317   1.328   4.738   6.846
 2806SOL    HW2 9318   1.447   4.741   6.734
 2807SOL     OW 9319   4.086   0.456   3.104
 2807SOL    HW1 9320   4.108   0.359   3.113
 2807SOL    HW2 9321   4.021   0.482   3.176
 2808SOL     OW 9322   6.109   6.273   0.928
 2808SOL    HW1 9323   6.049   6.316   0.995
 2808SOL    HW2 9324   6.076   6.295   0.836
 2809SOL     OW 9325   6.168   2.666   1.869
 2809SOL    HW1 9326   6.127   2.719   1.943
 2809SOL    HW2 9327   6.223   2.726   1.811
 2810SOL     OW 9328   2.407   5.129   2.789
 2810SOL    HW1 9329   2.454   5.041   2.800
 2810SOL    HW2 9330   2.362   5.154   2.875
 2811SOL     OW 9331   0.759   1.129   2.492
 2811SOL    HW1 9332   0.796   1.139   2.400
 2811SOL    HW2 9333   0.790   1.206   2.549
 2812SOL     OW 9334   6.484   3.151   0.389
 2812SOL    HW1 9335   6.566   3.142   0.332
 2812SOL    HW2 9336   6.409   3.186   0.333
 2813SOL     OW 9337   0.608   1.692   0.586
 2813SOL    HW1 9338   0.542   1.626   0.551
 2813SOL    HW2 9339   0.599   1.698   0.686
 2814SOL     OW 9340   3.112   4.190   5.634
 2814SOL    HW1 9341   3.052   4.115   5.606
 2814SOL    HW2 9342   3.200   4.152   5.663
 2815SOL     OW 9343   0.308   6.120   5.859
 2815SOL    HW1 9344   0.270   6.199   5.908
 2815SOL    HW2 9345   0.389   6.149   5.808
 2816SOL     OW 9346   6.864   6.022   4.998
 2816SOL    HW1 9347   6.801   5.961   5.045
 2816SOL    HW2 9348   6.955   6.014   5.039
 2817SOL     OW 9349   3.835   1.592   2.239
 2817SOL    HW1 9350   3.875   1.627   2.154
 2817SOL    HW2 9351   3.736   1.611   2.238
 2818SOL     OW 9352   0.178   1.149   1.153
 2818SOL    HW1 9353   0.180   1.242   1.190
 2818SOL    HW2 9354   0.176   1.084   1.229
 2819SOL     OW 9355   1.310   0.297   0.962
 2819SOL    HW1 9356   1.212   0.307   0.980
 2819SOL    HW2 9357   1.356   0.384   0.979
 2820SOL     OW 9358   0.886   1.944   2.238
 2820SOL    HW1 9359   0.951   1.868   2.249
 2820SOL    HW2 9360   0.872   1.961   2.140
 2821SOL     OW 9361   3.236   5.059   5.921
 2821SOL    HW1 9362   3.201   5.086   5.831
 2821SOL    HW2 9363   3.233   5.138   5.982
 2822SOL     OW 9364   3.891   2.607   0.129
 2822SOL    HW1 9365   3.971   2.571   0.176
 2822SOL    HW2 9366   3.889   2.707   0.138
 2823SOL     OW 9367   5.339   0.619   0.053
 2823SOL    HW1 9368   5.423   0.613   0.107
 2823SOL    HW2 9369   5.300   0.528   0.042
 2824SOL     OW 9370   1.772   3.332   5.311
 2824SOL    HW1 9371   1.819   3.372   5.233
 2824SOL    HW2 9372   1.743   3.238   5.289
 2825SOL     OW 9373   5.375   0.500   6.589
 2825SOL    HW1 9374   5.404   0.480   6.683
 2825SOL    HW2 9375   5.366   0.599   6.577
 2826SOL     OW 9376   1.777   2.862   6.296
 2826SOL    HW1 9377   1.839   2.783   6.299
 2826SOL    HW2 9378   1.709   2.849   6.224
 2827SOL     OW 9379   0.260   1.076   6.529
 2827SOL    HW1 9380   0.220   1.051   6.441
 2827SOL    HW2 9381   0.207   1.151   6.569
 2828SOL     OW 9382   1.793   3.534   1.519
 2828SOL    HW1 9383   1.826   3.576   1.434
 2828SOL    HW2 9384   1.870   3.489   1.566
 2829SOL     OW 9385   3.562   3.348   2.979
 2829SOL    HW1 9386   3.464   3.367   2.980
 2829SOL    HW2 9387   3.609   3.421   2.930
 2830SOL     OW 9388   3.543   4.305   5.275
 2830SOL    HW1 9389   3.467   4.279   5.215
 2830SOL    HW2 9390   3.524   4.273   5.368
 2831SOL     OW 9391   0.076   1.920   2.764
 2831SOL    HW1 9392   0.110   2.003   2.721
 2831SOL    HW2 9393   6.993   1.924   2.771
 2832SOL     OW 9394   0.805   3.323   1.597
 2832SOL    HW1 9395   0.749   3.361   1.524
 2832SOL    HW2 9396   0.759   3.243   1.636
 2833SOL     OW 9397   2.145   1.423   2.386
 2833SOL    HW1 9398   2.177   1.345   2.332
 2833SOL    HW2 9399   2.055   1.452   2.354
 2834SOL     OW 9400   4.906   6.190   4.779
 2834SOL    HW1 9401   4.881   6.112   4.721
 2834SOL    HW2 9402   4.896   6.164   4.875
 2835SOL     OW 9403   1.003   6.845   0.577
 2835SOL    HW1 9404   0.932   6.860   0.508
 2835SOL    HW2 9405   1.093   6.863   0.536
 2836SOL     OW 9406   3.251   6.243   3.069
 2836SOL    HW1 9407   3.333   6.231   3.014
 2836SOL    HW2 9408   3.223   6.156   3.109
 2837SOL     OW 9409   5.645   4.520   2.293
 2837SOL    HW1 9410   5.655   4.424   2.319
 2837SOL    HW2 9411   5.735   4.559   2.273
 2838SOL     OW 9412   4.729   4.142   6.925
 2838SOL    HW1 9413   4.768   4.179   7.009
 2838SOL    HW2 9414   4.715   4.216   6.859
 2839SOL     OW 9415   6.838   2.394   3.330
 2839SOL    HW1 9416   6.848   2.310   3.383
 2839SOL    HW2 9417   6.756   2.443   3.361
 2840SOL     OW 9418   1.726   5.256   2.600
 2840SOL    HW1 9419   1.673   5.290   2.678
 2840SOL    HW2 9420   1.676   5.275   2.516
 2841SOL     OW 9421   6.152   2.516   0.415
 2841SOL    HW1 9422   6.214   2.589   0.443
 2841SOL    HW2 9423   6.169   2.492   0.320
 2842SOL     OW 9424   1.627   5.619   5.008
 2842SOL    HW1 9425   1.541   5.588   5.048
 2842SOL    HW2 9426   1.623   5.718   4.995
 2843SOL     OW 9427   2.545   2.540   2.479
 2843SOL    HW1 9428   2.581   2.481   2.551
 2843SOL    HW2 9429   2.608   2.540   2.401
 2844SOL     OW 9430   4.976   4.317   1.263
 2844SOL    HW1 9431   4.989   4.235   1.318
 2844SOL    HW2 9432   5.001   4.298   1.168
 2845SOL     OW 9433   5.133   2.889   3.698
 2845SOL    HW1 9434   5.045   2.929   3.674
 2845SOL    HW2 9435   5.135   2.793   3.673
 2846SOL     OW 9436   3.364   0.572   0.175
 2846SOL    HW1 9437   3.405   0.540   0.261
 2846SOL    HW2 9438   3.419   0.647   0.139
 2847SOL     OW 9439   4.757   4.150   2.089
 2847SOL    HW1 9440   4.672   4.192   2.056
 2847SOL    HW2 9441   4.736   4.064   2.136
 2848SOL     OW 9442   1.521   2.239   5.354
 2848SOL    HW1 9443   1.466   2.251   5.271
 2848SOL    HW2 9444   1.593   2.308   5.356
 2849SOL     OW 9445   3.982   1.190   1.543
 2849SOL    HW1 9446   3.935   1.269   1.506
 2849SOL    HW2 9447   4.077   1.214   1.564
 2850SOL     OW 9448   1.945   6.775   3.725
 2850SOL    HW1 9449   2.023   6.790   3.664
 2850SOL    HW2 9450   1.968   6.807   3.817
 2851SOL     OW 9451   4.361   3.379   6.638
 2851SOL    HW1 9452   4.298   3.374   6.715
 2851SOL    HW2 9453   4.366   3.473   6.606
 2852SOL     OW 9454   6.599   4.421   0.101
 2852SOL    HW1 9455   6.685   4.373   0.085
 2852SOL    HW2 9456   6.607   4.516   0.072
 2853SOL     OW 9457   0.539   3.524   6.940
 2853SOL    HW1 9458   0.473   3.554   7.009
 2853SOL    HW2 9459   0.544   3.592   6.867
 2854SOL     OW 9460   3.507   0.976   6.097
 2854SOL    HW1 9461   3.428   0.984   6.158
 2854SOL    HW2 9462   3.564   0.899   6.126
 2855SOL     OW 9463   0.920   2.466   3.999
 2855SOL    HW1 9464   0.930   2.563   4.021
 2855SOL    HW2 9465   0.912   2.413   4.084
 2856SOL     OW 9466   1.369   2.741   3.099
 2856SOL    HW1 9467   1.437   2.702   3.160
 2856SOL    HW2 9468   1.415   2.789   3.024
 2857SOL     OW 9469   0.294   3.342   0.893
 2857SOL    HW1 9470   0.356   3.419   0.876
 2857SOL    HW2 9471   0.346   3.256   0.893
 2858SOL     OW 9472   5.327   6.221   2.692
 2858SOL    HW1 9473   5.346   6.137   2.744
 2858SOL    HW2 9474   5.234   6.252   2.710
 2859SOL     OW 9475   5.537   5.272   0.732
 2859SOL    HW1 9476   5.527   5.371   0.736
 2859SOL    HW2 9477   5.447   5.229   0.731
 2860SOL     OW 9478   1.848   6.635   2.324
 2860SOL    HW1 9479   1.835   6.560   2.390
 2860SOL    HW2 9480   1.825   6.722   2.368
 2861SOL     OW 9481   3.168   5.158   5.419
 2861SOL    HW1 9482   3.251   5.103   5.410
 2861SOL    HW2 9483   3.193   5.251   5.444
 2862SOL     OW 9484   4.580   2.642   1.802
 2862SOL    HW1 9485   4.495   2.590   1.806
 2862SOL    HW2 9486   4.563   2.734   1.767
 2863SOL     OW 9487   5.550   1.086   6.341
 2863SOL    HW1 9488   5.569   1.122   6.249
 2863SOL    HW2 9489   5.630   1.098   6.399
 2864SOL     OW 9490   4.651   2.843   1.228
 2864SOL    HW1 9491   4.562   2.799   1.213
 2864SOL    HW2 9492   4.653   2.883   1.320
 2865SOL     OW 9493   4.458   0.015   4.192
 2865SOL    HW1 9494   4.384   6.983   4.146
 2865SOL    HW2 9495   4.524   6.966   4.228
 2866SOL     OW 9496   5.720   3.938   0.336
 2866SOL    HW1 9497   5.814   3.903   0.343
 2866SOL    HW2 9498   5.669   3.883   0.270
 2867SOL     OW 9499   6.531   6.344   2.247
 2867SOL    HW1 9500   6.447   6.396   2.232
 2867SOL    HW2 9501   6.597   6.365   2.175
 2868SOL     OW 9502   1.116   1.093   5.515
 2868SOL    HW1 9503   1.158   1.007   5.483
 2868SOL    HW2 9504   1.169   1.130   5.591
 2869SOL     OW 9505   5.835   0.248   3.998
 2869SOL    HW1 9506   5.859   0.334   4.043
 2869SOL    HW2 9507   5.911   0.218   3.941
 2870SOL     OW 9508   0.672   1.618   6.686
 2870SOL    HW1 9509   0.733   1.612   6.765
 2870SOL    HW2 9510   0.579   1.597   6.715
 2871SOL     OW 9511   6.558   0.578   0.353
 2871SOL    HW1 9512   6.490   0.635   0.399
 2871SOL    HW2 9513   6.562   0.603   0.256
 2872SOL     OW 9514   2.706   1.330   1.153
 2872SOL    HW1 9515   2.670   1.411   1.198
 2872SOL    HW2 9516   2.721   1.349   1.056
 2873SOL     OW 9517   6.871   5.327   1.656
 2873SOL    HW1 9518   6.812   5.400   1.623
 2873SOL    HW2 9519   6.829   5.285   1.737
 2874SOL     OW 9520   4.117   0.199   3.116
 2874SOL    HW1 9521   4.197   0.154   3.158
 2874SOL    HW2 9522   4.060   0.130   3.072
 2875SOL     OW 9523   3.631   6.999   3.016
 2875SOL    HW1 9524   3.594   0.003   2.926
 2875SOL    HW2 9525   3.665   0.065   3.059
 2876SOL     OW 9526   1.311   6.425   2.004
 2876SOL    HW1 9527   1.300   6.325   2.011
 2876SOL    HW2 9528   1.248   6.460   1.935
 2877SOL     OW 9529   2.028   1.340   6.605
 2877SOL    HW1 9530   2.068   1.413   6.549
 2877SOL    HW2 9531   1.991   1.378   6.689
 2878SOL     OW 9532   2.978   3.569   4.291
 2878SOL    HW1 9533   2.951   3.551   4.386
 2878SOL    HW2 9534   3.050   3.505   4.265
 2879SOL     OW 9535   4.273   5.188   6.026
 2879SOL    HW1 9536   4.219   5.219   5.947
 2879SOL    HW2 9537   4.262   5.254   6.101
 2880SOL     OW 9538   0.601   1.627   3.787
 2880SOL    HW1 9539   0.620   1.685   3.707
 2880SOL    HW2 9540   0.682   1.624   3.845
 2881SOL     OW 9541   3.297   5.652   0.137
 2881SOL    HW1 9542   3.282   5.553   0.144
 2881SOL    HW2 9543   3.288   5.680   0.042
 2882SOL     OW 9544   6.082   6.311   1.399
 2882SOL    HW1 9545   5.992   6.298   1.441
 2882SOL    HW2 9546   6.125   6.222   1.384
 2883SOL     OW 9547   6.299   6.414   3.644
 2883SOL    HW1 9548   6.222   6.423   3.706
 2883SOL    HW2 9549   6.266   6.410   3.549
 2884SOL     OW 9550   6.524   5.058   2.149
 2884SOL    HW1 9551   6.543   5.016   2.060
 2884SOL    HW2 9552   6.517   5.157   2.138
 2885SOL     OW 9553   1.391   1.958   4.231
 2885SOL    HW1 9554   1.318   1.911   4.282
 2885SOL    HW2 9555   1.476   1.905   4.239
 2886SOL     OW 9556   2.888   4.428   0.160
 2886SOL    HW1 9557   2.882   4.337   0.201
 2886SOL    HW2 9558   2.923   4.421   0.067
 2887SOL     OW 9559   0.033   6.271   4.023
 2887SOL    HW1 9560   0.130   6.269   3.996
 2887SOL    HW2 9561   7.005   6.349   3.980
 2888SOL     OW 9562   6.964   5.132   0.085
 2888SOL    HW1 9563   6.987   5.174   7.015
 2888SOL    HW2 9564   6.879   5.172   0.120
 2889SOL     OW 9565   3.157   6.599   2.862
 2889SOL    HW1 9566   3.106   6.679   2.833
 2889SOL    HW2 9567   3.253   6.623   2.875
 2890SOL     OW 9568   2.503   5.693   1.025
 2890SOL    HW1 9569   2.424   5.702   1.085
 2890SOL    HW2 9570   2.487   5.620   0.959
 2891SOL     OW 9571   0.683   3.231   3.151
 2891SOL    HW1 9572   0.656   3.327   3.159
 2891SOL    HW2 9573   0.765   3.225   3.095
 2892SOL     OW 9574   6.211   3.064   0.698
 2892SOL    HW1 9575   6.253   2.978   0.669
 2892SOL    HW2 9576   6.188   3.058   0.796
 2893SOL     OW 9577   1.624   5.626   4.688
 2893SOL    HW1 9578   1.585   5.607   4.779
 2893SOL    HW2 9579   1.653   5.541   4.646
 2894SOL     OW 9580   1.808   4.070   1.933
 2894SOL    HW1 9581   1.721   4.083   1.886
 2894SOL    HW2 9582   1.882   4.105   1.877
 2895SOL     OW 9583   3.917   1.028   6.544
 2895SOL    HW1 9584   3.869   0.982   6.619
 2895SOL    HW2 9585   3.857   1.032   6.464
 2896SOL     OW 9586   5.505   6.946   6.149
 2896SOL    HW1 9587   5.574   0.001   6.151
 2896SOL    HW2 9588   5.446   6.960   6.069
 2897SOL     OW 9589   4.086   4.834   2.825
 2897SOL    HW1 9590   3.987   4.837   2.815
 2897SOL    HW2 9591   4.113   4.750   2.873
 2898SOL     OW 9592   5.399   3.879   3.910
 2898SOL    HW1 9593   5.306   3.860   3.879
 2898SOL    HW2 9594   5.422   3.975   3.890
 2899SOL     OW 9595   6.430   2.206   1.132
 2899SOL    HW1 9596   6.435   2.159   1.044
 2899SOL    HW2 9597   6.408   2.140   1.204
 2900SOL     OW 9598   3.941   5.094   0.102
 2900SOL    HW1 9599   3.922   4.996   0.089
 2900SOL    HW2 9600   4.035   5.106   0.135
 2901SOL     OW 9601   1.552   4.773   3.757
 2901SOL    HW1 9602   1.650   4.795   3.759
 2901SOL    HW2 9603   1.500   4.856   3.739
 2902SOL     OW 9604   0.115   6.008   3.665
 2902SOL    HW1 9605   0.016   6.026   3.671
 2902SOL    HW2 9606   0.147   5.968   3.750
 2903SOL     OW 9607   4.645   6.323   1.119
 2903SOL    HW1 9608   4.736   6.364   1.125
 2903SOL    HW2 9609   4.646   6.246   1.056
 2904SOL     OW 9610   2.979   4.940   4.840
 2904SOL    HW1 9611   2.891   4.895   4.823
 2904SOL    HW2 9612   3.027   4.894   4.914
 2905SOL     OW 9613   1.468   4.058   3.817
 2905SOL    HW1 9614   1.406   4.052   3.895
 2905SOL    HW2 9615   1.416   4.083   3.735
 2906SOL     OW 9616   5.053   5.966   2.716
 2906SOL    HW1 9617   5.045   5.868   2.694
 2906SOL    HW2 9618   4.983   5.990   2.783
 2907SOL     OW 9619   0.889   1.602   3.833
 2907SOL    HW1 9620   0.932   1.512   3.834
 2907SOL    HW2 9621   0.959   1.673   3.838
 2908SOL     OW 9622   5.458   0.102   4.175
 2908SOL    HW1 9623   5.525   0.049   4.124
 2908SOL    HW2 9624   5.501   0.137   4.259
 2909SOL     OW 9625   1.580   6.619   3.119
 2909SOL    HW1 9626   1.670   6.654   3.147
 2909SOL    HW2 9627   1.579   6.606   3.020
 2910SOL     OW 9628   6.823   1.060   3.589
 2910SOL    HW1 9629   6.811   1.159   3.596
 2910SOL    HW2 9630   6.741   1.018   3.551
 2911SOL     OW 9631   1.095   4.859   3.763
 2911SOL    HW1 9632   1.131   4.913   3.688
 2911SOL    HW2 9633   1.017   4.906   3.805
 2912SOL     OW 9634   0.010   6.539   6.752
 2912SOL    HW1 9635   6.969   6.528   6.832
 2912SOL    HW2 9636   0.080   6.467   6.751
 2913SOL     OW 9637   2.513   4.482   2.618
 2913SOL    HW1 9638   2.542   4.485   2.713
 2913SOL    HW2 9639   2.565   4.550   2.566
 2914SOL     OW 9640   5.264   5.295   1.483
 2914SOL    HW1 9641   5.268   5.206   1.440
 2914SOL    HW2 9642   5.354   5.338   1.482
 2915SOL     OW 9643   2.872   2.067   3.651
 2915SOL    HW1 9644   2.855   2.142   3.715
 2915SOL    HW2 9645   2.970   2.053   3.641
 2916SOL     OW 9646   2.111   5.483   0.273
 2916SOL    HW1 9647   2.130   5.551   0.203
 2916SOL    HW2 9648   2.083   5.529   0.358
 2917SOL     OW 9649   2.998   0.507   3.745
 2917SOL    HW1 9650   2.981   0.438   3.675
 2917SOL    HW2 9651   2.915   0.521   3.799
 2918SOL     OW 9652   6.116   3.642   0.204
 2918SOL    HW1 9653   6.211   3.630   0.173
 2918SOL    HW2 9654   6.076   3.553   0.223
 2919SOL     OW 9655   6.585   6.474   3.718
 2919SOL    HW1 9656   6.653   6.473   3.645
 2919SOL    HW2 9657   6.495   6.449   3.680
 2920SOL     OW 9658   2.787   0.728   2.284
 2920SOL    HW1 9659   2.818   0.797   2.349
 2920SOL    HW2 9660   2.687   0.719   2.290
 2921SOL     OW 9661   0.057   0.241   5.895
 2921SOL    HW1 9662   6.987   0.210   5.934
 2921SOL    HW2 9663   0.039   0.315   5.830
 2922SOL     OW 9664   3.941   0.133   1.980
 2922SOL    HW1 9665   3.864   0.192   2.002
 2922SOL    HW2 9666   3.907   0.046   1.942
 2923SOL     OW 9667   6.552   5.185   4.482
 2923SOL    HW1 9668   6.563   5.145   4.573
 2923SOL    HW2 9669   6.494   5.266   4.488
 2924SOL     OW 9670   6.454   1.512   4.842
 2924SOL    HW1 9671   6.421   1.486   4.752
 2924SOL    HW2 9672   6.422   1.446   4.910
 2925SOL     OW 9673   5.538   1.625   6.901
 2925SOL    HW1 9674   5.450   1.671   6.891
 2925SOL    HW2 9675   5.534   1.535   6.856
 2926SOL     OW 9676   6.777   2.589   5.868
 2926SOL    HW1 9677   6.803   2.653   5.939
 2926SOL    HW2 9678   6.781   2.495   5.904
 2927SOL     OW 9679   1.760   3.471   0.672
 2927SOL    HW1 9680   1.682   3.432   0.720
 2927SOL    HW2 9681   1.821   3.397   0.643
 2928SOL     OW 9682   6.307   1.419   6.765
 2928SOL    HW1 9683   6.380   1.418   6.832
 2928SOL    HW2 9684   6.277   1.514   6.749
 2929SOL     OW 9685   1.446   2.593   4.949
 2929SOL    HW1 9686   1.497   2.657   5.006
 2929SOL    HW2 9687   1.353   2.583   4.984
 2930SOL     OW 9688   5.517   6.096   5.221
 2930SOL    HW1 9689   5.598   6.136   5.177
 2930SOL    HW2 9690   5.543   6.013   5.270
 2931SOL     OW 9691   4.043   4.881   0.351
 2931SOL    HW1 9692   4.010   4.956   0.409
 2931SOL    HW2 9693   4.025   4.793   0.396
 2932SOL     OW 9694   6.546   5.070   1.635
 2932SOL    HW1 9695   6.634   5.086   1.589
 2932SOL    HW2 9696   6.495   4.999   1.586
 2933SOL     OW 9697   0.666   0.057   2.148
 2933SOL    HW1 9698   0.609   0.139   2.155
 2933SOL    HW2 9699   0.625   7.000   2.201
 2934SOL     OW 9700   4.778   2.848   1.573
 2934SOL    HW1 9701   4.710   2.911   1.535
 2934SOL    HW2 9702   4.732   2.767   1.610
 2935SOL     OW 9703   1.204   2.345   6.093
 2935SOL    HW1 9704   1.179   2.390   6.179
 2935SOL    HW2 9705   1.182   2.247   6.099
 2936SOL     OW 9706   4.042   6.847   0.851
 2936SOL    HW1 9707   3.980   6.775   0.822
 2936SOL    HW2 9708   3.992   6.915   0.905
 2937SOL     OW 9709   4.423   4.962   1.022
 2937SOL    HW1 9710   4.500   4.973   1.086
 2937SOL    HW2 9711   4.457   4.928   0.934
 2938SOL     OW 9712   6.218   5.503   7.007
 2938SOL    HW1 9713   6.267   5.472   6.926
 2938SOL    HW2 9714   6.214   5.603   7.007
 2939SOL     OW 9715   0.738   0.282   1.494
 2939SOL    HW1 9716   0.656   0.262   1.547
 2939SOL    HW2 9717   0.729   0.371   1.450
 2940SOL     OW 9718   5.931   5.733   4.534
 2940SOL    HW1 9719   5.947   5.816   4.587
 2940SOL    HW2 9720   6.015   5.706   4.487
 2941SOL     OW 9721   2.353   2.300   3.015
 2941SOL    HW1 9722   2.382   2.392   2.988
 2941SOL    HW2 9723   2.344   2.295   3.114
 2942SOL     OW 9724   3.331   2.770   0.350
 2942SOL    HW1 9725   3.302   2.702   0.418
 2942SOL    HW2 9726   3.283   2.753   0.264
 2943SOL     OW 9727   6.676   4.771   3.665
 2943SOL    HW1 9728   6.636   4.700   3.723
 2943SOL    HW2 9729   6.652   4.861   3.701
 2944SOL     OW 9730   2.833   6.453   3.902
 2944SOL    HW1 9731   2.853   6.355   3.906
 2944SOL    HW2 9732   2.820   6.488   3.995
 2945SOL     OW 9733   5.385   3.503   1.805
 2945SOL    HW1 9734   5.350   3.557   1.881
 2945SOL    HW2 9735   5.362   3.406   1.819
 2946SOL     OW 9736   1.679   4.078   5.667
 2946SOL    HW1 9737   1.590   4.102   5.706
 2946SOL    HW2 9738   1.673   3.988   5.623
 2947SOL     OW 9739   0.570   5.635   0.044
 2947SOL    HW1 9740   0.559   5.732   0.066
 2947SOL    HW2 9741   0.510   5.611   6.985
 2948SOL     OW 9742   6.460   4.354   3.305
 2948SOL    HW1 9743   6.464   4.281   3.237
 2948SOL    HW2 9744   6.551   4.394   3.316
 2949SOL     OW 9745   0.551   6.381   6.502
 2949SOL    HW1 9746   0.616   6.415   6.569
 2949SOL    HW2 9747   0.578   6.414   6.411
 2950SOL     OW 9748   5.578   5.204   3.232
 2950SOL    HW1 9749   5.610   5.264   3.305
 2950SOL    HW2 9750   5.493   5.159   3.260
 2951SOL     OW 9751   5.247   1.093   2.102
 2951SOL    HW1 9752   5.159   1.060   2.069
 2951SOL    HW2 9753   5.272   1.045   2.186
 2952SOL     OW 9754   6.410   0.109   4.732
 2952SOL    HW1 9755   6.484   0.134   4.669
 2952SOL    HW2 9756   6.443   0.117   4.826
 2953SOL     OW 9757   6.971   4.495   3.075
 2953SOL    HW1 9758   6.961   4.396   3.089
 2953SOL    HW2 9759   0.037   4.513   3.023
 2954SOL     OW 9760   6.944   4.682   6.521
 2954SOL    HW1 9761   6.921   4.701   6.425
 2954SOL    HW2 9762   6.869   4.713   6.580
 2955SOL     OW 9763   1.120   4.433   0.462
 2955SOL    HW1 9764   1.045   4.485   0.420
 2955SOL    HW2 9765   1.134   4.349   0.411
 2956SOL     OW 9766   0.050   5.614   4.033
 2956SOL    HW1 9767   7.003   5.573   3.968
 2956SOL    HW2 9768   0.033   5.578   4.125
 2957SOL     OW 9769   4.161   4.891   1.437
 2957SOL    HW1 9770   4.178   4.989   1.425
 2957SOL    HW2 9771   4.127   4.874   1.529
 2958SOL     OW 9772   2.240   5.025   3.637
 2958SOL    HW1 9773   2.251   5.055   3.732
 2958SOL    HW2 9774   2.221   5.104   3.579
 2959SOL     OW 9775   5.215   2.779   2.852
 2959SOL    HW1 9776   5.185   2.718   2.779
 2959SOL    HW2 9777   5.195   2.874   2.827
 2960SOL     OW 9778   3.593   0.220   0.215
 2960SOL    HW1 9779   3.557   0.305   0.175
 2960SOL    HW2 9780   3.584   0.224   0.314
 2961SOL     OW 9781   6.257   5.109   3.104
 2961SOL    HW1 9782   6.330   5.056   3.061
 2961SOL    HW2 9783   6.201   5.050   3.161
 2962SOL     OW 9784   5.060   6.452   3.239
 2962SOL    HW1 9785   5.057   6.483   3.333
 2962SOL    HW2 9786   5.002   6.371   3.228
 2963SOL     OW 9787   1.229   0.945   6.607
 2963SOL    HW1 9788   1.322   0.983   6.616
 2963SOL    HW2 9789   1.207   0.893   6.689
 2964SOL     OW 9790   0.691   2.807   6.135
 2964SOL    HW1 9791   0.657   2.900   6.145
 2964SOL    HW2 9792   0.654   2.766   6.051
 2965SOL     OW 9793   1.181   0.255   4.377
 2965SOL    HW1 9794   1.263   0.287   4.425
 2965SOL    HW2 9795   1.205   0.234   4.282
 2966SOL     OW 9796   4.926   5.383   3.889
 2966SOL    HW1 9797   4.950   5.409   3.983
 2966SOL    HW2 9798   4.904   5.285   3.886
 2967SOL     OW 9799   5.909   1.510   5.773
 2967SOL    HW1 9800   5.925   1.496   5.675
 2967SOL    HW2 9801   5.868   1.601   5.786
 2968SOL     OW 9802   2.192   2.797   0.852
 2968SOL    HW1 9803   2.196   2.765   0.946
 2968SOL    HW2 9804   2.175   2.896   0.851
 2969SOL     OW 9805   4.875   3.891   4.597
 2969SOL    HW1 9806   4.841   3.817   4.656
 2969SOL    HW2 9807   4.838   3.978   4.628
 2970SOL     OW 9808   2.907   2.967   5.285
 2970SOL    HW1 9809   2.976   2.990   5.353
 2970SOL    HW2 9810   2.950   2.962   5.195
 2971SOL     OW 9811   5.718   4.209   0.244
 2971SOL    HW1 9812   5.814   4.197   0.217
 2971SOL    HW2 9813   5.687   4.128   0.293
 2972SOL     OW 9814   5.717   5.203   7.001
 2972SOL    HW1 9815   5.778   5.220   0.061
 2972SOL    HW2 9816   5.634   5.158   0.016
 2973SOL     OW 9817   4.706   6.785   2.361
 2973SOL    HW1 9818   4.615   6.747   2.349
 2973SOL    HW2 9819   4.699   6.882   2.383
 2974SOL     OW 9820   5.941   4.375   3.190
 2974SOL    HW1 9821   5.925   4.471   3.167
 2974SOL    HW2 9822   5.980   4.328   3.111
 2975SOL     OW 9823   4.932   4.768   4.380
 2975SOL    HW1 9824   4.984   4.743   4.461
 2975SOL    HW2 9825   4.994   4.787   4.304
 2976SOL     OW 9826   5.306   2.035   3.129
 2976SOL    HW1 9827   5.276   2.110   3.070
 2976SOL    HW2 9828   5.403   2.018   3.115
 2977SOL     OW 9829   1.008   0.448   2.240
 2977SOL    HW1 9830   1.019   0.544   2.215
 2977SOL    HW2 9831   0.982   0.395   2.159
 2978SOL     OW 9832   3.957   4.137   0.238
 2978SOL    HW1 9833   3.995   4.217   0.191
 2978SOL    HW2 9834   3.934   4.067   0.171
 2979SOL     OW 9835   3.022   1.520   4.187
 2979SOL    HW1 9836   3.064   1.429   4.186
 2979SOL    HW2 9837   3.078   1.583   4.133
 2980SOL     OW 9838   2.346   5.171   6.155
 2980SOL    HW1 9839   2.323   5.076   6.176
 2980SOL    HW2 9840   2.398   5.210   6.231
 2981SOL     OW 9841   2.494   1.673   0.051
 2981SOL    HW1 9842   2.548   1.751   0.019
 2981SOL    HW2 9843   2.397   1.695   0.046
 2982SOL     OW 9844   1.978   6.051   2.563
 2982SOL    HW1 9845   2.058   6.015   2.611
 2982SOL    HW2 9846   2.003   6.078   2.470
 2983SOL     OW 9847   6.973   2.302   0.722
 2983SOL    HW1 9848   6.873   2.310   0.724
 2983SOL    HW2 9849   6.998   2.206   0.734
 2984SOL     OW 9850   5.796   5.170   6.204
 2984SOL    HW1 9851   5.754   5.118   6.130
 2984SOL    HW2 9852   5.879   5.123   6.234
 2985SOL     OW 9853   0.663   1.183   4.427
 2985SOL    HW1 9854   0.699   1.127   4.352
 2985SOL    HW2 9855   0.660   1.279   4.397
 2986SOL     OW 9856   3.382   4.143   2.327
 2986SOL    HW1 9857   3.302   4.100   2.285
 2986SOL    HW2 9858   3.436   4.189   2.257
 2987SOL     OW 9859   1.667   1.459   4.547
 2987SOL    HW1 9860   1.617   1.378   4.518
 2987SOL    HW2 9861   1.751   1.432   4.593
 2988SOL     OW 9862   1.730   0.083   1.534
 2988SOL    HW1 9863   1.809   0.034   1.571
 2988SOL    HW2 9864   1.655   0.079   1.600
 2989SOL     OW 9865   5.094   3.880   5.120
 2989SOL    HW1 9866   5.064   3.917   5.208
 2989SOL    HW2 9867   5.024   3.895   5.051
 2990SOL     OW 9868   5.239   2.466   4.327
 2990SOL    HW1 9869   5.284   2.497   4.411
 2990SOL    HW2 9870   5.274   2.518   4.249
 2991SOL     OW 9871   6.461   3.319   6.760
 2991SOL    HW1 9872   6.412   3.385   6.703
 2991SOL    HW2 9873   6.553   3.353   6.780
 2992SOL     OW 9874   1.274   4.600   4.584
 2992SOL    HW1 9875   1.316   4.588   4.674
 2992SOL    HW2 9876   1.338   4.649   4.524
 2993SOL     OW 9877   0.160   4.968   0.490
 2993SOL    HW1 9878   0.113   5.048   0.527
 2993SOL    HW2 9879   0.114   4.938   0.406
 2994SOL     OW 9880   4.801   5.782   6.863
 2994SOL    HW1 9881   4.714   5.744   6.892
 2994SOL    HW2 9882   4.874   5.715   6.879
 2995SOL     OW 9883   4.669   0.310   0.310
 2995SOL    HW1 9884   4.590   0.360   0.345
 2995SOL    HW2 9885   4.664   0.214   0.337
 2996SOL     OW 9886   1.023   1.935   4.730
 2996SOL    HW1 9887   1.001   2.020   4.681
 2996SOL    HW2 9888   0.992   1.942   4.825
 2997SOL     OW 9889   4.923   0.473   3.361
 2997SOL    HW1 9890   4.987   0.546   3.385
 2997SOL    HW2 9891   4.928   0.456   3.262
 2998SOL     OW 9892   3.494   0.217   3.665
 2998SOL    HW1 9893   3.579   0.224   3.614
 2998SOL    HW2 9894   3.466   0.309   3.695
 2999SOL     OW 9895   3.231   4.560   6.189
 2999SOL    HW1 9896   3.202   4.650   6.157
 2999SOL    HW2 9897   3.318   4.535   6.145
 3000SOL     OW 9898   3.015   4.219   6.501
 3000SOL    HW1 9899   3.002   4.183   6.409
 3000SOL    HW2 9900   2.983   4.152   6.568
 3001SOL     OW 9901   6.082   2.019   0.290
 3001SOL    HW1 9902   6.011   2.089   0.298
 3001SOL    HW2 9903   6.042   1.929   0.307
 3002SOL     OW 9904   3.178   1.433   0.481
 3002SOL    HW1 9905   3.247   1.387   0.425
 3002SOL    HW2 9906   3.087   1.408   0.450
 3003SOL     OW 9907   0.769   6.144   1.413
 3003SOL    HW1 9908   0.721   6.227   1.386
 3003SOL    HW2 9909   0.728   6.065   1.366
 3004SOL     OW 9910   1.780   4.774   3.428
 3004SOL    HW1 9911   1.688   4.742   3.402
 3004SOL    HW2 9912   1.826   4.702   3.480
 3005SOL     OW 9913   1.178   3.417   5.731
 3005SOL    HW1 9914   1.145   3.339   5.677
 3005SOL    HW2 9915   1.275   3.404   5.752
 3006SOL     OW 9916   5.514   1.305   5.286
 3006SOL    HW1 9917   5.587   1.373   5.289
 3006SOL    HW2 9918   5.529   1.244   5.208
 3007SOL     OW 9919   4.548   5.286   0.192
 3007SOL    HW1 9920   4.624   5.235   0.152
 3007SOL    HW2 9921   4.469   5.226   0.202
 3008SOL     OW 9922   3.420   2.524   6.346
 3008SOL    HW1 9923   3.462   2.439   6.378
 3008SOL    HW2 9924   3.451   2.600   6.404
 3009SOL     OW 9925   0.212   2.236   3.093
 3009SOL    HW1 9926   0.275   2.168   3.056
 3009SOL    HW2 9927   0.193   2.305   3.023
 3010SOL     OW 9928   3.383   5.855   5.190
 3010SOL    HW1 9929   3.405   5.864   5.287
 3010SOL    HW2 9930   3.314   5.784   5.178
 3011SOL     OW 9931   6.672   6.937   1.502
 3011SOL    HW1 9932   6.648   6.922   1.406
 3011SOL    HW2 9933   6.770   6.954   1.509
 3012SOL     OW 9934   2.299   3.689   0.141
 3012SOL    HW1 9935   2.358   3.665   0.218
 3012SOL    HW2 9936   2.226   3.621   0.133
 3013SOL     OW 9937   6.191   4.825   3.354
 3013SOL    HW1 9938   6.279   4.870   3.368
 3013SOL    HW2 9939   6.188   4.740   3.407
 3014SOL     OW 9940   5.034   1.671   6.795
 3014SOL    HW1 9941   4.944   1.656   6.836
 3014SOL    HW2 9942   5.022   1.712   6.704
 3015SOL     OW 9943   2.374   1.342   0.723
 3015SOL    HW1 9944   2.280   1.307   0.716
 3015SOL    HW2 9945   2.371   1.441   0.739
 3016SOL     OW 9946   3.403   0.127   3.970
 3016SOL    HW1 9947   3.464   0.098   3.896
 3016SOL    HW2 9948   3.448   0.109   4.058
 3017SOL     OW 9949   5.965   4.869   2.289
 3017SOL    HW1 9950   5.960   4.962   2.252
 3017SOL    HW2 9951   6.018   4.869   2.373
 3018SOL     OW 9952   3.860   0.155   6.786
 3018SOL    HW1 9953   3.774   0.107   6.767
 3018SOL    HW2 9954   3.889   0.137   6.880
 3019SOL     OW 9955   0.738   0.193   0.519
 3019SOL    HW1 9956   0.681   0.142   0.455
 3019SOL    HW2 9957   0.731   0.152   0.610
 3020SOL     OW 9958   4.364   3.387   0.455
 3020SOL    HW1 9959   4.357   3.484   0.481
 3020SOL    HW2 9960   4.423   3.339   0.520
 3021SOL     OW 9961   2.186   6.804   4.516
 3021SOL    HW1 9962   2.211   6.724   4.570
 3021SOL    HW2 9963   2.092   6.793   4.482
 3022SOL     OW 9964   4.318   5.662   4.350
 3022SOL    HW1 9965   4.303   5.742   4.408
 3022SOL    HW2 9966   4.348   5.690   4.260
 3023SOL     OW 9967   3.899   0.109   2.690
 3023SOL    HW1 9968   3.923   0.196   2.732
 3023SOL    HW2 9969   3.954   0.097   2.607
 3024SOL     OW 9970   6.084   5.923   5.505
 3024SOL    HW1 9971   6.083   5.941   5.604
 3024SOL    HW2 9972   6.178   5.909   5.475
 3025SOL     OW 9973   3.844   6.080   1.743
 3025SOL    HW1 9974   3.895   6.164   1.758
 3025SOL    HW2 9975   3.891   6.004   1.789
 3026SOL     OW 9976   7.009   1.181   6.379
 3026SOL    HW1 9977   0.016   1.087   6.353
 3026SOL    HW2 9978   0.026   1.199   6.471
 3027SOL     OW 9979   4.150   1.507   2.436
 3027SOL    HW1 9980   4.149   1.453   2.352
 3027SOL    HW2 9981   4.106   1.595   2.419
 3028SOL     OW 9982   1.956   3.857   6.134
 3028SOL    HW1 9983   2.025   3.919   6.097
 3028SOL    HW2 9984   1.893   3.830   6.060
 3029SOL     OW 9985   1.061   2.155   3.422
 3029SOL    HW1 9986   1.121   2.230   3.394
 3029SOL    HW2 9987   1.060   2.149   3.522
 3030SOL     OW 9988   1.476   3.943   0.744
 3030SOL    HW1 9989   1.485   3.935   0.843
 3030SOL    HW2 9990   1.504   3.857   0.700
 3031SOL     OW 9991   1.447   4.855   0.772
 3031SOL    HW1 9992   1.366   4.883   0.822
 3031SOL    HW2 9993   1.425   4.774   0.716
 3032SOL     OW 9994   1.971   5.648   2.550
 3032SOL    HW1 9995   2.038   5.719   2.529
 3032SOL    HW2 9996   1.928   5.668   2.638
 3033SOL     OW 9997   6.142   1.707   3.149
 3033SOL    HW1 9998   6.085   1.789   3.147
 3033SOL    HW2 9999   6.193   1.699   3.063
 3034SOL     OW10000   1.093   5.744   3.897
 3034SOL    HW110001   0.999   5.754   3.927
 3034SOL    HW210002   1.114   5.647   3.884
 3035SOL     OW10003   0.851   3.218   6.062
 3035SOL    HW110004   0.862   3.298   6.004
 3035SOL    HW210005   0.941   3.190   6.098
 3036SOL     OW10006   1.349   1.757   5.240
 3036SOL    HW110007   1.334   1.708   5.154
 3036SOL    HW210008   1.302   1.845   5.238
 3037SOL     OW10009   6.805   5.212   5.448
 3037SOL    HW110010   6.856   5.260   5.377
 3037SOL    HW210011   6.810   5.265   5.533
 3038SOL     OW10012   5.500   4.610   5.947
 3038SOL    HW110013   5.528   4.634   6.040
 3038SOL    HW210014   5.537   4.678   5.883
 3039SOL     OW10015   0.014   3.089   6.893
 3039SOL    HW110016   6.935   3.076   6.870
 3039SOL    HW210017   0.024   3.101   6.992
 3040SOL     OW10018   3.107   4.537   5.798
 3040SOL    HW110019   3.125   4.596   5.876
 3040SOL    HW210020   3.165   4.455   5.804
 3041SOL     OW10021   1.191   4.373   5.860
 3041SOL    HW110022   1.265   4.338   5.803
 3041SOL    HW210023   1.187   4.473   5.852
 3042SOL     OW10024   6.223   5.674   2.517
 3042SOL    HW110025   6.271   5.586   2.522
 3042SOL    HW210026   6.126   5.659   2.536
 3043SOL     OW10027   3.180   3.413   0.553
 3043SOL    HW110028   3.148   3.490   0.498
 3043SOL    HW210029   3.268   3.380   0.518
 3044SOL     OW10030   2.973   4.879   5.418
 3044SOL    HW110031   2.899   4.826   5.377
 3044SOL    HW210032   2.972   4.972   5.381
 3045SOL     OW10033   4.343   6.843   3.164
 3045SOL    HW110034   4.405   6.820   3.089
 3045SOL    HW210035   4.358   6.938   3.192
 3046SOL     OW10036   3.450   6.092   6.865
 3046SOL    HW110037   3.397   6.014   6.900
 3046SOL    HW210038   3.538   6.060   6.831
 3047SOL     OW10039   6.104   0.169   0.537
 3047SOL    HW110040   6.010   0.143   0.519
 3047SOL    HW210041   6.122   0.165   0.636
 3048SOL     OW10042   4.876   2.384   0.959
 3048SOL    HW110043   4.881   2.443   1.039
 3048SOL    HW210044   4.967   2.352   0.934
 3049SOL     OW10045   1.185   1.064   4.104
 3049SOL    HW110046   1.210   1.144   4.050
 3049SOL    HW210047   1.195   0.981   4.049
 3050SOL     OW10048   2.308   2.402   1.593
 3050SOL    HW110049   2.364   2.352   1.658
 3050SOL    HW210050   2.353   2.490   1.572
 3051SOL     OW10051   2.656   6.857   6.318
 3051SOL    HW110052   2.650   6.791   6.392
 3051SOL    HW210053   2.571   6.910   6.314
 3052SOL     OW10054   5.441   5.799   2.198
 3052SOL    HW110055   5.538   5.820   2.212
 3052SOL    HW210056   5.394   5.796   2.286
 3053SOL     OW10057   0.824   3.923   0.915
 3053SOL    HW110058   0.741   3.975   0.894
 3053SOL    HW210059   0.905   3.978   0.893
 3054SOL     OW10060   5.596   0.907   2.561
 3054SOL    HW110061   5.544   0.866   2.635
 3054SOL    HW210062   5.669   0.845   2.533
 3055SOL     OW10063   5.730   6.583   5.697
 3055SOL    HW110064   5.676   6.531   5.631
 3055SOL    HW210065   5.813   6.616   5.651
 3056SOL     OW10066   6.177   1.837   5.597
 3056SOL    HW110067   6.220   1.760   5.645
 3056SOL    HW210068   6.117   1.886   5.660
 3057SOL     OW10069   5.345   5.915   4.311
 3057SOL    HW110070   5.372   5.998   4.261
 3057SOL    HW210071   5.246   5.902   4.304
 3058SOL     OW10072   6.473   3.853   0.944
 3058SOL    HW110073   6.554   3.843   0.886
 3058SOL    HW210074   6.411   3.777   0.927
 3059SOL     OW10075   2.349   1.605   4.372
 3059SOL    HW110076   2.280   1.675   4.356
 3059SOL    HW210077   2.305   1.518   4.395
 3060SOL     OW10078   2.577   5.260   6.864
 3060SOL    HW110079   2.657   5.202   6.851
 3060SOL    HW210080   2.519   5.220   6.935
 3061SOL     OW10081   5.782   5.651   5.784
 3061SOL    HW110082   5.821   5.686   5.869
 3061SOL    HW210083   5.718   5.718   5.746
 3062SOL     OW10084   3.591   5.481   1.119
 3062SOL    HW110085   3.620   5.392   1.154
 3062SOL    HW210086   3.528   5.523   1.184
 3063SOL     OW10087   0.997   4.420   0.792
 3063SOL    HW110088   1.086   4.385   0.762
 3063SOL    HW210089   0.943   4.447   0.713
 3064SOL     OW10090   4.373   2.953   6.857
 3064SOL    HW110091   4.417   3.011   6.926
 3064SOL    HW210092   4.320   2.882   6.902
 3065SOL     OW10093   0.914   1.567   6.421
 3065SOL    HW110094   0.870   1.563   6.511
 3065SOL    HW210095   0.862   1.512   6.356
 3066SOL     OW10096   4.995   5.394   6.081
 3066SOL    HW110097   4.923   5.344   6.033
 3066SOL    HW210098   4.958   5.429   6.168
 3067SOL     OW10099   2.432   1.609   0.781
 3067SOL    HW110100   2.451   1.662   0.863
 3067SOL    HW210101   2.454   1.663   0.700
 3068SOL     OW10102   0.117   0.975   1.372
 3068SOL    HW110103   0.088   0.879   1.375
 3068SOL    HW210104   0.113   1.013   1.465
 3069SOL     OW10105   6.544   6.319   3.134
 3069SOL    HW110106   6.513   6.271   3.052
 3069SOL    HW210107   6.511   6.413   3.131
 3070SOL     OW10108   2.682   0.948   6.880
 3070SOL    HW110109   2.714   1.027   6.933
 3070SOL    HW210110   2.630   0.980   6.801
 3071SOL     OW10111   6.816   4.745   3.444
 3071SOL    HW110112   6.747   4.749   3.516
 3071SOL    HW210113   6.879   4.822   3.453
 3072SOL     OW10114   1.708   6.188   0.050
 3072SOL    HW110115   1.713   6.111   7.003
 3072SOL    HW210116   1.767   6.169   0.128
 3073SOL     OW10117   0.240   4.358   1.323
 3073SOL    HW110118   0.171   4.289   1.345
 3073SOL    HW210119   0.292   4.330   1.243
 3074SOL     OW10120   1.378   4.355   1.442
 3074SOL    HW110121   1.440   4.407   1.502
 3074SOL    HW210122   1.352   4.270   1.487
 3075SOL     OW10123   2.510   5.457   3.956
 3075SOL    HW110124   2.456   5.475   3.874
 3075SOL    HW210125   2.458   5.485   4.037
 3076SOL     OW10126   6.437   1.362   4.605
 3076SOL    HW110127   6.487   1.289   4.651
 3076SOL    HW210128   6.500   1.421   4.556
 3077SOL     OW10129   6.067   3.638   1.998
 3077SOL    HW110130   6.121   3.592   2.069
 3077SOL    HW210131   6.073   3.587   1.913
 3078SOL     OW10132   6.822   3.004   2.010
 3078SOL    HW110133   6.769   3.087   1.994
 3078SOL    HW210134   6.886   3.020   2.085
 3079SOL     OW10135   3.156   2.134   3.732
 3079SOL    HW110136   3.111   2.209   3.779
 3079SOL    HW210137   3.236   2.104   3.785
 3080SOL     OW10138   4.865   4.207   1.835
 3080SOL    HW110139   4.839   4.214   1.932
 3080SOL    HW210140   4.918   4.288   1.809
 3081SOL     OW10141   0.745   4.750   6.494
 3081SOL    HW110142   0.840   4.721   6.482
 3081SOL    HW210143   0.707   4.707   6.576
 3082SOL     OW10144   2.778   5.583   4.187
 3082SOL    HW110145   2.773   5.574   4.286
 3082SOL    HW210146   2.702   5.640   4.154
 3083SOL     OW10147   3.338   5.570   2.720
 3083SOL    HW110148   3.282   5.496   2.683
 3083SOL    HW210149   3.331   5.649   2.659
 3084SOL     OW10150   0.144   4.026   2.326
 3084SOL    HW110151   0.077   3.993   2.259
 3084SOL    HW210152   0.184   4.112   2.294
 3085SOL     OW10153   5.057   4.826   0.832
 3085SOL    HW110154   5.129   4.876   0.880
 3085SOL    HW210155   5.071   4.728   0.843
 3086SOL     OW10156   4.604   0.907   6.980
 3086SOL    HW110157   4.628   1.003   6.965
 3086SOL    HW210158   4.638   0.852   6.903
 3087SOL     OW10159   2.508   6.136   2.612
 3087SOL    HW110160   2.545   6.165   2.700
 3087SOL    HW210161   2.499   6.216   2.552
 3088SOL     OW10162   1.363   3.069   5.605
 3088SOL    HW110163   1.396   3.162   5.619
 3088SOL    HW210164   1.411   3.007   5.668
 3089SOL     OW10165   4.581   1.783   5.233
 3089SOL    HW110166   4.604   1.879   5.248
 3089SOL    HW210167   4.572   1.737   5.322
 3090SOL     OW10168   1.688   1.188   1.935
 3090SOL    HW110169   1.730   1.112   1.984
 3090SOL    HW210170   1.655   1.157   1.846
 3091SOL     OW10171   1.191   0.908   0.611
 3091SOL    HW110172   1.270   0.855   0.642
 3091SOL    HW210173   1.192   0.916   0.512
 3092SOL     OW10174   5.031   6.570   1.510
 3092SOL    HW110175   5.093   6.573   1.589
 3092SOL    HW210176   5.010   6.664   1.481
 3093SOL     OW10177   5.311   6.483   5.609
 3093SOL    HW110178   5.400   6.451   5.577
 3093SOL    HW210179   5.249   6.493   5.531
 3094SOL     OW10180   2.952   0.709   4.146
 3094SOL    HW110181   2.877   0.743   4.204
 3094SOL    HW210182   2.950   0.609   4.146
 3095SOL     OW10183   2.031   3.302   5.744
 3095SOL    HW110184   2.018   3.367   5.819
 3095SOL    HW210185   2.016   3.349   5.657
 3096SOL     OW10186   0.570   3.506   4.829
 3096SOL    HW110187   0.470   3.507   4.833
 3096SOL    HW210188   0.606   3.582   4.883
 3097SOL     OW10189   5.613   2.892   0.512
 3097SOL    HW110190   5.692   2.923   0.567
 3097SOL    HW210191   5.535   2.875   0.572
 3098SOL     OW10192   1.487   3.111   2.068
 3098SOL    HW110193   1.548   3.099   2.147
 3098SOL    HW210194   1.512   3.194   2.019
 3099SOL     OW10195   0.817   5.748   3.983
 3099SOL    HW110196   0.806   5.757   3.884
 3099SOL    HW210197   0.824   5.838   4.024
 3100SOL     OW10198   0.042   6.511   2.103
 3100SOL    HW110199   0.101   6.447   2.154
 3100SOL    HW210200   0.023   6.473   2.012
 3101SOL     OW10201   4.649   6.339   5.939
 3101SOL    HW110202   4.584   6.308   6.009
 3101SOL    HW210203   4.674   6.434   5.956
 3102SOL     OW10204   6.749   5.761   0.504
 3102SOL    HW110205   6.657   5.769   0.467
 3102SOL    HW210206   6.816   5.771   0.431
 3103SOL     OW10207   5.180   1.008   0.828
 3103SOL    HW110208   5.111   0.949   0.869
 3103SOL    HW210209   5.237   0.954   0.766
 3104SOL     OW10210   4.187   6.805   0.070
 3104SOL    HW110211   4.263   6.741   0.085
 3104SOL    HW210212   4.133   6.814   0.154
 3105SOL     OW10213   4.622   3.097   1.048
 3105SOL    HW110214   4.561   3.171   1.021
 3105SOL    HW210215   4.580   3.009   1.024
 3106SOL     OW10216   5.306   0.329   5.171
 3106SOL    HW110217   5.377   0.343   5.102
 3106SOL    HW210218   5.217   0.350   5.131
 3107SOL     OW10219   4.268   1.643   4.279
 3107SOL    HW110220   4.285   1.669   4.374
 3107SOL    HW210221   4.234   1.722   4.228
 3108SOL     OW10222   1.772   5.338   4.688
 3108SOL    HW110223   1.773   5.353   4.786
 3108SOL    HW210224   1.706   5.267   4.665
 3109SOL     OW10225   6.581   0.417   4.296
 3109SOL    HW110226   6.624   0.508   4.300
 3109SOL    HW210227   6.490   0.425   4.256
 3110SOL     OW10228   2.216   4.185   3.258
 3110SOL    HW110229   2.137   4.218   3.311
 3110SOL    HW210230   2.258   4.108   3.306
 3111SOL     OW10231   0.142   4.802   3.316
 3111SOL    HW110232   0.115   4.899   3.322
 3111SOL    HW210233   0.065   4.748   3.283
 3112SOL     OW10234   3.172   3.404   6.860
 3112SOL    HW110235   3.158   3.466   6.936
 3112SOL    HW210236   3.255   3.350   6.876
 3113SOL     OW10237   3.294   5.963   2.737
 3113SOL    HW110238   3.355   6.034   2.703
 3113SOL    HW210239   3.199   5.995   2.734
 3114SOL     OW10240   4.153   1.613   0.187
 3114SOL    HW110241   4.082   1.556   0.145
 3114SOL    HW210242   4.194   1.564   0.263
 3115SOL     OW10243   3.826   4.700   5.476
 3115SOL    HW110244   3.808   4.767   5.548
 3115SOL    HW210245   3.826   4.608   5.515
 3116SOL     OW10246   0.549   2.000   0.119
 3116SOL    HW110247   0.491   2.012   0.200
 3116SOL    HW210248   0.621   1.932   0.139
 3117SOL     OW10249   4.891   2.509   5.299
 3117SOL    HW110250   4.843   2.504   5.212
 3117SOL    HW210251   4.939   2.423   5.316
 3118SOL     OW10252   1.382   6.970   2.166
 3118SOL    HW110253   1.352   6.959   2.261
 3118SOL    HW210254   1.322   6.918   2.106
 3119SOL     OW10255   2.985   2.667   5.454
 3119SOL    HW110256   3.070   2.621   5.430
 3119SOL    HW210257   2.987   2.761   5.419
 3120SOL     OW10258   3.255   0.519   5.666
 3120SOL    HW110259   3.320   0.498   5.593
 3120SOL    HW210260   3.207   0.435   5.693
 3121SOL     OW10261   5.521   1.746   4.350
 3121SOL    HW110262   5.487   1.662   4.391
 3121SOL    HW210263   5.603   1.776   4.398
 3122SOL     OW10264   4.423   4.818   4.991
 3122SOL    HW110265   4.390   4.726   4.972
 3122SOL    HW210266   4.358   4.865   5.051
 3123SOL     OW10267   1.556   0.835   3.652
 3123SOL    HW110268   1.617   0.914   3.659
 3123SOL    HW210269   1.577   0.783   3.570
 3124SOL     OW10270   5.340   6.548   3.963
 3124SOL    HW110271   5.310   6.575   4.054
 3124SOL    HW210272   5.322   6.622   3.898
 3125SOL     OW10273   0.976   3.019   5.355
 3125SOL    HW110274   0.940   2.954   5.288
 3125SOL    HW210275   1.061   2.984   5.393
 3126SOL     OW10276   5.503   4.445   6.385
 3126SOL    HW110277   5.564   4.380   6.340
 3126SOL    HW210278   5.542   4.536   6.382
 3127SOL     OW10279   1.588   2.774   5.104
 3127SOL    HW110280   1.656   2.811   5.041
 3127SOL    HW210281   1.620   2.782   5.198
 3128SOL     OW10282   3.735   0.829   0.284
 3128SOL    HW110283   3.818   0.782   0.256
 3128SOL    HW210284   3.737   0.844   0.383
 3129SOL     OW10285   4.959   3.514   1.094
 3129SOL    HW110286   4.970   3.605   1.053
 3129SOL    HW210287   4.964   3.522   1.193
 3130SOL     OW10288   1.621   4.344   1.309
 3130SOL    HW110289   1.528   4.344   1.345
 3130SOL    HW210290   1.686   4.358   1.384
 3131SOL     OW10291   0.260   3.243   2.713
 3131SOL    HW110292   0.307   3.263   2.627
 3131SOL    HW210293   0.216   3.153   2.707
 3132SOL     OW10294   4.181   5.108   6.480
 3132SOL    HW110295   4.192   5.025   6.425
 3132SOL    HW210296   4.086   5.119   6.507
 3133SOL     OW10297   3.658   1.220   2.971
 3133SOL    HW110298   3.667   1.287   3.045
 3133SOL    HW210299   3.600   1.145   3.002
 3134SOL     OW10300   4.192   5.315   1.763
 3134SOL    HW110301   4.152   5.402   1.732
 3134SOL    HW210302   4.126   5.241   1.750
 3135SOL     OW10303   4.853   6.711   6.263
 3135SOL    HW110304   4.922   6.766   6.309
 3135SOL    HW210305   4.895   6.658   6.189
 3136SOL     OW10306   5.605   0.586   1.764
 3136SOL    HW110307   5.696   0.587   1.722
 3136SOL    HW210308   5.612   0.619   1.858
 3137SOL     OW10309   6.444   6.757   2.642
 3137SOL    HW110310   6.419   6.661   2.657
 3137SOL    HW210311   6.543   6.764   2.630
 3138SOL     OW10312   6.077   5.389   3.414
 3138SOL    HW110313   6.176   5.375   3.412
 3138SOL    HW210314   6.038   5.344   3.495
 3139SOL     OW10315   3.533   5.172   1.649
 3139SOL    HW110316   3.584   5.110   1.708
 3139SOL    HW210317   3.576   5.263   1.652
 3140SOL     OW10318   6.572   6.480   5.235
 3140SOL    HW110319   6.648   6.483   5.170
 3140SOL    HW210320   6.607   6.462   5.326
 3141SOL     OW10321   0.008   0.206   6.604
 3141SOL    HW110322   6.964   0.193   6.682
 3141SOL    HW210323   0.027   0.304   6.594
 3142SOL     OW10324   3.559   1.372   2.760
 3142SOL    HW110325   3.606   1.311   2.825
 3142SOL    HW210326   3.592   1.465   2.774
 3143SOL     OW10327   6.206   1.964   6.483
 3143SOL    HW110328   6.227   2.057   6.513
 3143SOL    HW210329   6.118   1.936   6.520
 3144SOL     OW10330   4.267   3.646   0.536
 3144SOL    HW110331   4.170   3.667   0.551
 3144SOL    HW210332   4.306   3.710   0.469
 3145SOL     OW10333   2.166   6.515   2.496
 3145SOL    HW110334   2.125   6.605   2.504
 3145SOL    HW210335   2.152   6.464   2.581
 3146SOL     OW10336   0.568   0.763   5.084
 3146SOL    HW110337   0.504   0.750   5.007
 3146SOL    HW210338   0.656   0.795   5.048
 3147SOL     OW10339   3.067   5.099   6.647
 3147SOL    HW110340   2.994   5.163   6.671
 3147SOL    HW210341   3.041   5.049   6.564
 3148SOL     OW10342   0.234   0.498   3.948
 3148SOL    HW110343   0.208   0.539   4.035
 3148SOL    HW210344   0.229   0.567   3.876
 3149SOL     OW10345   3.291   1.103   6.860
 3149SOL    HW110346   3.370   1.092   6.801
 3149SOL    HW210347   3.307   1.054   6.946
 3150SOL     OW10348   6.425   5.751   5.444
 3150SOL    HW110349   6.356   5.717   5.380
 3150SOL    HW210350   6.408   5.712   5.535
 3151SOL     OW10351   6.948   2.027   5.668
 3151SOL    HW110352   0.005   2.088   5.642
 3151SOL    HW210353   6.867   2.081   5.691
 3152SOL     OW10354   1.084   4.488   6.937
 3152SOL    HW110355   1.087   4.573   6.884
 3152SOL    HW210356   1.177   4.454   6.950
 3153SOL     OW10357   5.997   4.945   0.164
 3153SOL    HW110358   5.965   4.899   0.081
 3153SOL    HW210359   6.050   4.881   0.218
 3154SOL     OW10360   5.996   0.738   1.373
 3154SOL    HW110361   6.017   0.647   1.407
 3154SOL    HW210362   5.902   0.763   1.396
 3155SOL     OW10363   6.407   4.107   0.303
 3155SOL    HW110364   6.477   4.086   0.235
 3155SOL    HW210365   6.383   4.023   0.353
 3156SOL     OW10366   3.133   3.994   2.268
 3156SOL    HW110367   3.077   3.926   2.223
 3156SOL    HW210368   3.076   4.072   2.296
 3157SOL     OW10369   1.785   1.908   5.302
 3157SOL    HW110370   1.740   1.940   5.386
 3157SOL    HW210371   1.718   1.867   5.241
 3158SOL     OW10372   2.424   1.543   4.717
 3158SOL    HW110373   2.510   1.579   4.754
 3158SOL    HW210374   2.410   1.578   4.624
 3159SOL     OW10375   5.939   0.101   6.571
 3159SOL    HW110376   6.036   0.121   6.555
 3159SOL    HW210377   5.920   0.106   6.669
 3160SOL     OW10378   1.577   6.340   5.849
 3160SOL    HW110379   1.477   6.349   5.847
 3160SOL    HW210380   1.613   6.358   5.758
 3161SOL     OW10381   2.216   2.584   2.712
 3161SOL    HW110382   2.219   2.626   2.621
 3161SOL    HW210383   2.297   2.610   2.764
 3162SOL     OW10384   1.441   5.861   0.795
 3162SOL    HW110385   1.491   5.796   0.853
 3162SOL    HW210386   1.381   5.916   0.852
 3163SOL     OW10387   3.702   3.677   0.016
 3163SOL    HW110388   3.658   3.646   6.949
 3163SOL    HW210389   3.639   3.735   0.068
 3164SOL     OW10390   3.642   5.852   2.630
 3164SOL    HW110391   3.627   5.840   2.532
 3164SOL    HW210392   3.636   5.764   2.676
 3165SOL     OW10393   0.817   5.550   1.134
 3165SOL    HW110394   0.913   5.541   1.163
 3165SOL    HW210395   0.814   5.588   1.041
 3166SOL     OW10396   4.595   1.499   4.399
 3166SOL    HW110397   4.622   1.565   4.470
 3166SOL    HW210398   4.561   1.548   4.319
 3167SOL     OW10399   5.469   4.556   0.792
 3167SOL    HW110400   5.535   4.545   0.717
 3167SOL    HW210401   5.518   4.583   0.875
 3168SOL     OW10402   5.871   2.567   0.417
 3168SOL    HW110403   5.970   2.578   0.411
 3168SOL    HW210404   5.841   2.586   0.510
 3169SOL     OW10405   1.473   3.816   3.389
 3169SOL    HW110406   1.453   3.845   3.483
 3169SOL    HW210407   1.407   3.857   3.327
 3170SOL     OW10408   4.121   5.811   2.783
 3170SOL    HW110409   4.147   5.902   2.751
 3170SOL    HW210410   4.183   5.743   2.744
 3171SOL     OW10411   5.767   2.183   1.510
 3171SOL    HW110412   5.831   2.192   1.586
 3171SOL    HW210413   5.816   2.150   1.429
 3172SOL     OW10414   0.293   5.376   6.995
 3172SOL    HW110415   0.314   5.278   7.000
 3172SOL    HW210416   0.347   5.426   0.045
 3173SOL     OW10417   3.392   2.706   6.611
 3173SOL    HW110418   3.479   2.754   6.620
 3173SOL    HW210419   3.346   2.736   6.527
 3174SOL     OW10420   2.646   2.966   6.090
 3174SOL    HW110421   2.702   2.989   6.169
 3174SOL    HW210422   2.556   3.007   6.100
 3175SOL     OW10423   5.962   1.446   1.783
 3175SOL    HW110424   5.872   1.403   1.788
 3175SOL    HW210425   6.030   1.385   1.825
 3176SOL     OW10426   0.941   2.830   5.602
 3176SOL    HW110427   1.024   2.840   5.548
 3176SOL    HW210428   0.892   2.918   5.604
 3177SOL     OW10429   5.329   4.414   4.134
 3177SOL    HW110430   5.325   4.350   4.211
 3177SOL    HW210431   5.410   4.472   4.144
 3178SOL     OW10432   6.173   2.412   0.162
 3178SOL    HW110433   6.075   2.391   0.162
 3178SOL    HW210434   6.217   2.364   0.086
 3179SOL     OW10435   0.948   1.497   1.670
 3179SOL    HW110436   0.946   1.409   1.623
 3179SOL    HW210437   0.956   1.571   1.603
 3180SOL     OW10438   5.603   6.483   0.787
 3180SOL    HW110439   5.663   6.553   0.824
 3180SOL    HW210440   5.554   6.438   0.862
 3181SOL     OW10441   6.913   2.439   4.043
 3181SOL    HW110442   7.012   2.429   4.033
 3181SOL    HW210443   6.868   2.359   4.004
 3182SOL     OW10444   2.527   0.490   6.878
 3182SOL    HW110445   2.459   0.537   6.822
 3182SOL    HW210446   2.493   0.399   6.903
 3183SOL     OW10447   4.288   4.628   2.105
 3183SOL    HW110448   4.349   4.707   2.103
 3183SOL    HW210449   4.212   4.646   2.167
 3184SOL     OW10450   0.672   1.775   3.151
 3184SOL    HW110451   0.687   1.817   3.061
 3184SOL    HW210452   0.614   1.835   3.206
 3185SOL     OW10453   5.054   6.338   6.392
 3185SOL    HW110454   5.047   6.243   6.422
 3185SOL    HW210455   5.031   6.399   6.468
 3186SOL     OW10456   2.956   1.608   0.110
 3186SOL    HW110457   2.932   1.608   0.207
 3186SOL    HW210458   3.054   1.591   0.099
 3187SOL     OW10459   3.649   5.275   2.250
 3187SOL    HW110460   3.638   5.328   2.334
 3187SOL    HW210461   3.608   5.184   2.263
 3188SOL     OW10462   1.670   6.105   4.611
 3188SOL    HW110463   1.607   6.051   4.556
 3188SOL    HW210464   1.735   6.151   4.551
 3189SOL     OW10465   1.608   1.665   0.730
 3189SOL    HW110466   1.539   1.595   0.714
 3189SOL    HW210467   1.649   1.692   0.642
 3190SOL     OW10468   6.986   5.971   6.842
 3190SOL    HW110469   6.960   6.000   6.934
 3190SOL    HW210470   0.058   5.926   6.844
 3191SOL     OW10471   4.714   5.164   1.718
 3191SOL    HW110472   4.633   5.117   1.683
 3191SOL    HW210473   4.697   5.196   1.811
 3192SOL     OW10474   0.580   2.761   0.807
 3192SOL    HW110475   0.653   2.695   0.826
 3192SOL    HW210476   0.553   2.753   0.711
 3193SOL     OW10477   3.956   1.570   4.656
 3193SOL    HW110478   4.051   1.588   4.630
 3193SOL    HW210479   3.897   1.641   4.618
 3194SOL     OW10480   1.058   1.639   5.602
 3194SOL    HW110481   1.152   1.647   5.569
 3194SOL    HW210482   1.059   1.638   5.702
 3195SOL     OW10483   0.924   1.127   1.215
 3195SOL    HW110484   0.891   1.148   1.123
 3195SOL    HW210485   0.851   1.146   1.281
 3196SOL     OW10486   6.682   0.485   6.692
 3196SOL    HW110487   6.665   0.387   6.700
 3196SOL    HW210488   6.702   0.523   6.782
 3197SOL     OW10489   2.362   6.727   5.290
 3197SOL    HW110490   2.325   6.713   5.198
 3197SOL    HW210491   2.454   6.765   5.283
 3198SOL     OW10492   6.362   2.998   3.159
 3198SOL    HW110493   6.365   3.057   3.240
 3198SOL    HW210494   6.302   3.039   3.091
 3199SOL     OW10495   5.366   4.305   2.868
 3199SOL    HW110496   5.449   4.317   2.923
 3199SOL    HW210497   5.372   4.363   2.786
 3200SOL     OW10498   5.871   3.107   2.957
 3200SOL    HW110499   5.810   3.056   2.896
 3200SOL    HW210500   5.893   3.195   2.917
 3201SOL     OW10501   6.622   4.888   3.182
 3201SOL    HW110502   6.643   4.791   3.168
 3201SOL    HW210503   6.545   4.914   3.123
 3202SOL     OW10504   1.063   5.146   0.481
 3202SOL    HW110505   1.010   5.213   0.428
 3202SOL    HW210506   1.130   5.194   0.537
 3203SOL     OW10507   5.630   1.557   0.692
 3203SOL    HW110508   5.679   1.563   0.605
 3203SOL    HW210509   5.556   1.490   0.684
 3204SOL     OW10510   3.671   0.297   3.452
 3204SOL    HW110511   3.753   0.252   3.417
 3204SOL    HW210512   3.591   0.265   3.402
 3205SOL     OW10513   4.827   2.834   5.945
 3205SOL    HW110514   4.807   2.924   5.982
 3205SOL    HW210515   4.745   2.796   5.902
 3206SOL     OW10516   1.735   4.105   0.894
 3206SOL    HW110517   1.822   4.076   0.854
 3206SOL    HW210518   1.701   4.186   0.845
 3207SOL     OW10519   1.158   0.800   6.832
 3207SOL    HW110520   1.110   0.826   6.915
 3207SOL    HW210521   1.122   0.712   6.799
 3208SOL     OW10522   5.463   5.825   6.471
 3208SOL    HW110523   5.434   5.792   6.381
 3208SOL    HW210524   5.425   5.916   6.486
 3209SOL     OW10525   2.933   5.333   4.381
 3209SOL    HW110526   2.918   5.244   4.340
 3209SOL    HW210527   2.963   5.398   4.311
 3210SOL     OW10528   1.309   5.017   1.025
 3210SOL    HW110529   1.367   4.935   1.029
 3210SOL    HW210530   1.221   4.993   0.984
 3211SOL     OW10531   2.138   4.105   0.665
 3211SOL    HW110532   2.102   4.098   0.572
 3211SOL    HW210533   2.203   4.182   0.669
 3212SOL     OW10534   3.222   6.624   2.297
 3212SOL    HW110535   3.137   6.603   2.249
 3212SOL    HW210536   3.201   6.658   2.389
 3213SOL     OW10537   1.262   0.454   6.575
 3213SOL    HW110538   1.322   0.534   6.572
 3213SOL    HW210539   1.176   0.479   6.620
 3214SOL     OW10540   4.933   5.575   2.345
 3214SOL    HW110541   4.933   5.580   2.445
 3214SOL    HW210542   4.875   5.647   2.308
 3215SOL     OW10543   0.416   4.029   0.692
 3215SOL    HW110544   0.378   4.011   0.602
 3215SOL    HW210545   0.354   4.089   0.743
 3216SOL     OW10546   5.852   5.286   0.657
 3216SOL    HW110547   5.823   5.190   0.651
 3216SOL    HW210548   5.882   5.318   0.567
 3217SOL     OW10549   0.472   5.188   2.612
 3217SOL    HW110550   0.420   5.105   2.594
 3217SOL    HW210551   0.544   5.169   2.679
 3218SOL     OW10552   5.788   2.601   3.109
 3218SOL    HW110553   5.846   2.538   3.058
 3218SOL    HW210554   5.735   2.656   3.045
 3219SOL     OW10555   6.799   0.707   4.311
 3219SOL    HW110556   6.898   0.698   4.301
 3219SOL    HW210557   6.760   0.738   4.225
 3220SOL     OW10558   0.233   5.871   5.935
 3220SOL    HW110559   0.181   5.811   5.874
 3220SOL    HW210560   0.258   5.955   5.886
 3221SOL     OW10561   3.426   0.188   2.367
 3221SOL    HW110562   3.464   0.118   2.427
 3221SOL    HW210563   3.334   0.212   2.399
 3222SOL     OW10564   3.015   1.394   2.446
 3222SOL    HW110565   2.924   1.429   2.466
 3222SOL    HW210566   3.067   1.387   2.531
 3223SOL     OW10567   2.552   6.552   0.058
 3223SOL    HW110568   2.510   6.583   6.990
 3223SOL    HW210569   2.484   6.553   0.131
 3224SOL     OW10570   4.844   2.777   4.904
 3224SOL    HW110571   4.931   2.745   4.943
 3224SOL    HW210572   4.810   2.709   4.839
 3225SOL     OW10573   4.556   1.626   5.475
 3225SOL    HW110574   4.635   1.577   5.438
 3225SOL    HW210575   4.473   1.595   5.428
 3226SOL     OW10576   2.508   0.679   2.302
 3226SOL    HW110577   2.451   0.707   2.379
 3226SOL    HW210578   2.502   0.748   2.230
 3227SOL     OW10579   3.684   3.416   6.581
 3227SOL    HW110580   3.693   3.376   6.490
 3227SOL    HW210581   3.740   3.365   6.646
 3228SOL     OW10582   6.836   3.481   0.716
 3228SOL    HW110583   6.899   3.429   0.773
 3228SOL    HW210584   6.742   3.449   0.732
 3229SOL     OW10585   3.670   1.114   5.686
 3229SOL    HW110586   3.723   1.072   5.759
 3229SOL    HW210587   3.723   1.113   5.601
 3230SOL     OW10588   2.072   5.483   5.877
 3230SOL    HW110589   2.108   5.464   5.968
 3230SOL    HW210590   2.147   5.484   5.811
 3231SOL     OW10591   2.539   0.493   2.623
 3231SOL    HW110592   2.629   0.532   2.643
 3231SOL    HW210593   2.495   0.546   2.551
 3232SOL     OW10594   4.148   6.156   3.988
 3232SOL    HW110595   4.158   6.085   4.058
 3232SOL    HW210596   4.063   6.142   3.938
 3233SOL     OW10597   6.990   2.307   0.242
 3233SOL    HW110598   6.999   2.405   0.223
 3233SOL    HW210599   0.020   2.255   0.170
 3234SOL     OW10600   0.540   2.758   0.058
 3234SOL    HW110601   0.484   2.837   0.082
 3234SOL    HW210602   0.607   2.784   7.006
 3235SOL     OW10603   6.522   0.261   1.661
 3235SOL    HW110604   6.621   0.245   1.656
 3235SOL    HW210605   6.503   0.342   1.717
 3236SOL     OW10606   0.819   4.312   6.951
 3236SOL    HW110607   0.900   4.352   6.993
 3236SOL    HW210608   0.737   4.346   6.997
 3237SOL     OW10609   5.817   1.582   2.583
 3237SOL    HW110610   5.807   1.577   2.484
 3237SOL    HW210611   5.762   1.657   2.619
 3238SOL     OW10612   5.958   5.209   0.161
 3238SOL    HW110613   5.960   5.112   0.186
 3238SOL    HW210614   5.961   5.265   0.244
 3239SOL     OW10615   0.559   0.935   3.007
 3239SOL    HW110616   0.560   0.990   3.091
 3239SOL    HW210617   0.468   0.899   2.992
 3240SOL     OW10618   6.866   0.363   6.298
 3240SOL    HW110619   6.892   0.267   6.300
 3240SOL    HW210620   6.767   0.371   6.299
 3241SOL     OW10621   5.036   1.425   5.831
 3241SOL    HW110622   4.971   1.361   5.871
 3241SOL    HW210623   4.995   1.468   5.750
 3242SOL     OW10624   4.595   3.969   6.238
 3242SOL    HW110625   4.655   4.043   6.208
 3242SOL    HW210626   4.649   3.898   6.282
 3243SOL     OW10627   4.434   5.520   0.320
 3243SOL    HW110628   4.441   5.525   0.419
 3243SOL    HW210629   4.460   5.429   0.289
 3244SOL     OW10630   5.299   6.077   0.057
 3244SOL    HW110631   5.233   6.004   0.074
 3244SOL    HW210632   5.355   6.091   0.138
 3245SOL     OW10633   4.777   2.133   4.388
 3245SOL    HW110634   4.761   2.195   4.311
 3245SOL    HW210635   4.787   2.185   4.472
 3246SOL     OW10636   6.603   0.134   2.923
 3246SOL    HW110637   6.607   0.079   2.839
 3246SOL    HW210638   6.641   0.081   2.999
 3247SOL     OW10639   5.991   4.373   1.885
 3247SOL    HW110640   5.955   4.327   1.965
 3247SOL    HW210641   5.934   4.452   1.863
 3248SOL     OW10642   5.668   3.050   2.435
 3248SOL    HW110643   5.658   2.953   2.410
 3248SOL    HW210644   5.736   3.058   2.508
 3249SOL     OW10645   3.290   4.105   3.245
 3249SOL    HW110646   3.259   4.013   3.268
 3249SOL    HW210647   3.273   4.123   3.148
 3250SOL     OW10648   5.430   0.170   2.487
 3250SOL    HW110649   5.523   0.154   2.456
 3250SOL    HW210650   5.401   0.093   2.544
 3251SOL     OW10651   3.527   0.959   3.935
 3251SOL    HW110652   3.435   0.925   3.958
 3251SOL    HW210653   3.564   1.009   4.013
 3252SOL     OW10654   3.045   0.994   2.476
 3252SOL    HW110655   2.968   1.041   2.435
 3252SOL    HW210656   3.113   0.974   2.405
 3253SOL     OW10657   4.469   3.577   0.705
 3253SOL    HW110658   4.379   3.578   0.660
 3253SOL    HW210659   4.458   3.552   0.801
 3254SOL     OW10660   4.985   6.413   6.954
 3254SOL    HW110661   5.051   6.344   6.924
 3254SOL    HW210662   4.897   6.395   6.910
 3255SOL     OW10663   4.578   6.701   1.398
 3255SOL    HW110664   4.497   6.650   1.370
 3255SOL    HW210665   4.631   6.646   1.463
 3256SOL     OW10666   3.696   1.687   1.264
 3256SOL    HW110667   3.631   1.724   1.330
 3256SOL    HW210668   3.744   1.762   1.219
 3257SOL     OW10669   1.093   1.773   1.665
 3257SOL    HW110670   1.026   1.812   1.602
 3257SOL    HW210671   1.181   1.820   1.652
 3258SOL     OW10672   4.049   5.587   3.496
 3258SOL    HW110673   4.127   5.634   3.455
 3258SOL    HW210674   4.062   5.488   3.489
 3259SOL     OW10675   4.801   4.731   4.766
 3259SOL    HW110676   4.881   4.787   4.742
 3259SOL    HW210677   4.826   4.635   4.764
 3260SOL     OW10678   1.713   3.060   1.813
 3260SOL    HW110679   1.622   3.019   1.818
 3260SOL    HW210680   1.706   3.159   1.823
 3261SOL     OW10681   5.557   0.842   1.400
 3261SOL    HW110682   5.482   0.887   1.449
 3261SOL    HW210683   5.524   0.757   1.359
 3262SOL     OW10684   3.896   2.141   2.185
 3262SOL    HW110685   3.972   2.184   2.137
 3262SOL    HW210686   3.816   2.139   2.125
 3263SOL     OW10687   2.700   1.390   2.977
 3263SOL    HW110688   2.773   1.324   2.962
 3263SOL    HW210689   2.614   1.354   2.941
 3264SOL     OW10690   2.258   5.528   1.127
 3264SOL    HW110691   2.210   5.474   1.058
 3264SOL    HW210692   2.205   5.610   1.148
 3265SOL     OW10693   5.240   6.746   6.480
 3265SOL    HW110694   5.189   6.787   6.404
 3265SOL    HW210695   5.193   6.767   6.566
 3266SOL     OW10696   2.915   4.907   7.009
 3266SOL    HW110697   2.856   4.869   6.938
 3266SOL    HW210698   2.911   4.847   0.073
 3267SOL     OW10699   3.099   6.747   1.975
 3267SOL    HW110700   3.184   6.695   1.968
 3267SOL    HW210701   3.057   6.730   2.064
 3268SOL     OW10702   2.147   3.838   1.335
 3268SOL    HW110703   2.179   3.758   1.284
 3268SOL    HW210704   2.153   3.919   1.276
 3269SOL     OW10705   6.369   5.708   2.120
 3269SOL    HW110706   6.278   5.666   2.123
 3269SOL    HW210707   6.410   5.706   2.211
 3270SOL     OW10708   1.842   3.947   6.812
 3270SOL    HW110709   1.897   3.950   6.896
 3270SOL    HW210710   1.822   3.852   6.788
 3271SOL     OW10711   6.889   3.044   1.313
 3271SOL    HW110712   6.923   3.137   1.327
 3271SOL    HW210713   6.857   3.007   1.399
 3272SOL     OW10714   2.941   4.101   6.249
 3272SOL    HW110715   2.857   4.151   6.267
 3272SOL    HW210716   2.972   4.120   6.156
 3273SOL     OW10717   6.359   4.775   0.001
 3273SOL    HW110718   6.298   4.709   6.974
 3273SOL    HW210719   6.356   4.861   6.968
 3274SOL     OW10720   5.961   0.462   0.715
 3274SOL    HW110721   5.901   0.450   0.794
 3274SOL    HW210722   6.035   0.394   0.719
 3275SOL     OW10723   4.981   0.808   6.939
 3275SOL    HW110724   5.043   0.884   6.959
 3275SOL    HW210725   4.936   0.778   0.006
 3276SOL     OW10726   4.024   6.265   6.650
 3276SOL    HW110727   4.120   6.293   6.645
 3276SOL    HW210728   4.009   6.213   6.734
 3277SOL     OW10729   3.633   0.976   0.894
 3277SOL    HW110730   3.727   0.958   0.923
 3277SOL    HW210731   3.632   1.042   0.820
 3278SOL     OW10732   1.096   0.776   5.738
 3278SOL    HW110733   1.058   0.684   5.728
 3278SOL    HW210734   1.033   0.842   5.698
 3279SOL     OW10735   5.340   6.831   0.489
 3279SOL    HW110736   5.338   6.867   0.396
 3279SOL    HW210737   5.407   6.756   0.494
 3280SOL     OW10738   4.854   4.958   4.995
 3280SOL    HW110739   4.770   4.923   5.036
 3280SOL    HW210740   4.836   5.047   4.952
 3281SOL     OW10741   0.952   4.965   0.995
 3281SOL    HW110742   0.970   4.997   0.902
 3281SOL    HW210743   0.997   5.025   1.061
 3282SOL     OW10744   6.524   5.043   5.143
 3282SOL    HW110745   6.498   5.130   5.186
 3282SOL    HW210746   6.544   4.975   5.213
 3283SOL     OW10747   3.394   1.335   1.169
 3283SOL    HW110748   3.420   1.415   1.116
 3283SOL    HW210749   3.400   1.253   1.112
 3284SOL     OW10750   1.306   6.100   5.710
 3284SOL    HW110751   1.344   6.029   5.769
 3284SOL    HW210752   1.376   6.134   5.647
 3285SOL     OW10753   4.443   2.244   4.713
 3285SOL    HW110754   4.408   2.193   4.634
 3285SOL    HW210755   4.543   2.247   4.710
 3286SOL     OW10756   3.660   2.829   2.012
 3286SOL    HW110757   3.683   2.734   2.037
 3286SOL    HW210758   3.670   2.840   1.913
 3287SOL     OW10759   0.421   6.698   0.209
 3287SOL    HW110760   0.354   6.685   0.136
 3287SOL    HW210761   0.375   6.739   0.289
 3288SOL     OW10762   1.953   6.717   0.502
 3288SOL    HW110763   2.001   6.629   0.499
 3288SOL    HW210764   1.908   6.734   0.415
 3289SOL     OW10765   2.932   1.419   6.304
 3289SOL    HW110766   2.845   1.378   6.278
 3289SOL    HW210767   2.991   1.426   6.224
 3290SOL     OW10768   6.784   4.616   0.757
 3290SOL    HW110769   6.751   4.670   0.680
 3290SOL    HW210770   6.744   4.650   0.842
 3291SOL     OW10771   2.282   1.109   6.072
 3291SOL    HW110772   2.380   1.123   6.082
 3291SOL    HW210773   2.240   1.101   6.162
 3292SOL     OW10774   6.843   0.941   0.761
 3292SOL    HW110775   6.752   0.904   0.747
 3292SOL    HW210776   6.856   1.021   0.703
 3293SOL     OW10777   6.506   4.540   1.561
 3293SOL    HW110778   6.591   4.489   1.576
 3293SOL    HW210779   6.461   4.555   1.648
 3294SOL     OW10780   5.155   2.995   6.268
 3294SOL    HW110781   5.195   3.083   6.244
 3294SOL    HW210782   5.195   2.961   6.353
 3295SOL     OW10783   0.863   2.913   2.391
 3295SOL    HW110784   0.806   2.836   2.421
 3295SOL    HW210785   0.864   2.917   2.291
 3296SOL     OW10786   1.531   0.771   3.097
 3296SOL    HW110787   1.436   0.791   3.075
 3296SOL    HW210788   1.564   0.835   3.166
 3297SOL     OW10789   2.849   1.693   5.118
 3297SOL    HW110790   2.909   1.714   5.041
 3297SOL    HW210791   2.859   1.764   5.188
 3298SOL     OW10792   6.459   2.606   5.897
 3298SOL    HW110793   6.555   2.592   5.922
 3298SOL    HW210794   6.443   2.704   5.883
 3299SOL     OW10795   3.915   6.214   2.752
 3299SOL    HW110796   3.997   6.269   2.767
 3299SOL    HW210797   3.937   6.136   2.692
 3300SOL     OW10798   1.072   0.518   5.986
 3300SOL    HW110799   1.083   0.539   5.889
 3300SOL    HW210800   1.149   0.464   6.018
 3301SOL     OW10801   1.720   2.949   3.403
 3301SOL    HW110802   1.631   2.940   3.448
 3301SOL    HW210803   1.755   3.042   3.418
 3302SOL     OW10804   0.446   4.679   5.356
 3302SOL    HW110805   0.418   4.736   5.279
 3302SOL    HW210806   0.383   4.603   5.366
 3303SOL     OW10807   3.191   3.521   0.208
 3303SOL    HW110808   3.185   3.575   0.124
 3303SOL    HW210809   3.153   3.573   0.284
 3304SOL     OW10810   1.723   5.351   6.199
 3304SOL    HW110811   1.723   5.436   6.251
 3304SOL    HW210812   1.787   5.359   6.123
 3305SOL     OW10813   2.352   1.723   2.430
 3305SOL    HW110814   2.371   1.626   2.440
 3305SOL    HW210815   2.394   1.774   2.505
 3306SOL     OW10816   1.324   5.106   4.935
 3306SOL    HW110817   1.296   5.147   4.848
 3306SOL    HW210818   1.324   5.177   5.006
 3307SOL     OW10819   0.700   6.669   5.896
 3307SOL    HW110820   0.696   6.745   5.830
 3307SOL    HW210821   0.715   6.706   5.987
 3308SOL     OW10822   3.205   5.753   1.580
 3308SOL    HW110823   3.265   5.833   1.581
 3308SOL    HW210824   3.257   5.672   1.609
 3309SOL     OW10825   6.821   5.231   3.684
 3309SOL    HW110826   6.785   5.269   3.598
 3309SOL    HW210827   6.776   5.275   3.761
 3310SOL     OW10828   6.967   4.107   4.904
 3310SOL    HW110829   6.943   4.104   4.807
 3310SOL    HW210830   0.033   4.162   4.915
 3311SOL     OW10831   3.446   4.205   0.757
 3311SOL    HW110832   3.472   4.251   0.672
 3311SOL    HW210833   3.487   4.252   0.834
 3312SOL     OW10834   3.951   3.847   5.661
 3312SOL    HW110835   4.010   3.856   5.580
 3312SOL    HW210836   3.988   3.903   5.735
 3313SOL     OW10837   0.909   6.497   4.045
 3313SOL    HW110838   0.899   6.588   4.085
 3313SOL    HW210839   0.880   6.499   3.949
 3314SOL     OW10840   2.429   1.480   2.326
 3314SOL    HW110841   2.349   1.496   2.269
 3314SOL    HW210842   2.510   1.517   2.281
 3315SOL     OW10843   0.302   4.171   4.630
 3315SOL    HW110844   0.394   4.143   4.606
 3315SOL    HW210845   0.237   4.136   4.563
 3316SOL     OW10846   4.587   0.983   5.067
 3316SOL    HW110847   4.659   0.974   4.997
 3316SOL    HW210848   4.511   0.922   5.044
 3317SOL     OW10849   5.277   2.660   2.092
 3317SOL    HW110850   5.334   2.741   2.104
 3317SOL    HW210851   5.295   2.595   2.167
 3318SOL     OW10852   1.459   1.764   0.966
 3318SOL    HW110853   1.527   1.702   0.926
 3318SOL    HW210854   1.392   1.711   1.019
 3319SOL     OW10855   5.584   1.072   3.878
 3319SOL    HW110856   5.669   1.080   3.930
 3319SOL    HW210857   5.510   1.045   3.940
 3320SOL     OW10858   6.131   0.805   0.117
 3320SOL    HW110859   6.077   0.864   0.057
 3320SOL    HW210860   6.198   0.755   0.062
 3321SOL     OW10861   5.580   1.827   0.484
 3321SOL    HW110862   5.576   1.927   0.484
 3321SOL    HW210863   5.670   1.797   0.518
 3322SOL     OW10864   6.936   2.703   1.309
 3322SOL    HW110865   6.849   2.708   1.259
 3322SOL    HW210866   7.011   2.731   1.249
 3323SOL     OW10867   2.709   3.060   0.009
 3323SOL    HW110868   2.624   3.026   6.986
 3323SOL    HW210869   2.717   3.027   0.103
 3324SOL     OW10870   3.945   5.068   6.036
 3324SOL    HW110871   3.910   5.047   6.127
 3324SOL    HW210872   3.948   4.984   5.981
 3325SOL     OW10873   0.161   3.950   0.151
 3325SOL    HW110874   0.158   3.977   0.055
 3325SOL    HW210875   0.090   4.000   0.201
 3326SOL     OW10876   4.950   1.963   1.788
 3326SOL    HW110877   4.912   1.885   1.739
 3326SOL    HW210878   4.952   1.944   1.886
 3327SOL     OW10879   3.183   5.402   2.057
 3327SOL    HW110880   3.248   5.474   2.081
 3327SOL    HW210881   3.102   5.443   2.014
 3328SOL     OW10882   4.009   1.921   0.822
 3328SOL    HW110883   4.071   1.880   0.889
 3328SOL    HW210884   4.059   1.942   0.738
 3329SOL     OW10885   5.890   0.496   5.156
 3329SOL    HW110886   5.988   0.506   5.172
 3329SOL    HW210887   5.851   0.435   5.225
 3330SOL     OW10888   6.306   3.497   1.505
 3330SOL    HW110889   6.392   3.526   1.463
 3330SOL    HW210890   6.230   3.538   1.455
 3331SOL     OW10891   2.094   2.808   1.689
 3331SOL    HW110892   2.135   2.779   1.603
 3331SOL    HW210893   2.014   2.865   1.671
 3332SOL     OW10894   5.869   5.877   0.210
 3332SOL    HW110895   5.814   5.905   0.131
 3332SOL    HW210896   5.930   5.802   0.183
 3333SOL     OW10897   3.944   5.915   6.406
 3333SOL    HW110898   4.000   5.995   6.387
 3333SOL    HW210899   3.847   5.941   6.402
 3334SOL     OW10900   3.229   3.630   1.255
 3334SOL    HW110901   3.184   3.541   1.257
 3334SOL    HW210902   3.173   3.694   1.201
 3335SOL     OW10903   4.833   5.159   6.014
 3335SOL    HW110904   4.736   5.136   5.999
 3335SOL    HW210905   4.873   5.093   6.078
 3336SOL     OW10906   3.155   5.379   4.798
 3336SOL    HW110907   3.105   5.347   4.718
 3336SOL    HW210908   3.189   5.299   4.849
 3337SOL     OW10909   3.104   3.249   1.956
 3337SOL    HW110910   3.027   3.273   1.896
 3337SOL    HW210911   3.105   3.150   1.970
 3338SOL     OW10912   6.079   2.870   1.119
 3338SOL    HW110913   5.992   2.825   1.137
 3338SOL    HW210914   6.150   2.802   1.102
 3339SOL     OW10915   6.582   0.220   6.781
 3339SOL    HW110916   6.498   0.248   6.829
 3339SOL    HW210917   6.569   0.128   6.744
 3340SOL     OW10918   3.794   0.630   0.880
 3340SOL    HW110919   3.846   0.581   0.810
 3340SOL    HW210920   3.699   0.638   0.851
 3341SOL     OW10921   0.870   5.986   4.092
 3341SOL    HW110922   0.962   5.962   4.123
 3341SOL    HW210923   0.834   6.060   4.149
 3342SOL     OW10924   2.452   6.861   4.436
 3342SOL    HW110925   2.356   6.849   4.465
 3342SOL    HW210926   2.512   6.823   4.506
 3343SOL     OW10927   4.824   2.948   0.810
 3343SOL    HW110928   4.816   2.895   0.895
 3343SOL    HW210929   4.823   2.886   0.732
 3344SOL     OW10930   6.364   3.326   4.741
 3344SOL    HW110931   6.367   3.335   4.841
 3344SOL    HW210932   6.271   3.345   4.709
 3345SOL     OW10933   1.338   3.871   5.271
 3345SOL    HW110934   1.247   3.902   5.242
 3345SOL    HW210935   1.352   3.893   5.367
 3346SOL     OW10936   1.565   0.847   1.118
 3346SOL    HW110937   1.631   0.777   1.093
 3346SOL    HW210938   1.520   0.881   1.035
 3347SOL     OW10939   0.748   4.481   3.957
 3347SOL    HW110940   0.821   4.536   4.000
 3347SOL    HW210941   0.778   4.450   3.867
 3348SOL     OW10942   3.132   3.031   3.077
 3348SOL    HW110943   3.107   3.080   3.161
 3348SOL    HW210944   3.062   2.962   3.056
 3349SOL     OW10945   0.615   4.835   4.394
 3349SOL    HW110946   0.643   4.743   4.366
 3349SOL    HW210947   0.593   4.835   4.491
 3350SOL     OW10948   1.112   2.223   5.728
 3350SOL    HW110949   1.064   2.247   5.813
 3350SOL    HW210950   1.205   2.193   5.751
 3351SOL     OW10951   5.320   6.977   2.660
 3351SOL    HW110952   5.228   7.003   2.632
 3351SOL    HW210953   5.316   6.932   2.750
 3352SOL     OW10954   0.248   3.273   0.617
 3352SOL    HW110955   0.288   3.185   0.593
 3352SOL    HW210956   0.299   3.313   0.694
 3353SOL     OW10957   1.424   6.350   2.406
 3353SOL    HW110958   1.440   6.410   2.327
 3353SOL    HW210959   1.356   6.392   2.467
 3354SOL     OW10960   5.551   2.684   4.018
 3354SOL    HW110961   5.602   2.665   4.102
 3354SOL    HW210962   5.616   2.700   3.944
 3355SOL     OW10963   1.485   1.508   0.168
 3355SOL    HW110964   1.565   1.506   0.228
 3355SOL    HW210965   1.494   1.584   0.103
 3356SOL     OW10966   2.107   3.518   6.587
 3356SOL    HW110967   2.013   3.508   6.556
 3356SOL    HW210968   2.167   3.536   6.509
 3357SOL     OW10969   2.725   4.687   1.735
 3357SOL    HW110970   2.772   4.649   1.815
 3357SOL    HW210971   2.657   4.621   1.702
 3358SOL     OW10972   4.851   0.307   1.222
 3358SOL    HW110973   4.789   0.317   1.145
 3358SOL    HW210974   4.942   0.339   1.196
 3359SOL     OW10975   6.615   0.319   3.698
 3359SOL    HW110976   6.542   0.259   3.665
 3359SOL    HW210977   6.643   0.290   3.789
 3360SOL     OW10978   0.315   1.149   0.262
 3360SOL    HW110979   0.333   1.073   0.324
 3360SOL    HW210980   0.313   1.116   0.168
 3361SOL     OW10981   0.608   4.674   2.639
 3361SOL    HW110982   0.679   4.620   2.684
 3361SOL    HW210983   0.597   4.761   2.687
 3362SOL     OW10984   4.079   1.605   3.931
 3362SOL    HW110985   4.017   1.663   3.986
 3362SOL    HW210986   4.025   1.546   3.872
 3363SOL     OW10987   0.837   0.098   0.038
 3363SOL    HW110988   0.865   0.111   0.133
 3363SOL    HW210989   0.917   0.074   7.000
 3364SOL     OW10990   1.222   4.221   4.359
 3364SOL    HW110991   1.293   4.281   4.394
 3364SOL    HW210992   1.187   4.164   4.433
 3365SOL     OW10993   0.362   2.497   4.950
 3365SOL    HW110994   0.350   2.429   5.023
 3365SOL    HW210995   0.330   2.586   4.982
 3366SOL     OW10996   6.251   0.454   6.201
 3366SOL    HW110997   6.164   0.472   6.246
 3366SOL    HW210998   6.248   0.491   6.108
 3367SOL     OW10999   2.557   2.921   1.329
 3367SOL    HW111000   2.551   2.852   1.402
 3367SOL    HW211001   2.628   2.895   1.265
 3368SOL     OW11002   0.592   5.901   6.297
 3368SOL    HW111003   0.557   5.924   6.388
 3368SOL    HW211004   0.628   5.984   6.253
 3369SOL     OW11005   3.642   2.333   5.797
 3369SOL    HW111006   3.663   2.290   5.709
 3369SOL    HW211007   3.614   2.428   5.783
 3370SOL     OW11008   6.881   6.346   5.827
 3370SOL    HW111009   6.894   6.440   5.794
 3370SOL    HW211010   6.837   6.291   5.757
 3371SOL     OW11011   0.549   4.126   2.558
 3371SOL    HW111012   0.634   4.164   2.521
 3371SOL    HW211013   0.567   4.033   2.592
 3372SOL     OW11014   0.633   1.200   1.632
 3372SOL    HW111015   0.651   1.196   1.731
 3372SOL    HW211016   0.534   1.197   1.617
 3373SOL     OW11017   6.344   1.219   2.631
 3373SOL    HW111018   6.273   1.169   2.681
 3373SOL    HW211019   6.340   1.316   2.656
 3374SOL     OW11020   2.563   5.817   4.838
 3374SOL    HW111021   2.480   5.762   4.843
 3374SOL    HW211022   2.623   5.781   4.766
 3375SOL     OW11023   4.820   4.932   6.190
 3375SOL    HW111024   4.897   4.885   6.234
 3375SOL    HW211025   4.745   4.942   6.255
 3376SOL     OW11026   3.878   3.710   2.897
 3376SOL    HW111027   3.893   3.646   2.972
 3376SOL    HW211028   3.915   3.799   2.921
 3377SOL     OW11029   0.017   6.216   4.540
 3377SOL    HW111030   0.013   6.298   4.597
 3377SOL    HW211031   0.112   6.199   4.512
 3378SOL     OW11032   6.345   0.748   0.760
 3378SOL    HW111033   6.408   0.757   0.837
 3378SOL    HW211034   6.358   0.825   0.698
 3379SOL     OW11035   6.913   5.347   6.253
 3379SOL    HW111036   6.873   5.396   6.175
 3379SOL    HW211037   6.908   5.249   6.237
 3380SOL     OW11038   5.800   6.359   6.030
 3380SOL    HW111039   5.772   6.290   6.096
 3380SOL    HW211040   5.719   6.408   5.997
 3381SOL     OW11041   1.284   2.573   1.048
 3381SOL    HW111042   1.322   2.485   1.075
 3381SOL    HW211043   1.347   2.620   0.986
 3382SOL     OW11044   0.867   0.912   0.478
 3382SOL    HW111045   0.939   0.848   0.451
 3382SOL    HW211046   0.824   0.881   0.562
 3383SOL     OW11047   4.326   5.476   3.022
 3383SOL    HW111048   4.234   5.510   3.005
 3383SOL    HW211049   4.323   5.405   3.092
 3384SOL     OW11050   2.772   3.364   5.250
 3384SOL    HW111051   2.708   3.437   5.275
 3384SOL    HW211052   2.755   3.283   5.306
 3385SOL     OW11053   0.114   3.939   3.686
 3385SOL    HW111054   0.139   3.845   3.661
 3385SOL    HW211055   0.198   3.991   3.706
 3386SOL     OW11056   6.398   3.625   6.238
 3386SOL    HW111057   6.343   3.625   6.322
 3386SOL    HW211058   6.491   3.655   6.258
 3387SOL     OW11059   2.876   1.177   2.899
 3387SOL    HW111060   2.885   1.159   2.801
 3387SOL    HW211061   2.876   1.090   2.949
 3388SOL     OW11062   5.814   3.235   1.655
 3388SOL    HW111063   5.804   3.214   1.752
 3388SOL    HW211064   5.907   3.266   1.637
 3389SOL     OW11065   4.785   5.168   4.857
 3389SOL    HW111066   4.689   5.153   4.833
 3389SOL    HW211067   4.795   5.258   4.899
 3390SOL     OW11068   5.661   4.767   5.751
 3390SOL    HW111069   5.640   4.715   5.668
 3390SOL    HW211070   5.693   4.858   5.725
 3391SOL     OW11071   5.480   2.686   4.635
 3391SOL    HW111072   5.400   2.629   4.615
 3391SOL    HW211073   5.563   2.633   4.614
 3392SOL     OW11074   2.587   0.306   3.766
 3392SOL    HW111075   2.530   0.375   3.720
 3392SOL    HW211076   2.539   0.273   3.848
 3393SOL     OW11077   0.256   6.456   0.461
 3393SOL    HW111078   0.305   6.405   0.532
 3393SOL    HW211079   0.169   6.489   0.499
 3394SOL     OW11080   5.799   3.065   0.969
 3394SOL    HW111081   5.893   3.099   0.960
 3394SOL    HW211082   5.772   3.016   0.886
 3395SOL     OW11083   5.996   3.389   3.552
 3395SOL    HW111084   6.016   3.315   3.488
 3395SOL    HW211085   5.909   3.432   3.527
 3396SOL     OW11086   6.085   1.995   3.378
 3396SOL    HW111087   6.030   1.916   3.404
 3396SOL    HW211088   6.039   2.045   3.305
 3397SOL     OW11089   2.849   1.384   5.549
 3397SOL    HW111090   2.824   1.334   5.466
 3397SOL    HW211091   2.926   1.339   5.594
 3398SOL     OW11092   1.579   6.800   3.849
 3398SOL    HW111093   1.481   6.823   3.854
 3398SOL    HW211094   1.589   6.708   3.812
 3399SOL     OW11095   5.351   4.591   5.099
 3399SOL    HW111096   5.305   4.506   5.125
 3399SOL    HW211097   5.349   4.601   5.000
 3400SOL     OW11098   4.820   1.636   5.882
 3400SOL    HW111099   4.901   1.672   5.837
 3400SOL    HW211100   4.738   1.674   5.837
 3401SOL     OW11101   6.765   3.426   1.141
 3401SOL    HW111102   6.736   3.514   1.104
 3401SOL    HW211103   6.778   3.361   1.066
 3402SOL     OW11104   4.205   6.204   0.727
 3402SOL    HW111105   4.160   6.289   0.699
 3402SOL    HW211106   4.298   6.224   0.758
 3403SOL     OW11107   4.032   0.245   5.145
 3403SOL    HW111108   4.026   0.340   5.116
 3403SOL    HW211109   3.989   0.186   5.076
 3404SOL     OW11110   5.675   1.703   6.638
 3404SOL    HW111111   5.638   1.655   6.718
 3404SOL    HW211112   5.734   1.641   6.586
 3405SOL     OW11113   6.411   4.307   4.333
 3405SOL    HW111114   6.311   4.302   4.336
 3405SOL    HW211115   6.449   4.216   4.350
 3406SOL     OW11116   0.749   4.264   2.458
 3406SOL    HW111117   0.814   4.340   2.464
 3406SOL    HW211118   0.793   4.185   2.416
 3407SOL     OW11119   1.454   5.298   0.016
 3407SOL    HW111120   1.495   5.227   0.074
 3407SOL    HW211121   1.518   5.323   6.961
 3408SOL     OW11122   5.090   3.968   4.794
 3408SOL    HW111123   5.124   3.929   4.709
 3408SOL    HW211124   5.000   3.929   4.815
 3409SOL     OW11125   3.291   6.307   6.268
 3409SOL    HW111126   3.384   6.340   6.282
 3409SOL    HW211127   3.278   6.281   6.172
 3410SOL     OW11128   6.819   6.026   0.052
 3410SOL    HW111129   6.860   6.047   0.141
 3410SOL    HW211130   6.785   5.932   0.053
 3411SOL     OW11131   0.586   2.635   2.357
 3411SOL    HW111132   0.584   2.707   2.289
 3411SOL    HW211133   0.667   2.646   2.415
 3412SOL     OW11134   4.423   2.510   6.064
 3412SOL    HW111135   4.444   2.460   6.149
 3412SOL    HW211136   4.324   2.512   6.051
 3413SOL     OW11137   5.295   0.669   2.449
 3413SOL    HW111138   5.347   0.732   2.392
 3413SOL    HW211139   5.202   0.704   2.460
 3414SOL     OW11140   2.054   1.236   6.018
 3414SOL    HW111141   2.135   1.178   6.014
 3414SOL    HW211142   2.041   1.282   5.931
 3415SOL     OW11143   1.585   4.281   4.825
 3415SOL    HW111144   1.621   4.369   4.795
 3415SOL    HW211145   1.594   4.274   4.925
 3416SOL     OW11146   0.108   5.622   0.162
 3416SOL    HW111147   0.203   5.599   0.183
 3416SOL    HW211148   0.094   5.617   0.063
 3417SOL     OW11149   0.711   5.837   3.759
 3417SOL    HW111150   0.676   5.819   3.667
 3417SOL    HW211151   0.790   5.898   3.754
 3418SOL     OW11152   4.066   6.879   5.389
 3418SOL    HW111153   4.131   6.934   5.441
 3418SOL    HW211154   4.094   6.874   5.294
 3419SOL     OW11155   3.886   5.358   4.780
 3419SOL    HW111156   3.789   5.345   4.799
 3419SOL    HW211157   3.903   5.454   4.758
 3420SOL     OW11158   5.277   3.323   3.340
 3420SOL    HW111159   5.231   3.350   3.425
 3420SOL    HW211160   5.322   3.234   3.354
 3421SOL     OW11161   5.850   0.744   6.133
 3421SOL    HW111162   5.800   0.708   6.211
 3421SOL    HW211163   5.851   0.844   6.137
 3422SOL     OW11164   2.082   6.502   1.045
 3422SOL    HW111165   2.047   6.591   1.071
 3422SOL    HW211166   2.011   6.450   0.999
 3423SOL     OW11167   2.563   6.544   0.583
 3423SOL    HW111168   2.605   6.593   0.659
 3423SOL    HW211169   2.576   6.596   0.499
 3424SOL     OW11170   2.829   6.836   2.277
 3424SOL    HW111171   2.819   6.821   2.376
 3424SOL    HW211172   2.764   6.778   2.228
 3425SOL     OW11173   5.690   4.284   2.386
 3425SOL    HW111174   5.759   4.211   2.381
 3425SOL    HW211175   5.604   4.245   2.419
 3426SOL     OW11176   2.984   3.000   0.011
 3426SOL    HW111177   2.887   3.005   7.006
 3426SOL    HW211178   3.008   3.074   0.074
 3427SOL     OW11179   6.827   6.759   6.839
 3427SOL    HW111180   6.789   6.769   6.747
 3427SOL    HW211181   6.912   6.811   6.845
 3428SOL     OW11182   3.339   4.990   1.055
 3428SOL    HW111183   3.366   4.917   1.118
 3428SOL    HW211184   3.259   5.038   1.093
 3429SOL     OW11185   0.782   1.340   6.728
 3429SOL    HW111186   0.854   1.280   6.693
 3429SOL    HW211187   0.748   1.303   6.814
 3430SOL     OW11188   0.140   6.521   5.031
 3430SOL    HW111189   0.187   6.435   5.014
 3430SOL    HW211190   0.077   6.510   5.107
 3431SOL     OW11191   2.013   6.867   1.059
 3431SOL    HW111192   1.926   6.830   1.026
 3431SOL    HW211193   2.043   6.816   1.140
 3432SOL     OW11194   2.364   2.843   6.506
 3432SOL    HW111195   2.413   2.928   6.529
 3432SOL    HW211196   2.380   2.775   6.577
 3433SOL     OW11197   1.013   6.780   6.504
 3433SOL    HW111198   1.051   6.872   6.493
 3433SOL    HW211199   1.018   6.753   6.600
 3434SOL     OW11200   3.966   2.198   0.762
 3434SOL    HW111201   3.905   2.199   0.683
 3434SOL    HW211202   3.952   2.114   0.814
 3435SOL     OW11203   1.277   1.553   1.039
 3435SOL    HW111204   1.287   1.602   1.126
 3435SOL    HW211205   1.234   1.464   1.056
 3436SOL     OW11206   3.458   6.503   5.829
 3436SOL    HW111207   3.402   6.586   5.832
 3436SOL    HW211208   3.554   6.528   5.822
 3437SOL     OW11209   3.305   0.607   6.154
 3437SOL    HW111210   3.358   0.562   6.227
 3437SOL    HW211211   3.209   0.582   6.163
 3438SOL     OW11212   1.777   2.777   0.499
 3438SOL    HW111213   1.750   2.681   0.492
 3438SOL    HW211214   1.860   2.785   0.554
 3439SOL     OW11215   2.160   6.172   5.608
 3439SOL    HW111216   2.248   6.137   5.576
 3439SOL    HW211217   2.164   6.272   5.613
 3440SOL     OW11218   4.195   3.317   1.872
 3440SOL    HW111219   4.171   3.411   1.898
 3440SOL    HW211220   4.174   3.255   1.948
 3441SOL     OW11221   4.996   0.153   3.705
 3441SOL    HW111222   4.927   0.185   3.770
 3441SOL    HW211223   4.958   0.151   3.613
 3442SOL     OW11224   2.778   4.758   2.810
 3442SOL    HW111225   2.843   4.823   2.851
 3442SOL    HW211226   2.763   4.682   2.873
 3443SOL     OW11227   5.419   0.280   1.966
 3443SOL    HW111228   5.504   0.250   1.923
 3443SOL    HW211229   5.343   0.267   1.902
 3444SOL     OW11230   4.919   5.180   0.314
 3444SOL    HW111231   4.845   5.232   0.356
 3444SOL    HW211232   4.882   5.123   0.240
 3445SOL     OW11233   6.073   5.458   4.561
 3445SOL    HW111234   6.076   5.452   4.462
 3445SOL    HW211235   6.121   5.540   4.592
 3446SOL     OW11236   6.012   0.667   2.504
 3446SOL    HW111237   6.063   0.638   2.423
 3446SOL    HW211238   5.999   0.766   2.502
 3447SOL     OW11239   5.089   5.228   1.220
 3447SOL    HW111240   5.160   5.293   1.197
 3447SOL    HW211241   5.128   5.153   1.273
 3448SOL     OW11242   2.962   0.285   0.565
 3448SOL    HW111243   3.015   0.300   0.648
 3448SOL    HW211244   2.969   0.365   0.506
 3449SOL     OW11245   6.470   6.771   3.675
 3449SOL    HW111246   6.528   6.737   3.749
 3449SOL    HW211247   6.463   6.702   3.603
 3450SOL     OW11248   0.311   3.132   6.522
 3450SOL    HW111249   0.350   3.224   6.526
 3450SOL    HW211250   0.232   3.127   6.582
 3451SOL     OW11251   1.240   5.706   2.947
 3451SOL    HW111252   1.306   5.781   2.938
 3451SOL    HW211253   1.147   5.743   2.943
 3452SOL     OW11254   5.981   1.806   6.557
 3452SOL    HW111255   5.956   1.726   6.503
 3452SOL    HW211256   5.945   1.796   6.650
 3453SOL     OW11257   0.047   6.222   6.282
 3453SOL    HW111258   0.109   6.154   6.322
 3453SOL    HW211259   0.060   6.225   6.183
 3454SOL     OW11260   1.740   0.789   6.699
 3454SOL    HW111261   1.807   0.847   6.746
 3454SOL    HW211262   1.783   0.749   6.618
 3455SOL     OW11263   2.243   3.040   4.377
 3455SOL    HW111264   2.274   2.973   4.445
 3455SOL    HW211265   2.216   3.124   4.423
 3456SOL     OW11266   5.159   5.890   2.357
 3456SOL    HW111267   5.234   5.833   2.391
 3456SOL    HW211268   5.083   5.887   2.421
 3457SOL     OW11269   2.411   5.772   4.065
 3457SOL    HW111270   2.490   5.833   4.060
 3457SOL    HW211271   2.423   5.697   3.999
 3458SOL     OW11272   4.447   0.002   0.589
 3458SOL    HW111273   4.350   7.017   0.611
 3458SOL    HW211274   4.461   6.981   0.497
 3459SOL     OW11275   6.277   3.983   2.606
 3459SOL    HW111276   6.238   3.957   2.518
 3459SOL    HW211277   6.314   3.902   2.652
 3460SOL     OW11278   2.443   3.225   0.307
 3460SOL    HW111279   2.459   3.173   0.224
 3460SOL    HW211280   2.530   3.237   0.356
 3461SOL     OW11281   4.425   6.183   4.555
 3461SOL    HW111282   4.426   6.131   4.470
 3461SOL    HW211283   4.473   6.270   4.541
 3462SOL     OW11284   0.302   3.399   2.263
 3462SOL    HW111285   0.347   3.396   2.353
 3462SOL    HW211286   0.204   3.412   2.275
 3463SOL     OW11287   1.204   3.299   3.319
 3463SOL    HW111288   1.141   3.221   3.324
 3463SOL    HW211289   1.266   3.296   3.397
 3464SOL     OW11290   6.771   2.695   6.610
 3464SOL    HW111291   6.767   2.726   6.704
 3464SOL    HW211292   6.775   2.595   6.608
 3465SOL     OW11293   0.626   2.823   2.148
 3465SOL    HW111294   0.568   2.809   2.068
 3465SOL    HW211295   0.703   2.882   2.124
 3466SOL     OW11296   6.740   4.797   6.677
 3466SOL    HW111297   6.646   4.778   6.705
 3466SOL    HW211298   6.748   4.893   6.648
 3467SOL     OW11299   2.126   1.695   1.133
 3467SOL    HW111300   2.175   1.755   1.196
 3467SOL    HW211301   2.070   1.631   1.185
 3468SOL     OW11302   5.423   0.755   2.813
 3468SOL    HW111303   5.518   0.729   2.830
 3468SOL    HW211304   5.378   0.683   2.761
 3469SOL     OW11305   4.445   0.616   4.074
 3469SOL    HW111306   4.351   0.608   4.042
 3469SOL    HW211307   4.476   0.711   4.062
 3470SOL     OW11308   0.101   2.362   1.776
 3470SOL    HW111309   0.106   2.433   1.706
 3470SOL    HW211310   0.182   2.369   1.835
 3471SOL     OW11311   4.621   4.341   4.481
 3471SOL    HW111312   4.607   4.394   4.565
 3471SOL    HW211313   4.649   4.403   4.407
 3472SOL     OW11314   2.740   1.404   2.374
 3472SOL    HW111315   2.697   1.464   2.307
 3472SOL    HW211316   2.669   1.353   2.423
 3473SOL     OW11317   0.193   2.723   2.247
 3473SOL    HW111318   0.131   2.677   2.183
 3473SOL    HW211319   0.222   2.811   2.209
 3474SOL     OW11320   0.340   4.586   2.625
 3474SOL    HW111321   0.428   4.605   2.668
 3474SOL    HW211322   0.355   4.530   2.544
 3475SOL     OW11323   1.313   4.104   3.623
 3475SOL    HW111324   1.326   4.080   3.526
 3475SOL    HW211325   1.215   4.119   3.639
 3476SOL     OW11326   2.049   2.016   2.520
 3476SOL    HW111327   1.975   2.027   2.586
 3476SOL    HW211328   2.052   1.921   2.489
 3477SOL     OW11329   1.901   4.917   1.271
 3477SOL    HW111330   1.831   4.972   1.225
 3477SOL    HW211331   1.978   4.976   1.297
 3478SOL     OW11332   2.396   5.591   5.940
 3478SOL    HW111333   2.360   5.556   6.027
 3478SOL    HW211334   2.464   5.662   5.959
 3479SOL     OW11335   1.133   0.871   2.779
 3479SOL    HW111336   1.088   0.960   2.770
 3479SOL    HW211337   1.196   0.858   2.702
 3480SOL     OW11338   6.583   5.512   4.831
 3480SOL    HW111339   6.668   5.472   4.865
 3480SOL    HW211340   6.592   5.611   4.826
 3481SOL     OW11341   5.216   0.332   0.090
 3481SOL    HW111342   5.171   0.316   0.002
 3481SOL    HW211343   5.240   0.245   0.132
 3482SOL     OW11344   6.410   1.023   2.314
 3482SOL    HW111345   6.476   1.060   2.248
 3482SOL    HW211346   6.449   1.025   2.406
 3483SOL     OW11347   5.116   2.047   1.511
 3483SOL    HW111348   5.168   1.963   1.497
 3483SOL    HW211349   5.038   2.028   1.571
 3484SOL     OW11350   0.787   2.655   0.452
 3484SOL    HW111351   0.761   2.597   0.375
 3484SOL    HW211352   0.782   2.751   0.425
 3485SOL     OW11353   1.657   1.714   4.469
 3485SOL    HW111354   1.606   1.700   4.384
 3485SOL    HW211355   1.670   1.625   4.515
 3486SOL     OW11356   2.367   0.388   3.240
 3486SOL    HW111357   2.447   0.328   3.232
 3486SOL    HW211358   2.305   0.351   3.310
 3487SOL     OW11359   6.873   1.962   0.416
 3487SOL    HW111360   6.861   1.975   0.317
 3487SOL    HW211361   6.795   2.001   0.464
 3488SOL     OW11362   6.285   0.598   4.750
 3488SOL    HW111363   6.354   0.557   4.692
 3488SOL    HW211364   6.228   0.527   4.791
 3489SOL     OW11365   4.081   0.564   1.972
 3489SOL    HW111366   4.109   0.470   1.993
 3489SOL    HW211367   4.053   0.610   2.056
 3490SOL     OW11368   4.255   3.820   1.206
 3490SOL    HW111369   4.205   3.799   1.123
 3490SOL    HW211370   4.308   3.903   1.193
 3491SOL     OW11371   4.813   2.416   5.682
 3491SOL    HW111372   4.755   2.415   5.601
 3491SOL    HW211373   4.755   2.410   5.764
 3492SOL     OW11374   6.557   4.453   0.732
 3492SOL    HW111375   6.629   4.522   0.731
 3492SOL    HW211376   6.586   4.373   0.680
 3493SOL     OW11377   4.848   4.226   4.901
 3493SOL    HW111378   4.763   4.279   4.897
 3493SOL    HW211379   4.841   4.155   4.971
 3494SOL     OW11380   3.067   1.031   2.121
 3494SOL    HW111381   3.005   1.030   2.042
 3494SOL    HW211382   3.161   1.019   2.089
 3495SOL     OW11383   5.871   4.885   1.361
 3495SOL    HW111384   5.935   4.821   1.318
 3495SOL    HW211385   5.896   4.978   1.336
 3496SOL     OW11386   6.179   5.245   0.615
 3496SOL    HW111387   6.169   5.277   0.709
 3496SOL    HW211388   6.274   5.257   0.585
 3497SOL     OW11389   2.341   1.064   3.717
 3497SOL    HW111390   2.349   1.114   3.631
 3497SOL    HW211391   2.372   1.122   3.792
 3498SOL     OW11392   3.188   1.726   1.057
 3498SOL    HW111393   3.118   1.667   1.017
 3498SOL    HW211394   3.147   1.811   1.088
 3499SOL     OW11395   5.830   3.892   4.455
 3499SOL    HW111396   5.904   3.958   4.444
 3499SOL    HW211397   5.832   3.826   4.380
 3500SOL     OW11398   2.155   3.280   4.494
 3500SOL    HW111399   2.077   3.247   4.546
 3500SOL    HW211400   2.143   3.378   4.475
 3501SOL     OW11401   2.682   5.685   5.732
 3501SOL    HW111402   2.672   5.723   5.824
 3501SOL    HW211403   2.634   5.597   5.728
 3502SOL     OW11404   6.710   2.315   1.724
 3502SOL    HW111405   6.772   2.305   1.646
 3502SOL    HW211406   6.663   2.403   1.719
 3503SOL     OW11407   5.972   5.968   4.711
 3503SOL    HW111408   5.985   5.994   4.806
 3503SOL    HW211409   6.004   6.042   4.651
 3504SOL     OW11410   2.571   0.857   2.083
 3504SOL    HW111411   2.501   0.827   2.019
 3504SOL    HW211412   2.657   0.870   2.034
 3505SOL     OW11413   5.604   4.382   5.779
 3505SOL    HW111414   5.673   4.318   5.813
 3505SOL    HW211415   5.578   4.445   5.852
 3506SOL     OW11416   5.134   4.868   5.422
 3506SOL    HW111417   5.208   4.904   5.478
 3506SOL    HW211418   5.055   4.846   5.480
 3507SOL     OW11419   2.531   0.749   1.032
 3507SOL    HW111420   2.493   0.834   1.067
 3507SOL    HW211421   2.620   0.767   0.990
 3508SOL     OW11422   2.072   2.144   6.063
 3508SOL    HW111423   1.986   2.183   6.032
 3508SOL    HW211424   2.143   2.158   5.994
 3509SOL     OW11425   5.057   0.512   6.538
 3509SOL    HW111426   5.091   0.567   6.614
 3509SOL    HW211427   5.127   0.447   6.510
 3510SOL     OW11428   1.410   1.204   2.065
 3510SOL    HW111429   1.365   1.266   2.000
 3510SOL    HW211430   1.507   1.196   2.041
 3511SOL     OW11431   2.153   4.742   1.505
 3511SOL    HW111432   2.073   4.734   1.445
 3511SOL    HW211433   2.124   4.732   1.600
 3512SOL     OW11434   0.864   4.533   0.295
 3512SOL    HW111435   0.825   4.454   0.343
 3512SOL    HW211436   0.800   4.609   0.297
 3513SOL     OW11437   5.268   2.285   0.063
 3513SOL    HW111438   5.242   2.366   0.010
 3513SOL    HW211439   5.367   2.284   0.076
 3514SOL     OW11440   0.103   1.538   1.756
 3514SOL    HW111441   0.139   1.528   1.849
 3514SOL    HW211442   0.147   1.615   1.711
 3515SOL     OW11443   4.245   5.718   3.348
 3515SOL    HW111444   4.233   5.814   3.375
 3515SOL    HW211445   4.267   5.713   3.251
 3516SOL     OW11446   5.154   6.946   0.917
 3516SOL    HW111447   5.159   6.958   0.817
 3516SOL    HW211448   5.058   6.945   0.945
 3517SOL     OW11449   1.161   2.303   1.331
 3517SOL    HW111450   1.107   2.326   1.250
 3517SOL    HW211451   1.194   2.387   1.373
 3518SOL     OW11452   5.236   3.056   4.275
 3518SOL    HW111453   5.147   3.014   4.258
 3518SOL    HW211454   5.283   3.007   4.348
 3519SOL     OW11455   1.542   0.934   6.390
 3519SOL    HW111456   1.631   0.969   6.363
 3519SOL    HW211457   1.540   0.834   6.379
 3520SOL     OW11458   3.108   5.492   6.796
 3520SOL    HW111459   3.099   5.591   6.792
 3520SOL    HW211460   3.024   5.450   6.762
 3521SOL     OW11461   4.883   2.584   0.056
 3521SOL    HW111462   4.910   2.577   6.977
 3521SOL    HW211463   4.908   2.500   0.104
 3522SOL     OW11464   6.989   4.751   1.173
 3522SOL    HW111465   0.011   4.771   1.083
 3522SOL    HW211466   6.937   4.666   1.168
 3523SOL     OW11467   1.351   4.654   6.135
 3523SOL    HW111468   1.276   4.588   6.133
 3523SOL    HW211469   1.397   4.649   6.223
 3524SOL     OW11470   4.712   1.499   2.111
 3524SOL    HW111471   4.623   1.464   2.082
 3524SOL    HW211472   4.727   1.589   2.071
 3525SOL     OW11473   0.316   4.576   3.170
 3525SOL    HW111474   0.274   4.665   3.187
 3525SOL    HW211475   0.332   4.530   3.257
 3526SOL     OW11476   2.161   6.700   4.005
 3526SOL    HW111477   2.220   6.670   4.080
 3526SOL    HW211478   2.171   6.637   3.928
 3527SOL     OW11479   5.458   3.345   6.315
 3527SOL    HW111480   5.478   3.324   6.411
 3527SOL    HW211481   5.433   3.442   6.307
 3528SOL     OW11482   1.153   6.264   5.421
 3528SOL    HW111483   1.247   6.283   5.392
 3528SOL    HW211484   1.153   6.186   5.483
 3529SOL     OW11485   3.945   0.655   7.009
 3529SOL    HW111486   4.021   0.608   6.965
 3529SOL    HW211487   3.900   0.715   6.942
 3530SOL     OW11488   6.770   5.092   2.251
 3530SOL    HW111489   6.677   5.066   2.225
 3530SOL    HW211490   6.806   5.157   2.184
 3531SOL     OW11491   5.395   3.147   0.446
 3531SOL    HW111492   5.352   3.057   0.446
 3531SOL    HW211493   5.377   3.192   0.358
 3532SOL     OW11494   2.759   0.444   1.979
 3532SOL    HW111495   2.815   0.389   1.916
 3532SOL    HW211496   2.678   0.392   2.006
 3533SOL     OW11497   1.399   1.826   2.798
 3533SOL    HW111498   1.397   1.926   2.789
 3533SOL    HW211499   1.318   1.797   2.849
 3534SOL     OW11500   6.528   1.752   0.730
 3534SOL    HW111501   6.455   1.800   0.682
 3534SOL    HW211502   6.556   1.672   0.676
 3535SOL     OW11503   1.496   5.967   0.439
 3535SOL    HW111504   1.484   6.002   0.346
 3535SOL    HW211505   1.421   5.904   0.460
 3536SOL     OW11506   2.752   1.850   3.085
 3536SOL    HW111507   2.760   1.843   2.985
 3536SOL    HW211508   2.841   1.875   3.124
 3537SOL     OW11509   3.346   6.517   2.105
 3537SOL    HW111510   3.286   6.444   2.072
 3537SOL    HW211511   3.309   6.555   2.190
 3538SOL     OW11512   1.625   6.824   6.279
 3538SOL    HW111513   1.536   6.871   6.275
 3538SOL    HW211514   1.634   6.765   6.199
 3539SOL     OW11515   4.465   3.143   5.825
 3539SOL    HW111516   4.375   3.169   5.860
 3539SOL    HW211517   4.469   3.044   5.814
 3540SOL     OW11518   2.351   2.145   5.302
 3540SOL    HW111519   2.267   2.157   5.250
 3540SOL    HW211520   2.376   2.233   5.344
 3541SOL     OW11521   1.924   2.611   6.211
 3541SOL    HW111522   1.894   2.641   6.121
 3541SOL    HW211523   2.017   2.642   6.228
 3542SOL     OW11524   1.802   5.393   2.937
 3542SOL    HW111525   1.855   5.393   3.022
 3542SOL    HW211526   1.823   5.310   2.885
 3543SOL     OW11527   0.920   2.386   4.670
 3543SOL    HW111528   0.980   2.314   4.635
 3543SOL    HW211529   0.972   2.470   4.684
 3544SOL     OW11530   2.622   4.185   6.481
 3544SOL    HW111531   2.697   4.127   6.512
 3544SOL    HW211532   2.651   4.238   6.401
 3545SOL     OW11533   4.155   5.715   0.464
 3545SOL    HW111534   4.104   5.653   0.524
 3545SOL    HW211535   4.155   5.678   0.371
 3546SOL     OW11536   1.435   4.363   4.423
 3546SOL    HW111537   1.467   4.455   4.404
 3546SOL    HW211538   1.509   4.297   4.406
 3547SOL     OW11539   6.683   4.677   4.066
 3547SOL    HW111540   6.767   4.688   4.013
 3547SOL    HW211541   6.607   4.722   4.019
 3548SOL     OW11542   5.588   1.625   5.863
 3548SOL    HW111543   5.677   1.664   5.839
 3548SOL    HW211544   5.526   1.698   5.892
 3549SOL     OW11545   6.662   5.268   5.824
 3549SOL    HW111546   6.729   5.297   5.755
 3549SOL    HW211547   6.701   5.196   5.880
 3550SOL     OW11548   6.430   2.452   2.812
 3550SOL    HW111549   6.363   2.511   2.856
 3550SOL    HW211550   6.440   2.367   2.863
 3551SOL     OW11551   3.777   0.861   2.069
 3551SOL    HW111552   3.776   0.885   1.972
 3551SOL    HW211553   3.715   0.784   2.085
 3552SOL     OW11554   5.504   6.237   2.455
 3552SOL    HW111555   5.506   6.241   2.555
 3552SOL    HW211556   5.423   6.185   2.426
 3553SOL     OW11557   4.550   4.472   1.030
 3553SOL    HW111558   4.615   4.504   1.099
 3553SOL    HW211559   4.466   4.526   1.037
 3554SOL     OW11560   4.963   2.532   0.680
 3554SOL    HW111561   4.884   2.483   0.718
 3554SOL    HW211562   5.005   2.476   0.608
 3555SOL     OW11563   1.335   4.274   4.109
 3555SOL    HW111564   1.287   4.231   4.185
 3555SOL    HW211565   1.424   4.231   4.096
 3556SOL     OW11566   4.242   1.548   3.549
 3556SOL    HW111567   4.271   1.456   3.525
 3556SOL    HW211568   4.284   1.576   3.636
 3557SOL     OW11569   0.718   0.216   4.195
 3557SOL    HW111570   0.629   0.195   4.154
 3557SOL    HW211571   0.708   0.222   4.294
 3558SOL     OW11572   1.597   6.314   1.399
 3558SOL    HW111573   1.528   6.385   1.389
 3558SOL    HW211574   1.684   6.355   1.427
 3559SOL     OW11575   0.074   6.314   5.280
 3559SOL    HW111576   0.082   6.250   5.356
 3559SOL    HW211577   0.163   6.358   5.264
 3560SOL     OW11578   0.541   5.701   1.568
 3560SOL    HW111579   0.566   5.762   1.494
 3560SOL    HW211580   0.497   5.619   1.531
 3561SOL     OW11581   4.017   4.720   5.286
 3561SOL    HW111582   3.937   4.725   5.346
 3561SOL    HW211583   4.052   4.627   5.285
 3562SOL     OW11584   5.095   0.852   3.012
 3562SOL    HW111585   5.195   0.845   3.005
 3562SOL    HW211586   5.053   0.819   2.928
 3563SOL     OW11587   5.617   2.081   6.917
 3563SOL    HW111588   5.609   1.993   6.964
 3563SOL    HW211589   5.605   2.067   6.819
 3564SOL     OW11590   1.486   4.628   4.001
 3564SOL    HW111591   1.456   4.532   4.007
 3564SOL    HW211592   1.464   4.664   3.911
 3565SOL     OW11593   3.267   5.634   5.027
 3565SOL    HW111594   3.173   5.629   4.996
 3565SOL    HW211595   3.304   5.541   5.038
 3566SOL     OW11596   6.379   3.458   5.873
 3566SOL    HW111597   6.415   3.413   5.954
 3566SOL    HW211598   6.283   3.432   5.860
 3567SOL     OW11599   0.344   3.214   0.165
 3567SOL    HW111600   0.427   3.222   0.112
 3567SOL    HW211601   0.318   3.303   0.202
 3568SOL     OW11602   4.687   5.399   4.094
 3568SOL    HW111603   4.785   5.409   4.112
 3568SOL    HW211604   4.635   5.455   4.159
 3569SOL     OW11605   2.686   2.095   6.043
 3569SOL    HW111606   2.779   2.104   6.005
 3569SOL    HW211607   2.622   2.143   5.984
 3570SOL     OW11608   5.013   0.568   5.005
 3570SOL    HW111609   5.056   0.502   4.944
 3570SOL    HW211610   5.083   0.612   5.061
 3571SOL     OW11611   1.505   0.194   5.224
 3571SOL    HW111612   1.546   0.113   5.268
 3571SOL    HW211613   1.532   0.276   5.274
 3572SOL     OW11614   5.615   3.221   3.048
 3572SOL    HW111615   5.676   3.153   3.090
 3572SOL    HW211616   5.617   3.305   3.102
 3573SOL     OW11617   6.516   4.127   3.166
 3573SOL    HW111618   6.460   4.163   3.091
 3573SOL    HW211619   6.586   4.066   3.129
 3574SOL     OW11620   0.666   2.836   1.057
 3574SOL    HW111621   0.603   2.802   1.127
 3574SOL    HW211622   0.628   2.818   0.967
 3575SOL     OW11623   5.239   5.795   3.169
 3575SOL    HW111624   5.192   5.706   3.167
 3575SOL    HW211625   5.241   5.828   3.264
 3576SOL     OW11626   0.866   2.184   6.741
 3576SOL    HW111627   0.819   2.169   6.828
 3576SOL    HW211628   0.800   2.176   6.666
 3577SOL     OW11629   1.384   2.741   6.778
 3577SOL    HW111630   1.382   2.840   6.766
 3577SOL    HW211631   1.473   2.706   6.752
 3578SOL     OW11632   4.641   1.427   0.853
 3578SOL    HW111633   4.574   1.372   0.903
 3578SOL    HW211634   4.678   1.498   0.913
 3579SOL     OW11635   6.816   1.989   2.757
 3579SOL    HW111636   6.781   1.914   2.814
 3579SOL    HW211637   6.790   2.076   2.798
 3580SOL     OW11638   5.944   3.312   0.762
 3580SOL    HW111639   5.939   3.363   0.849
 3580SOL    HW211640   6.036   3.318   0.725
 3581SOL     OW11641   0.806   5.153   3.502
 3581SOL    HW111642   0.819   5.104   3.588
 3581SOL    HW211643   0.894   5.186   3.469
 3582SOL     OW11644   1.203   3.949   5.794
 3582SOL    HW111645   1.210   3.874   5.727
 3582SOL    HW211646   1.169   3.913   5.881
 3583SOL     OW11647   1.586   4.283   6.969
 3583SOL    HW111648   1.570   4.184   6.976
 3583SOL    HW211649   1.605   4.307   6.874
 3584SOL     OW11650   5.887   4.364   5.584
 3584SOL    HW111651   5.888   4.362   5.684
 3584SOL    HW211652   5.841   4.447   5.553
 3585SOL     OW11653   2.846   2.016   4.454
 3585SOL    HW111654   2.839   2.111   4.423
 3585SOL    HW211655   2.855   2.014   4.554
 3586SOL     OW11656   6.053   1.622   4.667
 3586SOL    HW111657   6.116   1.548   4.687
 3586SOL    HW211658   6.104   1.703   4.637
 3587SOL     OW11659   2.211   5.453   5.573
 3587SOL    HW111660   2.289   5.404   5.533
 3587SOL    HW211661   2.134   5.389   5.583
 3588SOL     OW11662   0.105   3.065   5.362
 3588SOL    HW111663   0.028   3.049   5.301
 3588SOL    HW211664   0.187   3.086   5.308
 3589SOL     OW11665   5.707   0.838   5.723
 3589SOL    HW111666   5.665   0.751   5.699
 3589SOL    HW211667   5.661   0.876   5.803
 3590SOL     OW11668   6.680   3.607   0.372
 3590SOL    HW111669   6.741   3.676   0.411
 3590SOL    HW211670   6.676   3.618   0.272
 3591SOL     OW11671   5.584   3.542   0.379
 3591SOL    HW111672   5.652   3.480   0.416
 3591SOL    HW211673   5.629   3.623   0.341
 3592SOL     OW11674   0.219   6.561   2.612
 3592SOL    HW111675   0.251   6.593   2.523
 3592SOL    HW211676   0.184   6.468   2.604
 3593SOL     OW11677   0.749   4.225   5.828
 3593SOL    HW111678   0.847   4.216   5.846
 3593SOL    HW211679   0.727   4.321   5.810
 3594SOL     OW11680   4.701   0.377   3.462
 3594SOL    HW111681   4.653   0.425   3.535
 3594SOL    HW211682   4.785   0.426   3.439
 3595SOL     OW11683   5.358   5.709   6.966
 3595SOL    HW111684   5.393   5.615   6.973
 3595SOL    HW211685   5.258   5.708   6.974
 3596SOL     OW11686   4.879   3.439   3.076
 3596SOL    HW111687   4.866   3.508   3.005
 3596SOL    HW211688   4.873   3.347   3.035
 3597SOL     OW11689   2.276   2.296   5.620
 3597SOL    HW111690   2.369   2.273   5.591
 3597SOL    HW211691   2.255   2.390   5.592
 3598SOL     OW11692   1.975   6.538   5.968
 3598SOL    HW111693   1.990   6.522   6.065
 3598SOL    HW211694   2.014   6.462   5.915
 3599SOL     OW11695   4.899   2.159   0.452
 3599SOL    HW111696   4.860   2.067   0.458
 3599SOL    HW211697   4.846   2.222   0.510
 3600SOL     OW11698   0.997   2.717   2.660
 3600SOL    HW111699   1.092   2.746   2.657
 3600SOL    HW211700   0.953   2.753   2.743
 3601SOL     OW11701   5.242   2.537   6.172
 3601SOL    HW111702   5.323   2.575   6.217
 3601SOL    HW211703   5.180   2.611   6.146
 3602SOL     OW11704   1.560   3.935   0.989
 3602SOL    HW111705   1.631   3.988   0.942
 3602SOL    HW211706   1.603   3.861   1.041
 3603SOL     OW11707   3.581   0.716   4.186
 3603SOL    HW111708   3.596   0.815   4.186
 3603SOL    HW211709   3.568   0.684   4.279
 3604SOL     OW11710   6.871   6.823   3.464
 3604SOL    HW111711   6.783   6.864   3.444
 3604SOL    HW211712   6.928   6.823   3.382
 3605SOL     OW11713   0.809   4.358   3.692
 3605SOL    HW111714   0.878   4.429   3.679
 3605SOL    HW211715   0.831   4.280   3.632
 3606SOL     OW11716   0.800   6.574   4.466
 3606SOL    HW111717   0.781   6.523   4.382
 3606SOL    HW211718   0.806   6.510   4.543
 3607SOL     OW11719   5.693   4.760   2.007
 3607SOL    HW111720   5.722   4.747   2.102
 3607SOL    HW211721   5.598   4.732   1.996
 3608SOL     OW11722   4.877   1.661   4.550
 3608SOL    HW111723   4.781   1.681   4.572
 3608SOL    HW211724   4.935   1.732   4.590
 3609SOL     OW11725   1.659   0.094   4.578
 3609SOL    HW111726   1.683   0.170   4.639
 3609SOL    HW211727   1.592   0.034   4.623
 3610SOL     OW11728   1.693   0.710   6.328
 3610SOL    HW111729   1.764   0.770   6.290
 3610SOL    HW211730   1.736   0.636   6.380
 3611SOL     OW11731   4.279   5.173   3.869
 3611SOL    HW111732   4.256   5.078   3.847
 3611SOL    HW211733   4.378   5.182   3.882
 3612SOL     OW11734   0.689   0.521   6.740
 3612SOL    HW111735   0.744   0.597   6.775
 3612SOL    HW211736   0.592   0.543   6.752
 3613SOL     OW11737   4.642   4.721   2.288
 3613SOL    HW111738   4.741   4.729   2.278
 3613SOL    HW211739   4.613   4.629   2.261
 3614SOL     OW11740   3.470   3.610   0.778
 3614SOL    HW111741   3.379   3.574   0.801
 3614SOL    HW211742   3.485   3.696   0.827
 3615SOL     OW11743   5.417   2.720   6.254
 3615SOL    HW111744   5.493   2.675   6.208
 3615SOL    HW211745   5.408   2.814   6.221
 3616SOL     OW11746   0.762   0.670   6.497
 3616SOL    HW111747   0.842   0.728   6.512
 3616SOL    HW211748   0.767   0.591   6.559
 3617SOL     OW11749   4.067   0.802   6.276
 3617SOL    HW111750   4.112   0.886   6.305
 3617SOL    HW211751   3.992   0.824   6.214
 3618SOL     OW11752   2.399   3.259   5.300
 3618SOL    HW111753   2.437   3.169   5.278
 3618SOL    HW211754   2.474   3.324   5.312
 3619SOL     OW11755   5.725   2.789   6.309
 3619SOL    HW111756   5.698   2.776   6.405
 3619SOL    HW211757   5.799   2.727   6.286
 3620SOL     OW11758   5.626   5.844   5.382
 3620SOL    HW111759   5.528   5.824   5.370
 3620SOL    HW211760   5.643   5.866   5.478
 3621SOL     OW11761   2.941   3.371   4.778
 3621SOL    HW111762   2.952   3.273   4.796
 3621SOL    HW211763   2.899   3.415   4.857
 3622SOL     OW11764   1.763   1.107   0.197
 3622SOL    HW111765   1.683   1.165   0.207
 3622SOL    HW211766   1.837   1.142   0.254
 3623SOL     OW11767   6.371   5.979   4.459
 3623SOL    HW111768   6.438   6.053   4.455
 3623SOL    HW211769   6.363   5.946   4.553
 3624SOL     OW11770   1.391   0.244   2.643
 3624SOL    HW111771   1.479   0.227   2.600
 3624SOL    HW211772   1.402   0.250   2.742
 3625SOL     OW11773   0.274   3.643   6.273
 3625SOL    HW111774   0.329   3.570   6.230
 3625SOL    HW211775   0.256   3.715   6.206
 3626SOL     OW11776   0.552   3.396   5.537
 3626SOL    HW111777   0.522   3.300   5.533
 3626SOL    HW211778   0.651   3.399   5.550
 3627SOL     OW11779   4.258   3.025   1.502
 3627SOL    HW111780   4.228   2.965   1.576
 3627SOL    HW211781   4.338   3.076   1.532
 3628SOL     OW11782   0.853   1.654   1.857
 3628SOL    HW111783   0.891   1.594   1.788
 3628SOL    HW211784   0.909   1.649   1.940
 3629SOL     OW11785   0.511   0.119   5.295
 3629SOL    HW111786   0.525   0.130   5.196
 3629SOL    HW211787   0.485   0.207   5.335
 3630SOL     OW11788   6.001   2.587   3.652
 3630SOL    HW111789   5.937   2.655   3.617
 3630SOL    HW211790   6.095   2.621   3.642
 3631SOL     OW11791   1.678   0.091   2.988
 3631SOL    HW111792   1.737   0.171   2.984
 3631SOL    HW211793   1.652   0.074   3.083
 3632SOL     OW11794   5.126   4.998   0.632
 3632SOL    HW111795   5.097   4.926   0.695
 3632SOL    HW211796   5.046   5.051   0.602
 3633SOL     OW11797   4.165   2.418   5.741
 3633SOL    HW111798   4.133   2.414   5.646
 3633SOL    HW211799   4.237   2.350   5.756
 3634SOL     OW11800   2.246   5.778   6.158
 3634SOL    HW111801   2.160   5.780   6.106
 3634SOL    HW211802   2.302   5.857   6.133
 3635SOL     OW11803   2.920   0.967   1.079
 3635SOL    HW111804   2.893   1.046   1.135
 3635SOL    HW211805   2.882   0.883   1.120
 3636SOL     OW11806   6.666   5.501   0.592
 3636SOL    HW111807   6.731   5.425   0.599
 3636SOL    HW211808   6.712   5.580   0.552
 3637SOL     OW11809   0.542   2.764   1.295
 3637SOL    HW111810   0.535   2.664   1.290
 3637SOL    HW211811   0.586   2.789   1.381
 3638SOL     OW11812   6.898   3.937   2.611
 3638SOL    HW111813   6.819   3.884   2.579
 3638SOL    HW211814   6.888   4.032   2.583
 3639SOL     OW11815   4.174   4.956   6.839
 3639SOL    HW111816   4.085   4.998   6.856
 3639SOL    HW211817   4.237   5.025   6.802
 3640SOL     OW11818   5.041   1.825   0.273
 3640SOL    HW111819   5.007   1.762   0.342
 3640SOL    HW211820   5.136   1.802   0.250
 3641SOL     OW11821   6.131   3.573   1.733
 3641SOL    HW111822   6.192   3.546   1.658
 3641SOL    HW211823   6.054   3.626   1.695
 3642SOL     OW11824   4.598   2.367   6.819
 3642SOL    HW111825   4.562   2.421   6.896
 3642SOL    HW211826   4.522   2.337   6.761
 3643SOL     OW11827   4.004   5.982   5.305
 3643SOL    HW111828   3.964   6.032   5.227
 3643SOL    HW211829   3.946   5.997   5.385
 3644SOL     OW11830   2.153   1.343   1.496
 3644SOL    HW111831   2.093   1.394   1.434
 3644SOL    HW211832   2.173   1.253   1.457
 3645SOL     OW11833   1.633   2.996   4.411
 3645SOL    HW111834   1.585   3.021   4.327
 3645SOL    HW211835   1.567   2.983   4.485
 3646SOL     OW11836   1.374   3.904   5.535
 3646SOL    HW111837   1.464   3.935   5.565
 3646SOL    HW211838   1.307   3.976   5.551
 3647SOL     OW11839   2.385   6.042   6.959
 3647SOL    HW111840   2.480   6.074   6.958
 3647SOL    HW211841   2.326   6.115   6.924
 3648SOL     OW11842   5.135   5.729   3.857
 3648SOL    HW111843   5.088   5.781   3.786
 3648SOL    HW211844   5.156   5.638   3.823
 3649SOL     OW11845   6.308   3.187   0.133
 3649SOL    HW111846   6.247   3.124   0.180
 3649SOL    HW211847   6.318   3.158   0.038
 3650SOL     OW11848   5.943   5.135   1.270
 3650SOL    HW111849   5.964   5.160   1.176
 3650SOL    HW211850   5.939   5.217   1.327
 3651SOL     OW11851   2.042   0.640   4.748
 3651SOL    HW111852   2.009   0.645   4.654
 3651SOL    HW211853   2.140   0.617   4.748
 3652SOL     OW11854   6.383   6.616   3.129
 3652SOL    HW111855   6.289   6.603   3.160
 3652SOL    HW211856   6.383   6.637   3.031
 3653SOL     OW11857   1.464   1.400   2.970
 3653SOL    HW111858   1.498   1.494   2.976
 3653SOL    HW211859   1.446   1.377   2.875
 3654SOL     OW11860   4.396   5.843   0.556
 3654SOL    HW111861   4.309   5.802   0.529
 3654SOL    HW211862   4.470   5.779   0.536
 3655SOL     OW11863   3.619   0.984   4.193
 3655SOL    HW111864   3.575   1.026   4.272
 3655SOL    HW211865   3.717   1.005   4.194
 3656SOL     OW11866   0.875   5.365   1.474
 3656SOL    HW111867   0.820   5.427   1.530
 3656SOL    HW211868   0.819   5.325   1.402
 3657SOL     OW11869   4.788   5.593   4.661
 3657SOL    HW111870   4.855   5.576   4.734
 3657SOL    HW211871   4.706   5.540   4.678
 3658SOL     OW11872   2.151   5.273   6.816
 3658SOL    HW111873   2.198   5.191   6.785
 3658SOL    HW211874   2.113   5.257   6.908
 3659SOL     OW11875   1.386   2.191   5.782
 3659SOL    HW111876   1.375   2.286   5.752
 3659SOL    HW211877   1.434   2.138   5.712
 3660SOL     OW11878   6.136   5.695   4.309
 3660SOL    HW111879   6.100   5.787   4.321
 3660SOL    HW211880   6.216   5.682   4.368
 3661SOL     OW11881   0.391   0.583   5.193
 3661SOL    HW111882   0.477   0.632   5.174
 3661SOL    HW211883   0.345   0.561   5.108
 3662SOL     OW11884   3.899   0.947   4.521
 3662SOL    HW111885   3.856   0.968   4.433
 3662SOL    HW211886   3.930   1.032   4.565
 3663SOL     OW11887   1.670   2.682   6.702
 3663SOL    HW111888   1.639   2.745   6.630
 3663SOL    HW211889   1.746   2.627   6.667
 3664SOL     OW11890   4.775   2.522   1.940
 3664SOL    HW111891   4.709   2.575   1.885
 3664SOL    HW211892   4.819   2.454   1.882
 3665SOL     OW11893   0.686   5.903   5.592
 3665SOL    HW111894   0.632   5.873   5.514
 3665SOL    HW211895   0.765   5.955   5.560
 3666SOL     OW11896   0.703   3.501   3.153
 3666SOL    HW111897   0.712   3.498   3.253
 3666SOL    HW211898   0.789   3.532   3.113
 3667SOL     OW11899   0.314   1.141   3.381
 3667SOL    HW111900   0.313   1.133   3.480
 3667SOL    HW211901   0.249   1.212   3.353
 3668SOL     OW11902   1.196   0.417   1.501
 3668SOL    HW111903   1.200   0.433   1.600
 3668SOL    HW211904   1.154   0.496   1.457
 3669SOL     OW11905   5.587   1.322   3.815
 3669SOL    HW111906   5.603   1.337   3.718
 3669SOL    HW211907   5.586   1.224   3.834
 3670SOL     OW11908   2.978   5.394   0.275
 3670SOL    HW111909   2.927   5.473   0.243
 3670SOL    HW211910   2.969   5.386   0.374
 3671SOL     OW11911   6.616   1.976   4.130
 3671SOL    HW111912   6.622   1.986   4.031
 3671SOL    HW211913   6.674   1.901   4.160
 3672SOL     OW11914   4.759   2.273   2.726
 3672SOL    HW111915   4.661   2.259   2.711
 3672SOL    HW211916   4.799   2.191   2.766
 3673SOL     OW11917   3.967   5.437   6.717
 3673SOL    HW111918   3.963   5.379   6.799
 3673SOL    HW211919   4.021   5.519   6.737
 3674SOL     OW11920   1.577   5.790   5.292
 3674SOL    HW111921   1.559   5.798   5.194
 3674SOL    HW211922   1.675   5.781   5.307
 3675SOL     OW11923   1.182   2.358   3.959
 3675SOL    HW111924   1.087   2.386   3.965
 3675SOL    HW211925   1.236   2.407   4.027
 3676SOL     OW11926   5.631   3.328   2.437
 3676SOL    HW111927   5.668   3.367   2.352
 3676SOL    HW211928   5.631   3.228   2.429
 3677SOL     OW11929   2.648   0.230   4.919
 3677SOL    HW111930   2.714   0.156   4.906
 3677SOL    HW211931   2.595   0.242   4.835
 3678SOL     OW11932   1.847   1.178   4.160
 3678SOL    HW111933   1.936   1.179   4.114
 3678SOL    HW211934   1.805   1.269   4.153
 3679SOL     OW11935   0.023   0.576   2.980
 3679SOL    HW111936   6.978   0.500   3.001
 3679SOL    HW211937   0.097   0.545   2.921
 3680SOL     OW11938   4.781   2.811   4.561
 3680SOL    HW111939   4.730   2.785   4.480
 3680SOL    HW211940   4.765   2.744   4.634
 3681SOL     OW11941   0.850   0.981   6.793
 3681SOL    HW111942   0.875   1.052   6.728
 3681SOL    HW211943   0.903   0.992   6.877
 3682SOL     OW11944   5.533   2.776   0.262
 3682SOL    HW111945   5.565   2.681   0.271
 3682SOL    HW211946   5.568   2.830   0.339
 3683SOL     OW11947   0.093   0.637   3.564
 3683SOL    HW111948   0.045   0.685   3.491
 3683SOL    HW211949   0.041   0.555   3.590
 3684SOL     OW11950   1.225   5.379   6.887
 3684SOL    HW111951   1.159   5.451   6.909
 3684SOL    HW211952   1.296   5.376   6.957
 3685SOL     OW11953   2.508   5.886   5.628
 3685SOL    HW111954   2.576   5.846   5.567
 3685SOL    HW211955   2.436   5.819   5.647
 3686SOL     OW11956   6.637   4.988   3.837
 3686SOL    HW111957   6.731   5.009   3.864
 3686SOL    HW211958   6.576   4.999   3.915
 3687SOL     OW11959   4.920   6.756   3.636
 3687SOL    HW111960   4.868   6.754   3.721
 3687SOL    HW211961   4.881   6.691   3.570
 3688SOL     OW11962   6.447   2.815   6.871
 3688SOL    HW111963   6.502   2.825   6.955
 3688SOL    HW211964   6.374   2.883   6.871
 3689SOL     OW11965   2.188   1.595   5.692
 3689SOL    HW111966   2.269   1.598   5.633
 3689SOL    HW211967   2.212   1.627   5.783
 3690SOL     OW11968   4.780   5.923   0.957
 3690SOL    HW111969   4.834   5.841   0.973
 3690SOL    HW211970   4.727   5.913   0.873
 3691SOL     OW11971   2.340   1.916   6.585
 3691SOL    HW111972   2.363   1.869   6.500
 3691SOL    HW211973   2.398   1.883   6.658
 3692SOL     OW11974   6.570   4.841   5.940
 3692SOL    HW111975   6.635   4.771   5.910
 3692SOL    HW211976   6.582   4.859   6.037
 3693SOL     OW11977   1.883   1.847   2.932
 3693SOL    HW111978   1.893   1.772   2.997
 3693SOL    HW211979   1.941   1.831   2.852
 3694SOL     OW11980   1.584   6.646   2.468
 3694SOL    HW111981   1.557   6.664   2.373
 3694SOL    HW211982   1.633   6.559   2.471
 3695SOL     OW11983   5.714   1.309   1.812
 3695SOL    HW111984   5.680   1.291   1.904
 3695SOL    HW211985   5.654   1.375   1.766
 3696SOL     OW11986   4.291   6.800   5.228
 3696SOL    HW111987   4.298   6.900   5.221
 3696SOL    HW211988   4.382   6.760   5.224
 3697SOL     OW11989   6.838   6.311   3.148
 3697SOL    HW111990   6.847   6.399   3.194
 3697SOL    HW211991   6.743   6.297   3.120
 3698SOL     OW11992   1.908   1.254   3.503
 3698SOL    HW111993   1.909   1.183   3.574
 3698SOL    HW211994   1.871   1.215   3.418
 3699SOL     OW11995   1.682   1.582   3.704
 3699SOL    HW111996   1.626   1.630   3.636
 3699SOL    HW211997   1.778   1.583   3.674
 3700SOL     OW11998   1.682   5.074   4.927
 3700SOL    HW111999   1.651   5.134   4.853
 3700SOL    HW212000   1.614   5.002   4.941
 3701SOL     OW12001   1.101   6.295   2.949
 3701SOL    HW112002   1.018   6.321   2.998
 3701SOL    HW212003   1.085   6.302   2.851
 3702SOL     OW12004   5.611   6.477   3.306
 3702SOL    HW112005   5.645   6.400   3.359
 3702SOL    HW212006   5.513   6.465   3.289
 3703SOL     OW12007   0.934   0.069   6.707
 3703SOL    HW112008   0.835   0.068   6.693
 3703SOL    HW212009   0.979   0.106   6.625
 3704SOL     OW12010   5.260   2.876   0.943
 3704SOL    HW112011   5.217   2.788   0.924
 3704SOL    HW212012   5.220   2.946   0.884
 3705SOL     OW12013   4.945   4.749   4.061
 3705SOL    HW112014   5.010   4.690   4.109
 3705SOL    HW212015   4.977   4.843   4.064
 3706SOL     OW12016   0.480   4.390   6.640
 3706SOL    HW112017   0.387   4.424   6.657
 3706SOL    HW212018   0.482   4.291   6.651
 3707SOL     OW12019   4.576   6.100   3.961
 3707SOL    HW112020   4.655   6.114   3.902
 3707SOL    HW212021   4.503   6.056   3.908
 3708SOL     OW12022   4.263   6.767   1.500
 3708SOL    HW112023   4.249   6.731   1.408
 3708SOL    HW212024   4.294   6.694   1.560
 3709SOL     OW12025   2.850   0.298   1.735
 3709SOL    HW112026   2.758   0.269   1.706
 3709SOL    HW212027   2.882   0.371   1.673
 3710SOL     OW12028   0.368   5.403   5.095
 3710SOL    HW112029   0.386   5.460   5.015
 3710SOL    HW212030   0.442   5.335   5.105
 3711SOL     OW12031   1.171   5.700   5.049
 3711SOL    HW112032   1.146   5.619   4.996
 3711SOL    HW212033   1.103   5.772   5.033
 3712SOL     OW12034   1.402   6.078   0.216
 3712SOL    HW112035   1.383   6.078   0.118
 3712SOL    HW212036   1.424   6.171   0.246
 3713SOL     OW12037   0.461   0.378   5.365
 3713SOL    HW112038   0.404   0.406   5.442
 3713SOL    HW212039   0.436   0.430   5.283
 3714SOL     OW12040   6.020   5.087   6.327
 3714SOL    HW112041   6.009   5.054   6.421
 3714SOL    HW212042   6.117   5.107   6.310
 3715SOL     OW12043   1.290   4.735   2.178
 3715SOL    HW112044   1.217   4.802   2.191
 3715SOL    HW212045   1.304   4.719   2.080
 3716SOL     OW12046   5.938   5.735   4.860
 3716SOL    HW112047   5.979   5.798   4.794
 3716SOL    HW212048   5.840   5.725   4.841
 3717SOL     OW12049   5.640   1.145   0.387
 3717SOL    HW112050   5.664   1.242   0.392
 3717SOL    HW212051   5.713   1.095   0.341
 3718SOL     OW12052   6.941   0.112   6.361
 3718SOL    HW112053   6.984   0.121   6.450
 3718SOL    HW212054   7.008   0.080   6.294
 3719SOL     OW12055   4.242   2.987   6.435
 3719SOL    HW112056   4.246   3.083   6.407
 3719SOL    HW212057   4.267   2.980   6.532
 3720SOL     OW12058   5.593   3.976   0.601
 3720SOL    HW112059   5.644   3.964   0.516
 3720SOL    HW212060   5.546   4.064   0.599
 3721SOL     OW12061   0.185   5.167   0.835
 3721SOL    HW112062   0.163   5.177   0.737
 3721SOL    HW212063   0.284   5.172   0.847
 3722SOL     OW12064   5.804   5.894   1.708
 3722SOL    HW112065   5.745   5.820   1.743
 3722SOL    HW212066   5.895   5.858   1.690
 3723SOL     OW12067   4.604   5.603   0.554
 3723SOL    HW112068   4.641   5.528   0.500
 3723SOL    HW212069   4.633   5.592   0.650
 3724SOL     OW12070   1.461   4.243   6.017
 3724SOL    HW112071   1.456   4.331   5.969
 3724SOL    HW212072   1.517   4.252   6.099
 3725SOL     OW12073   0.739   5.958   6.640
 3725SOL    HW112074   0.764   6.053   6.661
 3725SOL    HW212075   0.693   5.918   6.719
 3726SOL     OW12076   5.197   3.850   6.133
 3726SOL    HW112077   5.191   3.911   6.054
 3726SOL    HW212078   5.293   3.841   6.161
 3727SOL     OW12079   6.223   3.015   5.347
 3727SOL    HW112080   6.213   3.003   5.249
 3727SOL    HW212081   6.224   2.926   5.392
 3728SOL     OW12082   1.851   3.641   6.530
 3728SOL    HW112083   1.946   3.663   6.550
 3728SOL    HW212084   1.801   3.627   6.616
 3729SOL     OW12085   0.895   1.018   4.101
 3729SOL    HW112086   0.993   1.030   4.117
 3729SOL    HW212087   0.852   0.981   4.184
 3730SOL     OW12088   3.887   6.398   5.675
 3730SOL    HW112089   3.831   6.455   5.734
 3730SOL    HW212090   3.845   6.392   5.584
 3731SOL     OW12091   0.044   1.315   0.213
 3731SOL    HW112092   0.109   1.370   0.161
 3731SOL    HW212093   0.020   1.362   0.298
 3732SOL     OW12094   2.191   2.382   0.712
 3732SOL    HW112095   2.228   2.314   0.775
 3732SOL    HW212096   2.228   2.472   0.735
 3733SOL     OW12097   1.930   2.408   3.285
 3733SOL    HW112098   1.957   2.444   3.374
 3733SOL    HW212099   2.005   2.420   3.220
 3734SOL     OW12100   4.271   0.643   1.542
 3734SOL    HW112101   4.199   0.697   1.585
 3734SOL    HW212102   4.238   0.550   1.528
 3735SOL     OW12103   4.041   0.544   2.442
 3735SOL    HW112104   4.005   0.568   2.532
 3735SOL    HW212105   4.036   0.445   2.429
 3736SOL     OW12106   6.822   1.273   0.863
 3736SOL    HW112107   6.920   1.253   0.866
 3736SOL    HW212108   6.774   1.212   0.927
 3737SOL     OW12109   6.035   1.292   3.340
 3737SOL    HW112110   6.033   1.392   3.348
 3737SOL    HW212111   6.123   1.258   3.371
 3738SOL     OW12112   6.589   0.073   1.156
 3738SOL    HW112113   6.575   0.123   1.242
 3738SOL    HW212114   6.635   0.133   1.091
 3739SOL     OW12115   2.218   4.346   1.551
 3739SOL    HW112116   2.292   4.279   1.555
 3739SOL    HW212117   2.200   4.371   1.456
 3740SOL     OW12118   6.186   5.693   0.398
 3740SOL    HW112119   6.092   5.725   0.390
 3740SOL    HW212120   6.219   5.712   0.491
 3741SOL     OW12121   4.758   2.975   6.770
 3741SOL    HW112122   4.724   2.894   6.818
 3741SOL    HW212123   4.681   3.022   6.727
 3742SOL     OW12124   4.166   0.227   0.502
 3742SOL    HW112125   4.068   0.241   0.487
 3742SOL    HW212126   4.180   0.138   0.546
 3743SOL     OW12127   5.324   3.889   1.138
 3743SOL    HW112128   5.304   3.829   1.215
 3743SOL    HW212129   5.376   3.968   1.171
 3744SOL     OW12130   1.237   6.106   2.059
 3744SOL    HW112131   1.151   6.125   2.010
 3744SOL    HW212132   1.229   6.138   2.153
 3745SOL     OW12133   5.525   3.859   3.122
 3745SOL    HW112134   5.527   3.769   3.166
 3745SOL    HW212135   5.432   3.880   3.092
 3746SOL     OW12136   5.983   0.156   3.776
 3746SOL    HW112137   5.937   0.077   3.737
 3746SOL    HW212138   6.047   0.193   3.709
 3747SOL     OW12139   4.481   6.235   5.412
 3747SOL    HW112140   4.544   6.157   5.412
 3747SOL    HW212141   4.388   6.202   5.397
 3748SOL     OW12142   5.087   0.673   1.750
 3748SOL    HW112143   5.045   0.631   1.670
 3748SOL    HW212144   5.183   0.646   1.755
 3749SOL     OW12145   1.952   4.597   3.589
 3749SOL    HW112146   2.030   4.653   3.617
 3749SOL    HW212147   1.966   4.503   3.621
 3750SOL     OW12148   5.918   4.576   0.850
 3750SOL    HW112149   5.845   4.597   0.786
 3750SOL    HW212150   5.921   4.646   0.922
 3751SOL     OW12151   6.734   2.873   0.677
 3751SOL    HW112152   6.729   2.796   0.742
 3751SOL    HW212153   6.693   2.846   0.590
 3752SOL     OW12154   1.056   0.119   0.744
 3752SOL    HW112155   0.970   0.151   0.782
 3752SOL    HW212156   1.085   0.037   0.792
 3753SOL     OW12157   0.060   0.695   4.214
 3753SOL    HW112158   0.114   0.701   4.297
 3753SOL    HW212159   0.104   0.748   4.141
 3754SOL     OW12160   4.014   6.296   1.775
 3754SOL    HW112161   4.069   6.322   1.696
 3754SOL    HW212162   3.960   6.374   1.806
 3755SOL     OW12163   5.203   5.552   4.516
 3755SOL    HW112164   5.268   5.540   4.591
 3755SOL    HW212165   5.221   5.483   4.445
 3756SOL     OW12166   1.902   0.059   6.420
 3756SOL    HW112167   1.829   0.115   6.459
 3756SOL    HW212168   1.990   0.085   6.460
 3757SOL     OW12169   3.958   5.759   6.889
 3757SOL    HW112170   3.908   5.772   6.974
 3757SOL    HW212171   4.056   5.765   6.906
 3758SOL     OW12172   1.903   1.053   4.411
 3758SOL    HW112173   1.869   1.109   4.335
 3758SOL    HW212174   1.941   1.113   4.482
 3759SOL     OW12175   4.201   4.897   6.127
 3759SOL    HW112176   4.204   4.996   6.110
 3759SOL    HW212177   4.201   4.881   6.226
 3760SOL     OW12178   1.159   2.751   4.426
 3760SOL    HW112179   1.067   2.716   4.407
 3760SOL    HW212180   1.161   2.850   4.412
 3761SOL     OW12181   0.333   0.110   4.965
 3761SOL    HW112182   0.309   0.183   4.902
 3761SOL    HW212183   0.432   0.100   4.968
 3762SOL     OW12184   0.815   5.705   6.785
 3762SOL    HW112185   0.821   5.761   6.868
 3762SOL    HW212186   0.888   5.731   6.722
 3763SOL     OW12187   6.770   4.781   0.282
 3763SOL    HW112188   6.775   4.684   0.259
 3763SOL    HW212189   6.680   4.817   0.254
 3764SOL     OW12190   1.552   0.260   3.384
 3764SOL    HW112191   1.522   0.285   3.476
 3764SOL    HW212192   1.484   0.291   3.318
 3765SOL     OW12193   5.482   1.255   1.097
 3765SOL    HW112194   5.514   1.345   1.126
 3765SOL    HW212195   5.457   1.201   1.177
 3766SOL     OW12196   1.167   1.056   4.372
 3766SOL    HW112197   1.161   1.081   4.275
 3766SOL    HW212198   1.262   1.047   4.399
 3767SOL     OW12199   2.370   5.424   0.204
 3767SOL    HW112200   2.435   5.446   0.277
 3767SOL    HW212201   2.277   5.421   0.241
 3768SOL     OW12202   2.406   5.611   5.162
 3768SOL    HW112203   2.469   5.577   5.232
 3768SOL    HW212204   2.361   5.694   5.197
 3769SOL     OW12205   5.458   5.852   5.004
 3769SOL    HW112206   5.438   5.790   4.928
 3769SOL    HW212207   5.520   5.807   5.068
 3770SOL     OW12208   1.694   0.170   6.784
 3770SOL    HW112209   1.728   0.106   6.854
 3770SOL    HW212210   1.617   0.128   6.736
 3771SOL     OW12211   5.770   2.602   0.012
 3771SOL    HW112212   5.693   2.657   6.998
 3771SOL    HW212213   5.824   2.655   0.078
 3772SOL     OW12214   6.852   1.476   6.954
 3772SOL    HW112215   6.918   1.445   0.006
 3772SOL    HW212216   6.780   1.529   6.999
 3773SOL     OW12217   6.186   2.943   6.396
 3773SOL    HW112218   6.108   2.951   6.335
 3773SOL    HW212219   6.186   2.852   6.439
 3774SOL     OW12220   0.571   6.516   0.100
 3774SOL    HW112221   0.529   6.478   0.017
 3774SOL    HW212222   0.505   6.575   0.146
 3775SOL     OW12223   5.056   4.524   2.135
 3775SOL    HW112224   5.016   4.577   2.210
 3775SOL    HW212225   5.043   4.427   2.152
 3776SOL     OW12226   4.002   0.953   0.728
 3776SOL    HW112227   3.962   0.934   0.818
 3776SOL    HW212228   4.102   0.950   0.735
 3777SOL     OW12229   2.849   4.879   4.486
 3777SOL    HW112230   2.808   4.853   4.573
 3777SOL    HW212231   2.795   4.842   4.411
 3778SOL     OW12232   2.680   5.038   3.251
 3778SOL    HW112233   2.751   4.968   3.244
 3778SOL    HW212234   2.704   5.117   3.195
 3779SOL     OW12235   1.722   4.901   0.779
 3779SOL    HW112236   1.646   4.850   0.820
 3779SOL    HW212237   1.706   4.912   0.681
 3780SOL     OW12238   4.477   5.043   5.744
 3780SOL    HW112239   4.512   5.071   5.833
 3780SOL    HW212240   4.551   5.004   5.689
 3781SOL     OW12241   1.595   6.780   5.028
 3781SOL    HW112242   1.581   6.726   4.945
 3781SOL    HW212243   1.691   6.774   5.056
 3782SOL     OW12244   2.668   1.642   4.390
 3782SOL    HW112245   2.753   1.602   4.423
 3782SOL    HW212246   2.604   1.570   4.363
 3783SOL     OW12247   5.294   6.221   5.105
 3783SOL    HW112248   5.298   6.320   5.120
 3783SOL    HW212249   5.373   6.178   5.147
 3784SOL     OW12250   5.168   1.906   3.573
 3784SOL    HW112251   5.222   1.969   3.517
 3784SOL    HW212252   5.229   1.835   3.610
 3785SOL     OW12253   0.942   1.158   6.606
 3785SOL    HW112254   1.033   1.155   6.647
 3785SOL    HW212255   0.949   1.189   6.511
 3786SOL     OW12256   2.737   6.763   2.539
 3786SOL    HW112257   2.815   6.714   2.578
 3786SOL    HW212258   2.686   6.808   2.612
 3787SOL     OW12259   6.125   6.589   3.262
 3787SOL    HW112260   6.087   6.560   3.174
 3787SOL    HW212261   6.051   6.602   3.327
 3788SOL     OW12262   0.401   3.150   3.893
 3788SOL    HW112263   0.484   3.142   3.839
 3788SOL    HW212264   0.356   3.237   3.872
 3789SOL     OW12265   0.654   2.890   4.268
 3789SOL    HW112266   0.732   2.902   4.206
 3789SOL    HW212267   0.591   2.967   4.256
 3790SOL     OW12268   1.663   3.835   5.553
 3790SOL    HW112269   1.651   3.838   5.454
 3790SOL    HW212270   1.724   3.760   5.577
 3791SOL     OW12271   6.137   0.284   0.831
 3791SOL    HW112272   6.180   0.369   0.862
 3791SOL    HW212273   6.123   0.223   0.909
 3792SOL     OW12274   6.946   0.977   4.035
 3792SOL    HW112275   0.018   0.933   4.036
 3792SOL    HW212276   6.955   1.070   3.999
 3793SOL     OW12277   3.583   0.379   2.905
 3793SOL    HW112278   3.665   0.424   2.872
 3793SOL    HW212279   3.505   0.404   2.847
 3794SOL     OW12280   2.480   4.261   1.174
 3794SOL    HW112281   2.442   4.350   1.201
 3794SOL    HW212282   2.438   4.189   1.229
 3795SOL     OW12283   3.915   6.574   6.936
 3795SOL    HW112284   3.863   6.489   6.929
 3795SOL    HW212285   3.864   6.648   6.893
 3796SOL     OW12286   2.673   1.689   1.130
 3796SOL    HW112287   2.664   1.646   1.220
 3796SOL    HW212288   2.583   1.715   1.095
 3797SOL     OW12289   5.939   4.793   2.612
 3797SOL    HW112290   5.962   4.696   2.624
 3797SOL    HW212291   6.018   4.843   2.577
 3798SOL     OW12292   3.624   5.621   3.485
 3798SOL    HW112293   3.593   5.555   3.554
 3798SOL    HW212294   3.724   5.629   3.489
 3799SOL     OW12295   6.887   2.459   4.407
 3799SOL    HW112296   6.961   2.490   4.348
 3799SOL    HW212297   6.801   2.461   4.357
 3800SOL     OW12298   5.309   3.319   4.331
 3800SOL    HW112299   5.401   3.314   4.369
 3800SOL    HW212300   5.279   3.228   4.304
 3801SOL     OW12301   6.642   6.294   3.393
 3801SOL    HW112302   6.710   6.366   3.403
 3801SOL    HW212303   6.597   6.303   3.304
 3802SOL     OW12304   0.626   2.575   3.804
 3802SOL    HW112305   0.613   2.522   3.888
 3802SOL    HW212306   0.609   2.672   3.824
 3803SOL     OW12307   3.809   2.140   1.060
 3803SOL    HW112308   3.898   2.170   1.093
 3803SOL    HW212309   3.797   2.170   0.965
 3804SOL     OW12310   5.336   1.730   3.679
 3804SOL    HW112311   5.275   1.654   3.699
 3804SOL    HW212312   5.418   1.697   3.634
 3805SOL     OW12313   2.685   3.621   1.545
 3805SOL    HW112314   2.639   3.569   1.474
 3805SOL    HW212315   2.773   3.654   1.511
 3806SOL     OW12316   3.008   3.842   0.113
 3806SOL    HW112317   3.105   3.866   0.103
 3806SOL    HW212318   2.978   3.794   0.031
 3807SOL     OW12319   2.455   0.246   3.982
 3807SOL    HW112320   2.421   0.158   4.014
 3807SOL    HW212321   2.382   0.314   3.987
 3808SOL     OW12322   4.249   0.790   1.271
 3808SOL    HW112323   4.310   0.776   1.193
 3808SOL    HW212324   4.279   0.735   1.348
 3809SOL     OW12325   6.166   2.800   0.496
 3809SOL    HW112326   6.097   2.872   0.494
 3809SOL    HW212327   6.226   2.810   0.415
 3810SOL     OW12328   4.521   2.421   5.146
 3810SOL    HW112329   4.573   2.341   5.116
 3810SOL    HW212330   4.545   2.500   5.089
 3811SOL     OW12331   1.044   4.126   3.932
 3811SOL    HW112332   0.957   4.099   3.888
 3811SOL    HW212333   1.040   4.103   4.029
 3812SOL     OW12334   5.489   1.086   5.030
 3812SOL    HW112335   5.401   1.127   5.052
 3812SOL    HW212336   5.492   1.064   4.933
 3813SOL     OW12337   3.800   4.168   0.482
 3813SOL    HW112338   3.768   4.073   0.490
 3813SOL    HW212339   3.866   4.174   0.408
 3814SOL     OW12340   0.629   6.896   1.363
 3814SOL    HW112341   0.539   6.924   1.330
 3814SOL    HW212342   0.670   6.831   1.299
 3815SOL     OW12343   4.868   2.825   0.368
 3815SOL    HW112344   4.803   2.791   0.435
 3815SOL    HW212345   4.878   2.924   0.378
 3816SOL     OW12346   0.104   5.660   0.655
 3816SOL    HW112347   0.128   5.664   0.558
 3816SOL    HW212348   0.005   5.659   0.665
 3817SOL     OW12349   5.281   3.519   3.112
 3817SOL    HW112350   5.282   3.603   3.166
 3817SOL    HW212351   5.270   3.440   3.174
 3818SOL     OW12352   5.156   0.356   0.356
 3818SOL    HW112353   5.185   0.343   0.262
 3818SOL    HW212354   5.057   0.367   0.360
 3819SOL     OW12355   5.560   5.701   1.159
 3819SOL    HW112356   5.582   5.612   1.120
 3819SOL    HW212357   5.596   5.773   1.100
 3820SOL     OW12358   6.735   6.982   3.710
 3820SOL    HW112359   6.828   7.000   3.679
 3820SOL    HW212360   6.708   0.034   3.777
 3821SOL     OW12361   2.210   2.741   1.132
 3821SOL    HW112362   2.292   2.687   1.114
 3821SOL    HW212363   2.139   2.681   1.170
 3822SOL     OW12364   1.704   5.985   2.532
 3822SOL    HW112365   1.795   6.022   2.553
 3822SOL    HW212366   1.678   5.919   2.603
 3823SOL     OW12367   4.329   2.109   5.553
 3823SOL    HW112368   4.265   2.149   5.487
 3823SOL    HW212369   4.328   2.010   5.543
 3824SOL     OW12370   5.990   2.018   5.758
 3824SOL    HW112371   6.021   2.113   5.755
 3824SOL    HW212372   5.999   1.983   5.851
 3825SOL     OW12373   0.649   6.744   1.113
 3825SOL    HW112374   0.730   6.704   1.070
 3825SOL    HW212375   0.569   6.687   1.094
 3826SOL     OW12376   1.194   3.766   6.817
 3826SOL    HW112377   1.115   3.787   6.760
 3826SOL    HW212378   1.228   3.674   6.794
 3827SOL     OW12379   3.014   3.265   0.707
 3827SOL    HW112380   2.931   3.320   0.712
 3827SOL    HW212381   3.078   3.307   0.643
 3828SOL     OW12382   4.498   2.292   1.392
 3828SOL    HW112383   4.472   2.312   1.486
 3828SOL    HW212384   4.596   2.272   1.388
 3829SOL     OW12385   1.861   5.088   4.284
 3829SOL    HW112386   1.811   5.042   4.210
 3829SOL    HW212387   1.861   5.187   4.269
 3830SOL     OW12388   1.269   0.419   4.822
 3830SOL    HW112389   1.198   0.378   4.880
 3830SOL    HW212390   1.346   0.356   4.814
 3831SOL     OW12391   4.449   2.107   2.060
 3831SOL    HW112392   4.463   2.065   2.150
 3831SOL    HW212393   4.420   2.036   1.995
 3832SOL     OW12394   6.141   0.563   2.277
 3832SOL    HW112395   6.125   0.554   2.178
 3832SOL    HW212396   6.101   0.484   2.324
 3833SOL     OW12397   1.270   6.176   6.056
 3833SOL    HW112398   1.255   6.119   5.976
 3833SOL    HW212399   1.340   6.136   6.114
 3834SOL     OW12400   3.445   2.540   0.717
 3834SOL    HW112401   3.445   2.440   0.709
 3834SOL    HW212402   3.354   2.570   0.746
 3835SOL     OW12403   3.294   5.326   5.099
 3835SOL    HW112404   3.228   5.252   5.088
 3835SOL    HW212405   3.387   5.289   5.092
 3836SOL     OW12406   1.861   3.695   5.050
 3836SOL    HW112407   1.955   3.699   5.017
 3836SOL    HW212408   1.822   3.787   5.051
 3837SOL     OW12409   5.058   3.593   6.955
 3837SOL    HW112410   4.990   3.550   7.013
 3837SOL    HW212411   5.079   3.534   6.877
 3838SOL     OW12412   6.181   4.176   4.662
 3838SOL    HW112413   6.222   4.165   4.752
 3838SOL    HW212414   6.198   4.268   4.628
 3839SOL     OW12415   4.219   0.492   4.735
 3839SOL    HW112416   4.186   0.562   4.800
 3839SOL    HW212417   4.270   0.422   4.785
 3840SOL     OW12418   1.601   1.354   5.628
 3840SOL    HW112419   1.664   1.367   5.551
 3840SOL    HW212420   1.634   1.278   5.684
 3841SOL     OW12421   6.861   3.275   4.577
 3841SOL    HW112422   6.821   3.360   4.543
 3841SOL    HW212423   6.898   3.290   4.669
 3842SOL     OW12424   1.265   4.814   0.039
 3842SOL    HW112425   1.165   4.822   0.044
 3842SOL    HW212426   1.304   4.905   0.023
 3843SOL     OW12427   0.111   4.380   1.878
 3843SOL    HW112428   0.207   4.362   1.900
 3843SOL    HW212429   0.053   4.311   1.921
 3844SOL     OW12430   0.024   4.092   5.665
 3844SOL    HW112431   0.007   4.190   5.655
 3844SOL    HW212432   0.085   4.060   5.592
 3845SOL     OW12433   3.821   3.003   2.861
 3845SOL    HW112434   3.754   2.963   2.923
 3845SOL    HW212435   3.886   3.058   2.913
 3846SOL     OW12436   0.477   4.464   4.018
 3846SOL    HW112437   0.573   4.440   4.004
 3846SOL    HW212438   0.430   4.389   4.065
 3847SOL     OW12439   6.063   1.520   5.526
 3847SOL    HW112440   6.081   1.437   5.579
 3847SOL    HW212441   6.140   1.582   5.533
 3848SOL     OW12442   2.803   5.588   3.167
 3848SOL    HW112443   2.828   5.506   3.219
 3848SOL    HW212444   2.863   5.597   3.088
 3849SOL     OW12445   0.395   1.428   5.682
 3849SOL    HW112446   0.471   1.484   5.649
 3849SOL    HW212447   0.321   1.488   5.714
 3850SOL     OW12448   2.314   3.531   1.572
 3850SOL    HW112449   2.337   3.628   1.569
 3850SOL    HW212450   2.320   3.499   1.666
 3851SOL     OW12451   1.031   4.357   2.810
 3851SOL    HW112452   1.085   4.296   2.868
 3851SOL    HW212453   1.032   4.323   2.716
 3852SOL     OW12454   4.481   6.844   4.864
 3852SOL    HW112455   4.483   6.760   4.918
 3852SOL    HW212456   4.523   6.919   4.916
 3853SOL     OW12457   1.679   3.479   2.514
 3853SOL    HW112458   1.717   3.487   2.607
 3853SOL    HW212459   1.751   3.446   2.452
 3854SOL     OW12460   0.477   4.134   2.902
 3854SOL    HW112461   0.428   4.182   2.975
 3854SOL    HW212462   0.520   4.052   2.939
 3855SOL     OW12463   5.517   5.468   6.969
 3855SOL    HW112464   5.601   5.418   6.945
 3855SOL    HW212465   5.453   5.406   7.014
 3856SOL     OW12466   6.834   6.444   4.897
 3856SOL    HW112467   6.867   6.427   4.989
 3856SOL    HW212468   6.819   6.357   4.850
 3857SOL     OW12469   1.057   6.430   5.231
 3857SOL    HW112470   1.069   6.371   5.311
 3857SOL    HW212471   1.136   6.491   5.223
 3858SOL     OW12472   1.652   5.745   5.904
 3858SOL    HW112473   1.597   5.662   5.907
 3858SOL    HW212474   1.594   5.823   5.880
 3859SOL     OW12475   0.274   1.809   3.114
 3859SOL    HW112476   0.322   1.725   3.138
 3859SOL    HW212477   0.183   1.787   3.078
 3860SOL     OW12478   1.688   6.334   4.375
 3860SOL    HW112479   1.717   6.295   4.287
 3860SOL    HW212480   1.600   6.380   4.363
 3861SOL     OW12481   5.267   4.557   1.958
 3861SOL    HW112482   5.206   4.581   2.034
 3861SOL    HW212483   5.331   4.486   1.987
 3862SOL     OW12484   6.484   0.127   5.282
 3862SOL    HW112485   6.402   0.097   5.332
 3862SOL    HW212486   6.533   0.195   5.337
 3863SOL     OW12487   4.009   4.490   6.526
 3863SOL    HW112488   3.930   4.449   6.570
 3863SOL    HW212489   3.991   4.587   6.508
 3864SOL     OW12490   4.344   1.742   5.856
 3864SOL    HW112491   4.300   1.749   5.946
 3864SOL    HW212492   4.298   1.803   5.792
 3865SOL     OW12493   3.976   0.713   1.754
 3865SOL    HW112494   3.895   0.659   1.732
 3865SOL    HW212495   4.037   0.660   1.812
 3866SOL     OW12496   3.995   0.757   0.254
 3866SOL    HW112497   4.084   0.756   0.302
 3866SOL    HW212498   4.011   0.752   0.156
 3867SOL     OW12499   2.148   3.500   4.148
 3867SOL    HW112500   2.171   3.404   4.133
 3867SOL    HW212501   2.173   3.553   4.067
 3868SOL     OW12502   2.185   6.200   2.200
 3868SOL    HW112503   2.206   6.103   2.213
 3868SOL    HW212504   2.169   6.219   2.103
 3869SOL     OW12505   0.407   2.637   4.148
 3869SOL    HW112506   0.462   2.679   4.221
 3869SOL    HW212507   0.367   2.709   4.091
 3870SOL     OW12508   3.936   5.118   0.460
 3870SOL    HW112509   3.844   5.144   0.489
 3870SOL    HW212510   3.964   5.174   0.382
 3871SOL     OW12511   3.607   0.706   2.635
 3871SOL    HW112512   3.514   0.739   2.651
 3871SOL    HW212513   3.604   0.629   2.571
 3872SOL     OW12514   3.765   2.878   1.504
 3872SOL    HW112515   3.850   2.920   1.471
 3872SOL    HW212516   3.759   2.784   1.472
 3873SOL     OW12517   5.758   5.659   1.377
 3873SOL    HW112518   5.701   5.662   1.296
 3873SOL    HW212519   5.849   5.695   1.356
 3874SOL     OW12520   4.063   6.439   0.664
 3874SOL    HW112521   4.065   6.468   0.569
 3874SOL    HW212522   3.969   6.423   0.692
 3875SOL     OW12523   1.166   3.722   2.968
 3875SOL    HW112524   1.147   3.762   2.878
 3875SOL    HW212525   1.250   3.668   2.963
 3876SOL     OW12526   4.710   4.903   6.563
 3876SOL    HW112527   4.675   4.895   6.656
 3876SOL    HW212528   4.646   4.959   6.509
 3877SOL     OW12529   6.515   1.443   0.903
 3877SOL    HW112530   6.554   1.531   0.931
 3877SOL    HW212531   6.573   1.369   0.938
 3878SOL     OW12532   2.455   6.102   6.214
 3878SOL    HW112533   2.504   6.090   6.300
 3878SOL    HW212534   2.494   6.179   6.163
 3879SOL     OW12535   5.041   5.717   1.319
 3879SOL    HW112536   5.025   5.632   1.368
 3879SOL    HW212537   5.139   5.736   1.315
 3880SOL     OW12538   5.870   4.055   2.769
 3880SOL    HW112539   5.797   4.024   2.830
 3880SOL    HW212540   5.918   3.976   2.732
 3881SOL     OW12541   1.613   5.572   0.758
 3881SOL    HW112542   1.543   5.589   0.688
 3881SOL    HW212543   1.629   5.473   0.764
 3882SOL     OW12544   6.471   0.777   5.629
 3882SOL    HW112545   6.543   0.762   5.696
 3882SOL    HW212546   6.458   0.875   5.615
 3883SOL     OW12547   4.825   1.586   4.037
 3883SOL    HW112548   4.869   1.631   4.114
 3883SOL    HW212549   4.894   1.555   3.972
 3884SOL     OW12550   1.297   6.400   4.526
 3884SOL    HW112551   1.321   6.497   4.533
 3884SOL    HW212552   1.300   6.372   4.430
 3885SOL     OW12553   6.488   0.967   4.629
 3885SOL    HW112554   6.521   1.061   4.631
 3885SOL    HW212555   6.488   0.933   4.535
 3886SOL     OW12556   6.094   0.030   5.821
 3886SOL    HW112557   6.088   0.107   5.884
 3886SOL    HW212558   6.005   7.002   5.814
 3887SOL     OW12559   4.716   1.886   5.467
 3887SOL    HW112560   4.816   1.895   5.466
 3887SOL    HW212561   4.675   1.977   5.471
 3888SOL     OW12562   6.728   1.209   6.340
 3888SOL    HW112563   6.697   1.115   6.357
 3888SOL    HW212564   6.827   1.215   6.352
 3889SOL     OW12565   0.388   5.224   6.658
 3889SOL    HW112566   0.303   5.217   6.605
 3889SOL    HW212567   0.398   5.144   6.717
 3890SOL     OW12568   6.233   6.264   3.064
 3890SOL    HW112569   6.194   6.189   3.117
 3890SOL    HW212570   6.301   6.228   3.000
 3891SOL     OW12571   5.306   4.869   4.695
 3891SOL    HW112572   5.341   4.952   4.739
 3891SOL    HW212573   5.348   4.859   4.605
 3892SOL     OW12574   0.961   0.027   2.689
 3892SOL    HW112575   1.029   0.023   2.762
 3892SOL    HW212576   0.911   0.114   2.694
 3893SOL     OW12577   3.368   5.943   3.126
 3893SOL    HW112578   3.343   5.857   3.081
 3893SOL    HW212579   3.390   5.925   3.222
 3894SOL     OW12580   3.861   2.211   0.229
 3894SOL    HW112581   3.816   2.235   0.143
 3894SOL    HW212582   3.957   2.240   0.226
 3895SOL     OW12583   1.524   1.621   5.667
 3895SOL    HW112584   1.587   1.644   5.741
 3895SOL    HW212585   1.537   1.526   5.639
 3896SOL     OW12586   0.647   1.807   5.885
 3896SOL    HW112587   0.595   1.868   5.825
 3896SOL    HW212588   0.583   1.752   5.939
 3897SOL     OW12589   2.789   6.484   2.396
 3897SOL    HW112590   2.808   6.499   2.493
 3897SOL    HW212591   2.692   6.500   2.378
 3898SOL     OW12592   3.116   3.081   3.844
 3898SOL    HW112593   3.064   3.043   3.767
 3898SOL    HW212594   3.089   3.176   3.858
 3899SOL     OW12595   5.286   1.122   4.708
 3899SOL    HW112596   5.221   1.140   4.634
 3899SOL    HW212597   5.241   1.136   4.796
 3900SOL     OW12598   6.195   2.778   3.242
 3900SOL    HW112599   6.237   2.847   3.182
 3900SOL    HW212600   6.196   2.689   3.196
 3901SOL     OW12601   1.390   6.340   5.316
 3901SOL    HW112602   1.440   6.425   5.330
 3901SOL    HW212603   1.411   6.303   5.226
 3902SOL     OW12604   5.333   4.934   2.734
 3902SOL    HW112605   5.276   4.886   2.802
 3902SOL    HW212606   5.416   4.967   2.779
 3903SOL     OW12607   4.263   2.712   0.154
 3903SOL    HW112608   4.303   2.799   0.185
 3903SOL    HW212609   4.236   2.721   0.058
 3904SOL     OW12610   0.855   6.950   0.347
 3904SOL    HW112611   0.807   6.905   0.271
 3904SOL    HW212612   0.803   0.013   0.377
 3905SOL     OW12613   6.549   6.278   6.572
 3905SOL    HW112614   6.597   6.191   6.585
 3905SOL    HW212615   6.464   6.262   6.522
 3906SOL     OW12616   1.432   4.949   3.958
 3906SOL    HW112617   1.335   4.949   3.984
 3906SOL    HW212618   1.442   4.998   3.872
 3907SOL     OW12619   0.159   1.064   4.709
 3907SOL    HW112620   0.241   1.094   4.661
 3907SOL    HW212621   0.113   0.993   4.657
 3908SOL     OW12622   1.377   0.711   5.713
 3908SOL    HW112623   1.412   0.780   5.649
 3908SOL    HW212624   1.296   0.747   5.760
 3909SOL     OW12625   5.396   3.608   5.768
 3909SOL    HW112626   5.437   3.570   5.685
 3909SOL    HW212627   5.305   3.644   5.747
 3910SOL     OW12628   3.586   3.788   1.873
 3910SOL    HW112629   3.536   3.702   1.865
 3910SOL    HW212630   3.538   3.850   1.934
 3911SOL     OW12631   5.522   0.589   1.171
 3911SOL    HW112632   5.423   0.585   1.153
 3911SOL    HW212633   5.570   0.539   1.099
 3912SOL     OW12634   3.187   2.217   6.095
 3912SOL    HW112635   3.259   2.221   6.024
 3912SOL    HW212636   3.157   2.309   6.116
 3913SOL     OW12637   3.947   6.811   0.532
 3913SOL    HW112638   3.858   6.841   0.499
 3913SOL    HW212639   3.936   6.763   0.619
 3914SOL     OW12640   5.848   1.550   1.080
 3914SOL    HW112641   5.934   1.575   1.124
 3914SOL    HW212642   5.821   1.622   1.016
 3915SOL     OW12643   3.798   5.787   0.105
 3915SOL    HW112644   3.823   5.751   0.194
 3915SOL    HW212645   3.698   5.793   0.098
 3916SOL     OW12646   3.107   0.666   3.115
 3916SOL    HW112647   3.199   0.632   3.134
 3916SOL    HW212648   3.096   0.757   3.156
 3917SOL     OW12649   2.435   5.485   0.854
 3917SOL    HW112650   2.485   5.403   0.829
 3917SOL    HW212651   2.343   5.461   0.884
 3918SOL     OW12652   5.188   1.148   0.288
 3918SOL    HW112653   5.218   1.060   0.250
 3918SOL    HW212654   5.239   1.166   0.373
 3919SOL     OW12655   4.908   1.185   1.068
 3919SOL    HW112656   4.875   1.160   1.159
 3919SOL    HW212657   4.981   1.253   1.076
 3920SOL     OW12658   2.990   1.458   6.564
 3920SOL    HW112659   2.995   1.558   6.560
 3920SOL    HW212660   2.958   1.424   6.475
 3921SOL     OW12661   0.518   2.714   6.444
 3921SOL    HW112662   0.485   2.696   6.352
 3921SOL    HW212663   0.440   2.727   6.506
 3922SOL     OW12664   4.670   4.774   1.868
 3922SOL    HW112665   4.690   4.818   1.780
 3922SOL    HW212666   4.755   4.740   1.908
 3923SOL     OW12667   6.138   1.183   1.947
 3923SOL    HW112668   6.227   1.145   1.921
 3923SOL    HW212669   6.074   1.108   1.966
 3924SOL     OW12670   0.261   4.391   3.820
 3924SOL    HW112671   0.220   4.444   3.746
 3924SOL    HW212672   0.308   4.453   3.883
 3925SOL     OW12673   4.963   3.696   0.293
 3925SOL    HW112674   4.915   3.783   0.303
 3925SOL    HW212675   4.918   3.642   0.222
 3926SOL     OW12676   1.647   0.686   5.774
 3926SOL    HW112677   1.548   0.669   5.770
 3926SOL    HW212678   1.668   0.772   5.728
 3927SOL     OW12679   0.380   2.373   4.535
 3927SOL    HW112680   0.477   2.378   4.559
 3927SOL    HW212681   0.330   2.325   4.607
 3928SOL     OW12682   2.237   0.045   3.814
 3928SOL    HW112683   2.212   0.027   3.909
 3928SOL    HW212684   2.183   0.121   3.778
 3929SOL     OW12685   6.798   2.015   5.304
 3929SOL    HW112686   6.742   2.094   5.332
 3929SOL    HW212687   6.740   1.934   5.298
 3930SOL     OW12688   1.552   2.480   3.903
 3930SOL    HW112689   1.516   2.501   3.994
 3930SOL    HW212690   1.476   2.478   3.837
 3931SOL     OW12691   1.368   2.106   1.644
 3931SOL    HW112692   1.437   2.124   1.575
 3931SOL    HW212693   1.401   2.138   1.733
 3932SOL     OW12694   1.967   5.962   3.999
 3932SOL    HW112695   1.916   5.934   4.081
 3932SOL    HW212696   2.065   5.960   4.020
 3933SOL     OW12697   1.782   5.389   0.442
 3933SOL    HW112698   1.695   5.430   0.414
 3933SOL    HW212699   1.843   5.461   0.475
 3934SOL     OW12700   0.768   1.354   2.769
 3934SOL    HW112701   0.687   1.297   2.783
 3934SOL    HW212702   0.844   1.317   2.824
 3935SOL     OW12703   6.226   3.188   6.479
 3935SOL    HW112704   6.213   3.095   6.444
 3935SOL    HW212705   6.312   3.225   6.443
 3936SOL     OW12706   6.348   5.655   5.186
 3936SOL    HW112707   6.349   5.623   5.092
 3936SOL    HW212708   6.364   5.578   5.248
 3937SOL     OW12709   7.011   5.274   2.554
 3937SOL    HW112710   0.086   5.265   2.594
 3937SOL    HW212711   6.967   5.185   2.553
 3938SOL     OW12712   6.660   3.843   3.540
 3938SOL    HW112713   6.638   3.818   3.634
 3938SOL    HW212714   6.629   3.936   3.522
 3939SOL     OW12715   0.678   1.392   2.091
 3939SOL    HW112716   0.608   1.357   2.152
 3939SOL    HW212717   0.660   1.488   2.070
 3940SOL     OW12718   3.125   4.784   1.921
 3940SOL    HW112719   3.167   4.700   1.886
 3940SOL    HW212720   3.033   4.763   1.955
 3941SOL     OW12721   5.853   6.695   4.011
 3941SOL    HW112722   5.884   6.789   4.028
 3941SOL    HW212723   5.783   6.696   3.939
 3942SOL     OW12724   1.026   6.221   6.213
 3942SOL    HW112725   1.032   6.229   6.312
 3942SOL    HW212726   1.118   6.211   6.175
 3943SOL     OW12727   0.774   3.672   1.948
 3943SOL    HW112728   0.753   3.770   1.957
 3943SOL    HW212729   0.732   3.622   2.023
 3944SOL     OW12730   6.506   2.557   6.783
 3944SOL    HW112731   6.603   2.547   6.762
 3944SOL    HW212732   6.487   2.651   6.810
 3945SOL     OW12733   1.178   0.969   3.389
 3945SOL    HW112734   1.118   1.048   3.377
 3945SOL    HW212735   1.234   0.982   3.471
 3946SOL     OW12736   6.707   3.086   0.242
 3946SOL    HW112737   6.726   3.148   0.165
 3946SOL    HW212738   6.772   3.105   0.316
 3947SOL     OW12739   5.586   5.885   0.953
 3947SOL    HW112740   5.535   5.967   0.977
 3947SOL    HW212741   5.684   5.906   0.952
 3948SOL     OW12742   1.569   2.824   6.108
 3948SOL    HW112743   1.560   2.725   6.118
 3948SOL    HW212744   1.483   2.862   6.072
 3949SOL     OW12745   6.438   6.187   2.894
 3949SOL    HW112746   6.474   6.106   2.849
 3949SOL    HW212747   6.454   6.267   2.836
 3950SOL     OW12748   3.858   4.780   1.425
 3950SOL    HW112749   3.850   4.731   1.512
 3950SOL    HW212750   3.950   4.819   1.417
 3951SOL     OW12751   0.199   1.770   5.383
 3951SOL    HW112752   0.282   1.804   5.426
 3951SOL    HW212753   0.145   1.847   5.349
 3952SOL     OW12754   6.077   2.507   4.976
 3952SOL    HW112755   6.049   2.600   4.954
 3952SOL    HW212756   6.083   2.497   5.076
 3953SOL     OW12757   3.174   3.841   5.982
 3953SOL    HW112758   3.266   3.848   6.020
 3953SOL    HW212759   3.174   3.879   5.889
 3954SOL     OW12760   0.325   3.905   4.891
 3954SOL    HW112761   0.255   3.845   4.929
 3954SOL    HW212762   0.292   3.945   4.806
 3955SOL     OW12763   5.233   5.771   0.309
 3955SOL    HW112764   5.170   5.797   0.236
 3955SOL    HW212765   5.183   5.721   0.380
 3956SOL     OW12766   0.636   3.012   5.604
 3956SOL    HW112767   0.606   2.939   5.664
 3956SOL    HW212768   0.706   3.067   5.650
 3957SOL     OW12769   2.666   0.229   4.186
 3957SOL    HW112770   2.681   0.293   4.262
 3957SOL    HW212771   2.590   0.263   4.130
 3958SOL     OW12772   6.466   5.739   6.999
 3958SOL    HW112773   6.426   5.818   6.951
 3958SOL    HW212774   6.563   5.754   7.014
 3959SOL     OW12775   2.651   6.008   0.363
 3959SOL    HW112776   2.606   5.989   0.450
 3959SOL    HW212777   2.624   5.939   0.296
 3960SOL     OW12778   4.058   3.016   0.020
 3960SOL    HW112779   4.040   2.958   0.100
 3960SOL    HW212780   3.999   2.989   6.962
 3961SOL     OW12781   5.105   1.558   2.446
 3961SOL    HW112782   5.006   1.562   2.455
 3961SOL    HW212783   5.130   1.479   2.390
 3962SOL     OW12784   1.193   6.555   0.145
 3962SOL    HW112785   1.274   6.520   0.191
 3962SOL    HW212786   1.119   6.566   0.211
 3963SOL     OW12787   5.214   4.834   4.258
 3963SOL    HW112788   5.189   4.740   4.234
 3963SOL    HW212789   5.170   4.898   4.196
 3964SOL     OW12790   4.902   5.875   5.132
 3964SOL    HW112791   4.847   5.811   5.079
 3964SOL    HW212792   4.993   5.882   5.093
 3965SOL     OW12793   3.984   4.691   6.893
 3965SOL    HW112794   3.937   4.775   6.868
 3965SOL    HW212795   4.023   4.701   6.985
 3966SOL     OW12796   6.126   5.023   5.697
 3966SOL    HW112797   6.156   5.080   5.773
 3966SOL    HW212798   6.101   4.932   5.731
 3967SOL     OW12799   0.155   6.027   4.872
 3967SOL    HW112800   0.061   6.000   4.892
 3967SOL    HW212801   0.186   5.980   4.789
 3968SOL     OW12802   5.114   0.132   2.274
 3968SOL    HW112803   5.180   0.204   2.295
 3968SOL    HW212804   5.030   0.173   2.238
 3969SOL     OW12805   1.119   5.040   2.933
 3969SOL    HW112806   1.152   5.089   2.852
 3969SOL    HW212807   1.151   5.086   3.016
 3970SOL     OW12808   4.934   5.076   3.895
 3970SOL    HW112809   5.002   5.025   3.842
 3970SOL    HW212810   4.844   5.066   3.852
 3971SOL     OW12811   2.367   5.609   3.323
 3971SOL    HW112812   2.279   5.646   3.352
 3971SOL    HW212813   2.433   5.683   3.310
 3972SOL     OW12814   0.636   6.311   0.545
 3972SOL    HW112815   0.551   6.351   0.578
 3972SOL    HW212816   0.711   6.337   0.606
 3973SOL     OW12817   3.634   3.771   3.858
 3973SOL    HW112818   3.540   3.754   3.886
 3973SOL    HW212819   3.694   3.769   3.938
 3974SOL     OW12820   6.765   1.418   6.103
 3974SOL    HW112821   6.731   1.357   6.174
 3974SOL    HW212822   6.827   1.368   6.042
 3975SOL     OW12823   6.636   0.951   6.379
 3975SOL    HW112824   6.673   0.910   6.296
 3975SOL    HW212825   6.593   0.880   6.435
 3976SOL     OW12826   1.465   4.220   0.987
 3976SOL    HW112827   1.485   4.128   0.955
 3976SOL    HW212828   1.519   4.286   0.933
 3977SOL     OW12829   2.183   6.103   6.166
 3977SOL    HW112830   2.280   6.096   6.192
 3977SOL    HW212831   2.127   6.057   6.235
 3978SOL     OW12832   5.800   1.985   5.573
 3978SOL    HW112833   5.843   2.010   5.486
 3978SOL    HW212834   5.849   2.029   5.648
 3979SOL     OW12835   1.226   6.798   2.010
 3979SOL    HW112836   1.256   6.713   1.967
 3979SOL    HW212837   1.139   6.783   2.057
 3980SOL     OW12838   5.183   3.624   4.397
 3980SOL    HW112839   5.124   3.543   4.392
 3980SOL    HW212840   5.244   3.625   4.318
 3981SOL     OW12841   0.064   1.585   6.840
 3981SOL    HW112842   6.986   1.561   6.857
 3981SOL    HW212843   0.070   1.644   6.760
 3982SOL     OW12844   2.442   1.188   3.924
 3982SOL    HW112845   2.448   1.124   4.001
 3982SOL    HW212846   2.530   1.236   3.914
 3983SOL     OW12847   3.188   6.781   4.395
 3983SOL    HW112848   3.204   6.751   4.489
 3983SOL    HW212849   3.269   6.762   4.340
 3984SOL     OW12850   1.470   6.506   2.205
 3984SOL    HW112851   1.531   6.583   2.184
 3984SOL    HW212852   1.421   6.478   2.123
 3985SOL     OW12853   1.509   3.690   6.790
 3985SOL    HW112854   1.470   3.739   6.868
 3985SOL    HW212855   1.436   3.648   6.736
 3986SOL     OW12856   0.187   1.947   1.273
 3986SOL    HW112857   0.203   1.976   1.178
 3986SOL    HW212858   0.215   2.019   1.336
 3987SOL     OW12859   2.459   5.345   5.427
 3987SOL    HW112860   2.482   5.335   5.331
 3987SOL    HW212861   2.524   5.293   5.483
 3988SOL     OW12862   3.974   2.151   6.751
 3988SOL    HW112863   4.003   2.120   6.842
 3988SOL    HW212864   4.030   2.230   6.724
 3989SOL     OW12865   5.992   0.133   0.179
 3989SOL    HW112866   6.082   0.171   0.158
 3989SOL    HW212867   5.996   0.087   0.268
 3990SOL     OW12868   0.135   2.844   4.356
 3990SOL    HW112869   0.049   2.873   4.398
 3990SOL    HW212870   0.123   2.834   4.258
 3991SOL     OW12871   0.379   2.203   3.738
 3991SOL    HW112872   0.475   2.218   3.713
 3991SOL    HW212873   0.323   2.278   3.701
 3992SOL     OW12874   4.181   3.294   6.423
 3992SOL    HW112875   4.215   3.314   6.515
 3992SOL    HW212876   4.167   3.379   6.373
 3993SOL     OW12877   3.052   2.204   2.321
 3993SOL    HW112878   3.025   2.298   2.305
 3993SOL    HW212879   3.152   2.198   2.319
 3994SOL     OW12880   2.543   2.534   4.548
 3994SOL    HW112881   2.590   2.622   4.543
 3994SOL    HW212882   2.458   2.539   4.495
 3995SOL     OW12883   1.728   3.744   3.227
 3995SOL    HW112884   1.759   3.657   3.265
 3995SOL    HW212885   1.659   3.784   3.287
 3996SOL     OW12886   1.057   1.165   4.591
 3996SOL    HW112887   1.095   1.130   4.505
 3996SOL    HW212888   1.052   1.091   4.658
 3997SOL     OW12889   4.765   4.112   3.129
 3997SOL    HW112890   4.760   4.052   3.049
 3997SOL    HW212891   4.808   4.063   3.205
 3998SOL     OW12892   6.417   2.058   2.688
 3998SOL    HW112893   6.416   1.987   2.758
 3998SOL    HW212894   6.509   2.067   2.650
 3999SOL     OW12895   5.898   3.841   3.293
 3999SOL    HW112896   5.830   3.907   3.326
 3999SOL    HW212897   5.989   3.873   3.319
 4000SOL     OW12898   2.942   5.659   2.676
 4000SOL    HW112899   2.983   5.744   2.643
 4000SOL    HW212900   3.002   5.582   2.653
 4001SOL     OW12901   2.754   3.593   5.841
 4001SOL    HW112902   2.698   3.676   5.847
 4001SOL    HW212903   2.814   3.600   5.762
 4002SOL     OW12904   4.067   3.145   5.261
 4002SOL    HW112905   4.065   3.165   5.163
 4002SOL    HW212906   4.069   3.231   5.313
 4003SOL     OW12907   2.790   1.183   6.520
 4003SOL    HW112908   2.837   1.207   6.605
 4003SOL    HW212909   2.765   1.267   6.472
 4004SOL     OW12910   6.312   3.575   2.966
 4004SOL    HW112911   6.216   3.602   2.973
 4004SOL    HW212912   6.363   3.613   3.043
 4005SOL     OW12913   4.017   4.001   1.224
 4005SOL    HW112914   4.116   3.996   1.207
 4005SOL    HW212915   4.002   4.023   1.320
 4006SOL     OW12916   5.436   4.789   1.873
 4006SOL    HW112917   5.391   4.708   1.911
 4006SOL    HW212918   5.384   4.870   1.897
 4007SOL     OW12919   0.463   1.868   3.332
 4007SOL    HW112920   0.506   1.958   3.321
 4007SOL    HW212921   0.427   1.837   3.245
 4008SOL     OW12922   3.100   6.939   0.433
 4008SOL    HW112923   3.055   6.849   0.434
 4008SOL    HW212924   3.100   6.978   0.525
 4009SOL     OW12925   5.035   2.252   1.304
 4009SOL    HW112926   5.076   2.213   1.387
 4009SOL    HW212927   5.059   2.196   1.225
 4010SOL     OW12928   3.011   4.304   1.471
 4010SOL    HW112929   2.956   4.261   1.543
 4010SOL    HW212930   3.021   4.240   1.395
 4011SOL     OW12931   6.881   6.046   1.478
 4011SOL    HW112932   6.817   6.113   1.518
 4011SOL    HW212933   6.898   6.070   1.383
 4012SOL     OW12934   3.998   6.970   2.189
 4012SOL    HW112935   3.901   6.958   2.211
 4012SOL    HW212936   4.009   0.027   2.124
 4013SOL     OW12937   2.347   0.056   1.493
 4013SOL    HW112938   2.304   6.989   1.526
 4013SOL    HW212939   2.382   0.109   1.570
 4014SOL     OW12940   3.479   6.225   4.103
 4014SOL    HW112941   3.389   6.196   4.072
 4014SOL    HW212942   3.470   6.303   4.165
 4015SOL     OW12943   4.677   4.449   6.368
 4015SOL    HW112944   4.578   4.436   6.361
 4015SOL    HW212945   4.696   4.546   6.386
 4016SOL     OW12946   3.073   5.396   0.682
 4016SOL    HW112947   3.105   5.478   0.730
 4016SOL    HW212948   3.141   5.324   0.691
 4017SOL     OW12949   0.309   4.868   5.204
 4017SOL    HW112950   0.217   4.870   5.242
 4017SOL    HW212951   0.351   4.958   5.213
 4018SOL     OW12952   4.072   0.176   1.748
 4018SOL    HW112953   4.168   0.150   1.760
 4018SOL    HW212954   4.020   0.151   1.829
 4019SOL     OW12955   5.532   3.793   2.490
 4019SOL    HW112956   5.489   3.735   2.420
 4019SOL    HW212957   5.514   3.753   2.580
 4020SOL     OW12958   6.767   3.346   5.314
 4020SOL    HW112959   6.858   3.311   5.338
 4020SOL    HW212960   6.731   3.399   5.391
 4021SOL     OW12961   3.365   4.095   4.930
 4021SOL    HW112962   3.440   4.102   4.864
 4021SOL    HW212963   3.278   4.111   4.883
 4022SOL     OW12964   4.089   6.568   0.408
 4022SOL    HW112965   4.061   6.649   0.458
 4022SOL    HW212966   4.040   6.563   0.321
 4023SOL     OW12967   6.792   1.027   5.970
 4023SOL    HW112968   6.709   1.008   6.023
 4023SOL    HW212969   6.789   0.975   5.884
 4024SOL     OW12970   2.612   5.271   4.397
 4024SOL    HW112971   2.523   5.316   4.389
 4024SOL    HW212972   2.673   5.326   4.454
 4025SOL     OW12973   0.752   6.379   4.677
 4025SOL    HW112974   0.833   6.431   4.704
 4025SOL    HW212975   0.674   6.408   4.732
 4026SOL     OW12976   6.293   6.115   4.236
 4026SOL    HW112977   6.296   6.062   4.321
 4026SOL    HW212978   6.218   6.082   4.179
 4027SOL     OW12979   2.956   1.883   0.091
 4027SOL    HW112980   2.934   1.915   0.183
 4027SOL    HW212981   2.953   1.783   0.089
 4028SOL     OW12982   4.175   1.862   3.715
 4028SOL    HW112983   4.215   1.942   3.760
 4028SOL    HW212984   4.231   1.836   3.637
 4029SOL     OW12985   2.741   4.334   6.259
 4029SOL    HW112986   2.710   4.422   6.297
 4029SOL    HW212987   2.829   4.347   6.213
 4030SOL     OW12988   6.828   1.257   1.524
 4030SOL    HW112989   6.792   1.345   1.493
 4030SOL    HW212990   6.834   1.257   1.623
 4031SOL     OW12991   5.394   6.172   3.539
 4031SOL    HW112992   5.339   6.216   3.610
 4031SOL    HW212993   5.470   6.233   3.514
 4032SOL     OW12994   0.299   6.930   2.269
 4032SOL    HW112995   0.398   6.919   2.263
 4032SOL    HW212996   0.273   0.003   2.234
 4033SOL     OW12997   1.630   2.756   1.884
 4033SOL    HW112998   1.725   2.729   1.897
 4033SOL    HW212999   1.570   2.678   1.901
 4034SOL     OW13000   5.741   2.176   5.369
 4034SOL    HW113001   5.669   2.156   5.436
 4034SOL    HW213002   5.716   2.135   5.281
 4035SOL     OW13003   6.403   1.032   1.107
 4035SOL    HW113004   6.407   1.066   1.201
 4035SOL    HW213005   6.318   1.063   1.064
 4036SOL     OW13006   4.068   5.112   2.546
 4036SOL    HW113007   4.141   5.043   2.541
 4036SOL    HW213008   4.016   5.112   2.461
 4037SOL     OW13009   2.341   1.368   6.411
 4037SOL    HW113010   2.263   1.400   6.357
 4037SOL    HW213011   2.358   1.272   6.391
 4038SOL     OW13012   4.345   2.785   0.852
 4038SOL    HW113013   4.298   2.730   0.783
 4038SOL    HW213014   4.278   2.843   0.900
 4039SOL     OW13015   4.469   5.708   2.212
 4039SOL    HW113016   4.494   5.615   2.240
 4039SOL    HW213017   4.370   5.720   2.221
 4040SOL     OW13018   2.652   6.712   5.130
 4040SOL    HW113019   2.653   6.812   5.127
 4040SOL    HW213020   2.708   6.680   5.206
 4041SOL     OW13021   2.168   5.349   1.328
 4041SOL    HW113022   2.232   5.277   1.353
 4041SOL    HW213023   2.216   5.421   1.278
 4042SOL     OW13024   6.031   5.930   4.359
 4042SOL    HW113025   6.019   5.996   4.433
 4042SOL    HW213026   5.942   5.898   4.327
 4043SOL     OW13027   0.151   1.995   6.316
 4043SOL    HW113028   0.141   2.082   6.366
 4043SOL    HW213029   0.062   1.952   6.305
 4044SOL     OW13030   5.411   5.643   3.856
 4044SOL    HW113031   5.403   5.605   3.764
 4044SOL    HW213032   5.352   5.723   3.865
 4045SOL     OW13033   4.288   6.622   5.779
 4045SOL    HW113034   4.238   6.537   5.759
 4045SOL    HW213035   4.268   6.651   5.872
 4046SOL     OW13036   0.903   2.029   3.071
 4046SOL    HW113037   0.894   1.947   3.127
 4046SOL    HW213038   0.992   2.030   3.026
 4047SOL     OW13039   2.599   2.177   6.900
 4047SOL    HW113040   2.610   2.217   6.809
 4047SOL    HW213041   2.503   2.181   6.927
 4048SOL     OW13042   5.371   1.351   1.675
 4048SOL    HW113043   5.294   1.380   1.732
 4048SOL    HW213044   5.412   1.268   1.714
 4049SOL     OW13045   5.150   5.116   6.423
 4049SOL    HW113046   5.080   5.113   6.495
 4049SOL    HW213047   5.212   5.192   6.441
 4050SOL     OW13048   0.983   6.181   1.939
 4050SOL    HW113049   0.884   6.195   1.927
 4050SOL    HW213050   1.032   6.220   1.861
 4051SOL     OW13051   4.199   1.547   6.227
 4051SOL    HW113052   4.215   1.641   6.196
 4051SOL    HW213053   4.231   1.538   6.322
 4052SOL     OW13054   5.769   1.555   3.195
 4052SOL    HW113055   5.706   1.617   3.241
 4052SOL    HW213056   5.859   1.561   3.238
 4053SOL     OW13057   2.417   6.668   4.813
 4053SOL    HW113058   2.421   6.624   4.903
 4053SOL    HW213059   2.341   6.630   4.761
 4054SOL     OW13060   5.095   4.254   1.019
 4054SOL    HW113061   5.079   4.261   0.920
 4054SOL    HW213062   5.109   4.158   1.043
 4055SOL     OW13063   2.895   3.988   0.486
 4055SOL    HW113064   2.836   4.061   0.521
 4055SOL    HW213065   2.850   3.944   0.408
 4056SOL     OW13066   5.359   4.344   1.077
 4056SOL    HW113067   5.391   4.417   1.018
 4056SOL    HW213068   5.262   4.326   1.057
 4057SOL     OW13069   0.484   2.692   0.560
 4057SOL    HW113070   0.512   2.653   0.472
 4057SOL    HW213071   0.417   2.764   0.544
 4058SOL     OW13072   3.174   6.736   4.707
 4058SOL    HW113073   3.132   6.731   4.797
 4058SOL    HW213074   3.221   6.824   4.698
 4059SOL     OW13075   0.702   1.865   2.911
 4059SOL    HW113076   0.722   1.792   2.847
 4059SOL    HW213077   0.780   1.928   2.915
 4060SOL     OW13078   5.270   4.908   5.661
 4060SOL    HW113079   5.354   4.960   5.650
 4060SOL    HW213080   5.219   4.943   5.740
 4061SOL     OW13081   2.075   4.789   2.074
 4061SOL    HW113082   2.119   4.773   2.163
 4061SOL    HW213083   1.977   4.807   2.088
 4062SOL     OW13084   2.241   0.525   1.797
 4062SOL    HW113085   2.305   0.499   1.724
 4062SOL    HW213086   2.267   0.477   1.881
 4063SOL     OW13087   6.334   6.596   0.301
 4063SOL    HW113088   6.303   6.541   0.379
 4063SOL    HW213089   6.386   6.538   0.239
 4064SOL     OW13090   2.226   0.738   4.005
 4064SOL    HW113091   2.304   0.724   4.065
 4064SOL    HW213092   2.163   0.804   4.046
 4065SOL     OW13093   1.368   6.345   1.649
 4065SOL    HW113094   1.407   6.397   1.725
 4065SOL    HW213095   1.405   6.378   1.563
 4066SOL     OW13096   6.346   4.521   3.076
 4066SOL    HW113097   6.246   4.527   3.077
 4066SOL    HW213098   6.378   4.481   3.162
 4067SOL     OW13099   6.350   3.261   2.651
 4067SOL    HW113100   6.364   3.273   2.749
 4067SOL    HW213101   6.386   3.172   2.623
 4068SOL     OW13102   2.044   1.560   4.666
 4068SOL    HW113103   1.981   1.586   4.740
 4068SOL    HW213104   2.120   1.625   4.663
 4069SOL     OW13105   3.250   5.194   6.468
 4069SOL    HW113106   3.211   5.277   6.428
 4069SOL    HW213107   3.189   5.160   6.540
 4070SOL     OW13108   0.193   2.456   2.881
 4070SOL    HW113109   0.103   2.477   2.843
 4070SOL    HW213110   0.261   2.457   2.808
 4071SOL     OW13111   0.960   1.167   5.296
 4071SOL    HW113112   0.985   1.137   5.388
 4071SOL    HW213113   0.995   1.259   5.281
 4072SOL     OW13114   0.652   5.430   4.396
 4072SOL    HW113115   0.749   5.432   4.421
 4072SOL    HW213116   0.636   5.354   4.333
 4073SOL     OW13117   2.849   6.164   6.480
 4073SOL    HW113118   2.947   6.144   6.469
 4073SOL    HW213119   2.827   6.168   6.578
 4074SOL     OW13120   0.521   4.581   1.086
 4074SOL    HW113121   0.435   4.612   1.046
 4074SOL    HW213122   0.520   4.598   1.184
 4075SOL     OW13123   4.817   1.682   1.353
 4075SOL    HW113124   4.827   1.586   1.377
 4075SOL    HW213125   4.889   1.709   1.290
 4076SOL     OW13126   2.664   3.326   6.136
 4076SOL    HW113127   2.730   3.311   6.063
 4076SOL    HW213128   2.586   3.377   6.100
 4077SOL     OW13129   4.176   1.696   6.939
 4077SOL    HW113130   4.168   1.748   0.007
 4077SOL    HW213131   4.085   1.681   6.901
 4078SOL     OW13132   1.604   5.449   1.680
 4078SOL    HW113133   1.561   5.529   1.722
 4078SOL    HW213134   1.539   5.405   1.619
 4079SOL     OW13135   1.811   0.989   3.733
 4079SOL    HW113136   1.907   0.963   3.735
 4079SOL    HW213137   1.803   1.089   3.735
 4080SOL     OW13138   4.642   3.280   6.255
 4080SOL    HW113139   4.542   3.273   6.258
 4080SOL    HW213140   4.676   3.233   6.174
 4081SOL     OW13141   2.067   2.846   3.961
 4081SOL    HW113142   2.123   2.914   4.008
 4081SOL    HW213143   2.029   2.782   4.028
 4082SOL     OW13144   1.120   4.013   0.011
 4082SOL    HW113145   1.079   3.960   6.954
 4082SOL    HW213146   1.177   4.086   6.990
 4083SOL     OW13147   6.907   2.959   2.618
 4083SOL    HW113148   6.825   2.906   2.641
 4083SOL    HW213149   6.880   3.049   2.584
 4084SOL     OW13150   5.705   2.396   3.805
 4084SOL    HW113151   5.632   2.377   3.869
 4084SOL    HW213152   5.778   2.447   3.851
 4085SOL     OW13153   3.390   5.526   1.551
 4085SOL    HW113154   3.436   5.511   1.639
 4085SOL    HW213155   3.326   5.451   1.534
 4086SOL     OW13156   1.766   6.064   1.672
 4086SOL    HW113157   1.824   6.006   1.730
 4086SOL    HW213158   1.721   6.133   1.729
 4087SOL     OW13159   2.437   2.005   3.688
 4087SOL    HW113160   2.370   1.946   3.732
 4087SOL    HW213161   2.432   2.097   3.727
 4088SOL     OW13162   0.031   1.781   0.515
 4088SOL    HW113163   0.123   1.784   0.477
 4088SOL    HW213164   6.999   1.866   0.493
 4089SOL     OW13165   5.945   6.232   4.183
 4089SOL    HW113166   5.937   6.289   4.265
 4089SOL    HW213167   5.886   6.268   4.111
 4090SOL     OW13168   1.204   4.105   6.087
 4090SOL    HW113169   1.284   4.163   6.080
 4090SOL    HW213170   1.134   4.137   6.023
 4091SOL     OW13171   0.333   6.046   0.409
 4091SOL    HW113172   0.409   6.075   0.351
 4091SOL    HW213173   0.260   6.008   0.351
 4092SOL     OW13174   6.609   2.810   5.776
 4092SOL    HW113175   6.642   2.739   5.714
 4092SOL    HW213176   6.684   2.870   5.802
 4093SOL     OW13177   4.731   0.462   2.796
 4093SOL    HW113178   4.822   0.504   2.788
 4093SOL    HW213179   4.680   0.479   2.711
 4094SOL     OW13180   2.684   6.020   4.389
 4094SOL    HW113181   2.600   6.073   4.375
 4094SOL    HW213182   2.669   5.926   4.359
 4095SOL     OW13183   0.700   3.641   0.231
 4095SOL    HW113184   0.787   3.644   0.182
 4095SOL    HW213185   0.656   3.731   0.225
 4096SOL     OW13186   4.683   5.959   6.061
 4096SOL    HW113187   4.659   5.866   6.088
 4096SOL    HW213188   4.701   6.014   6.143
 4097SOL     OW13189   3.250   4.817   5.432
 4097SOL    HW113190   3.262   4.734   5.377
 4097SOL    HW213191   3.152   4.837   5.441
 4098SOL     OW13192   0.707   3.093   1.724
 4098SOL    HW113193   0.697   3.103   1.823
 4098SOL    HW213194   0.777   3.025   1.704
 4099SOL     OW13195   2.864   5.110   1.367
 4099SOL    HW113196   2.773   5.132   1.401
 4099SOL    HW213197   2.886   5.170   1.290
 4100SOL     OW13198   6.823   5.401   4.942
 4100SOL    HW113199   6.790   5.322   4.993
 4100SOL    HW213200   6.906   5.376   4.891
 4101SOL     OW13201   6.007   1.560   0.196
 4101SOL    HW113202   6.021   1.580   0.099
 4101SOL    HW213203   6.089   1.516   0.233
 4102SOL     OW13204   6.273   0.524   0.981
 4102SOL    HW113205   6.360   0.510   0.933
 4102SOL    HW213206   6.262   0.621   1.002
 4103SOL     OW13207   6.941   0.763   0.397
 4103SOL    HW113208   6.918   0.767   0.494
 4103SOL    HW213209   6.954   0.856   0.362
 4104SOL     OW13210   0.568   4.574   2.089
 4104SOL    HW113211   0.604   4.569   2.182
 4104SOL    HW213212   0.627   4.632   2.033
 4105SOL     OW13213   4.176   6.827   2.022
 4105SOL    HW113214   4.099   6.859   2.077
 4105SOL    HW213215   4.262   6.851   2.067
 4106SOL     OW13216   6.799   2.559   3.687
 4106SOL    HW113217   6.884   2.609   3.671
 4106SOL    HW213218   6.760   2.586   3.775
 4107SOL     OW13219   1.318   6.099   1.466
 4107SOL    HW113220   1.390   6.031   1.478
 4107SOL    HW213221   1.324   6.168   1.538
 4108SOL     OW13222   6.508   4.466   5.652
 4108SOL    HW113223   6.513   4.556   5.609
 4108SOL    HW213224   6.502   4.395   5.582
 4109SOL     OW13225   5.403   6.774   5.305
 4109SOL    HW113226   5.414   6.836   5.227
 4109SOL    HW213227   5.446   6.814   5.386
 4110SOL     OW13228   4.400   3.629   6.489
 4110SOL    HW113229   4.439   3.714   6.523
 4110SOL    HW213230   4.366   3.642   6.396
 4111SOL     OW13231   3.879   3.275   6.776
 4111SOL    HW113232   3.934   3.355   6.753
 4111SOL    HW213233   3.930   3.192   6.753
 4112SOL     OW13234   4.965   0.292   5.150
 4112SOL    HW113235   4.987   0.347   5.231
 4112SOL    HW213236   4.998   0.338   5.068
 4113SOL     OW13237   4.890   6.625   4.560
 4113SOL    HW113238   4.901   6.527   4.576
 4113SOL    HW213239   4.917   6.675   4.642
 4114SOL     OW13240   3.069   2.171   4.553
 4114SOL    HW113241   3.105   2.247   4.499
 4114SOL    HW213242   3.032   2.101   4.492
 4115SOL     OW13243   3.822   5.122   2.682
 4115SOL    HW113244   3.790   5.203   2.732
 4115SOL    HW213245   3.910   5.142   2.640
 4116SOL     OW13246   3.728   2.031   1.803
 4116SOL    HW113247   3.715   2.059   1.708
 4116SOL    HW213248   3.710   2.109   1.863
 4117SOL     OW13249   0.901   4.932   1.941
 4117SOL    HW113250   0.811   4.917   1.982
 4117SOL    HW213251   0.954   4.847   1.942
 4118SOL     OW13252   3.124   6.634   0.510
 4118SOL    HW113253   3.110   6.615   0.412
 4118SOL    HW213254   3.039   6.615   0.559
 4119SOL     OW13255   3.449   1.763   3.586
 4119SOL    HW113256   3.420   1.835   3.650
 4119SOL    HW213257   3.396   1.680   3.603
 4120SOL     OW13258   3.933   0.286   0.815
 4120SOL    HW113259   3.891   0.235   0.890
 4120SOL    HW213260   4.003   0.347   0.852
 4121SOL     OW13261   6.056   1.037   5.164
 4121SOL    HW113262   6.011   1.107   5.107
 4121SOL    HW213263   6.035   0.947   5.128
 4122SOL     OW13264   0.711   5.533   5.266
 4122SOL    HW113265   0.806   5.562   5.252
 4122SOL    HW213266   0.688   5.541   5.363
 4123SOL     OW13267   4.286   4.691   5.960
 4123SOL    HW113268   4.249   4.761   6.021
 4123SOL    HW213269   4.308   4.732   5.871
 4124SOL     OW13270   5.696   5.050   6.481
 4124SOL    HW113271   5.791   5.074   6.501
 4124SOL    HW213272   5.679   5.062   6.383
 4125SOL     OW13273   4.526   1.767   2.907
 4125SOL    HW113274   4.621   1.756   2.878
 4125SOL    HW213275   4.471   1.691   2.873
 4126SOL     OW13276   1.567   3.422   3.871
 4126SOL    HW113277   1.599   3.372   3.790
 4126SOL    HW213278   1.553   3.357   3.946
 4127SOL     OW13279   4.311   4.735   4.452
 4127SOL    HW113280   4.312   4.678   4.534
 4127SOL    HW213281   4.370   4.815   4.466
 4128SOL     OW13282   1.409   3.245   2.436
 4128SOL    HW113283   1.363   3.156   2.437
 4128SOL    HW213284   1.408   3.282   2.344
 4129SOL     OW13285   4.457   1.921   6.566
 4129SOL    HW113286   4.529   1.860   6.598
 4129SOL    HW213287   4.368   1.889   6.599
 4130SOL     OW13288   6.342   2.843   5.687
 4130SOL    HW113289   6.310   2.884   5.772
 4130SOL    HW213290   6.430   2.797   5.703
 4131SOL     OW13291   1.816   6.726   3.264
 4131SOL    HW113292   1.817   6.823   3.288
 4131SOL    HW213293   1.907   6.687   3.278
 4132SOL     OW13294   5.124   4.254   3.700
 4132SOL    HW113295   5.148   4.157   3.698
 4132SOL    HW213296   5.033   4.267   3.661
 4133SOL     OW13297   3.136   0.217   1.432
 4133SOL    HW113298   3.180   0.240   1.345
 4133SOL    HW213299   3.037   0.223   1.422
 4134SOL     OW13300   2.295   2.794   0.127
 4134SOL    HW113301   2.269   2.890   0.135
 4134SOL    HW213302   2.237   2.738   0.188
 4135SOL     OW13303   1.699   1.554   3.293
 4135SOL    HW113304   1.652   1.608   3.223
 4135SOL    HW213305   1.792   1.588   3.304
 4136SOL     OW13306   1.168   2.367   2.908
 4136SOL    HW113307   1.223   2.448   2.928
 4136SOL    HW213308   1.101   2.389   2.837
 4137SOL     OW13309   1.409   4.576   0.696
 4137SOL    HW113310   1.492   4.526   0.673
 4137SOL    HW213311   1.390   4.565   0.794
 4138SOL     OW13312   3.798   5.175   3.009
 4138SOL    HW113313   3.837   5.193   3.100
 4138SOL    HW213314   3.771   5.079   3.003
 4139SOL     OW13315   2.640   2.457   4.838
 4139SOL    HW113316   2.643   2.479   4.740
 4139SOL    HW213317   2.552   2.415   4.860
 4140SOL     OW13318   3.022   0.789   5.591
 4140SOL    HW113319   2.970   0.711   5.555
 4140SOL    HW213320   3.091   0.756   5.655
 4141SOL     OW13321   5.931   6.698   1.482
 4141SOL    HW113322   5.999   6.656   1.423
 4141SOL    HW213323   5.839   6.668   1.454
 4142SOL     OW13324   6.512   5.616   0.813
 4142SOL    HW113325   6.435   5.559   0.843
 4142SOL    HW213326   6.576   5.561   0.761
 4143SOL     OW13327   0.532   3.011   0.385
 4143SOL    HW113328   0.539   3.111   0.384
 4143SOL    HW213329   0.447   2.984   0.340
 4144SOL     OW13330   4.753   3.775   6.361
 4144SOL    HW113331   4.844   3.815   6.348
 4144SOL    HW213332   4.747   3.689   6.311
 4145SOL     OW13333   6.676   5.723   1.007
 4145SOL    HW113334   6.746   5.652   1.017
 4145SOL    HW213335   6.599   5.686   0.955
 4146SOL     OW13336   6.631   1.328   5.363
 4146SOL    HW113337   6.728   1.324   5.385
 4146SOL    HW213338   6.589   1.406   5.409
 4147SOL     OW13339   4.798   3.253   5.673
 4147SOL    HW113340   4.756   3.170   5.636
 4147SOL    HW213341   4.840   3.305   5.599
 4148SOL     OW13342   0.861   0.514   4.930
 4148SOL    HW113343   0.863   0.500   5.029
 4148SOL    HW213344   0.766   0.515   4.899
 4149SOL     OW13345   0.387   2.481   0.728
 4149SOL    HW113346   0.390   2.550   0.656
 4149SOL    HW213347   0.437   2.400   0.699
 4150SOL     OW13348   0.334   1.084   5.543
 4150SOL    HW113349   0.370   0.998   5.508
 4150SOL    HW213350   0.409   1.149   5.557
 4151SOL     OW13351   3.714   6.334   6.032
 4151SOL    HW113352   3.795   6.393   6.027
 4151SOL    HW213353   3.742   6.243   6.062
 4152SOL     OW13354   2.914   6.164   1.300
 4152SOL    HW113355   2.892   6.181   1.204
 4152SOL    HW213356   2.857   6.090   1.336
 4153SOL     OW13357   4.137   4.499   6.782
 4153SOL    HW113358   4.084   4.571   6.827
 4153SOL    HW213359   4.120   4.502   6.684
 4154SOL     OW13360   0.715   4.555   4.453
 4154SOL    HW113361   0.798   4.506   4.424
 4154SOL    HW213362   0.636   4.496   4.438
 4155SOL     OW13363   6.750   1.744   2.507
 4155SOL    HW113364   6.697   1.686   2.445
 4155SOL    HW213365   6.711   1.836   2.507
 4156SOL     OW13366   5.200   6.540   4.842
 4156SOL    HW113367   5.202   6.445   4.810
 4156SOL    HW213368   5.105   6.572   4.845
 4157SOL     OW13369   4.266   6.365   4.164
 4157SOL    HW113370   4.347   6.307   4.173
 4157SOL    HW213371   4.202   6.324   4.099
 4158SOL     OW13372   1.538   4.710   3.301
 4158SOL    HW113373   1.606   4.662   3.245
 4158SOL    HW213374   1.514   4.653   3.380
 4159SOL     OW13375   2.256   2.994   4.092
 4159SOL    HW113376   2.245   3.025   4.187
 4159SOL    HW213377   2.327   2.924   4.089
 4160SOL     OW13378   6.156   0.777   1.102
 4160SOL    HW113379   6.101   0.797   1.184
 4160SOL    HW213380   6.140   0.847   1.033
 4161SOL     OW13381   1.022   0.538   6.729
 4161SOL    HW113382   1.019   0.459   6.790
 4161SOL    HW213383   0.949   0.602   6.754
 4162SOL     OW13384   6.415   6.375   5.796
 4162SOL    HW113385   6.334   6.403   5.847
 4162SOL    HW213386   6.388   6.322   5.715
 4163SOL     OW13387   6.243   6.933   3.102
 4163SOL    HW113388   6.223   6.928   3.200
 4163SOL    HW213389   6.305   7.010   3.085
 4164SOL     OW13390   1.244   6.653   6.715
 4164SOL    HW113391   1.185   6.724   6.754
 4164SOL    HW213392   1.303   6.694   6.645
 4165SOL     OW13393   4.396   0.097   0.042
 4165SOL    HW113394   4.363   0.008   0.010
 4165SOL    HW213395   4.318   0.154   0.069
 4166SOL     OW13396   5.866   4.254   0.922
 4166SOL    HW113397   5.958   4.266   0.884
 4166SOL    HW213398   5.836   4.340   0.964
 4167SOL     OW13399   1.285   4.315   1.177
 4167SOL    HW113400   1.323   4.321   1.270
 4167SOL    HW213401   1.355   4.280   1.115
 4168SOL     OW13402   6.624   5.123   1.265
 4168SOL    HW113403   6.584   5.215   1.258
 4168SOL    HW213404   6.675   5.116   1.350
 4169SOL     OW13405   5.948   4.041   4.086
 4169SOL    HW113406   6.032   4.092   4.067
 4169SOL    HW213407   5.971   3.955   4.131
 4170SOL     OW13408   3.100   4.057   4.885
 4170SOL    HW113409   3.044   4.095   4.959
 4170SOL    HW213410   3.068   3.965   4.863
 4171SOL     OW13411   4.739   4.844   1.577
 4171SOL    HW113412   4.802   4.895   1.518
 4171SOL    HW213413   4.661   4.903   1.601
 4172SOL     OW13414   0.417   1.788   6.051
 4172SOL    HW113415   0.331   1.786   6.001
 4172SOL    HW213416   0.399   1.790   6.149
 4173SOL     OW13417   5.300   3.765   5.415
 4173SOL    HW113418   5.363   3.820   5.360
 4173SOL    HW213419   5.294   3.672   5.377
 4174SOL     OW13420   5.467   0.524   3.333
 4174SOL    HW113421   5.540   0.455   3.331
 4174SOL    HW213422   5.494   0.603   3.279
 4175SOL     OW13423   2.018   5.810   4.795
 4175SOL    HW113424   1.932   5.860   4.806
 4175SOL    HW213425   2.029   5.747   4.872
 4176SOL     OW13426   2.436   6.683   1.981
 4176SOL    HW113427   2.352   6.720   2.023
 4176SOL    HW213428   2.435   6.583   1.987
 4177SOL     OW13429   6.660   4.395   4.482
 4177SOL    HW113430   6.564   4.367   4.481
 4177SOL    HW213431   6.667   4.489   4.516
 4178SOL     OW13432   4.396   1.224   4.103
 4178SOL    HW113433   4.318   1.271   4.063
 4178SOL    HW213434   4.369   1.183   4.190
 4179SOL     OW13435   5.337   2.428   3.402
 4179SOL    HW113436   5.352   2.416   3.304
 4179SOL    HW213437   5.369   2.519   3.430
 4180SOL     OW13438   5.494   3.675   1.544
 4180SOL    HW113439   5.552   3.595   1.532
 4180SOL    HW213440   5.447   3.670   1.632
 4181SOL     OW13441   1.833   2.075   6.402
 4181SOL    HW113442   1.754   2.015   6.418
 4181SOL    HW213443   1.901   2.026   6.347
 4182SOL     OW13444   0.259   6.372   2.860
 4182SOL    HW113445   0.236   6.434   2.785
 4182SOL    HW213446   0.231   6.279   2.836
 4183SOL     OW13447   4.540   0.496   0.570
 4183SOL    HW113448   4.473   0.471   0.499
 4183SOL    HW213449   4.582   0.414   0.607
 4184SOL     OW13450   4.860   5.274   1.546
 4184SOL    HW113451   4.800   5.336   1.496
 4184SOL    HW213452   4.807   5.226   1.617
 4185SOL     OW13453   1.112   5.751   2.285
 4185SOL    HW113454   1.204   5.750   2.247
 4185SOL    HW213455   1.069   5.839   2.265
 4186SOL     OW13456   1.777   4.683   0.985
 4186SOL    HW113457   1.803   4.587   0.996
 4186SOL    HW213458   1.809   4.716   0.896
 4187SOL     OW13459   3.310   4.159   5.969
 4187SOL    HW113460   3.371   4.088   6.004
 4187SOL    HW213461   3.352   4.201   5.888
 4188SOL     OW13462   4.924   7.010   4.052
 4188SOL    HW113463   5.017   6.974   4.047
 4188SOL    HW213464   4.927   0.092   4.067
 4189SOL     OW13465   3.260   0.809   5.369
 4189SOL    HW113466   3.254   0.904   5.338
 4189SOL    HW213467   3.177   0.785   5.418
 4190SOL     OW13468   1.027   0.296   6.876
 4190SOL    HW113469   1.110   0.262   6.921
 4190SOL    HW213470   1.003   0.234   6.801
 4191SOL     OW13471   5.805   3.652   3.115
 4191SOL    HW113472   5.810   3.692   3.024
 4191SOL    HW213473   5.833   3.720   3.183
 4192SOL     OW13474   0.049   0.621   3.252
 4192SOL    HW113475   0.117   0.561   3.293
 4192SOL    HW213476   0.054   0.613   3.152
 4193SOL     OW13477   2.287   6.750   2.226
 4193SOL    HW113478   2.245   6.802   2.300
 4193SOL    HW213479   2.367   6.701   2.260
 4194SOL     OW13480   5.972   1.245   5.614
 4194SOL    HW113481   5.956   1.185   5.692
 4194SOL    HW213482   5.934   1.202   5.531
 4195SOL     OW13483   3.775   0.997   1.563
 4195SOL    HW113484   3.690   1.039   1.531
 4195SOL    HW213485   3.848   1.066   1.563
 4196SOL     OW13486   5.856   2.086   3.800
 4196SOL    HW113487   5.766   2.127   3.789
 4196SOL    HW213488   5.849   2.004   3.857
 4197SOL     OW13489   4.676   5.253   5.467
 4197SOL    HW113490   4.658   5.327   5.403
 4197SOL    HW213491   4.590   5.206   5.489
 4198SOL     OW13492   5.445   3.046   6.479
 4198SOL    HW113493   5.370   2.984   6.504
 4198SOL    HW213494   5.484   3.017   6.392
 4199SOL     OW13495   2.068   3.813   6.364
 4199SOL    HW113496   2.121   3.893   6.390
 4199SOL    HW213497   2.016   3.833   6.281
 4200SOL     OW13498   3.465   6.686   5.048
 4200SOL    HW113499   3.543   6.624   5.039
 4200SOL    HW213500   3.493   6.779   5.026
 4201SOL     OW13501   5.706   5.693   4.052
 4201SOL    HW113502   5.648   5.623   4.009
 4201SOL    HW213503   5.737   5.660   4.141
 4202SOL     OW13504   4.346   5.907   5.581
 4202SOL    HW113505   4.378   5.932   5.490
 4202SOL    HW213506   4.416   5.929   5.648
 4203SOL     OW13507   4.937   5.352   2.170
 4203SOL    HW113508   4.929   5.405   2.254
 4203SOL    HW213509   4.871   5.387   2.102
 4204SOL     OW13510   3.698   3.202   1.976
 4204SOL    HW113511   3.740   3.133   2.034
 4204SOL    HW213512   3.598   3.198   1.987
 4205SOL     OW13513   3.654   5.333   4.499
 4205SOL    HW113514   3.685   5.417   4.453
 4205SOL    HW213515   3.725   5.263   4.490
 4206SOL     OW13516   5.782   0.549   5.464
 4206SOL    HW113517   5.724   0.598   5.399
 4206SOL    HW213518   5.878   0.559   5.437
 4207SOL     OW13519   2.428   1.501   1.522
 4207SOL    HW113520   2.332   1.480   1.500
 4207SOL    HW213521   2.446   1.475   1.617
 4208SOL     OW13522   1.036   2.473   6.245
 4208SOL    HW113523   0.940   2.497   6.255
 4208SOL    HW213524   1.057   2.394   6.302
 4209SOL     OW13525   1.057   1.098   4.903
 4209SOL    HW113526   1.069   1.020   4.842
 4209SOL    HW213527   0.970   1.143   4.882
 4210SOL     OW13528   2.901   3.351   1.756
 4210SOL    HW113529   2.965   3.422   1.729
 4210SOL    HW213530   2.814   3.364   1.707
 4211SOL     OW13531   4.356   5.809   5.180
 4211SOL    HW113532   4.439   5.838   5.229
 4211SOL    HW213533   4.376   5.802   5.083
 4212SOL     OW13534   5.955   2.261   2.235
 4212SOL    HW113535   5.917   2.169   2.245
 4212SOL    HW213536   5.928   2.299   2.146
 4213SOL     OW13537   2.183   1.343   2.654
 4213SOL    HW113538   2.217   1.250   2.667
 4213SOL    HW213539   2.181   1.364   2.556
 4214SOL     OW13540   0.567   4.013   5.711
 4214SOL    HW113541   0.611   3.977   5.629
 4214SOL    HW213542   0.633   4.064   5.766
 4215SOL     OW13543   6.471   5.457   4.572
 4215SOL    HW113544   6.508   5.453   4.665
 4215SOL    HW213545   6.530   5.513   4.514
 4216SOL     OW13546   1.479   1.752   2.555
 4216SOL    HW113547   1.398   1.775   2.501
 4216SOL    HW213548   1.459   1.765   2.652
 4217SOL     OW13549   5.740   6.864   2.431
 4217SOL    HW113550   5.760   6.766   2.418
 4217SOL    HW213551   5.816   6.907   2.478
 4218SOL     OW13552   4.880   6.968   0.950
 4218SOL    HW113553   4.854   7.003   1.041
 4218SOL    HW213554   4.819   7.008   0.882
 4219SOL     OW13555   3.014   5.606   4.863
 4219SOL    HW113556   3.067   5.522   4.850
 4219SOL    HW213557   2.920   5.584   4.887
 4220SOL     OW13558   6.227   2.675   3.511
 4220SOL    HW113559   6.278   2.759   3.491
 4220SOL    HW213560   6.170   2.651   3.432
 4221SOL     OW13561   5.988   5.709   6.467
 4221SOL    HW113562   6.048   5.631   6.453
 4221SOL    HW213563   5.902   5.695   6.418
 4222SOL     OW13564   6.208   2.687   2.218
 4222SOL    HW113565   6.210   2.612   2.284
 4222SOL    HW213566   6.149   2.760   2.253
 4223SOL     OW13567   3.024   3.346   3.860
 4223SOL    HW113568   2.943   3.353   3.920
 4223SOL    HW213569   3.084   3.424   3.877
 4224SOL     OW13570   4.948   3.304   3.536
 4224SOL    HW113571   4.920   3.230   3.474
 4224SOL    HW213572   4.919   3.282   3.629
 4225SOL     OW13573   5.009   0.460   5.358
 4225SOL    HW113574   4.999   0.558   5.342
 4225SOL    HW213575   5.071   0.444   5.435
 4226SOL     OW13576   1.306   0.365   3.225
 4226SOL    HW113577   1.224   0.330   3.181
 4226SOL    HW213578   1.294   0.463   3.245
 4227SOL     OW13579   3.460   4.819   6.937
 4227SOL    HW113580   3.492   4.861   0.005
 4227SOL    HW213581   3.414   4.888   6.880
 4228SOL     OW13582   6.360   4.271   2.990
 4228SOL    HW113583   6.357   4.371   2.999
 4228SOL    HW213584   6.291   4.241   2.925
 4229SOL     OW13585   4.208   4.471   5.850
 4229SOL    HW113586   4.280   4.402   5.844
 4229SOL    HW213587   4.245   4.554   5.893
 4230SOL     OW13588   2.721   0.818   4.256
 4230SOL    HW113589   2.657   0.751   4.294
 4230SOL    HW213590   2.741   0.888   4.324
 4231SOL     OW13591   5.436   6.711   4.819
 4231SOL    HW113592   5.417   6.770   4.898
 4231SOL    HW213593   5.359   6.649   4.805
 4232SOL     OW13594   0.442   4.987   1.564
 4232SOL    HW113595   0.487   5.075   1.577
 4232SOL    HW213596   0.462   4.952   1.472
 4233SOL     OW13597   6.864   0.186   6.877
 4233SOL    HW113598   6.767   0.175   6.856
 4233SOL    HW213599   6.878   0.267   6.933
 4234SOL     OW13600   1.139   0.227   5.873
 4234SOL    HW113601   1.236   0.215   5.891
 4234SOL    HW213602   1.126   0.270   5.783
 4235SOL     OW13603   6.282   4.086   5.183
 4235SOL    HW113604   6.279   3.988   5.162
 4235SOL    HW213605   6.349   4.102   5.255
 4236SOL     OW13606   6.890   3.157   3.113
 4236SOL    HW113607   6.926   3.191   3.026
 4236SOL    HW213608   6.877   3.058   3.107
 4237SOL     OW13609   6.069   4.514   3.877
 4237SOL    HW113610   6.074   4.526   3.777
 4237SOL    HW213611   6.161   4.520   3.915
 4238SOL     OW13612   4.231   4.868   3.873
 4238SOL    HW113613   4.221   4.782   3.821
 4238SOL    HW213614   4.313   4.863   3.929
 4239SOL     OW13615   5.483   0.378   3.992
 4239SOL    HW113616   5.408   0.313   3.995
 4239SOL    HW213617   5.490   0.417   3.900
 4240SOL     OW13618   2.021   6.561   6.884
 4240SOL    HW113619   2.056   6.473   6.854
 4240SOL    HW213620   2.013   6.562   6.984
 4241SOL     OW13621   5.374   0.729   0.793
 4241SOL    HW113622   5.295   0.693   0.743
 4241SOL    HW213623   5.404   0.662   0.861
 4242SOL     OW13624   2.056   0.009   3.411
 4242SOL    HW113625   1.974   0.017   3.467
 4242SOL    HW213626   2.137   0.007   3.471
 4243SOL     OW13627   0.700   3.846   3.265
 4243SOL    HW113628   0.707   3.801   3.354
 4243SOL    HW213629   0.628   3.802   3.211
 4244SOL     OW13630   4.398   5.715   0.817
 4244SOL    HW113631   4.495   5.716   0.840
 4244SOL    HW213632   4.379   5.786   0.748
 4245SOL     OW13633   6.879   1.978   6.577
 4245SOL    HW113634   6.954   1.913   6.591
 4245SOL    HW213635   6.916   2.067   6.552
 4246SOL     OW13636   5.741   3.009   3.475
 4246SOL    HW113637   5.675   3.080   3.500
 4246SOL    HW213638   5.793   3.038   3.395
 4247SOL     OW13639   2.095   5.122   4.490
 4247SOL    HW113640   2.035   5.096   4.565
 4247SOL    HW213641   2.110   5.044   4.429
 4248SOL     OW13642   1.590   0.989   3.266
 4248SOL    HW113643   1.677   1.036   3.247
 4248SOL    HW213644   1.561   1.009   3.359
 4249SOL     OW13645   6.489   1.721   3.323
 4249SOL    HW113646   6.448   1.795   3.270
 4249SOL    HW213647   6.424   1.691   3.394
 4250SOL     OW13648   0.337   5.987   3.985
 4250SOL    HW113649   0.398   5.971   4.062
 4250SOL    HW213650   0.252   5.937   3.999
 4251SOL     OW13651   6.155   2.668   0.084
 4251SOL    HW113652   6.147   2.574   0.118
 4251SOL    HW213653   6.147   2.669   7.002
 4252SOL     OW13654   5.685   6.078   6.149
 4252SOL    HW113655   5.680   6.014   6.226
 4252SOL    HW213656   5.621   6.153   6.163
 4253SOL     OW13657   3.800   6.289   2.471
 4253SOL    HW113658   3.860   6.209   2.478
 4253SOL    HW213659   3.711   6.261   2.434
 4254SOL     OW13660   2.378   4.610   1.884
 4254SOL    HW113661   2.347   4.696   1.842
 4254SOL    HW213662   2.407   4.628   1.978
 4255SOL     OW13663   0.317   3.536   4.245
 4255SOL    HW113664   0.305   3.441   4.275
 4255SOL    HW213665   0.307   3.597   4.324
 4256SOL     OW13666   1.131   5.697   1.888
 4256SOL    HW113667   1.124   5.784   1.838
 4256SOL    HW213668   1.194   5.708   1.965
 4257SOL     OW13669   6.021   0.893   4.618
 4257SOL    HW113670   6.090   0.865   4.552
 4257SOL    HW213671   6.059   0.892   4.710
 4258SOL     OW13672   3.598   5.845   1.458
 4258SOL    HW113673   3.512   5.875   1.417
 4258SOL    HW213674   3.605   5.883   1.550
 4259SOL     OW13675   2.094   6.292   1.258
 4259SOL    HW113676   2.106   6.375   1.204
 4259SOL    HW213677   2.055   6.220   1.201
 4260SOL     OW13678   5.213   6.957   4.039
 4260SOL    HW113679   5.245   7.007   3.959
 4260SOL    HW213680   5.256   6.995   4.121
 4261SOL     OW13681   1.656   6.976   3.298
 4261SOL    HW113682   1.637   0.044   3.347
 4261SOL    HW213683   1.596   6.903   3.333
 4262SOL     OW13684   1.451   4.089   5.806
 4262SOL    HW113685   1.453   4.144   5.890
 4262SOL    HW213686   1.385   4.015   5.816
 4263SOL     OW13687   2.747   1.175   3.431
 4263SOL    HW113688   2.817   1.224   3.379
 4263SOL    HW213689   2.775   1.080   3.444
 4264SOL     OW13690   5.951   1.487   4.008
 4264SOL    HW113691   5.984   1.403   4.051
 4264SOL    HW213692   5.853   1.479   3.990
 4265SOL     OW13693   3.521   0.729   0.854
 4265SOL    HW113694   3.580   0.806   0.878
 4265SOL    HW213695   3.427   0.749   0.880
 4266SOL     OW13696   1.219   0.070   6.945
 4266SOL    HW113697   1.289   0.008   6.908
 4266SOL    HW213698   1.185   0.033   0.014
 4267SOL     OW13699   1.753   3.952   4.077
 4267SOL    HW113700   1.797   3.925   4.163
 4267SOL    HW213701   1.823   3.970   4.008
 4268SOL     OW13702   1.936   5.476   6.994
 4268SOL    HW113703   1.978   5.394   0.018
 4268SOL    HW213704   1.983   5.557   0.011
 4269SOL     OW13705   2.969   1.472   3.864
 4269SOL    HW113706   2.900   1.476   3.936
 4269SOL    HW213707   3.058   1.497   3.901
 4270SOL     OW13708   3.308   2.891   1.511
 4270SOL    HW113709   3.270   2.959   1.574
 4270SOL    HW213710   3.299   2.799   1.551
 4271SOL     OW13711   6.815   0.546   0.309
 4271SOL    HW113712   6.867   0.629   0.327
 4271SOL    HW213713   6.720   0.559   0.339
 4272SOL     OW13714   6.944   3.285   4.834
 4272SOL    HW113715   6.921   3.189   4.848
 4272SOL    HW213716   6.994   3.320   4.914
 4273SOL     OW13717   4.845   6.133   5.025
 4273SOL    HW113718   4.866   6.049   5.076
 4273SOL    HW213719   4.852   6.212   5.087
 4274SOL     OW13720   0.898   0.178   1.708
 4274SOL    HW113721   0.869   0.208   1.617
 4274SOL    HW213722   0.987   0.133   1.702
 4275SOL     OW13723   0.493   1.942   4.352
 4275SOL    HW113724   0.500   2.041   4.335
 4275SOL    HW213725   0.582   1.906   4.377
 4276SOL     OW13726   2.704   5.480   3.627
 4276SOL    HW113727   2.799   5.449   3.625
 4276SOL    HW213728   2.659   5.454   3.541
 4277SOL     OW13729   6.946   4.243   3.062
 4277SOL    HW113730   6.970   4.173   2.994
 4277SOL    HW213731   6.923   4.198   3.148
 4278SOL     OW13732   0.419   6.949   3.228
 4278SOL    HW113733   0.483   0.008   3.242
 4278SOL    HW213734   0.397   6.907   3.316
 4279SOL     OW13735   1.360   1.148   2.341
 4279SOL    HW113736   1.353   1.206   2.260
 4279SOL    HW213737   1.275   1.155   2.393
 4280SOL     OW13738   6.252   6.678   5.665
 4280SOL    HW113739   6.226   6.627   5.747
 4280SOL    HW213740   6.315   6.751   5.689
 4281SOL     OW13741   5.201   4.734   3.869
 4281SOL    HW113742   5.166   4.826   3.851
 4281SOL    HW213743   5.282   4.741   3.928
 4282SOL     OW13744   3.073   4.807   1.092
 4282SOL    HW113745   3.173   4.811   1.091
 4282SOL    HW213746   3.044   4.712   1.085
 4283SOL     OW13747   4.508   1.285   3.751
 4283SOL    HW113748   4.508   1.187   3.734
 4283SOL    HW213749   4.568   1.331   3.685
 4284SOL     OW13750   4.460   5.992   6.939
 4284SOL    HW113751   4.511   5.907   6.955
 4284SOL    HW213752   4.418   5.989   6.849
 4285SOL     OW13753   2.571   1.032   6.155
 4285SOL    HW113754   2.658   1.042   6.204
 4285SOL    HW213755   2.578   0.956   6.090
 4286SOL     OW13756   6.580   0.296   6.317
 4286SOL    HW113757   6.510   0.287   6.246
 4286SOL    HW213758   6.640   0.216   6.316
 4287SOL     OW13759   4.806   1.163   6.137
 4287SOL    HW113760   4.713   1.138   6.166
 4287SOL    HW213761   4.814   1.262   6.133
 4288SOL     OW13762   0.654   6.024   3.083
 4288SOL    HW113763   0.588   6.033   3.008
 4288SOL    HW213764   0.668   6.113   3.126
 4289SOL     OW13765   1.506   2.159   6.067
 4289SOL    HW113766   1.444   2.085   6.094
 4289SOL    HW213767   1.457   2.224   6.008
 4290SOL     OW13768   0.410   6.654   4.655
 4290SOL    HW113769   0.379   6.633   4.563
 4290SOL    HW213770   0.335   6.694   4.708
 4291SOL     OW13771   4.765   3.373   6.472
 4291SOL    HW113772   4.713   3.368   6.387
 4291SOL    HW213773   4.858   3.337   6.456
 4292SOL     OW13774   6.324   3.105   6.893
 4292SOL    HW113775   6.351   3.177   6.830
 4292SOL    HW213776   6.232   3.073   6.869
 4293SOL     OW13777   3.989   3.954   6.434
 4293SOL    HW113778   3.977   4.020   6.509
 4293SOL    HW213779   3.995   4.003   6.347
 4294SOL     OW13780   2.046   1.965   6.258
 4294SOL    HW113781   2.070   2.022   6.180
 4294SOL    HW213782   2.094   1.878   6.252
 4295SOL     OW13783   4.740   6.562   3.025
 4295SOL    HW113784   4.644   6.541   3.043
 4295SOL    HW213785   4.765   6.528   2.934
 4296SOL     OW13786   3.081   0.286   0.803
 4296SOL    HW113787   3.032   0.339   0.871
 4296SOL    HW213788   3.179   0.308   0.806
 4297SOL     OW13789   6.679   6.411   2.551
 4297SOL    HW113790   6.748   6.342   2.530
 4297SOL    HW213791   6.689   6.489   2.489
 4298SOL     OW13792   3.757   6.585   2.236
 4298SOL    HW113793   3.695   6.537   2.298
 4298SOL    HW213794   3.813   6.518   2.187
 4299SOL     OW13795   0.989   3.433   0.265
 4299SOL    HW113796   0.895   3.400   0.261
 4299SOL    HW213797   1.004   3.482   0.350
 4300SOL     OW13798   2.718   0.141   0.510
 4300SOL    HW113799   2.664   0.082   0.570
 4300SOL    HW213800   2.792   0.183   0.563
 4301SOL     OW13801   3.568   0.258   1.440
 4301SOL    HW113802   3.549   0.199   1.519
 4301SOL    HW213803   3.644   0.319   1.461
 4302SOL     OW13804   6.239   0.280   0.119
 4302SOL    HW113805   6.319   0.222   0.136
 4302SOL    HW213806   6.230   0.347   0.193
 4303SOL     OW13807   0.242   4.864   3.570
 4303SOL    HW113808   0.178   4.814   3.628
 4303SOL    HW213809   0.202   4.878   3.480
 4304SOL     OW13810   3.749   4.064   1.921
 4304SOL    HW113811   3.702   3.976   1.912
 4304SOL    HW213812   3.728   4.103   2.011
 4305SOL     OW13813   0.808   6.551   5.211
 4305SOL    HW113814   0.839   6.633   5.257
 4305SOL    HW213815   0.887   6.493   5.190
 4306SOL     OW13816   4.968   4.713   5.090
 4306SOL    HW113817   5.021   4.664   5.021
 4306SOL    HW213818   4.917   4.788   5.046
 4307SOL     OW13819   5.466   3.115   5.670
 4307SOL    HW113820   5.515   3.183   5.725
 4307SOL    HW213821   5.432   3.043   5.730
 4308SOL     OW13822   5.482   5.096   1.445
 4308SOL    HW113823   5.501   5.158   1.369
 4308SOL    HW213824   5.515   5.004   1.422
 4309SOL     OW13825   1.146   2.946   0.597
 4309SOL    HW113826   1.118   3.042   0.593
 4309SOL    HW213827   1.066   2.888   0.616
 4310SOL     OW13828   1.275   2.854   2.225
 4310SOL    HW113829   1.194   2.844   2.168
 4310SOL    HW213830   1.354   2.874   2.167
 4311SOL     OW13831   1.081   6.759   2.290
 4311SOL    HW113832   1.076   6.776   2.388
 4311SOL    HW213833   1.046   6.667   2.271
 4312SOL     OW13834   1.162   5.438   2.848
 4312SOL    HW113835   1.243   5.393   2.885
 4312SOL    HW213836   1.172   5.537   2.857
 4313SOL     OW13837   3.138   2.569   6.969
 4313SOL    HW113838   3.175   2.549   6.878
 4313SOL    HW213839   3.209   2.608   0.010
 4314SOL     OW13840   6.235   2.249   5.258
 4314SOL    HW113841   6.184   2.204   5.332
 4314SOL    HW213842   6.223   2.198   5.173
 4315SOL     OW13843   1.971   1.551   3.947
 4315SOL    HW113844   1.888   1.603   3.969
 4315SOL    HW213845   1.984   1.549   3.848
 4316SOL     OW13846   5.018   6.739   2.548
 4316SOL    HW113847   5.040   6.836   2.541
 4316SOL    HW213848   5.017   6.711   2.644
 4317SOL     OW13849   4.866   0.729   5.643
 4317SOL    HW113850   4.875   0.697   5.549
 4317SOL    HW213851   4.864   0.829   5.645
 4318SOL     OW13852   0.768   0.923   4.327
 4318SOL    HW113853   0.748   0.832   4.290
 4318SOL    HW213854   0.792   0.915   4.424
 4319SOL     OW13855   1.751   1.824   1.166
 4319SOL    HW113856   1.799   1.910   1.148
 4319SOL    HW213857   1.666   1.843   1.216
 4320SOL     OW13858   4.124   6.217   1.184
 4320SOL    HW113859   4.109   6.307   1.143
 4320SOL    HW213860   4.072   6.148   1.134
 4321SOL     OW13861   7.007   5.011   3.098
 4321SOL    HW113862   7.003   4.913   3.116
 4321SOL    HW213863   0.032   5.057   3.176
 4322SOL     OW13864   6.665   3.470   5.524
 4322SOL    HW113865   6.593   3.536   5.543
 4322SOL    HW213866   6.642   3.382   5.566
 4323SOL     OW13867   4.236   5.324   6.954
 4323SOL    HW113868   4.151   5.298   6.998
 4323SOL    HW213869   4.242   5.279   6.864
 4324SOL     OW13870   6.853   3.962   5.516
 4324SOL    HW113871   6.823   4.043   5.466
 4324SOL    HW213872   6.930   3.987   5.575
 4325SOL     OW13873   2.830   1.657   2.029
 4325SOL    HW113874   2.775   1.724   1.979
 4325SOL    HW213875   2.877   1.598   1.964
 4326SOL     OW13876   5.907   3.168   2.157
 4326SOL    HW113877   5.833   3.198   2.218
 4326SOL    HW213878   5.895   3.072   2.135
 4327SOL     OW13879   3.853   5.512   3.670
 4327SOL    HW113880   3.935   5.552   3.629
 4327SOL    HW213881   3.814   5.445   3.607
 4328SOL     OW13882   5.891   4.526   4.874
 4328SOL    HW113883   5.965   4.544   4.940
 4328SOL    HW213884   5.843   4.442   4.900
 4329SOL     OW13885   6.213   3.456   5.399
 4329SOL    HW113886   6.127   3.413   5.428
 4329SOL    HW213887   6.192   3.545   5.359
 4330SOL     OW13888   1.787   6.423   4.757
 4330SOL    HW113889   1.833   6.364   4.691
 4330SOL    HW213890   1.757   6.369   4.836
 4331SOL     OW13891   0.169   0.279   1.270
 4331SOL    HW113892   0.076   0.291   1.237
 4331SOL    HW213893   0.214   0.368   1.277
 4332SOL     OW13894   6.002   3.806   2.711
 4332SOL    HW113895   5.924   3.763   2.755
 4332SOL    HW213896   6.082   3.798   2.770
 4333SOL     OW13897   4.326   1.955   5.058
 4333SOL    HW113898   4.304   2.041   5.012
 4333SOL    HW213899   4.407   1.968   5.115
 4334SOL     OW13900   1.242   2.758   2.706
 4334SOL    HW113901   1.300   2.835   2.732
 4334SOL    HW213902   1.265   2.679   2.763
 4335SOL     OW13903   3.776   3.095   1.172
 4335SOL    HW113904   3.861   3.099   1.224
 4335SOL    HW213905   3.701   3.133   1.227
 4336SOL     OW13906   1.663   4.513   5.037
 4336SOL    HW113907   1.662   4.457   4.954
 4336SOL    HW213908   1.751   4.502   5.084
 4337SOL     OW13909   1.585   5.680   1.909
 4337SOL    HW113910   1.643   5.647   1.983
 4337SOL    HW213911   1.643   5.719   1.837
 4338SOL     OW13912   6.002   0.510   6.294
 4338SOL    HW113913   5.939   0.435   6.315
 4338SOL    HW213914   5.951   0.591   6.268
 4339SOL     OW13915   3.560   2.795   6.340
 4339SOL    HW113916   3.514   2.874   6.380
 4339SOL    HW213917   3.582   2.815   6.244
 4340SOL     OW13918   5.816   3.268   1.369
 4340SOL    HW113919   5.726   3.288   1.332
 4340SOL    HW213920   5.811   3.190   1.432
 4341SOL     OW13921   1.336   4.949   1.696
 4341SOL    HW113922   1.314   4.909   1.607
 4341SOL    HW213923   1.435   4.946   1.710
 4342SOL     OW13924   5.013   3.882   2.985
 4342SOL    HW113925   4.986   3.924   2.898
 4342SOL    HW213926   4.931   3.864   3.040
 4343SOL     OW13927   3.118   6.441   5.974
 4343SOL    HW113928   3.071   6.419   6.059
 4343SOL    HW213929   3.166   6.529   5.985
 4344SOL     OW13930   0.837   3.051   3.502
 4344SOL    HW113931   0.742   3.028   3.481
 4344SOL    HW213932   0.885   3.074   3.417
 4345SOL     OW13933   2.898   3.327   3.161
 4345SOL    HW113934   2.918   3.259   3.232
 4345SOL    HW213935   2.848   3.404   3.202
 4346SOL     OW13936   2.215   2.567   1.959
 4346SOL    HW113937   2.167   2.506   1.896
 4346SOL    HW213938   2.276   2.513   2.017
 4347SOL     OW13939   6.491   5.685   2.399
 4347SOL    HW113940   6.398   5.714   2.423
 4347SOL    HW213941   6.550   5.693   2.480
 4348SOL     OW13942   0.345   5.779   4.719
 4348SOL    HW113943   0.305   5.759   4.630
 4348SOL    HW213944   0.436   5.818   4.707
 4349SOL     OW13945   6.996   3.500   3.915
 4349SOL    HW113946   6.944   3.584   3.901
 4349SOL    HW213947   6.947   3.423   3.873
 4350SOL     OW13948   5.177   2.219   4.686
 4350SOL    HW113949   5.202   2.139   4.631
 4350SOL    HW213950   5.243   2.293   4.671
 4351SOL     OW13951   1.736   6.060   1.382
 4351SOL    HW113952   1.695   6.151   1.389
 4351SOL    HW213953   1.784   6.039   1.467
 4352SOL     OW13954   5.898   3.645   1.608
 4352SOL    HW113955   5.887   3.744   1.618
 4352SOL    HW213956   5.811   3.603   1.586
 4353SOL     OW13957   2.875   4.164   0.200
 4353SOL    HW113958   2.903   4.070   0.222
 4353SOL    HW213959   2.794   4.161   0.140
 4354SOL     OW13960   0.853   1.373   5.983
 4354SOL    HW113961   0.753   1.374   5.990
 4354SOL    HW213962   0.892   1.333   6.066
 4355SOL     OW13963   1.186   6.868   3.157
 4355SOL    HW113964   1.204   6.798   3.226
 4355SOL    HW213965   1.150   6.825   3.075
 4356SOL     OW13966   4.009   3.427   5.349
 4356SOL    HW113967   3.917   3.421   5.309
 4356SOL    HW213968   4.002   3.466   5.440
 4357SOL     OW13969   0.129   1.731   1.051
 4357SOL    HW113970   0.055   1.683   1.097
 4357SOL    HW213971   0.106   1.744   0.954
 4358SOL     OW13972   0.180   0.033   0.294
 4358SOL    HW113973   0.265   0.003   0.250
 4358SOL    HW213974   0.181   0.004   0.390
 4359SOL     OW13975   1.570   0.449   6.695
 4359SOL    HW113976   1.505   0.387   6.740
 4359SOL    HW213977   1.520   0.519   6.644
 4360SOL     OW13978   0.904   2.370   4.295
 4360SOL    HW113979   0.923   2.434   4.369
 4360SOL    HW213980   0.918   2.276   4.326
 4361SOL     OW13981   1.837   2.955   1.566
 4361SOL    HW113982   1.770   2.976   1.637
 4361SOL    HW213983   1.878   3.041   1.533
 4362SOL     OW13984   0.568   5.928   4.138
 4362SOL    HW113985   0.554   5.829   4.128
 4362SOL    HW213986   0.635   5.945   4.210
 4363SOL     OW13987   4.261   1.283   1.893
 4363SOL    HW113988   4.170   1.291   1.934
 4363SOL    HW213989   4.294   1.189   1.905
 4364SOL     OW13990   3.172   3.654   2.564
 4364SOL    HW113991   3.241   3.674   2.634
 4364SOL    HW213992   3.133   3.563   2.579
 4365SOL     OW13993   2.992   1.527   1.857
 4365SOL    HW113994   3.081   1.528   1.902
 4365SOL    HW213995   2.957   1.433   1.855
 4366SOL     OW13996   6.159   6.360   6.258
 4366SOL    HW113997   6.221   6.299   6.306
 4366SOL    HW213998   6.073   6.313   6.239
 4367SOL     OW13999   3.209   5.137   2.816
 4367SOL    HW114000   3.123   5.143   2.866
 4367SOL    HW214001   3.248   5.045   2.828
 4368SOL     OW14002   4.090   5.601   2.977
 4368SOL    HW114003   4.013   5.587   3.038
 4368SOL    HW214004   4.104   5.699   2.963
 4369SOL     OW14005   5.102   5.505   3.688
 4369SOL    HW114006   5.061   5.526   3.600
 4369SOL    HW214007   5.034   5.459   3.746
 4370SOL     OW14008   3.386   4.090   1.460
 4370SOL    HW114009   3.321   4.014   1.451
 4370SOL    HW214010   3.376   4.131   1.551
 4371SOL     OW14011   2.048   1.772   2.429
 4371SOL    HW114012   1.975   1.708   2.403
 4371SOL    HW214013   2.135   1.739   2.392
 4372SOL     OW14014   2.174   3.245   3.993
 4372SOL    HW114015   2.229   3.164   4.012
 4372SOL    HW214016   2.185   3.272   3.897
 4373SOL     OW14017   4.314   1.282   6.107
 4373SOL    HW114018   4.372   1.338   6.047
 4373SOL    HW214019   4.285   1.337   6.185
 4374SOL     OW14020   2.036   1.998   1.513
 4374SOL    HW114021   1.969   2.070   1.497
 4374SOL    HW214022   2.104   1.998   1.440
 4375SOL     OW14023   3.839   6.553   2.906
 4375SOL    HW114024   3.785   6.482   2.951
 4375SOL    HW214025   3.810   6.562   2.811
 4376SOL     OW14026   6.293   0.053   1.685
 4376SOL    HW114027   6.281   6.991   1.626
 4376SOL    HW214028   6.388   0.083   1.683
 4377SOL     OW14029   6.533   5.298   0.271
 4377SOL    HW114030   6.453   5.238   0.263
 4377SOL    HW214031   6.504   5.389   0.300
 4378SOL     OW14032   0.896   4.686   2.211
 4378SOL    HW114033   0.848   4.642   2.287
 4378SOL    HW214034   0.894   4.785   2.223
 4379SOL     OW14035   2.492   1.090   2.210
 4379SOL    HW114036   2.512   1.000   2.172
 4379SOL    HW214037   2.561   1.155   2.180
 4380SOL     OW14038   2.352   5.660   4.885
 4380SOL    HW114039   2.368   5.640   4.981
 4380SOL    HW214040   2.406   5.598   4.828
 4381SOL     OW14041   2.404   4.404   4.532
 4381SOL    HW114042   2.346   4.333   4.492
 4381SOL    HW214043   2.386   4.412   4.630
 4382SOL     OW14044   6.082   4.237   5.451
 4382SOL    HW114045   6.124   4.314   5.402
 4382SOL    HW214046   6.010   4.272   5.511
 4383SOL     OW14047   0.437   1.791   5.525
 4383SOL    HW114048   0.492   1.708   5.527
 4383SOL    HW214049   0.492   1.868   5.494
 4384SOL     OW14050   5.208   0.976   6.652
 4384SOL    HW114051   5.238   0.909   6.719
 4384SOL    HW214052   5.132   1.029   6.690
 4385SOL     OW14053   0.151   2.407   4.003
 4385SOL    HW114054   0.179   2.413   4.099
 4385SOL    HW214055   0.213   2.464   3.948
 4386SOL     OW14056   1.150   3.975   6.339
 4386SOL    HW114057   1.201   3.988   6.254
 4386SOL    HW214058   1.207   3.926   6.405
 4387SOL     OW14059   0.348   2.398   1.901
 4387SOL    HW114060   0.409   2.339   1.847
 4387SOL    HW214061   0.403   2.451   1.966
 4388SOL     OW14062   4.445   1.126   6.511
 4388SOL    HW114063   4.350   1.155   6.497
 4388SOL    HW214064   4.500   1.203   6.542
 4389SOL     OW14065   5.776   2.641   0.666
 4389SOL    HW114066   5.685   2.679   0.683
 4389SOL    HW214067   5.809   2.595   0.749
 4390SOL     OW14068   4.107   2.229   2.015
 4390SOL    HW114069   4.089   2.250   1.919
 4390SOL    HW214070   4.168   2.298   2.053
 4391SOL     OW14071   1.422   6.081   6.261
 4391SOL    HW114072   1.495   6.048   6.201
 4391SOL    HW214073   1.386   6.005   6.315
 4392SOL     OW14074   5.668   4.365   5.319
 4392SOL    HW114075   5.597   4.304   5.353
 4392SOL    HW214076   5.753   4.314   5.309
 4393SOL     OW14077   4.714   6.207   2.544
 4393SOL    HW114078   4.662   6.203   2.630
 4393SOL    HW214079   4.667   6.269   2.480
 4394SOL     OW14080   6.045   5.578   2.787
 4394SOL    HW114081   5.985   5.608   2.861
 4394SOL    HW214082   5.991   5.564   2.704
 4395SOL     OW14083   3.986   2.285   1.282
 4395SOL    HW114084   3.910   2.350   1.291
 4395SOL    HW214085   4.073   2.333   1.290
 4396SOL     OW14086   2.290   1.794   3.865
 4396SOL    HW114087   2.198   1.792   3.825
 4396SOL    HW214088   2.333   1.704   3.853
 4397SOL     OW14089   6.955   1.604   3.908
 4397SOL    HW114090   0.001   1.630   3.835
 4397SOL    HW214091   7.006   1.580   3.990
 4398SOL     OW14092   1.333   4.311   5.062
 4398SOL    HW114093   1.427   4.345   5.060
 4398SOL    HW214094   1.295   4.324   5.154
 4399SOL     OW14095   2.274   0.854   1.631
 4399SOL    HW114096   2.231   0.942   1.653
 4399SOL    HW214097   2.214   0.802   1.570
 4400SOL     OW14098   2.065   6.920   4.945
 4400SOL    HW114099   2.092   6.964   4.860
 4400SOL    HW214100   2.116   6.961   5.021
 4401SOL     OW14101   5.559   5.620   6.072
 4401SOL    HW114102   5.510   5.704   6.096
 4401SOL    HW214103   5.640   5.643   6.018
 4402SOL     OW14104   1.783   6.038   2.968
 4402SOL    HW114105   1.767   5.950   3.011
 4402SOL    HW214106   1.772   6.111   3.036
 4403SOL     OW14107   0.158   6.991   3.422
 4403SOL    HW114108   0.243   0.003   3.377
 4403SOL    HW214109   0.100   0.054   3.439
 4404SOL     OW14110   1.266   3.582   5.251
 4404SOL    HW114111   1.356   3.618   5.226
 4404SOL    HW214112   1.215   3.653   5.300
 4405SOL     OW14113   3.176   4.591   6.829
 4405SOL    HW114114   3.162   4.618   6.925
 4405SOL    HW214115   3.270   4.559   6.818
 4406SOL     OW14116   5.047   4.560   0.935
 4406SOL    HW114117   5.096   4.575   1.021
 4406SOL    HW214118   4.963   4.509   0.952
 4407SOL     OW14119   0.313   5.110   1.280
 4407SOL    HW114120   0.255   5.082   1.356
 4407SOL    HW214121   0.276   5.194   1.240
 4408SOL     OW14122   4.866   1.008   0.435
 4408SOL    HW114123   4.910   0.983   0.349
 4408SOL    HW214124   4.856   0.927   0.493
 4409SOL     OW14125   3.710   0.907   1.807
 4409SOL    HW114126   3.743   0.949   1.723
 4409SOL    HW214127   3.633   0.847   1.786
 4410SOL     OW14128   2.200   4.535   6.936
 4410SOL    HW114129   2.177   4.465   6.869
 4410SOL    HW214130   2.147   4.520   0.002
 4411SOL     OW14131   4.105   3.378   3.278
 4411SOL    HW114132   4.200   3.358   3.298
 4411SOL    HW214133   4.065   3.430   3.353
 4412SOL     OW14134   3.467   1.677   4.543
 4412SOL    HW114135   3.488   1.650   4.637
 4412SOL    HW214136   3.372   1.710   4.538
 4413SOL     OW14137   4.705   5.734   4.974
 4413SOL    HW114138   4.641   5.661   4.995
 4413SOL    HW214139   4.655   5.815   4.942
 4414SOL     OW14140   4.493   4.810   2.083
 4414SOL    HW114141   4.545   4.788   2.001
 4414SOL    HW214142   4.544   4.782   2.164
 4415SOL     OW14143   4.190   3.663   6.788
 4415SOL    HW114144   4.122   3.722   6.831
 4415SOL    HW214145   4.281   3.700   6.805
 4416SOL     OW14146   2.739   1.367   4.377
 4416SOL    HW114147   2.662   1.378   4.315
 4416SOL    HW214148   2.779   1.276   4.366
 4417SOL     OW14149   6.542   4.448   2.194
 4417SOL    HW114150   6.617   4.470   2.257
 4417SOL    HW214151   6.494   4.533   2.170
 4418SOL     OW14152   4.785   6.934   4.484
 4418SOL    HW114153   4.737   6.945   4.397
 4418SOL    HW214154   4.867   6.992   4.484
 4419SOL     OW14155   5.510   5.561   0.667
 4419SOL    HW114156   5.483   5.603   0.581
 4419SOL    HW214157   5.466   5.609   0.743
 4420SOL     OW14158   5.090   1.909   0.582
 4420SOL    HW114159   4.998   1.926   0.547
 4420SOL    HW214160   5.129   1.830   0.534
 4421SOL     OW14161   1.836   1.107   3.215
 4421SOL    HW114162   1.926   1.063   3.222
 4421SOL    HW214163   1.836   1.172   3.140
 4422SOL     OW14164   2.604   3.786   5.547
 4422SOL    HW114165   2.514   3.792   5.590
 4422SOL    HW214166   2.629   3.689   5.537
 4423SOL     OW14167   1.321   2.648   5.434
 4423SOL    HW114168   1.261   2.627   5.356
 4423SOL    HW214169   1.275   2.619   5.518
 4424SOL     OW14170   5.875   6.478   3.712
 4424SOL    HW114171   5.942   6.429   3.767
 4424SOL    HW214172   5.791   6.424   3.706
 4425SOL     OW14173   3.728   5.722   5.762
 4425SOL    HW114174   3.759   5.808   5.721
 4425SOL    HW214175   3.725   5.651   5.692
 4426SOL     OW14176   6.469   1.574   4.322
 4426SOL    HW114177   6.517   1.493   4.356
 4426SOL    HW214178   6.502   1.655   4.370
 4427SOL     OW14179   0.045   6.912   2.379
 4427SOL    HW114180   0.139   6.945   2.382
 4427SOL    HW214181   0.026   6.857   2.460
 4428SOL     OW14182   2.812   5.214   3.070
 4428SOL    HW114183   2.893   5.158   3.088
 4428SOL    HW214184   2.821   5.301   3.119
 4429SOL     OW14185   2.758   0.503   3.874
 4429SOL    HW114186   2.699   0.580   3.848
 4429SOL    HW214187   2.719   0.418   3.838
 4430SOL     OW14188   5.204   3.330   3.647
 4430SOL    HW114189   5.110   3.307   3.621
 4430SOL    HW214190   5.243   3.257   3.702
 4431SOL     OW14191   1.486   1.820   1.896
 4431SOL    HW114192   1.574   1.856   1.868
 4431SOL    HW214193   1.418   1.895   1.897
 4432SOL     OW14194   3.280   4.121   3.640
 4432SOL    HW114195   3.205   4.186   3.655
 4432SOL    HW214196   3.333   4.148   3.560
 4433SOL     OW14197   6.209   0.214   4.550
 4433SOL    HW114198   6.188   0.310   4.533
 4433SOL    HW214199   6.250   0.174   4.468
 4434SOL     OW14200   4.733   1.338   3.945
 4434SOL    HW114201   4.733   1.429   3.985
 4434SOL    HW214202   4.649   1.325   3.892
 4435SOL     OW14203   4.410   3.588   0.961
 4435SOL    HW114204   4.310   3.596   0.963
 4435SOL    HW214205   4.451   3.672   0.997
 4436SOL     OW14206   2.844   2.397   0.269
 4436SOL    HW114207   2.877   2.318   0.320
 4436SOL    HW214208   2.762   2.371   0.217
 4437SOL     OW14209   5.372   1.397   3.445
 4437SOL    HW114210   5.464   1.358   3.444
 4437SOL    HW214211   5.317   1.355   3.373
 4438SOL     OW14212   3.909   1.891   6.578
 4438SOL    HW114213   3.911   1.935   6.488
 4438SOL    HW214214   3.911   1.960   6.650
 4439SOL     OW14215   0.512   5.418   1.402
 4439SOL    HW114216   0.594   5.405   1.347
 4439SOL    HW214217   0.501   5.341   1.465
 4440SOL     OW14218   1.576   5.032   6.782
 4440SOL    HW114219   1.567   5.111   6.721
 4440SOL    HW214220   1.672   5.022   6.809
 4441SOL     OW14221   6.642   1.530   1.981
 4441SOL    HW114222   6.589   1.511   1.898
 4441SOL    HW214223   6.619   1.621   2.015
 4442SOL     OW14224   2.971   5.841   3.970
 4442SOL    HW114225   2.991   5.781   4.048
 4442SOL    HW214226   3.050   5.847   3.910
 4443SOL     OW14227   0.603   2.851   6.827
 4443SOL    HW114228   0.523   2.903   6.799
 4443SOL    HW214229   0.680   2.873   6.766
 4444SOL     OW14230   3.464   5.794   6.243
 4444SOL    HW114231   3.431   5.844   6.323
 4444SOL    HW214232   3.522   5.718   6.273
 4445SOL     OW14233   6.992   0.064   0.642
 4445SOL    HW114234   0.042   7.007   0.648
 4445SOL    HW214235   6.976   0.087   0.546
 4446SOL     OW14236   5.683   1.535   1.579
 4446SOL    HW114237   5.592   1.567   1.551
 4446SOL    HW214238   5.715   1.467   1.514
 4447SOL     OW14239   5.605   3.721   5.929
 4447SOL    HW114240   5.537   3.666   5.880
 4447SOL    HW214241   5.571   3.815   5.937
 4448SOL     OW14242   3.179   3.805   0.768
 4448SOL    HW114243   3.156   3.720   0.816
 4448SOL    HW214244   3.278   3.808   0.752
 4449SOL     OW14245   4.601   0.400   6.282
 4449SOL    HW114246   4.622   0.490   6.320
 4449SOL    HW214247   4.590   0.334   6.356
 4450SOL     OW14248   3.526   2.877   3.954
 4450SOL    HW114249   3.484   2.787   3.957
 4450SOL    HW214250   3.518   2.915   3.862
 4451SOL     OW14251   5.668   4.017   2.948
 4451SOL    HW114252   5.632   3.973   3.030
 4451SOL    HW214253   5.682   4.114   2.965
 4452SOL     OW14254   5.504   6.414   5.004
 4452SOL    HW114255   5.409   6.443   5.001
 4452SOL    HW214256   5.522   6.349   4.930
 4453SOL     OW14257   6.675   2.636   0.250
 4453SOL    HW114258   6.636   2.581   0.176
 4453SOL    HW214259   6.768   2.604   0.270
 4454SOL     OW14260   5.101   2.692   0.374
 4454SOL    HW114261   5.120   2.641   0.290
 4454SOL    HW214262   5.002   2.706   0.382
 4455SOL     OW14263   3.370   0.082   6.759
 4455SOL    HW114264   3.359   0.167   6.707
 4455SOL    HW214265   3.339   0.096   6.853
 4456SOL     OW14266   2.171   5.016   2.625
 4456SOL    HW114267   2.153   5.096   2.568
 4456SOL    HW214268   2.253   5.032   2.681
 4457SOL     OW14269   4.152   2.270   0.245
 4457SOL    HW114270   4.217   2.239   0.176
 4457SOL    HW214271   4.190   2.254   0.336
 4458SOL     OW14272   1.353   3.963   6.793
 4458SOL    HW114273   1.292   3.887   6.814
 4458SOL    HW214274   1.300   4.048   6.789
 4459SOL     OW14275   5.498   0.132   3.484
 4459SOL    HW114276   5.593   0.134   3.452
 4459SOL    HW214277   5.496   0.120   3.583
 4460SOL     OW14278   2.606   2.757   5.683
 4460SOL    HW114279   2.572   2.785   5.594
 4460SOL    HW214280   2.632   2.837   5.737
 4461SOL     OW14281   1.050   0.432   2.512
 4461SOL    HW114282   1.141   0.445   2.551
 4461SOL    HW214283   1.058   0.409   2.415
 4462SOL     OW14284   6.812   3.761   1.282
 4462SOL    HW114285   6.891   3.810   1.246
 4462SOL    HW214286   6.731   3.819   1.276
 4463SOL     OW14287   2.579   2.816   6.812
 4463SOL    HW114288   2.651   2.760   6.852
 4463SOL    HW214289   2.500   2.758   6.791
 4464SOL     OW14290   6.092   5.250   6.948
 4464SOL    HW114291   6.121   5.345   6.954
 4464SOL    HW214292   6.036   5.227   0.011
 4465SOL     OW14293   2.414   6.031   3.481
 4465SOL    HW114294   2.371   6.118   3.506
 4465SOL    HW214295   2.399   5.964   3.553
 4466SOL     OW14296   1.685   0.337   2.755
 4466SOL    HW114297   1.747   0.269   2.795
 4466SOL    HW214298   1.678   0.415   2.816
 4467SOL     OW14299   0.930   6.054   3.715
 4467SOL    HW114300   0.968   6.142   3.743
 4467SOL    HW214301   0.993   6.008   3.653
 4468SOL     OW14302   0.983   1.877   6.719
 4468SOL    HW114303   1.004   1.882   6.622
 4468SOL    HW214304   0.912   1.944   6.741
 4469SOL     OW14305   3.356   0.341   1.264
 4469SOL    HW114306   3.403   0.317   1.349
 4469SOL    HW214307   3.422   0.345   1.189
 4470SOL     OW14308   6.085   3.608   1.357
 4470SOL    HW114309   6.027   3.640   1.432
 4470SOL    HW214310   6.050   3.521   1.323
 4471SOL     OW14311   0.514   2.594   0.305
 4471SOL    HW114312   0.505   2.624   0.210
 4471SOL    HW214313   0.491   2.497   0.311
 4472SOL     OW14314   1.884   3.177   3.972
 4472SOL    HW114315   1.980   3.204   3.971
 4472SOL    HW214316   1.857   3.148   3.880
 4473SOL     OW14317   6.787   1.782   4.174
 4473SOL    HW114318   6.852   1.833   4.117
 4473SOL    HW214319   6.760   1.698   4.126
 4474SOL     OW14320   2.819   1.248   1.868
 4474SOL    HW114321   2.867   1.283   1.788
 4474SOL    HW214322   2.845   1.152   1.882
 4475SOL     OW14323   1.852   4.218   2.681
 4475SOL    HW114324   1.848   4.303   2.628
 4475SOL    HW214325   1.770   4.211   2.738
 4476SOL     OW14326   5.111   6.216   4.133
 4476SOL    HW114327   5.035   6.182   4.076
 4476SOL    HW214328   5.108   6.316   4.136
 4477SOL     OW14329   1.880   6.819   6.338
 4477SOL    HW114330   1.780   6.820   6.333
 4477SOL    HW214331   1.912   6.906   6.375
 4478SOL     OW14332   3.068   6.129   2.584
 4478SOL    HW114333   2.983   6.086   2.614
 4478SOL    HW214334   3.066   6.227   2.605
 4479SOL     OW14335   0.659   0.760   0.638
 4479SOL    HW114336   0.591   0.754   0.565
 4479SOL    HW214337   0.649   0.683   0.700
 4480SOL     OW14338   2.038   3.940   4.841
 4480SOL    HW114339   2.052   3.869   4.909
 4480SOL    HW214340   2.121   3.995   4.832
 4481SOL     OW14341   2.851   6.990   4.932
 4481SOL    HW114342   2.766   6.941   4.952
 4481SOL    HW214343   2.925   6.950   4.986
 4482SOL     OW14344   0.779   4.083   4.317
 4482SOL    HW114345   0.698   4.059   4.265
 4482SOL    HW214346   0.787   4.182   4.325
 4483SOL     OW14347   6.048   3.350   1.226
 4483SOL    HW114348   5.970   3.300   1.264
 4483SOL    HW214349   6.133   3.303   1.251
 4484SOL     OW14350   3.288   2.146   5.263
 4484SOL    HW114351   3.325   2.070   5.210
 4484SOL    HW214352   3.221   2.195   5.208
 4485SOL     OW14353   5.235   2.282   6.064
 4485SOL    HW114354   5.222   2.371   6.106
 4485SOL    HW214355   5.245   2.292   5.965
 4486SOL     OW14356   5.919   3.506   4.498
 4486SOL    HW114357   5.909   3.580   4.431
 4486SOL    HW214358   5.837   3.504   4.557
 4487SOL     OW14359   2.418   3.109   6.548
 4487SOL    HW114360   2.483   3.185   6.557
 4487SOL    HW214361   2.356   3.128   6.473
 4488SOL     OW14362   5.662   2.844   5.592
 4488SOL    HW114363   5.602   2.870   5.667
 4488SOL    HW214364   5.659   2.744   5.580
 4489SOL     OW14365   5.040   6.234   4.391
 4489SOL    HW114366   5.124   6.272   4.428
 4489SOL    HW214367   5.053   6.213   4.294
 4490SOL     OW14368   5.635   2.322   1.950
 4490SOL    HW114369   5.602   2.395   1.891
 4490SOL    HW214370   5.583   2.239   1.933
 4491SOL     OW14371   0.534   3.024   3.642
 4491SOL    HW114372   0.612   3.088   3.639
 4491SOL    HW214373   0.525   2.979   3.554
 4492SOL     OW14374   5.417   3.877   0.893
 4492SOL    HW114375   5.515   3.882   0.875
 4492SOL    HW214376   5.402   3.855   0.989
 4493SOL     OW14377   4.636   5.360   5.758
 4493SOL    HW114378   4.572   5.339   5.685
 4493SOL    HW214379   4.723   5.314   5.741
 4494SOL     OW14380   0.372   1.812   6.347
 4494SOL    HW114381   0.451   1.873   6.350
 4494SOL    HW214382   0.288   1.865   6.333
 4495SOL     OW14383   5.089   6.514   3.518
 4495SOL    HW114384   5.008   6.552   3.562
 4495SOL    HW214385   5.141   6.460   3.584
 4496SOL     OW14386   4.975   5.662   0.746
 4496SOL    HW114387   5.034   5.616   0.679
 4496SOL    HW214388   4.927   5.593   0.800
 4497SOL     OW14389   4.625   0.244   0.046
 4497SOL    HW114390   4.645   0.265   0.142
 4497SOL    HW214391   4.548   0.182   0.042
 4498SOL     OW14392   0.426   3.213   5.970
 4498SOL    HW114393   0.479   3.275   5.912
 4498SOL    HW214394   0.331   3.243   5.972
 4499SOL     OW14395   6.896   3.705   4.322
 4499SOL    HW114396   6.863   3.613   4.300
 4499SOL    HW214397   6.995   3.709   4.308
 4500SOL     OW14398   3.236   3.499   3.930
 4500SOL    HW114399   3.239   3.479   4.028
 4500SOL    HW214400   3.270   3.420   3.879
 4501SOL     OW14401   0.066   3.380   6.092
 4501SOL    HW114402   0.138   3.363   6.159
 4501SOL    HW214403   0.105   3.372   6.000
 4502SOL     OW14404   1.827   2.511   6.457
 4502SOL    HW114405   1.873   2.518   6.368
 4502SOL    HW214406   1.891   2.537   6.529
 4503SOL     OW14407   3.000   0.432   2.661
 4503SOL    HW114408   3.025   0.528   2.648
 4503SOL    HW214409   2.956   0.398   2.578
 4504SOL     OW14410   6.298   1.822   5.194
 4504SOL    HW114411   6.335   1.864   5.277
 4504SOL    HW214412   6.338   1.867   5.114
 4505SOL     OW14413   6.650   5.595   3.971
 4505SOL    HW114414   6.634   5.498   3.952
 4505SOL    HW214415   6.562   5.643   3.975
 4506SOL     OW14416   5.038   2.645   4.582
 4506SOL    HW114417   4.999   2.606   4.498
 4506SOL    HW214418   4.986   2.727   4.607
 4507SOL     OW14419   5.001   3.805   1.431
 4507SOL    HW114420   4.964   3.723   1.475
 4507SOL    HW214421   5.100   3.807   1.442
 4508SOL     OW14422   0.738   4.979   6.284
 4508SOL    HW114423   0.741   4.890   6.329
 4508SOL    HW214424   0.761   4.968   6.187
 4509SOL     OW14425   5.147   2.618   3.658
 4509SOL    HW114426   5.133   2.563   3.741
 4509SOL    HW214427   5.240   2.601   3.623
 4510SOL     OW14428   5.569   6.455   5.520
 4510SOL    HW114429   5.596   6.361   5.501
 4510SOL    HW214430   5.591   6.513   5.441
 4511SOL     OW14431   0.011   3.351   6.456
 4511SOL    HW114432   0.067   3.433   6.459
 4511SOL    HW214433   0.044   3.286   6.525
 4512SOL     OW14434   2.238   6.372   6.178
 4512SOL    HW114435   2.145   6.405   6.194
 4512SOL    HW214436   2.243   6.274   6.199
 4513SOL     OW14437   5.079   6.464   0.366
 4513SOL    HW114438   5.008   6.399   0.394
 4513SOL    HW214439   5.129   6.496   0.447
 4514SOL     OW14440   4.532   0.548   4.707
 4514SOL    HW114441   4.484   0.588   4.785
 4514SOL    HW214442   4.526   0.448   4.712
 4515SOL     OW14443   6.778   4.261   5.894
 4515SOL    HW114444   6.818   4.170   5.901
 4515SOL    HW214445   6.688   4.255   5.850
 4516SOL     OW14446   1.637   1.235   6.093
 4516SOL    HW114447   1.653   1.245   6.191
 4516SOL    HW214448   1.584   1.313   6.060
 4517SOL     OW14449   2.193   0.362   6.765
 4517SOL    HW114450   2.119   0.363   6.832
 4517SOL    HW214451   2.235   0.453   6.761
 4518SOL     OW14452   6.769   1.447   3.391
 4518SOL    HW114453   6.811   1.535   3.369
 4518SOL    HW214454   6.697   1.427   3.324
 4519SOL     OW14455   5.889   0.596   1.691
 4519SOL    HW114456   5.977   0.627   1.727
 4519SOL    HW214457   5.906   0.542   1.608
 4520SOL     OW14458   5.307   5.424   3.329
 4520SOL    HW114459   5.316   5.325   3.332
 4520SOL    HW214460   5.274   5.458   3.417
 4521SOL     OW14461   5.063   2.208   4.966
 4521SOL    HW114462   5.130   2.201   4.892
 4521SOL    HW214463   5.042   2.117   5.001
 4522SOL     OW14464   5.224   0.257   3.804
 4522SOL    HW114465   5.156   0.214   3.744
 4522SOL    HW214466   5.315   0.224   3.780
 4523SOL     OW14467   0.971   4.759   0.120
 4523SOL    HW114468   0.927   4.677   0.158
 4523SOL    HW214469   1.000   4.818   0.195
 4524SOL     OW14470   5.385   2.578   5.169
 4524SOL    HW114471   5.410   2.611   5.260
 4524SOL    HW214472   5.434   2.493   5.149
 4525SOL     OW14473   6.311   1.584   3.473
 4525SOL    HW114474   6.285   1.617   3.564
 4525SOL    HW214475   6.289   1.487   3.466
 4526SOL     OW14476   4.881   0.777   0.579
 4526SOL    HW114477   4.785   0.753   0.590
 4526SOL    HW214478   4.933   0.698   0.547
 4527SOL     OW14479   4.046   1.218   4.087
 4527SOL    HW114480   4.057   1.286   4.160
 4527SOL    HW214481   4.101   1.246   4.007
 4528SOL     OW14482   4.913   6.568   0.154
 4528SOL    HW114483   4.950   6.520   0.074
 4528SOL    HW214484   4.949   6.526   0.237
 4529SOL     OW14485   3.381   1.352   3.806
 4529SOL    HW114486   3.408   1.272   3.753
 4529SOL    HW214487   3.433   1.355   3.891
 4530SOL     OW14488   6.919   3.579   5.545
 4530SOL    HW114489   6.824   3.549   5.547
 4530SOL    HW214490   6.977   3.503   5.517
 4531SOL     OW14491   0.192   3.347   3.318
 4531SOL    HW114492   0.252   3.323   3.242
 4531SOL    HW214493   0.181   3.267   3.378
 4532SOL     OW14494   0.415   1.367   2.207
 4532SOL    HW114495   0.360   1.395   2.128
 4532SOL    HW214496   0.387   1.275   2.237
 4533SOL     OW14497   1.148   0.113   3.206
 4533SOL    HW114498   1.063   0.142   3.161
 4533SOL    HW214499   1.159   0.015   3.195
 4534SOL     OW14500   6.019   3.335   4.088
 4534SOL    HW114501   6.023   3.251   4.034
 4534SOL    HW214502   6.084   3.401   4.050
 4535SOL     OW14503   4.310   1.917   2.760
 4535SOL    HW114504   4.293   1.972   2.842
 4535SOL    HW214505   4.382   1.850   2.778
 4536SOL     OW14506   4.401   2.266   4.342
 4536SOL    HW114507   4.440   2.185   4.298
 4536SOL    HW214508   4.305   2.277   4.314
 4537SOL     OW14509   3.744   3.408   5.877
 4537SOL    HW114510   3.826   3.410   5.934
 4537SOL    HW214511   3.682   3.336   5.910
 4538SOL     OW14512   2.478   1.648   4.107
 4538SOL    HW114513   2.443   1.600   4.188
 4538SOL    HW214514   2.577   1.641   4.105
 4539SOL     OW14515   2.520   1.349   4.231
 4539SOL    HW114516   2.422   1.343   4.247
 4539SOL    HW214517   2.551   1.267   4.183
 4540SOL     OW14518   3.143   3.101   4.195
 4540SOL    HW114519   3.077   3.037   4.156
 4540SOL    HW214520   3.224   3.104   4.138
 4541SOL     OW14521   5.762   1.147   6.710
 4541SOL    HW114522   5.756   1.084   6.788
 4541SOL    HW214523   5.806   1.101   6.633
 4542SOL     OW14524   5.809   6.828   1.927
 4542SOL    HW114525   5.731   6.807   1.868
 4542SOL    HW214526   5.794   6.915   1.973
 4543SOL     OW14527   4.502   2.101   0.326
 4543SOL    HW114528   4.583   2.071   0.377
 4543SOL    HW214529   4.527   2.113   0.230
 4544SOL     OW14530   2.852   6.649   5.635
 4544SOL    HW114531   2.915   6.572   5.647
 4544SOL    HW214532   2.758   6.616   5.635
 4545SOL     OW14533   5.275   2.435   4.872
 4545SOL    HW114534   5.310   2.506   4.933
 4545SOL    HW214535   5.346   2.367   4.855
 4546SOL     OW14536   1.227   0.532   6.270
 4546SOL    HW114537   1.185   0.621   6.255
 4546SOL    HW214538   1.236   0.516   6.369
 4547SOL     OW14539   6.534   2.672   3.135
 4547SOL    HW114540   6.444   2.643   3.103
 4547SOL    HW214541   6.556   2.760   3.094
 4548SOL     OW14542   0.991   4.794   4.933
 4548SOL    HW114543   0.933   4.765   4.857
 4548SOL    HW214544   1.042   4.716   4.969
 4549SOL     OW14545   6.096   3.491   2.300
 4549SOL    HW114546   6.158   3.432   2.249
 4549SOL    HW214547   6.142   3.577   2.321
 4550SOL     OW14548   0.641   6.313   3.092
 4550SOL    HW114549   0.590   6.350   3.015
 4550SOL    HW214550   0.590   6.330   3.177
 4551SOL     OW14551   0.351   2.079   5.451
 4551SOL    HW114552   0.361   2.048   5.356
 4551SOL    HW214553   0.435   2.058   5.502
 4552SOL     OW14554   0.061   2.407   6.301
 4552SOL    HW114555   0.046   2.341   6.227
 4552SOL    HW214556   6.998   2.466   6.310
 4553SOL     OW14557   3.566   4.310   0.534
 4553SOL    HW114558   3.589   4.406   0.517
 4553SOL    HW214559   3.647   4.253   0.521
 4554SOL     OW14560   4.082   0.911   1.567
 4554SOL    HW114561   4.050   1.005   1.552
 4554SOL    HW214562   4.024   0.867   1.636
 4555SOL     OW14563   3.399   1.892   5.807
 4555SOL    HW114564   3.484   1.868   5.855
 4555SOL    HW214565   3.327   1.826   5.832
 4556SOL     OW14566   4.745   2.302   3.409
 4556SOL    HW114567   4.804   2.374   3.374
 4556SOL    HW214568   4.800   2.230   3.450
 4557SOL     OW14569   5.148   6.667   5.343
 4557SOL    HW114570   5.105   6.713   5.421
 4557SOL    HW214571   5.243   6.696   5.336
 4558SOL     OW14572   6.520   3.960   6.005
 4558SOL    HW114573   6.439   4.017   6.017
 4558SOL    HW214574   6.554   3.968   5.912
 4559SOL     OW14575   1.508   5.400   1.058
 4559SOL    HW114576   1.535   5.444   1.144
 4559SOL    HW214577   1.567   5.321   1.041
 4560SOL     OW14578   5.598   4.546   3.602
 4560SOL    HW114579   5.583   4.577   3.508
 4560SOL    HW214580   5.654   4.614   3.651
 4561SOL     OW14581   3.250   0.973   1.327
 4561SOL    HW114582   3.297   0.886   1.342
 4561SOL    HW214583   3.278   1.011   1.239
 4562SOL     OW14584   2.978   5.891   4.930
 4562SOL    HW114585   3.037   5.924   4.856
 4562SOL    HW214586   2.935   5.805   4.903
 4563SOL     OW14587   6.612   3.751   6.859
 4563SOL    HW114588   6.621   3.741   6.759
 4563SOL    HW214589   6.653   3.838   6.886
 4564SOL     OW14590   0.856   6.287   0.724
 4564SOL    HW114591   0.943   6.334   0.735
 4564SOL    HW214592   0.832   6.241   0.810
 4565SOL     OW14593   0.141   1.543   5.771
 4565SOL    HW114594   0.123   1.534   5.673
 4565SOL    HW214595   0.120   1.456   5.816
 4566SOL     OW14596   6.726   0.830   1.030
 4566SOL    HW114597   6.823   0.855   1.028
 4566SOL    HW214598   6.671   0.911   1.048
 4567SOL     OW14599   0.765   0.829   0.122
 4567SOL    HW114600   0.805   0.747   0.163
 4567SOL    HW214601   0.740   0.894   0.194
 4568SOL     OW14602   1.891   4.412   5.476
 4568SOL    HW114603   1.820   4.374   5.417
 4568SOL    HW214604   1.918   4.502   5.443
 4569SOL     OW14605   2.096   1.566   3.165
 4569SOL    HW114606   2.074   1.520   3.079
 4569SOL    HW214607   2.158   1.508   3.219
 4570SOL     OW14608   0.241   4.972   2.976
 4570SOL    HW114609   0.151   4.996   3.014
 4570SOL    HW214610   0.239   4.978   2.877
 4571SOL     OW14611   3.725   3.397   5.328
 4571SOL    HW114612   3.666   3.330   5.284
 4571SOL    HW214613   3.697   3.409   5.423
 4572SOL     OW14614   0.816   6.017   6.114
 4572SOL    HW114615   0.804   6.038   6.017
 4572SOL    HW214616   0.864   6.093   6.158
 4573SOL     OW14617   6.107   6.066   0.401
 4573SOL    HW114618   6.175   6.023   0.460
 4573SOL    HW214619   6.016   6.034   0.426
 4574SOL     OW14620   6.715   4.178   0.916
 4574SOL    HW114621   6.639   4.232   0.951
 4574SOL    HW214622   6.796   4.236   0.905
 4575SOL     OW14623   6.501   1.904   6.693
 4575SOL    HW114624   6.566   1.959   6.640
 4575SOL    HW214625   6.526   1.807   6.686
 4576SOL     OW14626   2.555   6.352   6.588
 4576SOL    HW114627   2.594   6.404   6.664
 4576SOL    HW214628   2.619   6.351   6.512
 4577SOL     OW14629   0.151   2.902   3.271
 4577SOL    HW114630   0.219   2.848   3.319
 4577SOL    HW214631   0.060   2.879   3.304
 4578SOL     OW14632   0.504   3.574   3.649
 4578SOL    HW114633   0.559   3.496   3.679
 4578SOL    HW214634   0.470   3.624   3.729
 4579SOL     OW14635   5.341   1.330   2.822
 4579SOL    HW114636   5.383   1.388   2.892
 4579SOL    HW214637   5.352   1.373   2.732
 4580SOL     OW14638   5.669   5.616   0.210
 4580SOL    HW114639   5.769   5.620   0.209
 4580SOL    HW214640   5.633   5.632   0.118
 4581SOL     OW14641   3.347   5.278   3.049
 4581SOL    HW114642   3.418   5.332   3.003
 4581SOL    HW214643   3.284   5.242   2.981
 4582SOL     OW14644   6.001   6.720   4.657
 4582SOL    HW114645   5.958   6.810   4.669
 4582SOL    HW214646   6.013   6.678   4.747
 4583SOL     OW14647   2.512   1.164   4.900
 4583SOL    HW114648   2.504   1.221   4.982
 4583SOL    HW214649   2.518   1.068   4.926
 4584SOL     OW14650   0.549   5.452   5.511
 4584SOL    HW114651   0.594   5.435   5.599
 4584SOL    HW214652   0.451   5.460   5.525
 4585SOL     OW14653   2.910   6.851   3.181
 4585SOL    HW114654   2.945   6.788   3.251
 4585SOL    HW214655   2.985   6.882   3.123
 4586SOL     OW14656   3.546   5.075   0.631
 4586SOL    HW114657   3.553   5.048   0.727
 4586SOL    HW214658   3.596   5.010   0.574
 4587SOL     OW14659   4.434   3.223   1.713
 4587SOL    HW114660   4.491   3.156   1.762
 4587SOL    HW214661   4.361   3.254   1.773
 4588SOL     OW14662   3.678   3.930   5.128
 4588SOL    HW114663   3.629   3.924   5.215
 4588SOL    HW214664   3.699   4.026   5.108
 4589SOL     OW14665   5.989   1.561   2.133
 4589SOL    HW114666   6.069   1.525   2.085
 4589SOL    HW214667   5.932   1.612   2.069
 4590SOL     OW14668   4.320   6.305   2.268
 4590SOL    HW114669   4.246   6.346   2.321
 4590SOL    HW214670   4.297   6.210   2.245
 4591SOL     OW14671   0.760   5.876   5.057
 4591SOL    HW114672   0.803   5.964   5.037
 4591SOL    HW214673   0.799   5.837   5.140
 4592SOL     OW14674   3.970   2.562   1.722
 4592SOL    HW114675   4.017   2.560   1.634
 4592SOL    HW214676   3.937   2.654   1.741
 4593SOL     OW14677   4.457   5.688   4.062
 4593SOL    HW114678   4.549   5.712   4.031
 4593SOL    HW214679   4.417   5.621   4.000
 4594SOL     OW14680   3.411   2.226   1.117
 4594SOL    HW114681   3.385   2.138   1.078
 4594SOL    HW214682   3.491   2.214   1.176
 4595SOL     OW14683   3.545   2.852   5.577
 4595SOL    HW114684   3.637   2.890   5.576
 4595SOL    HW214685   3.531   2.796   5.496
 4596SOL     OW14686   6.166   6.554   2.353
 4596SOL    HW114687   6.188   6.476   2.294
 4596SOL    HW214688   6.171   6.639   2.300
 4597SOL     OW14689   4.645   4.445   6.986
 4597SOL    HW114690   4.736   4.476   6.959
 4597SOL    HW214691   4.601   4.398   6.910
 4598SOL     OW14692   1.675   5.381   6.899
 4598SOL    HW114693   1.768   5.407   6.923
 4598SOL    HW214694   1.675   5.338   6.809
 4599SOL     OW14695   1.657   4.358   0.831
 4599SOL    HW114696   1.729   4.379   0.898
 4599SOL    HW214697   1.672   4.412   0.748
 4600SOL     OW14698   2.258   5.944   5.810
 4600SOL    HW114699   2.232   6.006   5.736
 4600SOL    HW214700   2.207   5.858   5.802
 4601SOL     OW14701   1.631   0.699   5.338
 4601SOL    HW114702   1.570   0.746   5.402
 4601SOL    HW214703   1.618   0.737   5.247
 4602SOL     OW14704   1.116   5.707   0.451
 4602SOL    HW114705   1.052   5.729   0.525
 4602SOL    HW214706   1.133   5.608   0.451
 4603SOL     OW14707   3.794   7.002   1.309
 4603SOL    HW114708   3.807   0.033   1.396
 4603SOL    HW214709   3.707   6.952   1.312
 4604SOL     OW14710   4.934   0.823   1.399
 4604SOL    HW114711   5.002   0.895   1.411
 4604SOL    HW214712   4.843   0.861   1.418
 4605SOL     OW14713   5.008   0.819   2.686
 4605SOL    HW114714   4.911   0.819   2.712
 4605SOL    HW214715   5.028   0.735   2.635
 4606SOL     OW14716   6.814   0.212   2.129
 4606SOL    HW114717   6.794   0.157   2.210
 4606SOL    HW214718   6.782   0.164   2.047
 4607SOL     OW14719   2.607   2.983   0.681
 4607SOL    HW114720   2.598   2.887   0.657
 4607SOL    HW214721   2.627   2.992   0.778
 4608SOL     OW14722   1.550   5.546   3.813
 4608SOL    HW114723   1.494   5.476   3.858
 4608SOL    HW214724   1.491   5.616   3.774
 4609SOL     OW14725   4.144   5.672   5.880
 4609SOL    HW114726   4.162   5.673   5.781
 4609SOL    HW214727   4.054   5.631   5.896
 4610SOL     OW14728   6.751   2.280   0.360
 4610SOL    HW114729   6.839   2.272   0.313
 4610SOL    HW214730   6.745   2.208   0.430
 4611SOL     OW14731   5.996   5.464   6.025
 4611SOL    HW114732   6.006   5.554   5.983
 4611SOL    HW214733   5.909   5.459   6.073
 4612SOL     OW14734   1.295   6.461   0.608
 4612SOL    HW114735   1.348   6.409   0.541
 4612SOL    HW214736   1.321   6.557   0.603
 4613SOL     OW14737   2.588   5.288   2.645
 4613SOL    HW114738   2.511   5.252   2.697
 4613SOL    HW214739   2.558   5.312   2.552
 4614SOL     OW14740   1.161   4.293   5.350
 4614SOL    HW114741   1.150   4.204   5.395
 4614SOL    HW214742   1.214   4.354   5.409
 4615SOL     OW14743   2.235   0.558   0.257
 4615SOL    HW114744   2.183   0.613   0.191
 4615SOL    HW214745   2.260   0.615   0.335
 4616SOL     OW14746   6.430   0.260   6.078
 4616SOL    HW114747   6.350   0.316   6.100
 4616SOL    HW214748   6.469   0.291   5.992
 4617SOL     OW14749   1.442   2.519   2.630
 4617SOL    HW114750   1.469   2.615   2.618
 4617SOL    HW214751   1.500   2.461   2.573
 4618SOL     OW14752   2.046   2.127   5.602
 4618SOL    HW114753   2.123   2.191   5.595
 4618SOL    HW214754   2.078   2.040   5.639
 4619SOL     OW14755   4.068   6.215   3.443
 4619SOL    HW114756   4.011   6.232   3.524
 4619SOL    HW214757   4.126   6.294   3.426
 4620SOL     OW14758   3.372   4.031   6.683
 4620SOL    HW114759   3.312   3.958   6.648
 4620SOL    HW214760   3.352   4.116   6.635
 4621SOL     OW14761   5.562   1.625   3.538
 4621SOL    HW114762   5.597   1.533   3.548
 4621SOL    HW214763   5.539   1.642   3.442
 4622SOL     OW14764   0.407   3.048   0.649
 4622SOL    HW114765   0.468   2.987   0.599
 4622SOL    HW214766   0.436   3.053   0.744
 4623SOL     OW14767   0.440   5.491   1.137
 4623SOL    HW114768   0.450   5.465   1.233
 4623SOL    HW214769   0.468   5.587   1.126
 4624SOL     OW14770   4.991   6.621   3.073
 4624SOL    HW114771   5.028   6.563   3.146
 4624SOL    HW214772   4.896   6.596   3.056
 4625SOL     OW14773   1.890   4.598   6.728
 4625SOL    HW114774   1.919   4.675   6.785
 4625SOL    HW214775   1.946   4.518   6.747
 4626SOL     OW14776   6.008   5.442   1.458
 4626SOL    HW114777   6.100   5.404   1.466
 4626SOL    HW214778   5.962   5.435   1.546
 4627SOL     OW14779   3.574   6.078   4.354
 4627SOL    HW114780   3.538   6.122   4.437
 4627SOL    HW214781   3.597   6.148   4.287
 4628SOL     OW14782   5.999   4.146   3.470
 4628SOL    HW114783   5.952   4.180   3.551
 4628SOL    HW214784   5.968   4.196   3.389
 4629SOL     OW14785   2.191   5.106   5.804
 4629SOL    HW114786   2.131   5.123   5.883
 4629SOL    HW214787   2.279   5.152   5.819
 4630SOL     OW14788   3.769   5.571   3.037
 4630SOL    HW114789   3.798   5.536   3.126
 4630SOL    HW214790   3.782   5.670   3.034
 4631SOL     OW14791   2.588   6.653   3.510
 4631SOL    HW114792   2.656   6.593   3.468
 4631SOL    HW214793   2.635   6.725   3.561
 4632SOL     OW14794   4.635   4.347   3.041
 4632SOL    HW114795   4.671   4.267   3.089
 4632SOL    HW214796   4.662   4.344   2.945
 4633SOL     OW14797   6.032   1.725   3.569
 4633SOL    HW114798   5.946   1.767   3.598
 4633SOL    HW214799   6.096   1.724   3.646
 4634SOL     OW14800   2.367   4.513   6.359
 4634SOL    HW114801   2.365   4.486   6.455
 4634SOL    HW214802   2.297   4.462   6.309
 4635SOL     OW14803   6.094   3.196   1.982
 4635SOL    HW114804   6.011   3.201   2.037
 4635SOL    HW214805   6.075   3.147   1.897
 4636SOL     OW14806   2.044   5.185   0.034
 4636SOL    HW114807   1.956   5.194   0.081
 4636SOL    HW214808   2.094   5.106   0.071
 4637SOL     OW14809   2.024   0.811   0.415
 4637SOL    HW114810   2.094   0.761   0.465
 4637SOL    HW214811   2.067   0.874   0.350
 4638SOL     OW14812   3.417   3.018   6.192
 4638SOL    HW114813   3.359   2.963   6.133
 4638SOL    HW214814   3.368   3.039   6.277
 4639SOL     OW14815   2.050   4.873   5.353
 4639SOL    HW114816   2.129   4.818   5.380
 4639SOL    HW214817   2.053   4.889   5.254
 4640SOL     OW14818   5.038   5.220   3.314
 4640SOL    HW114819   5.133   5.212   3.286
 4640SOL    HW214820   4.987   5.269   3.243
 4641SOL     OW14821   2.693   5.887   4.087
 4641SOL    HW114822   2.790   5.865   4.100
 4641SOL    HW214823   2.685   5.980   4.050
 4642SOL     OW14824   0.965   6.665   5.433
 4642SOL    HW114825   0.875   6.685   5.471
 4642SOL    HW214826   1.015   6.751   5.419
 4643SOL     OW14827   5.577   2.454   0.967
 4643SOL    HW114828   5.501   2.394   0.994
 4643SOL    HW214829   5.626   2.412   0.891
 4644SOL     OW14830   1.252   4.901   4.677
 4644SOL    HW114831   1.269   4.975   4.741
 4644SOL    HW214832   1.161   4.862   4.696
 4645SOL     OW14833   1.422   0.309   4.498
 4645SOL    HW114834   1.439   0.268   4.587
 4645SOL    HW214835   1.496   0.284   4.435
 4646SOL     OW14836   2.778   6.693   2.921
 4646SOL    HW114837   2.839   6.748   2.978
 4646SOL    HW214838   2.772   6.600   2.958
 4647SOL     OW14839   0.923   6.492   3.086
 4647SOL    HW114840   0.899   6.570   3.028
 4647SOL    HW214841   0.839   6.451   3.123
 4648SOL     OW14842   4.211   0.377   1.267
 4648SOL    HW114843   4.227   0.344   1.174
 4648SOL    HW214844   4.298   0.388   1.315
 4649SOL     OW14845   5.022   6.578   6.053
 4649SOL    HW114846   5.118   6.566   6.029
 4649SOL    HW214847   4.983   6.489   6.079
 4650SOL     OW14848   4.136   5.876   3.721
 4650SOL    HW114849   4.144   5.778   3.740
 4650SOL    HW214850   4.056   5.913   3.769
 4651SOL     OW14851   6.828   1.650   0.602
 4651SOL    HW114852   6.904   1.695   0.553
 4651SOL    HW214853   6.820   1.688   0.694
 4652SOL     OW14854   0.513   0.160   4.030
 4652SOL    HW114855   0.544   0.254   4.016
 4652SOL    HW214856   0.415   0.160   4.049
 4653SOL     OW14857   6.332   5.421   6.779
 4653SOL    HW114858   6.275   5.431   6.696
 4653SOL    HW214859   6.362   5.326   6.786
 4654SOL     OW14860   0.403   6.962   0.139
 4654SOL    HW114861   0.404   6.862   0.136
 4654SOL    HW214862   0.417   6.999   0.047
 4655SOL     OW14863   6.612   4.974   1.890
 4655SOL    HW114864   6.548   5.015   1.823
 4655SOL    HW214865   6.603   4.875   1.888
 4656SOL     OW14866   1.058   6.688   3.598
 4656SOL    HW114867   0.988   6.634   3.552
 4656SOL    HW214868   1.043   6.785   3.580
 4657SOL     OW14869   4.646   0.025   1.606
 4657SOL    HW114870   4.579   7.003   1.543
 4657SOL    HW214871   4.687   0.106   1.564
 4658SOL     OW14872   3.606   1.187   2.336
 4658SOL    HW114873   3.547   1.209   2.413
 4658SOL    HW214874   3.701   1.183   2.366
 4659SOL     OW14875   2.684   3.869   5.905
 4659SOL    HW114876   2.621   3.889   5.980
 4659SOL    HW214877   2.690   3.948   5.844
 4660SOL     OW14878   1.158   2.618   4.987
 4660SOL    HW114879   1.131   2.528   5.022
 4660SOL    HW214880   1.200   2.671   5.061
 4661SOL     OW14881   3.917   4.441   5.535
 4661SOL    HW114882   3.968   4.459   5.451
 4661SOL    HW214883   3.848   4.370   5.518
 4662SOL     OW14884   4.751   0.652   5.081
 4662SOL    HW114885   4.835   0.613   5.042
 4662SOL    HW214886   4.676   0.639   5.017
 4663SOL     OW14887   0.459   1.620   2.343
 4663SOL    HW114888   0.464   1.687   2.269
 4663SOL    HW214889   0.458   1.528   2.304
 4664SOL     OW14890   1.911   2.292   0.368
 4664SOL    HW114891   1.900   2.218   0.435
 4664SOL    HW214892   2.007   2.297   0.340
 4665SOL     OW14893   4.195   7.006   0.629
 4665SOL    HW114894   4.209   7.012   0.728
 4665SOL    HW214895   4.145   6.923   0.607
 4666SOL     OW14896   1.717   1.490   0.343
 4666SOL    HW114897   1.661   1.539   0.409
 4666SOL    HW214898   1.801   1.458   0.387
 4667SOL     OW14899   6.479   4.399   0.993
 4667SOL    HW114900   6.498   4.444   0.905
 4667SOL    HW214901   6.392   4.432   1.029
 4668SOL     OW14902   6.707   2.941   3.610
 4668SOL    HW114903   6.747   2.922   3.699
 4668SOL    HW214904   6.677   2.856   3.567
 4669SOL     OW14905   3.407   6.575   0.508
 4669SOL    HW114906   3.443   6.486   0.537
 4669SOL    HW214907   3.307   6.571   0.505
 4670SOL     OW14908   3.285   1.210   4.892
 4670SOL    HW114909   3.253   1.301   4.916
 4670SOL    HW214910   3.337   1.214   4.807
 4671SOL     OW14911   6.632   2.675   2.189
 4671SOL    HW114912   6.717   2.671   2.242
 4671SOL    HW214913   6.625   2.593   2.132
 4672SOL     OW14914   2.529   4.851   6.209
 4672SOL    HW114915   2.608   4.863   6.269
 4672SOL    HW214916   2.445   4.859   6.263
 4673SOL     OW14917   5.085   0.250   0.892
 4673SOL    HW114918   5.117   0.294   0.808
 4673SOL    HW214919   5.010   0.188   0.871
 4674SOL     OW14920   5.129   6.212   6.860
 4674SOL    HW114921   5.188   6.176   6.931
 4674SOL    HW214922   5.173   6.202   6.771
 4675SOL     OW14923   0.559   3.315   6.694
 4675SOL    HW114924   0.512   3.359   6.617
 4675SOL    HW214925   0.576   3.382   6.766
 4676SOL     OW14926   6.917   6.009   3.976
 4676SOL    HW114927   6.854   5.972   4.045
 4676SOL    HW214928   6.953   6.097   4.008
 4677SOL     OW14929   2.308   1.910   1.245
 4677SOL    HW114930   2.366   1.890   1.324
 4677SOL    HW214931   2.265   1.999   1.257
 4678SOL     OW14932   2.300   4.354   3.039
 4678SOL    HW114933   2.322   4.290   2.965
 4678SOL    HW214934   2.258   4.304   3.114
 4679SOL     OW14935   4.397   0.387   1.757
 4679SOL    HW114936   4.312   0.404   1.707
 4679SOL    HW214937   4.400   0.291   1.786
 4680SOL     OW14938   3.509   1.017   6.457
 4680SOL    HW114939   3.424   0.972   6.428
 4680SOL    HW214940   3.524   1.001   6.554
 4681SOL     OW14941   5.044   4.893   0.330
 4681SOL    HW114942   5.075   4.924   0.420
 4681SOL    HW214943   5.093   4.809   0.304
 4682SOL     OW14944   4.676   4.468   5.781
 4682SOL    HW114945   4.614   4.389   5.787
 4682SOL    HW214946   4.625   4.547   5.746
 4683SOL     OW14947   5.843   5.699   2.279
 4683SOL    HW114948   5.880   5.624   2.333
 4683SOL    HW214949   5.787   5.758   2.337
 4684SOL     OW14950   4.571   6.822   5.337
 4684SOL    HW114951   4.539   6.757   5.407
 4684SOL    HW214952   4.628   6.892   5.380
 4685SOL     OW14953   2.098   4.680   6.377
 4685SOL    HW114954   2.154   4.613   6.328
 4685SOL    HW214955   2.074   4.755   6.316
 4686SOL     OW14956   4.193   6.029   0.081
 4686SOL    HW114957   4.288   6.027   0.050
 4686SOL    HW214958   4.178   6.109   0.139
 4687SOL     OW14959   4.808   2.916   4.221
 4687SOL    HW114960   4.778   2.825   4.252
 4687SOL    HW214961   4.794   2.982   4.295
 4688SOL     OW14962   5.805   2.655   5.296
 4688SOL    HW114963   5.764   2.710   5.223
 4688SOL    HW214964   5.825   2.564   5.262
 4689SOL     OW14965   5.828   1.011   1.032
 4689SOL    HW114966   5.849   1.107   1.053
 4689SOL    HW214967   5.748   1.008   0.972
 4690SOL     OW14968   2.196   0.472   0.884
 4690SOL    HW114969   2.150   0.505   0.966
 4690SOL    HW214970   2.264   0.403   0.909
 4691SOL     OW14971   3.329   3.817   0.352
 4691SOL    HW114972   3.295   3.883   0.419
 4691SOL    HW214973   3.382   3.746   0.399
 4692SOL     OW14974   5.844   5.119   2.881
 4692SOL    HW114975   5.796   5.135   2.794
 4692SOL    HW214976   5.924   5.179   2.887
 4693SOL     OW14977   1.323   0.492   3.844
 4693SOL    HW114978   1.285   0.417   3.790
 4693SOL    HW214979   1.378   0.454   3.918
 4694SOL     OW14980   2.352   1.884   0.387
 4694SOL    HW114981   2.272   1.906   0.331
 4694SOL    HW214982   2.325   1.876   0.483
 4695SOL     OW14983   1.317   5.430   0.821
 4695SOL    HW114984   1.276   5.517   0.847
 4695SOL    HW214985   1.390   5.407   0.884
 4696SOL     OW14986   0.520   5.831   6.027
 4696SOL    HW114987   0.550   5.850   6.121
 4696SOL    HW214988   0.420   5.835   6.023
 4697SOL     OW14989   1.005   3.844   2.370
 4697SOL    HW114990   0.981   3.771   2.435
 4697SOL    HW214991   1.084   3.816   2.316
 4698SOL     OW14992   4.482   6.488   3.100
 4698SOL    HW114993   4.499   6.409   3.159
 4698SOL    HW214994   4.460   6.568   3.156
 4699SOL     OW14995   0.501   6.492   2.946
 4699SOL    HW114996   0.482   6.573   3.002
 4699SOL    HW214997   0.416   6.445   2.925
 4700SOL     OW14998   6.200   2.361   2.010
 4700SOL    HW114999   6.127   2.430   2.013
 4700SOL    HW215000   6.236   2.348   2.103
 4701SOL     OW15001   3.330   2.011   0.355
 4701SOL    HW115002   3.407   1.989   0.414
 4701SOL    HW215003   3.363   2.058   0.273
 4702SOL     OW15004   4.625   4.908   0.412
 4702SOL    HW115005   4.539   4.869   0.445
 4702SOL    HW215006   4.660   4.974   0.479
 4703SOL     OW15007   1.318   6.561   2.962
 4703SOL    HW115008   1.277   6.470   2.972
 4703SOL    HW215009   1.364   6.587   3.046
 4704SOL     OW15010   6.708   6.065   6.582
 4704SOL    HW115011   6.759   5.995   6.532
 4704SOL    HW215012   6.771   6.129   6.624
 4705SOL     OW15013   3.692   2.155   0.811
 4705SOL    HW115014   3.627   2.223   0.779
 4705SOL    HW215015   3.644   2.071   0.834
 4706SOL     OW15016   1.752   0.682   0.418
 4706SOL    HW115017   1.766   0.621   0.340
 4706SOL    HW215018   1.840   0.705   0.458
 4707SOL     OW15019   1.155   6.543   1.818
 4707SOL    HW115020   1.056   6.551   1.809
 4707SOL    HW215021   1.198   6.561   1.729
 4708SOL     OW15022   1.250   1.770   5.781
 4708SOL    HW115023   1.335   1.791   5.829
 4708SOL    HW215024   1.268   1.755   5.684
 4709SOL     OW15025   4.736   5.391   4.996
 4709SOL    HW115026   4.654   5.448   4.986
 4709SOL    HW215027   4.799   5.436   5.059
 4710SOL     OW15028   5.800   6.816   6.178
 4710SOL    HW115029   5.732   6.887   6.161
 4710SOL    HW215030   5.859   6.844   6.254
 4711SOL     OW15031   6.619   1.549   2.317
 4711SOL    HW115032   6.671   1.477   2.270
 4711SOL    HW215033   6.535   1.567   2.266
 4712SOL     OW15034   3.326   4.833   6.406
 4712SOL    HW115035   3.238   4.854   6.450
 4712SOL    HW215036   3.397   4.892   6.445
 4713SOL     OW15037   4.367   5.460   0.737
 4713SOL    HW115038   4.308   5.533   0.771
 4713SOL    HW215039   4.462   5.478   0.765
 4714SOL     OW15040   0.337   1.306   6.182
 4714SOL    HW115041   0.351   1.254   6.097
 4714SOL    HW215042   0.264   1.372   6.169
 4715SOL     OW15043   6.109   3.303   1.665
 4715SOL    HW115044   6.126   3.218   1.715
 4715SOL    HW215045   6.104   3.379   1.730
 4716SOL     OW15046   4.489   6.701   5.606
 4716SOL    HW115047   4.507   6.614   5.560
 4716SOL    HW215048   4.400   6.697   5.652
 4717SOL     OW15049   0.944   5.663   5.205
 4717SOL    HW115050   1.011   5.600   5.167
 4717SOL    HW215051   0.976   5.696   5.294
 4718SOL     OW15052   5.143   2.054   1.049
 4718SOL    HW115053   5.112   2.110   0.973
 4718SOL    HW215054   5.082   1.976   1.061
 4719SOL     OW15055   4.902   3.909   2.366
 4719SOL    HW115056   4.996   3.935   2.345
 4719SOL    HW215057   4.849   3.991   2.389
 4720SOL     OW15058   2.010   5.129   6.026
 4720SOL    HW115059   2.027   5.104   6.121
 4720SOL    HW215060   1.933   5.192   6.022
 4721SOL     OW15061   6.475   1.871   1.526
 4721SOL    HW115062   6.419   1.953   1.539
 4721SOL    HW215063   6.533   1.856   1.606
 4722SOL     OW15064   1.036   6.169   6.487
 4722SOL    HW115065   1.099   6.091   6.496
 4722SOL    HW215066   1.087   6.254   6.497
 4723SOL     OW15067   2.909   3.574   5.011
 4723SOL    HW115068   2.931   3.617   5.099
 4723SOL    HW215069   2.895   3.476   5.025
 4724SOL     OW15070   0.031   0.122   4.169
 4724SOL    HW115071   7.004   0.182   4.237
 4724SOL    HW215072   7.003   0.033   4.169
 4725SOL     OW15073   6.519   4.873   0.219
 4725SOL    HW115074   6.457   4.837   0.149
 4725SOL    HW215075   6.468   4.931   0.282
 4726SOL     OW15076   1.299   3.568   6.296
 4726SOL    HW115077   1.345   3.649   6.259
 4726SOL    HW215078   1.344   3.485   6.263
 4727SOL     OW15079   0.294   6.075   1.232
 4727SOL    HW115080   0.221   6.044   1.170
 4727SOL    HW215081   0.322   5.999   1.291
 4728SOL     OW15082   6.754   1.194   2.861
 4728SOL    HW115083   6.764   1.189   2.960
 4728SOL    HW215084   6.672   1.247   2.838
 4729SOL     OW15085   4.997   0.810   0.261
 4729SOL    HW115086   5.042   0.750   0.328
 4729SOL    HW215087   4.900   0.789   0.257
 4730SOL     OW15088   3.452   5.906   5.462
 4730SOL    HW115089   3.433   5.959   5.544
 4730SOL    HW215090   3.551   5.895   5.451
 4731SOL     OW15091   3.123   1.089   0.933
 4731SOL    HW115092   3.062   1.029   0.985
 4731SOL    HW215093   3.086   1.102   0.841
 4732SOL     OW15094   0.465   3.133   5.253
 4732SOL    HW115095   0.457   3.174   5.163
 4732SOL    HW215096   0.559   3.102   5.267
 4733SOL     OW15097   1.384   4.121   3.330
 4733SOL    HW115098   1.324   4.047   3.298
 4733SOL    HW215099   1.342   4.209   3.307
 4734SOL     OW15100   4.641   3.284   0.593
 4734SOL    HW115101   4.719   3.220   0.596
 4734SOL    HW215102   4.666   3.368   0.641
 4735SOL     OW15103   6.482   5.756   4.299
 4735SOL    HW115104   6.462   5.752   4.201
 4735SOL    HW215105   6.436   5.835   4.339
 4736SOL     OW15106   5.593   1.786   5.466
 4736SOL    HW115107   5.679   1.810   5.513
 4736SOL    HW215108   5.611   1.771   5.369
 4737SOL     OW15109   2.501   4.377   0.370
 4737SOL    HW115110   2.557   4.459   0.356
 4737SOL    HW215111   2.405   4.403   0.379
 4738SOL     OW15112   2.994   6.341   3.267
 4738SOL    HW115113   3.061   6.268   3.254
 4738SOL    HW215114   2.902   6.301   3.276
 4739SOL     OW15115   5.318   1.338   3.152
 4739SOL    HW115116   5.223   1.354   3.124
 4739SOL    HW215117   5.378   1.395   3.096
 4740SOL     OW15118   0.464   0.261   0.628
 4740SOL    HW115119   0.368   0.286   0.644
 4740SOL    HW215120   0.507   0.332   0.572
 4741SOL     OW15121   4.479   3.272   1.315
 4741SOL    HW115122   4.485   3.309   1.223
 4741SOL    HW215123   4.461   3.347   1.380
 4742SOL     OW15124   3.333   6.577   1.728
 4742SOL    HW115125   3.356   6.481   1.744
 4742SOL    HW215126   3.376   6.634   1.798
 4743SOL     OW15127   1.621   2.460   5.807
 4743SOL    HW115128   1.681   2.388   5.772
 4743SOL    HW215129   1.546   2.476   5.742
 4744SOL     OW15130   2.466   3.508   6.013
 4744SOL    HW115131   2.537   3.574   5.990
 4744SOL    HW215132   2.467   3.434   5.946
 4745SOL     OW15133   2.496   5.327   5.131
 4745SOL    HW115134   2.474   5.415   5.087
 4745SOL    HW215135   2.440   5.255   5.089
 4746SOL     OW15136   6.562   6.004   2.684
 4746SOL    HW115137   6.589   5.910   2.661
 4746SOL    HW215138   6.574   6.063   2.603
 4747SOL     OW15139   1.701   3.952   6.534
 4747SOL    HW115140   1.602   3.944   6.544
 4747SOL    HW215141   1.741   3.860   6.527
 4748SOL     OW15142   1.918   5.530   1.004
 4748SOL    HW115143   1.986   5.603   1.001
 4748SOL    HW215144   1.896   5.509   1.099
 4749SOL     OW15145   3.068   6.416   5.708
 4749SOL    HW115146   3.153   6.372   5.679
 4749SOL    HW215147   3.062   6.414   5.808
 4750SOL     OW15148   0.495   3.086   4.191
 4750SOL    HW115149   0.486   3.109   4.094
 4750SOL    HW215150   0.555   3.153   4.235
 4751SOL     OW15151   2.182   3.044   0.101
 4751SOL    HW115152   2.108   3.109   0.121
 4751SOL    HW215153   2.264   3.095   0.074
 4752SOL     OW15154   2.963   0.113   0.301
 4752SOL    HW115155   3.019   0.053   0.357
 4752SOL    HW215156   2.896   0.160   0.358
 4753SOL     OW15157   5.214   0.163   4.282
 4753SOL    HW115158   5.157   0.217   4.219
 4753SOL    HW215159   5.310   0.174   4.258
 4754SOL     OW15160   6.036   0.308   5.600
 4754SOL    HW115161   6.038   0.209   5.586
 4754SOL    HW215162   5.984   0.329   5.683
 4755SOL     OW15163   2.710   0.705   0.710
 4755SOL    HW115164   2.757   0.712   0.622
 4755SOL    HW215165   2.715   0.793   0.757
 4756SOL     OW15166   6.083   2.604   0.726
 4756SOL    HW115167   6.138   2.668   0.674
 4756SOL    HW215168   5.993   2.644   0.745
 4757SOL     OW15169   1.354   2.232   2.128
 4757SOL    HW115170   1.257   2.253   2.142
 4757SOL    HW215171   1.383   2.162   2.194
 4758SOL     OW15172   3.015   6.225   4.807
 4758SOL    HW115173   3.025   6.228   4.907
 4758SOL    HW215174   3.004   6.130   4.777
 4759SOL     OW15175   5.673   5.216   5.029
 4759SOL    HW115176   5.735   5.294   5.039
 4759SOL    HW215177   5.626   5.221   4.942
 4760SOL     OW15178   3.374   2.019   0.960
 4760SOL    HW115179   3.431   1.998   0.881
 4760SOL    HW215180   3.365   1.936   1.016
 4761SOL     OW15181   0.633   6.836   6.571
 4761SOL    HW115182   0.683   6.776   6.634
 4761SOL    HW215183   0.546   6.863   6.612
 4762SOL     OW15184   2.326   5.186   3.043
 4762SOL    HW115185   2.332   5.126   3.122
 4762SOL    HW215186   2.360   5.277   3.067
 4763SOL     OW15187   6.161   6.152   3.740
 4763SOL    HW115188   6.227   6.084   3.773
 4763SOL    HW215189   6.171   6.164   3.642
 4764SOL     OW15190   4.639   4.196   5.609
 4764SOL    HW115191   4.663   4.105   5.643
 4764SOL    HW215192   4.600   4.187   5.517
 4765SOL     OW15193   5.034   0.010   4.441
 4765SOL    HW115194   5.095   0.061   4.381
 4765SOL    HW215195   5.088   6.979   4.511
 4766SOL     OW15196   4.427   7.000   3.793
 4766SOL    HW115197   4.513   0.035   3.789
 4766SOL    HW215198   4.358   0.030   3.738
 4767SOL     OW15199   3.988   5.638   6.331
 4767SOL    HW115200   3.893   5.612   6.312
 4767SOL    HW215201   3.992   5.737   6.346
 4768SOL     OW15202   4.510   2.048   5.234
 4768SOL    HW115203   4.552   2.033   5.324
 4768SOL    HW215204   4.566   2.110   5.180
 4769SOL     OW15205   4.421   5.303   0.961
 4769SOL    HW115206   4.372   5.339   0.881
 4769SOL    HW215207   4.382   5.342   1.044
 4770SOL     OW15208   1.283   6.809   3.766
 4770SOL    HW115209   1.242   6.879   3.825
 4770SOL    HW215210   1.223   6.729   3.762
 4771SOL     OW15211   3.614   5.073   5.541
 4771SOL    HW115212   3.596   5.038   5.633
 4771SOL    HW215213   3.555   5.028   5.475
 4772SOL     OW15214   2.511   5.700   1.765
 4772SOL    HW115215   2.471   5.789   1.741
 4772SOL    HW215216   2.454   5.627   1.728
 4773SOL     OW15217   6.341   5.475   4.956
 4773SOL    HW115218   6.311   5.381   4.974
 4773SOL    HW215219   6.422   5.473   4.899
 4774SOL     OW15220   1.091   2.557   1.475
 4774SOL    HW115221   1.179   2.600   1.494
 4774SOL    HW215222   1.045   2.536   1.561
 4775SOL     OW15223   4.808   6.925   2.825
 4775SOL    HW115224   4.857   6.976   2.896
 4775SOL    HW215225   4.869   6.855   2.787
 4776SOL     OW15226   1.411   6.671   4.542
 4776SOL    HW115227   1.501   6.671   4.588
 4776SOL    HW215228   1.418   6.723   4.457
 4777SOL     OW15229   2.905   4.804   1.299
 4777SOL    HW115230   2.922   4.711   1.332
 4777SOL    HW215231   2.964   4.823   1.221
 4778SOL     OW15232   5.566   2.149   2.459
 4778SOL    HW115233   5.594   2.219   2.393
 4778SOL    HW215234   5.468   2.133   2.451
 4779SOL     OW15235   6.492   6.198   2.484
 4779SOL    HW115236   6.498   6.219   2.387
 4779SOL    HW215237   6.529   6.274   2.537
 4780SOL     OW15238   0.124   0.294   0.344
 4780SOL    HW115239   0.151   0.302   0.440
 4780SOL    HW215240   0.141   0.200   0.313
 4781SOL     OW15241   3.223   6.474   1.455
 4781SOL    HW115242   3.299   6.415   1.480
 4781SOL    HW215243   3.138   6.422   1.455
 4782SOL     OW15244   4.769   6.367   0.416
 4782SOL    HW115245   4.832   6.300   0.454
 4782SOL    HW215246   4.734   6.334   0.328
 4783SOL     OW15247   4.279   4.434   0.000
 4783SOL    HW115248   4.271   4.488   6.934
 4783SOL    HW215249   4.320   4.345   6.996
 4784SOL     OW15250   6.462   3.967   6.399
 4784SOL    HW115251   6.444   4.062   6.425
 4784SOL    HW215252   6.526   3.965   6.322
 4785SOL     OW15253   6.419   5.489   1.455
 4785SOL    HW115254   6.476   5.559   1.498
 4785SOL    HW215255   6.359   5.531   1.387
 4786SOL     OW15256   2.537   2.199   1.738
 4786SOL    HW115257   2.556   2.111   1.694
 4786SOL    HW215258   2.580   2.272   1.685
 4787SOL     OW15259   3.224   2.084   3.482
 4787SOL    HW115260   3.176   1.998   3.465
 4787SOL    HW215261   3.224   2.104   3.580
 4788SOL     OW15262   1.100   5.005   6.090
 4788SOL    HW115263   1.031   4.971   6.154
 4788SOL    HW215264   1.191   4.997   6.132
 4789SOL     OW15265   5.805   0.792   0.112
 4789SOL    HW115266   5.841   0.741   0.033
 4789SOL    HW215267   5.735   0.737   0.158
 4790SOL     OW15268   0.397   2.644   6.169
 4790SOL    HW115269   0.319   2.639   6.231
 4790SOL    HW215270   0.397   2.733   6.123
 4791SOL     OW15271   6.120   2.022   1.533
 4791SOL    HW115272   6.126   2.109   1.484
 4791SOL    HW215273   6.211   1.997   1.567
 4792SOL     OW15274   1.840   3.489   2.741
 4792SOL    HW115275   1.780   3.460   2.815
 4792SOL    HW215276   1.918   3.427   2.734
 4793SOL     OW15277   1.329   2.534   5.907
 4793SOL    HW115278   1.404   2.550   5.971
 4793SOL    HW215279   1.269   2.462   5.943
 4794SOL     OW15280   4.954   0.812   3.344
 4794SOL    HW115281   5.042   0.772   3.369
 4794SOL    HW215282   4.960   0.912   3.347
 4795SOL     OW15283   6.378   1.502   2.733
 4795SOL    HW115284   6.364   1.575   2.666
 4795SOL    HW215285   6.305   1.507   2.802
 4796SOL     OW15286   5.001   2.186   6.550
 4796SOL    HW115287   5.006   2.159   6.454
 4796SOL    HW215288   4.917   2.238   6.566
 4797SOL     OW15289   1.705   6.373   5.621
 4797SOL    HW115290   1.771   6.303   5.592
 4797SOL    HW215291   1.729   6.460   5.577
 4798SOL     OW15292   0.215   2.769   5.051
 4798SOL    HW115293   0.306   2.805   5.070
 4798SOL    HW215294   0.162   2.837   5.000
 4799SOL     OW15295   4.757   2.298   6.618
 4799SOL    HW115296   4.700   2.293   6.700
 4799SOL    HW215297   4.707   2.262   6.539
 4800SOL     OW15298   2.520   3.512   5.641
 4800SOL    HW115299   2.559   3.491   5.731
 4800SOL    HW215300   2.421   3.520   5.648
 4801SOL     OW15301   2.735   2.340   0.781
 4801SOL    HW115302   2.788   2.301   0.856
 4801SOL    HW215303   2.797   2.383   0.715
 4802SOL     OW15304   1.045   6.441   2.291
 4802SOL    HW115305   0.982   6.365   2.280
 4802SOL    HW215306   1.139   6.406   2.300
 4803SOL     OW15307   1.449   6.345   0.907
 4803SOL    HW115308   1.523   6.408   0.881
 4803SOL    HW215309   1.396   6.321   0.825
 4804SOL     OW15310   5.026   5.538   6.488
 4804SOL    HW115311   4.951   5.528   6.424
 4804SOL    HW215312   5.098   5.473   6.466
 4805SOL     OW15313   6.107   0.161   1.303
 4805SOL    HW115314   6.014   0.193   1.320
 4805SOL    HW215315   6.165   0.238   1.276
 4806SOL     OW15316   0.768   4.479   2.786
 4806SOL    HW115317   0.684   4.438   2.752
 4806SOL    HW215318   0.844   4.414   2.780
 4807SOL     OW15319   1.283   4.732   0.515
 4807SOL    HW115320   1.217   4.780   0.574
 4807SOL    HW215321   1.323   4.656   0.566
 4808SOL     OW15322   6.274   3.881   6.674
 4808SOL    HW115323   6.354   3.942   6.672
 4808SOL    HW215324   6.273   3.830   6.760
 4809SOL     OW15325   3.730   3.717   6.696
 4809SOL    HW115326   3.736   3.645   6.626
 4809SOL    HW215327   3.710   3.804   6.651
 4810SOL     OW15328   1.121   4.933   2.187
 4810SOL    HW115329   1.082   4.983   2.265
 4810SOL    HW215330   1.096   4.978   2.102
 4811SOL     OW15331   1.834   4.906   1.978
 4811SOL    HW115332   1.739   4.878   1.994
 4811SOL    HW215333   1.844   4.935   1.883
 4812SOL     OW15334   0.177   5.227   5.409
 4812SOL    HW115335   0.084   5.244   5.376
 4812SOL    HW215336   0.233   5.190   5.335
 4813SOL     OW15337   5.250   2.098   0.688
 4813SOL    HW115338   5.211   2.034   0.621
 4813SOL    HW215339   5.273   2.048   0.772
 4814SOL     OW15340   5.453   4.221   0.487
 4814SOL    HW115341   5.469   4.309   0.442
 4814SOL    HW215342   5.402   4.236   0.572
 4815SOL     OW15343   5.651   4.300   2.969
 4815SOL    HW115344   5.701   4.381   2.938
 4815SOL    HW215345   5.668   4.285   3.066
 4816SOL     OW15346   0.437   5.316   2.271
 4816SOL    HW115347   0.378   5.262   2.331
 4816SOL    HW215348   0.427   5.413   2.293
 4817SOL     OW15349   1.483   2.104   6.375
 4817SOL    HW115350   1.516   2.099   6.470
 4817SOL    HW215351   1.548   2.057   6.315
 4818SOL     OW15352   1.070   0.714   4.916
 4818SOL    HW115353   1.154   0.680   4.959
 4818SOL    HW215354   1.000   0.643   4.919
 4819SOL     OW15355   0.961   2.615   7.011
 4819SOL    HW115356   1.050   2.654   0.019
 4819SOL    HW215357   0.974   2.536   6.952
 4820SOL     OW15358   0.056   2.685   1.056
 4820SOL    HW115359   0.138   2.742   1.045
 4820SOL    HW215360   0.059   2.609   0.991
 4821SOL     OW15361   1.414   5.845   2.344
 4821SOL    HW115362   1.343   5.886   2.402
 4821SOL    HW215363   1.482   5.915   2.321
 4822SOL     OW15364   1.346   3.211   4.755
 4822SOL    HW115365   1.438   3.249   4.756
 4822SOL    HW215366   1.348   3.123   4.706
 4823SOL     OW15367   1.728   1.410   4.107
 4823SOL    HW115368   1.632   1.385   4.121
 4823SOL    HW215369   1.732   1.499   4.062
 4824SOL     OW15370   4.707   2.211   5.129
 4824SOL    HW115371   4.755   2.276   5.070
 4824SOL    HW215372   4.772   2.167   5.191
 4825SOL     OW15373   1.369   2.588   4.559
 4825SOL    HW115374   1.303   2.607   4.486
 4825SOL    HW215375   1.429   2.667   4.571
 4826SOL     OW15376   5.559   0.499   0.438
 4826SOL    HW115377   5.568   0.558   0.518
 4826SOL    HW215378   5.486   0.432   0.455
 4827SOL     OW15379   6.519   1.915   0.457
 4827SOL    HW115380   6.450   1.848   0.486
 4827SOL    HW215381   6.490   1.959   0.372
 4828SOL     OW15382   5.072   1.429   1.027
 4828SOL    HW115383   5.054   1.524   1.002
 4828SOL    HW215384   5.081   1.422   1.126
 4829SOL     OW15385   3.504   0.604   5.982
 4829SOL    HW115386   3.412   0.610   6.021
 4829SOL    HW215387   3.522   0.685   5.926
 4830SOL     OW15388   3.372   5.668   4.065
 4830SOL    HW115389   3.272   5.676   4.073
 4830SOL    HW215390   3.405   5.730   3.994
 4831SOL     OW15391   1.692   4.888   5.398
 4831SOL    HW115392   1.756   4.813   5.411
 4831SOL    HW215393   1.722   4.944   5.320
 4832SOL     OW15394   3.471   4.152   3.427
 4832SOL    HW115395   3.554   4.106   3.397
 4832SOL    HW215396   3.399   4.139   3.359
 4833SOL     OW15397   6.217   1.700   2.870
 4833SOL    HW115398   6.194   1.604   2.860
 4833SOL    HW215399   6.165   1.755   2.804
 4834SOL     OW15400   2.529   5.436   2.380
 4834SOL    HW115401   2.626   5.461   2.388
 4834SOL    HW215402   2.477   5.482   2.452
 4835SOL     OW15403   5.817   3.151   5.987
 4835SOL    HW115404   5.764   3.219   6.038
 4835SOL    HW215405   5.812   3.171   5.890
 4836SOL     OW15406   4.974   1.941   4.585
 4836SOL    HW115407   5.027   2.004   4.529
 4836SOL    HW215408   5.029   1.911   4.663
 4837SOL     OW15409   6.863   3.231   2.599
 4837SOL    HW115410   6.942   3.286   2.572
 4837SOL    HW215411   6.823   3.268   2.683
 4838SOL     OW15412   2.233   6.013   0.271
 4838SOL    HW115413   2.310   5.950   0.262
 4838SOL    HW215414   2.252   6.096   0.219
 4839SOL     OW15415   1.006   3.143   0.182
 4839SOL    HW115416   0.949   3.103   0.111
 4839SOL    HW215417   0.974   3.236   0.203
 4840SOL     OW15418   6.333   4.641   5.916
 4840SOL    HW115419   6.402   4.635   5.988
 4840SOL    HW215420   6.362   4.587   5.837
 4841SOL     OW15421   2.344   4.777   3.252
 4841SOL    HW115422   2.356   4.680   3.271
 4841SOL    HW215423   2.247   4.798   3.240
 4842SOL     OW15424   2.604   5.091   3.523
 4842SOL    HW115425   2.561   5.010   3.562
 4842SOL    HW215426   2.670   5.063   3.454
 4843SOL     OW15427   6.847   2.561   1.537
 4843SOL    HW115428   6.888   2.469   1.533
 4843SOL    HW215429   6.890   2.619   1.468
 4844SOL     OW15430   0.197   4.051   5.429
 4844SOL    HW115431   0.211   4.063   5.331
 4844SOL    HW215432   0.264   4.105   5.479
 4845SOL     OW15433   4.554   5.041   6.373
 4845SOL    HW115434   4.464   5.029   6.414
 4845SOL    HW215435   4.563   5.134   6.338
 4846SOL     OW15436   0.201   1.766   3.686
 4846SOL    HW115437   0.206   1.775   3.586
 4846SOL    HW215438   0.115   1.804   3.718
 4847SOL     OW15439   2.483   1.676   5.586
 4847SOL    HW115440   2.442   1.729   5.660
 4847SOL    HW215441   2.562   1.725   5.550
 4848SOL     OW15442   2.445   1.270   4.630
 4848SOL    HW115443   2.464   1.225   4.718
 4848SOL    HW215444   2.460   1.368   4.640
 4849SOL     OW15445   1.801   5.921   0.881
 4849SOL    HW115446   1.812   5.924   0.980
 4849SOL    HW215447   1.744   5.997   0.851
 4850SOL     OW15448   5.406   1.100   1.290
 4850SOL    HW115449   5.371   1.072   1.380
 4850SOL    HW215450   5.355   1.052   1.218
 4851SOL     OW15451   3.459   5.400   5.716
 4851SOL    HW115452   3.444   5.497   5.739
 4851SOL    HW215453   3.478   5.392   5.619
 4852SOL     OW15454   2.768   5.683   4.983
 4852SOL    HW115455   2.683   5.735   4.972
 4852SOL    HW215456   2.817   5.716   5.063
 4853SOL     OW15457   3.779   1.544   3.410
 4853SOL    HW115458   3.751   1.461   3.459
 4853SOL    HW215459   3.857   1.585   3.458
 4854SOL     OW15460   4.751   6.969   1.859
 4854SOL    HW115461   4.725   6.981   1.763
 4854SOL    HW215462   4.826   0.014   1.881
 4855SOL     OW15463   6.285   3.817   5.086
 4855SOL    HW115464   6.251   3.832   4.993
 4855SOL    HW215465   6.383   3.800   5.083
 4856SOL     OW15466   1.094   2.985   2.843
 4856SOL    HW115467   1.079   2.896   2.886
 4856SOL    HW215468   1.192   3.004   2.840
 4857SOL     OW15469   2.953   1.650   3.287
 4857SOL    HW115470   2.999   1.570   3.249
 4857SOL    HW215471   2.910   1.702   3.213
 4858SOL     OW15472   0.057   6.639   4.551
 4858SOL    HW115473   0.078   6.570   4.621
 4858SOL    HW215474   6.992   6.611   4.500
 4859SOL     OW15475   0.712   5.410   1.733
 4859SOL    HW115476   0.670   5.411   1.824
 4859SOL    HW215477   0.799   5.459   1.737
 4860SOL     OW15478   4.083   4.741   0.128
 4860SOL    HW115479   4.148   4.669   0.152
 4860SOL    HW215480   4.049   4.786   0.211
 4861SOL     OW15481   5.885   5.399   6.416
 4861SOL    HW115482   5.822   5.331   6.453
 4861SOL    HW215483   5.924   5.366   6.330
 4862SOL     OW15484   2.414   4.425   4.816
 4862SOL    HW115485   2.479   4.391   4.883
 4862SOL    HW215486   2.420   4.525   4.810
 4863SOL     OW15487   4.956   3.356   2.581
 4863SOL    HW115488   4.958   3.356   2.482
 4863SOL    HW215489   4.909   3.274   2.614
 4864SOL     OW15490   3.525   1.588   1.796
 4864SOL    HW115491   3.452   1.655   1.794
 4864SOL    HW215492   3.590   1.611   1.868
 4865SOL     OW15493   2.740   6.026   4.908
 4865SOL    HW115494   2.696   5.966   4.841
 4865SOL    HW215495   2.821   5.981   4.945
 4866SOL     OW15496   5.617   4.571   1.055
 4866SOL    HW115497   5.601   4.652   1.111
 4866SOL    HW215498   5.678   4.508   1.103
 4867SOL     OW15499   4.436   5.652   3.542
 4867SOL    HW115500   4.480   5.741   3.544
 4867SOL    HW215501   4.370   5.648   3.467
 4868SOL     OW15502   0.324   5.536   1.740
 4868SOL    HW115503   0.375   5.502   1.819
 4868SOL    HW215504   0.377   5.606   1.693
 4869SOL     OW15505   0.305   2.698   0.895
 4869SOL    HW115506   0.395   2.739   0.878
 4869SOL    HW215507   0.303   2.605   0.857
 4870SOL     OW15508   5.097   5.293   1.731
 4870SOL    HW115509   5.179   5.312   1.677
 4870SOL    HW215510   5.018   5.283   1.670
 4871SOL     OW15511   0.373   0.575   4.627
 4871SOL    HW115512   0.280   0.595   4.657
 4871SOL    HW215513   0.370   0.514   4.548
 4872SOL     OW15514   0.833   6.273   4.180
 4872SOL    HW115515   0.877   6.346   4.126
 4872SOL    HW215516   0.895   6.242   4.251
 4873SOL     OW15517   0.129   4.694   3.775
 4873SOL    HW115518   0.137   4.769   3.840
 4873SOL    HW215519   0.214   4.640   3.776
 4874SOL     OW15520   5.895   3.669   2.235
 4874SOL    HW115521   5.964   3.605   2.270
 4874SOL    HW215522   5.924   3.704   2.147
 4875SOL     OW15523   5.573   2.872   0.998
 4875SOL    HW115524   5.516   2.954   0.992
 4875SOL    HW215525   5.524   2.795   0.959
 4876SOL     OW15526   6.182   0.345   4.800
 4876SOL    HW115527   6.093   0.379   4.768
 4876SOL    HW215528   6.218   0.278   4.735
 4877SOL     OW15529   6.578   1.537   0.549
 4877SOL    HW115530   6.677   1.552   0.539
 4877SOL    HW215531   6.539   1.513   0.460
 4878SOL     OW15532   6.827   2.245   2.249
 4878SOL    HW115533   6.813   2.251   2.150
 4878SOL    HW215534   6.739   2.240   2.296
 4879SOL     OW15535   4.337   4.925   3.302
 4879SOL    HW115536   4.249   4.883   3.322
 4879SOL    HW215537   4.342   4.949   3.205
 4880SOL     OW15538   5.214   2.927   6.559
 4880SOL    HW115539   5.118   2.932   6.586
 4880SOL    HW215540   5.243   2.831   6.557
 4881SOL     OW15541   2.131   5.662   0.085
 4881SOL    HW115542   2.164   5.682   7.009
 4881SOL    HW215543   2.083   5.742   0.121
 4882SOL     OW15544   6.038   1.332   5.316
 4882SOL    HW115545   6.047   1.391   5.397
 4882SOL    HW215546   6.008   1.241   5.345
 4883SOL     OW15547   4.919   4.691   2.404
 4883SOL    HW115548   4.978   4.733   2.474
 4883SOL    HW215549   4.884   4.604   2.437
 4884SOL     OW15550   4.390   0.263   0.689
 4884SOL    HW115551   4.442   0.185   0.654
 4884SOL    HW215552   4.320   0.289   0.623
 4885SOL     OW15553   3.055   6.370   2.749
 4885SOL    HW115554   3.033   6.310   2.825
 4885SOL    HW215555   3.092   6.456   2.784
 4886SOL     OW15556   0.451   6.307   6.176
 4886SOL    HW115557   0.519   6.249   6.222
 4886SOL    HW215558   0.389   6.345   6.245
 4887SOL     OW15559   0.281   1.499   2.803
 4887SOL    HW115560   0.291   1.444   2.720
 4887SOL    HW215561   0.341   1.462   2.875
 4888SOL     OW15562   1.748   6.313   3.762
 4888SOL    HW115563   1.802   6.378   3.708
 4888SOL    HW215564   1.808   6.241   3.797
 4889SOL     OW15565   0.636   1.591   0.021
 4889SOL    HW115566   0.622   1.624   0.114
 4889SOL    HW215567   0.719   1.633   7.000
 4890SOL     OW15568   0.452   1.898   4.676
 4890SOL    HW115569   0.352   1.904   4.669
 4890SOL    HW215570   0.491   1.893   4.584
 4891SOL     OW15571   1.068   5.762   6.826
 4891SOL    HW115572   1.095   5.733   6.918
 4891SOL    HW215573   1.077   5.861   6.818
 4892SOL     OW15574   2.465   5.924   2.401
 4892SOL    HW115575   2.395   5.857   2.429
 4892SOL    HW215576   2.478   5.991   2.474
 4893SOL     OW15577   6.625   4.229   6.551
 4893SOL    HW115578   6.715   4.190   6.537
 4893SOL    HW215579   6.618   4.316   6.502
 4894SOL     OW15580   2.635   0.177   2.146
 4894SOL    HW115581   2.596   0.104   2.201
 4894SOL    HW215582   2.612   0.266   2.186
 4895SOL     OW15583   0.603   4.513   1.385
 4895SOL    HW115584   0.702   4.519   1.395
 4895SOL    HW215585   0.580   4.427   1.339
 4896SOL     OW15586   2.954   5.259   2.824
 4896SOL    HW115587   2.899   5.213   2.753
 4896SOL    HW215588   2.895   5.279   2.902
 4897SOL     OW15589   2.793   5.061   5.769
 4897SOL    HW115590   2.713   5.023   5.815
 4897SOL    HW215591   2.850   4.986   5.735
 4898SOL     OW15592   6.037   1.708   5.098
 4898SOL    HW115593   6.132   1.728   5.124
 4898SOL    HW215594   6.009   1.769   5.024
 4899SOL     OW15595   6.732   4.475   2.531
 4899SOL    HW115596   6.740   4.546   2.600
 4899SOL    HW215597   6.820   4.430   2.519
 4900SOL     OW15598   1.820   6.024   5.822
 4900SOL    HW115599   1.913   6.057   5.836
 4900SOL    HW215600   1.818   5.924   5.827
 4901SOL     OW15601   2.361   6.500   5.444
 4901SOL    HW115602   2.367   6.596   5.418
 4901SOL    HW215603   2.376   6.443   5.364
 4902SOL     OW15604   2.379   2.724   4.102
 4902SOL    HW115605   2.313   2.704   4.030
 4902SOL    HW215606   2.332   2.725   4.190
 4903SOL     OW15607   3.338   6.342   6.942
 4903SOL    HW115608   3.396   6.271   6.982
 4903SOL    HW215609   3.390   6.394   6.875
 4904SOL     OW15610   1.938   6.923   4.172
 4904SOL    HW115611   2.004   6.984   4.129
 4904SOL    HW215612   1.952   6.830   4.140
 4905SOL     OW15613   4.426   2.428   2.569
 4905SOL    HW115614   4.501   2.483   2.532
 4905SOL    HW215615   4.358   2.412   2.498
 4906SOL     OW15616   3.563   0.756   6.819
 4906SOL    HW115617   3.488   0.707   6.774
 4906SOL    HW215618   3.650   0.732   6.776
 4907SOL     OW15619   4.216   6.304   2.620
 4907SOL    HW115620   4.202   6.347   2.709
 4907SOL    HW215621   4.144   6.335   2.557
 4908SOL     OW15622   3.940   5.338   6.983
 4908SOL    HW115623   3.909   5.251   0.003
 4908SOL    HW215624   3.883   5.412   0.003
 4909SOL     OW15625   6.209   0.187   6.576
 4909SOL    HW115626   6.245   0.200   6.669
 4909SOL    HW215627   6.269   0.124   6.526
 4910SOL     OW15628   5.529   0.150   5.328
 4910SOL    HW115629   5.602   0.122   5.266
 4910SOL    HW215630   5.457   0.197   5.277
 4911SOL     OW15631   6.993   2.597   5.677
 4911SOL    HW115632   0.029   2.517   5.703
 4911SOL    HW215633   6.916   2.608   5.740
 4912SOL     OW15634   5.276   1.828   1.452
 4912SOL    HW115635   5.300   1.852   1.358
 4912SOL    HW215636   5.332   1.750   1.481
 4913SOL     OW15637   3.762   3.482   3.730
 4913SOL    HW115638   3.861   3.491   3.725
 4913SOL    HW215639   3.721   3.571   3.753
 4914SOL     OW15640   3.524   0.831   4.958
 4914SOL    HW115641   3.434   0.790   4.949
 4914SOL    HW215642   3.583   0.798   4.884
 4915SOL     OW15643   4.522   0.288   4.725
 4915SOL    HW115644   4.610   0.240   4.723
 4915SOL    HW215645   4.459   0.240   4.787
 4916SOL     OW15646   2.098   1.853   3.131
 4916SOL    HW115647   2.041   1.882   3.054
 4916SOL    HW215648   2.105   1.753   3.131
 4917SOL     OW15649   1.702   3.767   0.265
 4917SOL    HW115650   1.633   3.840   0.259
 4917SOL    HW215651   1.656   3.680   0.284
 4918SOL     OW15652   3.096   0.294   2.904
 4918SOL    HW115653   3.086   0.343   2.818
 4918SOL    HW215654   3.177   0.328   2.953
 4919SOL     OW15655   2.238   2.300   2.334
 4919SOL    HW115656   2.223   2.254   2.422
 4919SOL    HW215657   2.279   2.236   2.269
 4920SOL     OW15658   4.181   0.282   0.050
 4920SOL    HW115659   4.239   0.352   0.008
 4920SOL    HW215660   4.085   0.299   0.025
 4921SOL     OW15661   2.158   4.393   1.293
 4921SOL    HW115662   2.185   4.401   1.197
 4921SOL    HW215663   2.061   4.371   1.299
 4922SOL     OW15664   1.039   3.437   5.131
 4922SOL    HW115665   1.087   3.521   5.154
 4922SOL    HW215666   1.105   3.370   5.095
 4923SOL     OW15667   4.768   1.041   0.915
 4923SOL    HW115668   4.827   1.100   0.969
 4923SOL    HW215669   4.707   0.990   0.976
 4924SOL     OW15670   2.136   3.277   5.292
 4924SOL    HW115671   2.236   3.275   5.290
 4924SOL    HW215672   2.101   3.184   5.277
 4925SOL     OW15673   6.234   6.456   0.519
 4925SOL    HW115674   6.171   6.527   0.550
 4925SOL    HW215675   6.255   6.394   0.595
 4926SOL     OW15676   5.222   2.640   1.312
 4926SOL    HW115677   5.166   2.644   1.395
 4926SOL    HW215678   5.266   2.728   1.297
 4927SOL     OW15679   3.951   3.475   3.475
 4927SOL    HW115680   3.888   3.400   3.497
 4927SOL    HW215681   3.904   3.562   3.485
 4928SOL     OW15682   0.328   6.877   6.709
 4928SOL    HW115683   0.343   6.965   6.663
 4928SOL    HW215684   0.248   6.832   6.668
 4929SOL     OW15685   0.983   4.217   5.153
 4929SOL    HW115686   1.028   4.258   5.233
 4929SOL    HW215687   0.894   4.262   5.138
 4930SOL     OW15688   6.754   0.237   0.990
 4930SOL    HW115689   6.782   0.330   0.966
 4930SOL    HW215690   6.755   0.180   0.908
 4931SOL     OW15691   0.587   6.682   0.476
 4931SOL    HW115692   0.659   6.627   0.434
 4931SOL    HW215693   0.503   6.674   0.422
 4932SOL     OW15694   2.198   3.132   1.576
 4932SOL    HW115695   2.117   3.134   1.517
 4932SOL    HW215696   2.185   3.195   1.652
 4933SOL     OW15697   1.911   0.381   4.423
 4933SOL    HW115698   1.994   0.327   4.404
 4933SOL    HW215699   1.832   0.333   4.386
 4934SOL     OW15700   1.239   5.157   3.967
 4934SOL    HW115701   1.184   5.156   4.050
 4934SOL    HW215702   1.185   5.191   3.891
 4935SOL     OW15703   1.806   0.815   0.061
 4935SOL    HW115704   1.721   0.815   0.008
 4935SOL    HW215705   1.806   0.893   0.124
 4936SOL     OW15706   1.750   5.720   2.394
 4936SOL    HW115707   1.689   5.770   2.456
 4936SOL    HW215708   1.842   5.718   2.432
 4937SOL     OW15709   0.424   3.829   5.836
 4937SOL    HW115710   0.353   3.827   5.765
 4937SOL    HW215711   0.498   3.889   5.806
 4938SOL     OW15712   3.618   5.231   1.959
 4938SOL    HW115713   3.602   5.273   2.048
 4938SOL    HW215714   3.540   5.174   1.934
 4939SOL     OW15715   1.079   2.062   2.873
 4939SOL    HW115716   1.175   2.089   2.873
 4939SOL    HW215717   1.036   2.092   2.788
 4940SOL     OW15718   6.631   1.626   5.048
 4940SOL    HW115719   6.640   1.663   5.141
 4940SOL    HW215720   6.535   1.628   5.021
 4941SOL     OW15721   3.967   2.760   5.326
 4941SOL    HW115722   4.026   2.825   5.374
 4941SOL    HW215723   4.023   2.686   5.289
 4942SOL     OW15724   5.162   3.559   3.961
 4942SOL    HW115725   5.156   3.591   3.867
 4942SOL    HW215726   5.255   3.572   3.995
 4943SOL     OW15727   5.459   3.807   6.253
 4943SOL    HW115728   5.557   3.806   6.233
 4943SOL    HW215729   5.439   3.880   6.318
 4944SOL     OW15730   2.410   4.115   1.389
 4944SOL    HW115731   2.336   4.105   1.454
 4944SOL    HW215732   2.435   4.026   1.352
 4945SOL     OW15733   1.308   0.574   4.569
 4945SOL    HW115734   1.282   0.553   4.663
 4945SOL    HW215735   1.403   0.547   4.554
 4946SOL     OW15736   0.959   5.360   0.294
 4946SOL    HW115737   0.908   5.410   0.225
 4946SOL    HW215738   1.045   5.408   0.314
 4947SOL     OW15739   2.424   1.159   1.859
 4947SOL    HW115740   2.465   1.187   1.946
 4947SOL    HW215741   2.457   1.219   1.786
 4948SOL     OW15742   2.288   2.874   3.242
 4948SOL    HW115743   2.275   2.775   3.243
 4948SOL    HW215744   2.333   2.902   3.327
 4949SOL     OW15745   0.086   3.666   5.036
 4949SOL    HW115746   0.055   3.647   4.943
 4949SOL    HW215747   0.027   3.620   5.101
 4950SOL     OW15748   1.960   4.089   5.484
 4950SOL    HW115749   1.943   4.174   5.534
 4950SOL    HW215750   1.937   4.011   5.542
 4951SOL     OW15751   6.146   6.954   4.389
 4951SOL    HW115752   6.130   6.912   4.479
 4951SOL    HW215753   6.214   6.900   4.339
 4952SOL     OW15754   0.771   6.749   6.327
 4952SOL    HW115755   0.703   6.810   6.368
 4952SOL    HW215756   0.839   6.724   6.395
 4953SOL     OW15757   1.781   0.362   3.707
 4953SOL    HW115758   1.778   0.409   3.619
 4953SOL    HW215759   1.690   0.361   3.747
 4954SOL     OW15760   2.752   3.709   6.716
 4954SOL    HW115761   2.716   3.765   6.792
 4954SOL    HW215762   2.681   3.645   6.687
 4955SOL     OW15763   3.074   6.103   0.147
 4955SOL    HW115764   2.999   6.165   0.170
 4955SOL    HW215765   3.141   6.103   0.221
 4956SOL     OW15766   2.558   6.908   5.407
 4956SOL    HW115767   2.657   6.909   5.394
 4956SOL    HW215768   2.519   6.994   5.375
 4957SOL     OW15769   5.459   3.299   0.766
 4957SOL    HW115770   5.403   3.257   0.694
 4957SOL    HW215771   5.464   3.398   0.751
 4958SOL     OW15772   1.937   5.705   5.966
 4958SOL    HW115773   1.975   5.625   5.919
 4958SOL    HW215774   1.844   5.722   5.932
 4959SOL     OW15775   6.309   1.499   1.570
 4959SOL    HW115776   6.238   1.469   1.507
 4959SOL    HW215777   6.306   1.599   1.580
 4960SOL     OW15778   4.445   4.570   3.893
 4960SOL    HW115779   4.473   4.654   3.847
 4960SOL    HW215780   4.489   4.564   3.982
 4961SOL     OW15781   2.726   0.593   6.087
 4961SOL    HW115782   2.812   0.585   6.037
 4961SOL    HW215783   2.665   0.517   6.061
 4962SOL     OW15784   5.818   2.802   1.130
 4962SOL    HW115785   5.755   2.864   1.083
 4962SOL    HW215786   5.766   2.725   1.166
 4963SOL     OW15787   1.639   5.303   0.763
 4963SOL    HW115788   1.606   5.265   0.676
 4963SOL    HW215789   1.648   5.229   0.830
 4964SOL     OW15790   2.107   0.320   4.706
 4964SOL    HW115791   2.080   0.318   4.802
 4964SOL    HW215792   2.034   0.363   4.652
 4965SOL     OW15793   1.108   6.752   2.932
 4965SOL    HW115794   1.161   6.667   2.935
 4965SOL    HW215795   1.016   6.732   2.897
 4966SOL     OW15796   2.843   6.479   4.798
 4966SOL    HW115797   2.775   6.509   4.865
 4966SOL    HW215798   2.864   6.382   4.812
 4967SOL     OW15799   3.011   5.369   5.747
 4967SOL    HW115800   3.061   5.407   5.825
 4967SOL    HW215801   2.919   5.343   5.776
 4968SOL     OW15802   0.463   0.989   3.634
 4968SOL    HW115803   0.512   1.051   3.695
 4968SOL    HW215804   0.364   1.000   3.648
 4969SOL     OW15805   0.938   6.042   2.809
 4969SOL    HW115806   1.013   6.102   2.783
 4969SOL    HW215807   0.898   6.002   2.726
 4970SOL     OW15808   2.040   1.529   1.337
 4970SOL    HW115809   1.943   1.532   1.313
 4970SOL    HW215810   2.057   1.589   1.415
 4971SOL     OW15811   6.221   5.930   3.322
 4971SOL    HW115812   6.183   5.974   3.403
 4971SOL    HW215813   6.147   5.904   3.260
 4972SOL     OW15814   0.973   4.051   0.450
 4972SOL    HW115815   0.941   3.968   0.497
 4972SOL    HW215816   1.034   4.025   0.376
 4973SOL     OW15817   0.452   0.275   1.612
 4973SOL    HW115818   0.400   0.190   1.622
 4973SOL    HW215819   0.389   0.351   1.595
 4974SOL     OW15820   6.096   4.998   0.496
 4974SOL    HW115821   6.103   5.084   0.548
 4974SOL    HW215822   6.013   5.000   0.441
 4975SOL     OW15823   5.379   4.009   0.347
 4975SOL    HW115824   5.405   3.928   0.400
 4975SOL    HW215825   5.412   4.091   0.392
 4976SOL     OW15826   1.504   1.074   5.006
 4976SOL    HW115827   1.523   1.144   4.937
 4976SOL    HW215828   1.444   1.004   4.967
 4977SOL     OW15829   4.309   5.148   6.716
 4977SOL    HW115830   4.405   5.178   6.722
 4977SOL    HW215831   4.281   5.147   6.620
 4978SOL     OW15832   5.414   4.864   4.432
 4978SOL    HW115833   5.504   4.886   4.394
 4978SOL    HW215834   5.350   4.845   4.357
 4979SOL     OW15835   6.935   6.782   6.403
 4979SOL    HW115836   6.961   6.855   6.340
 4979SOL    HW215837   6.949   6.694   6.359
 4980SOL     OW15838   5.818   5.704   2.690
 4980SOL    HW115839   5.774   5.713   2.601
 4980SOL    HW215840   5.760   5.649   2.751
 4981SOL     OW15841   3.666   5.491   2.408
 4981SOL    HW115842   3.651   5.492   2.507
 4981SOL    HW215843   3.635   5.577   2.368
 4982SOL     OW15844   2.946   2.463   5.846
 4982SOL    HW115845   2.914   2.461   5.751
 4982SOL    HW215846   3.031   2.515   5.852
 4983SOL     OW15847   5.686   4.064   5.041
 4983SOL    HW115848   5.658   3.969   5.024
 4983SOL    HW215849   5.705   4.076   5.138
 4984SOL     OW15850   5.027   4.148   2.707
 4984SOL    HW115851   5.076   4.179   2.788
 4984SOL    HW215852   4.929   4.147   2.726
 4985SOL     OW15853   5.941   6.636   3.455
 4985SOL    HW115854   5.856   6.684   3.433
 4985SOL    HW215855   5.942   6.613   3.552
 4986SOL     OW15856   6.714   5.209   0.473
 4986SOL    HW115857   6.684   5.114   0.468
 4986SOL    HW215858   6.662   5.265   0.409
 4987SOL     OW15859   1.212   6.187   2.315
 4987SOL    HW115860   1.301   6.220   2.344
 4987SOL    HW215861   1.178   6.119   2.380
 4988SOL     OW15862   6.084   0.940   2.456
 4988SOL    HW115863   6.095   0.991   2.370
 4988SOL    HW215864   6.014   0.984   2.512
 4989SOL     OW15865   5.255   6.840   1.451
 4989SOL    HW115866   5.166   6.802   1.475
 4989SOL    HW215867   5.264   6.932   1.491
 4990SOL     OW15868   3.203   2.292   6.521
 4990SOL    HW115869   3.259   2.268   6.442
 4990SOL    HW215870   3.168   2.209   6.564
 4991SOL     OW15871   6.509   5.150   3.659
 4991SOL    HW115872   6.547   5.069   3.703
 4991SOL    HW215873   6.567   5.177   3.582
 4992SOL     OW15874   5.360   0.541   2.019
 4992SOL    HW115875   5.388   0.447   1.998
 4992SOL    HW215876   5.261   0.547   2.021
 4993SOL     OW15877   3.903   6.202   4.672
 4993SOL    HW115878   3.993   6.199   4.628
 4993SOL    HW215879   3.888   6.118   4.723
 4994SOL     OW15880   1.961   6.229   4.624
 4994SOL    HW115881   1.984   6.163   4.552
 4994SOL    HW215882   2.031   6.228   4.695
 4995SOL     OW15883   0.696   1.396   5.413
 4995SOL    HW115884   0.695   1.425   5.317
 4995SOL    HW215885   0.790   1.398   5.446
 4996SOL     OW15886   0.005   0.862   3.003
 4996SOL    HW115887   7.012   0.937   2.938
 4996SOL    HW215888   0.004   0.774   2.953
 4997SOL     OW15889   4.337   2.450   1.870
 4997SOL    HW115890   4.252   2.413   1.832
 4997SOL    HW215891   4.353   2.410   1.960
 4998SOL     OW15892   1.637   3.656   4.835
 4998SOL    HW115893   1.694   3.575   4.821
 4998SOL    HW215894   1.669   3.704   4.917
 4999SOL     OW15895   0.241   3.451   4.772
 4999SOL    HW115896   0.177   3.527   4.763
 4999SOL    HW215897   0.259   3.432   4.868
 5000SOL     OW15898   3.036   0.070   3.415
 5000SOL    HW115899   3.037   0.135   3.339
 5000SOL    HW215900   3.052   0.119   3.501
 5001SOL     OW15901   0.715   5.592   2.058
 5001SOL    HW115902   0.809   5.596   2.091
 5001SOL    HW215903   0.704   5.653   1.980
 5002SOL     OW15904   0.361   4.364   2.026
 5002SOL    HW115905   0.329   4.304   2.100
 5002SOL    HW215906   0.410   4.441   2.065
 5003SOL     OW15907   3.501   6.150   2.977
 5003SOL    HW115908   3.564   6.121   2.906
 5003SOL    HW215909   3.463   6.070   3.023
 5004SOL     OW15910   2.337   4.585   5.935
 5004SOL    HW115911   2.427   4.610   5.970
 5004SOL    HW215912   2.347   4.519   5.861
 5005SOL     OW15913   2.930   3.226   6.432
 5005SOL    HW115914   2.944   3.226   6.333
 5005SOL    HW215915   2.921   3.320   6.464
 5006SOL     OW15916   5.694   0.900   1.632
 5006SOL    HW115917   5.641   0.842   1.693
 5006SOL    HW215918   5.658   0.893   1.539
 5007SOL     OW15919   0.228   0.071   1.544
 5007SOL    HW115920   0.154   0.131   1.514
 5007SOL    HW215921   0.257   0.013   1.468
 5008SOL     OW15922   6.363   6.162   1.775
 5008SOL    HW115923   6.360   6.248   1.827
 5008SOL    HW215924   6.321   6.176   1.685
 5009SOL     OW15925   0.339   2.268   6.828
 5009SOL    HW115926   0.392   2.293   6.910
 5009SOL    HW215927   0.337   2.168   6.820
 5010SOL     OW15928   4.252   2.603   0.675
 5010SOL    HW115929   4.226   2.582   0.581
 5010SOL    HW215930   4.235   2.524   0.734
 5011SOL     OW15931   1.736   4.841   1.478
 5011SOL    HW115932   1.804   4.869   1.410
 5011SOL    HW215933   1.645   4.840   1.435
 5012SOL     OW15934   6.099   2.746   4.713
 5012SOL    HW115935   6.105   2.799   4.628
 5012SOL    HW215936   6.123   2.804   4.791
 5013SOL     OW15937   5.347   1.619   6.294
 5013SOL    HW115938   5.439   1.621   6.253
 5013SOL    HW215939   5.354   1.640   6.391
 5014SOL     OW15940   6.205   4.265   0.617
 5014SOL    HW115941   6.168   4.275   0.524
 5014SOL    HW215942   6.283   4.203   0.615
 5015SOL     OW15943   4.908   1.252   5.392
 5015SOL    HW115944   4.910   1.158   5.426
 5015SOL    HW215945   4.996   1.275   5.352
 5016SOL     OW15946   1.766   2.895   5.375
 5016SOL    HW115947   1.777   2.976   5.433
 5016SOL    HW215948   1.705   2.830   5.421
 5017SOL     OW15949   1.585   2.785   1.223
 5017SOL    HW115950   1.659   2.723   1.199
 5017SOL    HW215951   1.560   2.772   1.319
 5018SOL     OW15952   0.997   4.699   2.501
 5018SOL    HW115953   1.095   4.687   2.519
 5018SOL    HW215954   0.977   4.796   2.492
 5019SOL     OW15955   1.914   5.774   5.673
 5019SOL    HW115956   1.888   5.712   5.599
 5019SOL    HW215957   1.977   5.727   5.735
 5020SOL     OW15958   6.315   6.832   6.274
 5020SOL    HW115959   6.216   6.840   6.283
 5020SOL    HW215960   6.340   6.737   6.255
 5021SOL     OW15961   0.996   1.360   0.538
 5021SOL    HW115962   1.048   1.418   0.601
 5021SOL    HW215963   0.919   1.413   0.502
 5022SOL     OW15964   1.841   2.507   1.379
 5022SOL    HW115965   1.865   2.604   1.384
 5022SOL    HW215966   1.911   2.458   1.327
 5023SOL     OW15967   0.443   3.567   1.585
 5023SOL    HW115968   0.432   3.541   1.489
 5023SOL    HW215969   0.535   3.602   1.600
 5024SOL     OW15970   6.318   5.889   1.211
 5024SOL    HW115971   6.267   5.938   1.282
 5024SOL    HW215972   6.320   5.944   1.128
 5025SOL     OW15973   4.250   2.367   3.650
 5025SOL    HW115974   4.297   2.387   3.565
 5025SOL    HW215975   4.316   2.364   3.725
 5026SOL     OW15976   6.768   6.175   5.608
 5026SOL    HW115977   6.818   6.177   5.522
 5026SOL    HW215978   6.676   6.139   5.592
 5027SOL     OW15979   6.470   6.606   1.186
 5027SOL    HW115980   6.441   6.622   1.092
 5027SOL    HW215981   6.390   6.593   1.245
 5028SOL     OW15982   0.495   1.976   2.732
 5028SOL    HW115983   0.579   1.933   2.766
 5028SOL    HW215984   0.450   1.915   2.668
 5029SOL     OW15985   6.055   2.900   2.337
 5029SOL    HW115986   6.031   2.993   2.362
 5029SOL    HW215987   5.988   2.865   2.271
 5030SOL     OW15988   0.305   6.187   6.800
 5030SOL    HW115989   0.383   6.140   6.759
 5030SOL    HW215990   0.241   6.214   6.728
 5031SOL     OW15991   6.522   1.581   6.042
 5031SOL    HW115992   6.522   1.641   6.122
 5031SOL    HW215993   6.598   1.516   6.048
 5032SOL     OW15994   2.540   2.225   5.554
 5032SOL    HW115995   2.540   2.151   5.622
 5032SOL    HW215996   2.631   2.266   5.551
 5033SOL     OW15997   2.391   6.958   6.312
 5033SOL    HW115998   2.383   6.896   6.390
 5033SOL    HW215999   2.302   6.964   6.265
 5034SOL     OW16000   6.110   6.864   3.398
 5034SOL    HW116001   6.046   6.788   3.400
 5034SOL    HW216002   6.157   6.870   3.487
 5035SOL     OW16003   6.663   3.832   5.687
 5035SOL    HW116004   6.596   3.767   5.651
 5035SOL    HW216005   6.726   3.859   5.613
 5036SOL     OW16006   0.045   4.966   6.606
 5036SOL    HW116007   6.983   5.027   6.606
 5036SOL    HW216008   0.042   4.906   6.686
 5037SOL     OW16009   5.152   4.568   1.686
 5037SOL    HW116010   5.195   4.582   1.775
 5037SOL    HW216011   5.052   4.568   1.697
 5038SOL     OW16012   3.106   3.266   5.599
 5038SOL    HW116013   3.035   3.311   5.544
 5038SOL    HW216014   3.177   3.332   5.623
 5039SOL     OW16015   1.855   3.828   5.838
 5039SOL    HW116016   1.855   3.761   5.763
 5039SOL    HW216017   1.761   3.841   5.870
 5040SOL     OW16018   1.319   6.423   6.128
 5040SOL    HW116019   1.375   6.400   6.208
 5040SOL    HW216020   1.293   6.339   6.080
 5041SOL     OW16021   1.224   1.793   2.093
 5041SOL    HW116022   1.279   1.712   2.072
 5041SOL    HW216023   1.250   1.868   2.031
 5042SOL     OW16024   6.409   3.575   0.385
 5042SOL    HW116025   6.496   3.577   0.435
 5042SOL    HW216026   6.411   3.500   0.319
 5043SOL     OW16027   3.684   0.225   6.473
 5043SOL    HW116028   3.658   0.321   6.481
 5043SOL    HW216029   3.683   0.183   6.564
 5044SOL     OW16030   0.540   6.036   0.593
 5044SOL    HW116031   0.475   6.028   0.518
 5044SOL    HW216032   0.606   6.109   0.573
 5045SOL     OW16033   6.074   6.578   6.432
 5045SOL    HW116034   6.108   6.512   6.364
 5045SOL    HW216035   5.976   6.565   6.444
 5046SOL     OW16036   3.443   4.135   2.606
 5046SOL    HW116037   3.454   4.176   2.515
 5046SOL    HW216038   3.361   4.078   2.607
 5047SOL     OW16039   0.961   4.065   2.618
 5047SOL    HW116040   0.878   4.110   2.652
 5047SOL    HW216041   0.937   4.003   2.543
 5048SOL     OW16042   1.039   1.329   2.894
 5048SOL    HW116043   1.122   1.339   2.949
 5048SOL    HW216044   1.063   1.329   2.797
 5049SOL     OW16045   5.165   2.086   6.913
 5049SOL    HW116046   5.186   2.163   6.972
 5049SOL    HW216047   5.068   2.063   6.922
 5050SOL     OW16048   2.177   0.650   1.342
 5050SOL    HW116049   2.187   0.710   1.263
 5050SOL    HW216050   2.152   0.558   1.311
 5051SOL     OW16051   4.358   4.111   1.225
 5051SOL    HW116052   4.450   4.149   1.234
 5051SOL    HW216053   4.317   4.143   1.140
 5052SOL     OW16054   2.603   1.443   5.696
 5052SOL    HW116055   2.667   1.455   5.620
 5052SOL    HW216056   2.552   1.528   5.710
 5053SOL     OW16057   1.569   3.826   3.760
 5053SOL    HW116058   1.514   3.904   3.790
 5053SOL    HW216059   1.632   3.800   3.834
 5054SOL     OW16060   3.473   4.939   3.998
 5054SOL    HW116061   3.450   4.890   4.082
 5054SOL    HW216062   3.389   4.966   3.951
 5055SOL     OW16063   1.486   2.403   5.563
 5055SOL    HW116064   1.406   2.440   5.516
 5055SOL    HW216065   1.523   2.326   5.510
 5056SOL     OW16066   5.538   4.079   6.932
 5056SOL    HW116067   5.562   3.982   6.939
 5056SOL    HW216068   5.621   4.133   6.918
 5057SOL     OW16069   0.786   6.635   3.524
 5057SOL    HW116070   0.779   6.722   3.574
 5057SOL    HW216071   0.708   6.626   3.463
 5058SOL     OW16072   3.341   4.156   5.188
 5058SOL    HW116073   3.246   4.150   5.218
 5058SOL    HW216074   3.349   4.118   5.095
 5059SOL     OW16075   6.836   0.884   3.220
 5059SOL    HW116076   6.896   0.867   3.142
 5059SOL    HW216077   6.762   0.816   3.221
 5060SOL     OW16078   0.259   1.928   5.684
 5060SOL    HW116079   0.306   1.859   5.629
 5060SOL    HW216080   0.247   2.012   5.629
 5061SOL     OW16081   4.872   2.808   1.058
 5061SOL    HW116082   4.812   2.828   1.135
 5061SOL    HW216083   4.858   2.713   1.029
 5062SOL     OW16084   6.378   0.144   3.083
 5062SOL    HW116085   6.411   0.217   3.143
 5062SOL    HW216086   6.422   0.152   2.994
 5063SOL     OW16087   1.129   6.811   2.573
 5063SOL    HW116088   1.052   6.868   2.601
 5063SOL    HW216089   1.184   6.787   2.653
 5064SOL     OW16090   5.254   3.818   0.672
 5064SOL    HW116091   5.320   3.829   0.746
 5064SOL    HW216092   5.280   3.739   0.616
 5065SOL     OW16093   2.650   0.427   5.129
 5065SOL    HW116094   2.680   0.378   5.047
 5065SOL    HW216095   2.682   0.377   5.210
 5066SOL     OW16096   5.331   4.466   2.627
 5066SOL    HW116097   5.415   4.519   2.615
 5066SOL    HW216098   5.323   4.399   2.553
 5067SOL     OW16099   4.512   1.150   1.554
 5067SOL    HW116100   4.594   1.108   1.592
 5067SOL    HW216101   4.468   1.085   1.492
 5068SOL     OW16102   2.747   3.957   0.759
 5068SOL    HW116103   2.716   3.911   0.842
 5068SOL    HW216104   2.841   3.990   0.772
 5069SOL     OW16105   1.663   3.918   5.304
 5069SOL    HW116106   1.632   3.925   5.209
 5069SOL    HW216107   1.743   3.976   5.318
 5070SOL     OW16108   5.022   4.406   4.402
 5070SOL    HW116109   5.038   4.317   4.445
 5070SOL    HW216110   5.058   4.479   4.460
 5071SOL     OW16111   4.735   2.297   4.721
 5071SOL    HW116112   4.803   2.359   4.761
 5071SOL    HW216113   4.775   2.206   4.710
 5072SOL     OW16114   1.105   6.887   0.842
 5072SOL    HW116115   1.027   6.887   0.905
 5072SOL    HW216116   1.075   6.856   0.752
 5073SOL     OW16117   0.149   6.266   2.539
 5073SOL    HW116118   0.131   6.282   2.442
 5073SOL    HW216119   0.062   6.260   2.589
 5074SOL     OW16120   2.946   3.252   0.392
 5074SOL    HW116121   2.895   3.336   0.408
 5074SOL    HW216122   3.019   3.243   0.460
 5075SOL     OW16123   1.163   1.639   6.354
 5075SOL    HW116124   1.083   1.610   6.406
 5075SOL    HW216125   1.244   1.637   6.413
 5076SOL     OW16126   3.813   0.817   0.572
 5076SOL    HW116127   3.892   0.854   0.622
 5076SOL    HW216128   3.833   0.723   0.545
 5077SOL     OW16129   0.511   3.601   5.155
 5077SOL    HW116130   0.522   3.686   5.102
 5077SOL    HW216131   0.598   3.551   5.155
 5078SOL     OW16132   1.187   1.602   3.825
 5078SOL    HW116133   1.180   1.640   3.732
 5078SOL    HW216134   1.260   1.534   3.828
 5079SOL     OW16135   2.127   3.861   5.839
 5079SOL    HW116136   2.027   3.858   5.844
 5079SOL    HW216137   2.166   3.787   5.893
 5080SOL     OW16138   6.538   6.350   6.256
 5080SOL    HW116139   6.623   6.338   6.203
 5080SOL    HW216140   6.517   6.264   6.303
 5081SOL     OW16141   3.575   2.871   4.447
 5081SOL    HW116142   3.589   2.772   4.453
 5081SOL    HW216143   3.483   2.894   4.479
 5082SOL     OW16144   5.310   5.786   6.229
 5082SOL    HW116145   5.262   5.872   6.214
 5082SOL    HW216146   5.292   5.724   6.153
 5083SOL     OW16147   2.610   0.300   2.937
 5083SOL    HW116148   2.591   0.304   3.035
 5083SOL    HW216149   2.684   0.364   2.915
 5084SOL     OW16150   0.912   4.628   4.098
 5084SOL    HW116151   1.010   4.639   4.082
 5084SOL    HW216152   0.869   4.718   4.109
 5085SOL     OW16153   4.925   3.227   6.891
 5085SOL    HW116154   4.904   3.131   6.872
 5085SOL    HW216155   4.966   3.268   6.810
 5086SOL     OW16156   0.070   5.984   3.405
 5086SOL    HW116157   0.100   6.022   3.492
 5086SOL    HW216158   7.016   5.916   3.421
 5087SOL     OW16159   0.070   5.466   3.171
 5087SOL    HW116160   0.165   5.457   3.200
 5087SOL    HW216161   0.010   5.464   3.252
 5088SOL     OW16162   5.471   1.515   4.488
 5088SOL    HW116163   5.430   1.453   4.421
 5088SOL    HW216164   5.570   1.516   4.476
 5089SOL     OW16165   5.395   3.047   3.380
 5089SOL    HW116166   5.306   3.021   3.343
 5089SOL    HW216167   5.427   2.977   3.443
 5090SOL     OW16168   1.573   3.363   3.229
 5090SOL    HW116169   1.571   3.448   3.282
 5090SOL    HW216170   1.666   3.326   3.231
 5091SOL     OW16171   1.586   6.393   2.683
 5091SOL    HW116172   1.571   6.370   2.587
 5091SOL    HW216173   1.616   6.488   2.690
 5092SOL     OW16174   3.217   3.149   1.277
 5092SOL    HW116175   3.227   3.128   1.374
 5092SOL    HW216176   3.157   3.081   1.234
 5093SOL     OW16177   3.383   1.446   1.431
 5093SOL    HW116178   3.455   1.429   1.498
 5093SOL    HW216179   3.400   1.391   1.349
 5094SOL     OW16180   1.105   6.389   4.967
 5094SOL    HW116181   1.072   6.403   5.060
 5094SOL    HW216182   1.098   6.475   4.916
 5095SOL     OW16183   0.114   2.545   4.767
 5095SOL    HW116184   0.130   2.640   4.742
 5095SOL    HW216185   0.196   2.508   4.810
 5096SOL     OW16186   4.286   3.156   0.699
 5096SOL    HW116187   4.277   3.081   0.634
 5096SOL    HW216188   4.371   3.206   0.682
 5097SOL     OW16189   1.530   0.416   0.111
 5097SOL    HW116190   1.535   0.318   0.092
 5097SOL    HW216191   1.603   0.441   0.175
 5098SOL     OW16192   1.387   0.612   1.135
 5098SOL    HW116193   1.427   0.695   1.174
 5098SOL    HW216194   1.304   0.588   1.186
 5099SOL     OW16195   0.244   0.216   6.277
 5099SOL    HW116196   0.227   0.306   6.238
 5099SOL    HW216197   0.281   0.155   6.206
 5100SOL     OW16198   4.483   6.637   5.036
 5100SOL    HW116199   4.533   6.557   5.005
 5100SOL    HW216200   4.389   6.610   5.061
 5101SOL     OW16201   4.150   6.875   0.343
 5101SOL    HW116202   4.081   6.831   0.401
 5101SOL    HW216203   4.239   6.833   0.359
 5102SOL     OW16204   5.825   0.373   4.917
 5102SOL    HW116205   5.872   0.289   4.945
 5102SOL    HW216206   5.836   0.443   4.989
 5103SOL     OW16207   0.516   0.682   3.800
 5103SOL    HW116208   0.443   0.749   3.787
 5103SOL    HW216209   0.558   0.662   3.711
 5104SOL     OW16210   2.353   6.433   2.308
 5104SOL    HW116211   2.295   6.491   2.365
 5104SOL    HW216212   2.300   6.354   2.278
 5105SOL     OW16213   3.890   2.875   0.240
 5105SOL    HW116214   3.821   2.926   0.187
 5105SOL    HW216215   3.854   2.857   0.332
 5106SOL     OW16216   3.624   0.427   1.737
 5106SOL    HW116217   3.554   0.473   1.791
 5106SOL    HW216218   3.689   0.495   1.702
 5107SOL     OW16219   4.269   0.984   0.427
 5107SOL    HW116220   4.327   0.923   0.373
 5107SOL    HW216221   4.246   1.065   0.373
 5108SOL     OW16222   2.982   3.870   3.538
 5108SOL    HW116223   3.069   3.865   3.587
 5108SOL    HW216224   2.937   3.781   3.541
 5109SOL     OW16225   0.986   1.123   0.697
 5109SOL    HW116226   1.042   1.069   0.634
 5109SOL    HW216227   0.951   1.204   0.649
 5110SOL     OW16228   0.638   0.235   6.715
 5110SOL    HW116229   0.550   0.231   6.667
 5110SOL    HW216230   0.664   0.330   6.729
 5111SOL     OW16231   1.398   0.871   6.095
 5111SOL    HW116232   1.461   0.922   6.152
 5111SOL    HW216233   1.438   0.782   6.073
 5112SOL     OW16234   0.785   0.439   2.534
 5112SOL    HW116235   0.753   0.359   2.482
 5112SOL    HW216236   0.884   0.450   2.520
 5113SOL     OW16237   2.301   0.097   1.992
 5113SOL    HW116238   2.240   0.089   2.071
 5113SOL    HW216239   2.278   0.026   1.926
 5114SOL     OW16240   3.646   2.514   0.215
 5114SOL    HW116241   3.652   2.536   0.312
 5114SOL    HW216242   3.731   2.540   0.169
 5115SOL     OW16243   1.971   4.751   4.621
 5115SOL    HW116244   1.901   4.679   4.624
 5115SOL    HW216245   1.993   4.772   4.526
 5116SOL     OW16246   5.327   6.061   6.559
 5116SOL    HW116247   5.335   6.002   6.639
 5116SOL    HW216248   5.378   6.146   6.574
 5117SOL     OW16249   1.412   4.890   4.458
 5117SOL    HW116250   1.347   4.887   4.534
 5117SOL    HW216251   1.363   4.880   4.372
 5118SOL     OW16252   4.893   6.792   0.704
 5118SOL    HW116253   4.832   6.827   0.775
 5118SOL    HW216254   4.969   6.856   0.691
 5119SOL     OW16255   5.359   1.013   1.553
 5119SOL    HW116256   5.422   1.068   1.607
 5119SOL    HW216257   5.283   0.983   1.610
 5120SOL     OW16258   5.228   1.104   3.452
 5120SOL    HW116259   5.210   1.073   3.546
 5120SOL    HW216260   5.278   1.033   3.403
 5121SOL     OW16261   2.388   2.403   0.178
 5121SOL    HW116262   2.434   2.348   0.247
 5121SOL    HW216263   2.448   2.477   0.148
 5122SOL     OW16264   3.263   0.897   3.954
 5122SOL    HW116265   3.196   0.841   3.905
 5122SOL    HW216266   3.241   0.898   4.051
 5123SOL     OW16267   6.010   3.221   4.648
 5123SOL    HW116268   6.018   3.246   4.552
 5123SOL    HW216269   5.949   3.142   4.657
 5124SOL     OW16270   2.402   5.010   5.268
 5124SOL    HW116271   2.501   5.027   5.270
 5124SOL    HW216272   2.383   4.920   5.305
 5125SOL     OW16273   6.278   3.043   4.541
 5125SOL    HW116274   6.372   3.057   4.573
 5125SOL    HW216275   6.256   3.114   4.474
 5126SOL     OW16276   6.190   5.292   6.082
 5126SOL    HW116277   6.273   5.326   6.037
 5126SOL    HW216278   6.118   5.361   6.077
 5127SOL     OW16279   6.855   3.817   0.112
 5127SOL    HW116280   6.946   3.793   0.145
 5127SOL    HW216281   6.805   3.734   0.089
 5128SOL     OW16282   6.830   6.583   0.451
 5128SOL    HW116283   6.886   6.509   0.489
 5128SOL    HW216284   6.869   6.613   0.364
 5129SOL     OW16285   5.003   0.405   2.203
 5129SOL    HW116286   5.025   0.430   2.109
 5129SOL    HW216287   5.078   0.433   2.263
 5130SOL     OW16288   1.113   5.942   4.289
 5130SOL    HW116289   1.103   5.978   4.382
 5130SOL    HW216290   1.181   5.995   4.240
 5131SOL     OW16291   3.113   4.864   3.367
 5131SOL    HW116292   3.065   4.828   3.447
 5131SOL    HW216293   3.211   4.848   3.377
 5132SOL     OW16294   3.357   1.427   6.060
 5132SOL    HW116295   3.423   1.352   6.056
 5132SOL    HW216296   3.402   1.510   6.092
 5133SOL     OW16297   2.651   5.733   6.024
 5133SOL    HW116298   2.597   5.816   6.018
 5133SOL    HW216299   2.748   5.757   6.034
 5134SOL     OW16300   6.788   0.021   2.327
 5134SOL    HW116301   6.872   6.984   2.328
 5134SOL    HW216302   6.771   0.058   2.419
 5135SOL     OW16303   6.304   3.700   3.660
 5135SOL    HW116304   6.239   3.743   3.723
 5135SOL    HW216305   6.274   3.607   3.640
 5136SOL     OW16306   5.928   0.597   5.898
 5136SOL    HW116307   5.862   0.570   5.827
 5136SOL    HW216308   5.880   0.644   5.972
 5137SOL     OW16309   5.387   3.130   5.039
 5137SOL    HW116310   5.389   3.036   5.071
 5137SOL    HW216311   5.293   3.165   5.044
 5138SOL     OW16312   4.004   3.855   3.728
 5138SOL    HW116313   3.918   3.883   3.684
 5138SOL    HW216314   4.078   3.859   3.661
 5139SOL     OW16315   1.213   7.005   4.881
 5139SOL    HW116316   1.148   0.064   4.889
 5139SOL    HW216317   1.204   6.944   4.960
 5140SOL     OW16318   3.128   2.102   5.493
 5140SOL    HW116319   3.123   2.193   5.535
 5140SOL    HW216320   3.198   2.103   5.422
 5141SOL     OW16321   6.562   3.796   1.494
 5141SOL    HW116322   6.545   3.829   1.401
 5141SOL    HW216323   6.585   3.699   1.491
 5142SOL     OW16324   5.950   6.732   5.598
 5142SOL    HW116325   6.048   6.733   5.621
 5142SOL    HW216326   5.939   6.724   5.499
 5143SOL     OW16327   0.943   3.961   5.226
 5143SOL    HW116328   1.003   3.888   5.191
 5143SOL    HW216329   0.968   4.047   5.183
 5144SOL     OW16330   1.641   3.927   5.974
 5144SOL    HW116331   1.563   3.891   6.026
 5144SOL    HW216332   1.608   3.990   5.904
 5145SOL     OW16333   3.939   6.678   6.478
 5145SOL    HW116334   3.931   6.589   6.522
 5145SOL    HW216335   3.848   6.713   6.456
 5146SOL     OW16336   3.633   3.941   4.850
 5146SOL    HW116337   3.718   3.952   4.798
 5146SOL    HW216338   3.649   3.884   4.930
 5147SOL     OW16339   5.977   5.008   3.387
 5147SOL    HW116340   6.054   4.960   3.344
 5147SOL    HW216341   5.910   5.032   3.316
 5148SOL     OW16342   0.439   0.594   2.146
 5148SOL    HW116343   0.530   0.565   2.176
 5148SOL    HW216344   0.440   0.692   2.126
 5149SOL     OW16345   6.150   5.294   4.274
 5149SOL    HW116346   6.056   5.326   4.266
 5149SOL    HW216347   6.153   5.209   4.327
 5150SOL     OW16348   2.444   4.331   3.808
 5150SOL    HW116349   2.370   4.274   3.770
 5150SOL    HW216350   2.532   4.286   3.792
 5151SOL     OW16351   6.429   4.009   1.607
 5151SOL    HW116352   6.469   4.059   1.683
 5151SOL    HW216353   6.488   3.932   1.583
 5152SOL     OW16354   1.404   5.845   6.415
 5152SOL    HW116355   1.425   5.813   6.323
 5152SOL    HW216356   1.453   5.790   6.483
 5153SOL     OW16357   1.040   2.043   0.740
 5153SOL    HW116358   1.018   2.090   0.655
 5153SOL    HW216359   1.127   1.995   0.731
 5154SOL     OW16360   1.573   2.821   6.473
 5154SOL    HW116361   1.662   2.824   6.429
 5154SOL    HW216362   1.516   2.896   6.438
 5155SOL     OW16363   4.497   1.201   0.940
 5155SOL    HW116364   4.398   1.207   0.957
 5155SOL    HW216365   4.519   1.109   0.908
 5156SOL     OW16366   5.436   4.398   4.723
 5156SOL    HW116367   5.526   4.433   4.747
 5156SOL    HW216368   5.412   4.322   4.784
 5157SOL     OW16369   3.306   2.125   2.365
 5157SOL    HW116370   3.375   2.115   2.294
 5157SOL    HW216371   3.256   2.039   2.376
 5158SOL     OW16372   2.968   2.202   0.479
 5158SOL    HW116373   3.046   2.255   0.512
 5158SOL    HW216374   2.935   2.143   0.553
 5159SOL     OW16375   5.970   4.058   6.393
 5159SOL    HW116376   6.018   3.977   6.426
 5159SOL    HW216377   5.913   4.095   6.466
 5160SOL     OW16378   6.780   5.868   3.592
 5160SOL    HW116379   6.681   5.865   3.583
 5160SOL    HW216380   6.816   5.775   3.597
 5161SOL     OW16381   1.222   2.984   0.176
 5161SOL    HW116382   1.145   3.043   0.201
 5161SOL    HW216383   1.228   2.977   0.077
 5162SOL     OW16384   1.005   5.215   2.228
 5162SOL    HW116385   0.915   5.254   2.251
 5162SOL    HW216386   1.077   5.268   2.272
 5163SOL     OW16387   3.914   0.086   1.019
 5163SOL    HW116388   3.884   0.086   1.114
 5163SOL    HW216389   3.852   0.029   0.965
 5164SOL     OW16390   3.167   3.108   6.544
 5164SOL    HW116391   3.109   3.034   6.578
 5164SOL    HW216392   3.111   3.172   6.490
 5165SOL     OW16393   1.290   4.610   6.555
 5165SOL    HW116394   1.236   4.643   6.478
 5165SOL    HW216395   1.324   4.518   6.534
 5166SOL     OW16396   1.460   4.953   2.733
 5166SOL    HW116397   1.424   5.042   2.760
 5166SOL    HW216398   1.559   4.951   2.747
 5167SOL     OW16399   6.515   4.376   4.851
 5167SOL    HW116400   6.582   4.310   4.885
 5167SOL    HW216401   6.559   4.465   4.839
 5168SOL     OW16402   5.221   2.526   3.009
 5168SOL    HW116403   5.212   2.607   2.952
 5168SOL    HW216404   5.174   2.449   2.966
 5169SOL     OW16405   4.586   1.968   3.132
 5169SOL    HW116406   4.684   1.948   3.140
 5169SOL    HW216407   4.543   1.899   3.074
 5170SOL     OW16408   1.338   3.338   5.333
 5170SOL    HW116409   1.288   3.417   5.297
 5170SOL    HW216410   1.391   3.367   5.413
 5171SOL     OW16411   0.062   4.886   5.360
 5171SOL    HW116412   6.994   4.939   5.357
 5171SOL    HW216413   0.087   4.867   5.455
 5172SOL     OW16414   1.247   4.332   3.265
 5172SOL    HW116415   1.180   4.366   3.331
 5172SOL    HW216416   1.209   4.343   3.172
 5173SOL     OW16417   4.085   4.238   5.947
 5173SOL    HW116418   4.154   4.221   6.017
 5173SOL    HW216419   4.106   4.325   5.900
 5174SOL     OW16420   2.223   6.202   4.198
 5174SOL    HW116421   2.259   6.111   4.214
 5174SOL    HW216422   2.250   6.263   4.272
 5175SOL     OW16423   2.480   3.676   6.951
 5175SOL    HW116424   2.402   3.689   7.011
 5175SOL    HW216425   2.527   3.764   6.939
 5176SOL     OW16426   5.025   4.822   6.629
 5176SOL    HW116427   4.968   4.904   6.635
 5176SOL    HW216428   5.038   4.785   6.721
 5177SOL     OW16429   4.652   6.401   1.584
 5177SOL    HW116430   4.626   6.369   1.675
 5177SOL    HW216431   4.609   6.344   1.515
 5178SOL     OW16432   1.229   4.500   1.835
 5178SOL    HW116433   1.192   4.537   1.749
 5178SOL    HW216434   1.156   4.496   1.903
 5179SOL     OW16435   4.731   4.403   3.964
 5179SOL    HW116436   4.757   4.472   3.897
 5179SOL    HW216437   4.651   4.435   4.016
 5180SOL     OW16438   3.583   0.625   1.312
 5180SOL    HW116439   3.512   0.679   1.356
 5180SOL    HW216440   3.672   0.670   1.324
 5181SOL     OW16441   6.376   6.960   1.000
 5181SOL    HW116442   6.449   7.013   1.043
 5181SOL    HW216443   6.394   6.952   0.902
 5182SOL     OW16444   4.661   4.475   1.860
 5182SOL    HW116445   4.619   4.565   1.877
 5182SOL    HW216446   4.606   4.404   1.904
 5183SOL     OW16447   4.083   1.742   2.762
 5183SOL    HW116448   4.174   1.783   2.769
 5183SOL    HW216449   4.055   1.704   2.850
 5184SOL     OW16450   2.291   1.717   2.958
 5184SOL    HW116451   2.291   1.723   3.058
 5184SOL    HW216452   2.249   1.799   2.920
 5185SOL     OW16453   5.239   0.283   2.659
 5185SOL    HW116454   5.183   0.216   2.709
 5185SOL    HW216455   5.260   0.246   2.568
 5186SOL     OW16456   6.385   2.891   6.013
 5186SOL    HW116457   6.429   2.882   6.102
 5186SOL    HW216458   6.402   2.982   5.976
 5187SOL     OW16459   1.251   5.308   5.113
 5187SOL    HW116460   1.218   5.220   5.149
 5187SOL    HW216461   1.174   5.364   5.084
 5188SOL     OW16462   6.203   5.949   1.755
 5188SOL    HW116463   6.150   5.933   1.838
 5188SOL    HW216464   6.280   6.009   1.775
 5189SOL     OW16465   4.987   6.004   0.328
 5189SOL    HW116466   4.965   5.916   0.371
 5189SOL    HW216467   4.979   5.996   0.229
 5190SOL     OW16468   1.216   3.632   3.265
 5190SOL    HW116469   1.205   3.543   3.308
 5190SOL    HW216470   1.287   3.627   3.194
 5191SOL     OW16471   3.199   5.759   2.909
 5191SOL    HW116472   3.236   5.844   2.872
 5191SOL    HW216473   3.188   5.692   2.835
 5192SOL     OW16474   1.802   5.895   1.161
 5192SOL    HW116475   1.776   5.953   1.238
 5192SOL    HW216476   1.876   5.834   1.188
 5193SOL     OW16477   4.658   5.790   5.668
 5193SOL    HW116478   4.602   5.708   5.658
 5193SOL    HW216479   4.741   5.767   5.718
 5194SOL     OW16480   3.424   2.574   0.057
 5194SOL    HW116481   3.504   2.568   0.117
 5194SOL    HW216482   3.431   2.657   0.001
 5195SOL     OW16483   0.333   0.648   4.275
 5195SOL    HW116484   0.394   0.698   4.213
 5195SOL    HW216485   0.388   0.598   4.342
 5196SOL     OW16486   4.429   6.923   2.401
 5196SOL    HW116487   4.418   7.017   2.368
 5196SOL    HW216488   4.361   6.904   2.472
 5197SOL     OW16489   1.420   3.939   6.514
 5197SOL    HW116490   1.436   4.037   6.508
 5197SOL    HW216491   1.396   3.915   6.608
 5198SOL     OW16492   4.318   5.320   3.284
 5198SOL    HW116493   4.400   5.358   3.326
 5198SOL    HW216494   4.252   5.298   3.356
 5199SOL     OW16495   0.585   5.485   0.653
 5199SOL    HW116496   0.679   5.451   0.648
 5199SOL    HW216497   0.554   5.485   0.748
 5200SOL     OW16498   6.820   3.876   5.012
 5200SOL    HW116499   6.852   3.818   5.088
 5200SOL    HW216500   6.873   3.961   5.011
 5201SOL     OW16501   0.708   6.838   3.139
 5201SOL    HW116502   0.627   6.896   3.132
 5201SOL    HW216503   0.778   6.884   3.193
 5202SOL     OW16504   5.899   2.742   6.599
 5202SOL    HW116505   5.922   2.839   6.603
 5202SOL    HW216506   5.806   2.728   6.631
 5203SOL     OW16507   1.838   1.876   0.025
 5203SOL    HW116508   1.831   1.782   0.056
 5203SOL    HW216509   1.793   1.937   0.091
 5204SOL     OW16510   4.026   5.430   0.328
 5204SOL    HW116511   4.084   5.498   0.284
 5204SOL    HW216512   3.991   5.467   0.415
 5205SOL     OW16513   2.321   0.021   0.721
 5205SOL    HW116514   2.229   6.999   0.715
 5205SOL    HW216515   2.334   0.062   0.811
 5206SOL     OW16516   0.244   3.808   5.607
 5206SOL    HW116517   0.299   3.740   5.560
 5206SOL    HW216518   0.202   3.869   5.539
 5207SOL     OW16519   0.735   5.512   4.100
 5207SOL    HW116520   0.661   5.515   4.168
 5207SOL    HW216521   0.765   5.605   4.079
 5208SOL     OW16522   3.635   1.880   0.136
 5208SOL    HW116523   3.551   1.844   0.094
 5208SOL    HW216524   3.660   1.823   0.215
 5209SOL     OW16525   5.836   5.810   3.836
 5209SOL    HW116526   5.853   5.908   3.828
 5209SOL    HW216527   5.781   5.792   3.918
 5210SOL     OW16528   6.106   2.993   5.789
 5210SOL    HW116529   6.027   2.948   5.746
 5210SOL    HW216530   6.094   2.995   5.888
 5211SOL     OW16531   4.028   3.131   4.441
 5211SOL    HW116532   4.125   3.111   4.451
 5211SOL    HW216533   3.978   3.046   4.427
 5212SOL     OW16534   6.279   1.536   0.668
 5212SOL    HW116535   6.243   1.505   0.756
 5212SOL    HW216536   6.365   1.490   0.649
 5213SOL     OW16537   5.000   3.909   6.303
 5213SOL    HW116538   5.084   3.882   6.257
 5213SOL    HW216539   5.022   3.945   6.393
 5214SOL     OW16540   5.300   1.670   6.546
 5214SOL    HW116541   5.361   1.731   6.596
 5214SOL    HW216542   5.279   1.590   6.603
 5215SOL     OW16543   5.318   5.152   3.333
 5215SOL    HW116544   5.339   5.128   3.428
 5215SOL    HW216545   5.329   5.071   3.275
 5216SOL     OW16546   4.077   6.165   2.021
 5216SOL    HW116547   3.996   6.107   2.026
 5216SOL    HW216548   4.080   6.210   1.932
 5217SOL     OW16549   3.858   5.550   4.047
 5217SOL    HW116550   3.898   5.485   3.983
 5217SOL    HW216551   3.839   5.504   4.134
 5218SOL     OW16552   1.309   0.599   3.408
 5218SOL    HW116553   1.275   0.633   3.497
 5218SOL    HW216554   1.288   0.666   3.337
 5219SOL     OW16555   3.609   0.439   6.199
 5219SOL    HW116556   3.593   0.503   6.124
 5219SOL    HW216557   3.527   0.383   6.213
 5220SOL     OW16558   1.558   5.378   2.766
 5220SOL    HW116559   1.538   5.463   2.719
 5220SOL    HW216560   1.624   5.395   2.840
 5221SOL     OW16561   5.712   2.251   4.310
 5221SOL    HW116562   5.636   2.235   4.247
 5221SOL    HW216563   5.676   2.263   4.403
 5222SOL     OW16564   2.135   0.077   4.062
 5222SOL    HW116565   2.214   0.037   4.109
 5222SOL    HW216566   2.119   0.170   4.096
 5223SOL     OW16567   5.283   0.677   1.072
 5223SOL    HW116568   5.205   0.644   1.019
 5223SOL    HW216569   5.284   0.777   1.073
 5224SOL     OW16570   1.048   1.723   3.589
 5224SOL    HW116571   1.039   1.782   3.510
 5224SOL    HW216572   1.098   1.640   3.563
 5225SOL     OW16573   6.272   0.343   2.590
 5225SOL    HW116574   6.207   0.401   2.639
 5225SOL    HW216575   6.333   0.400   2.535
 5226SOL     OW16576   1.048   5.438   4.980
 5226SOL    HW116577   0.986   5.400   5.049
 5226SOL    HW216578   1.014   5.415   4.889
 5227SOL     OW16579   1.742   4.209   3.742
 5227SOL    HW116580   1.740   4.283   3.809
 5227SOL    HW216581   1.658   4.211   3.688
 5228SOL     OW16582   6.675   2.702   1.125
 5228SOL    HW116583   6.578   2.706   1.149
 5228SOL    HW216584   6.703   2.788   1.083
 5229SOL     OW16585   1.329   3.851   0.389
 5229SOL    HW116586   1.374   3.939   0.374
 5229SOL    HW216587   1.381   3.798   0.456
 5230SOL     OW16588   0.182   6.514   1.278
 5230SOL    HW116589   0.252   6.443   1.292
 5230SOL    HW216590   0.197   6.559   1.190
 5231SOL     OW16591   3.844   4.045   4.043
 5231SOL    HW116592   3.837   4.134   3.998
 5231SOL    HW216593   3.752   4.013   4.068
 5232SOL     OW16594   3.385   2.191   5.897
 5232SOL    HW116595   3.469   2.232   5.862
 5232SOL    HW216596   3.384   2.093   5.875
 5233SOL     OW16597   6.256   6.731   1.629
 5233SOL    HW116598   6.245   6.759   1.534
 5233SOL    HW216599   6.166   6.714   1.670
 5234SOL     OW16600   3.023   0.267   6.486
 5234SOL    HW116601   3.019   0.360   6.523
 5234SOL    HW216602   2.967   0.206   6.542
 5235SOL     OW16603   1.742   3.278   1.062
 5235SOL    HW116604   1.759   3.233   0.975
 5235SOL    HW216605   1.663   3.236   1.107
 5236SOL     OW16606   5.719   3.457   2.196
 5236SOL    HW116607   5.705   3.464   2.097
 5236SOL    HW216608   5.783   3.528   2.225
 5237SOL     OW16609   2.878   1.012   5.353
 5237SOL    HW116610   2.900   0.983   5.447
 5237SOL    HW216611   2.916   0.946   5.289
 5238SOL     OW16612   1.685   4.842   0.476
 5238SOL    HW116613   1.748   4.771   0.445
 5238SOL    HW216614   1.729   4.932   0.466
 5239SOL     OW16615   4.092   3.592   3.780
 5239SOL    HW116616   4.039   3.675   3.760
 5239SOL    HW216617   4.119   3.593   3.876
 5240SOL     OW16618   2.600   1.304   6.098
 5240SOL    HW116619   2.525   1.348   6.048
 5240SOL    HW216620   2.601   1.206   6.078
 5241SOL     OW16621   1.225   5.719   6.028
 5241SOL    HW116622   1.232   5.670   6.115
 5241SOL    HW216623   1.135   5.761   6.020
 5242SOL     OW16624   6.768   6.346   6.082
 5242SOL    HW116625   6.813   6.424   6.125
 5242SOL    HW216626   6.793   6.342   5.985
 5243SOL     OW16627   1.119   6.200   1.688
 5243SOL    HW116628   1.067   6.253   1.621
 5243SOL    HW216629   1.210   6.240   1.699
 5244SOL     OW16630   3.958   4.085   6.208
 5244SOL    HW116631   3.860   4.085   6.184
 5244SOL    HW216632   3.995   4.177   6.194
 5245SOL     OW16633   4.174   4.491   0.398
 5245SOL    HW116634   4.102   4.426   0.374
 5245SOL    HW216635   4.260   4.462   0.358
 5246SOL     OW16636   5.535   4.683   2.862
 5246SOL    HW116637   5.524   4.694   2.764
 5246SOL    HW216638   5.610   4.620   2.881
 5247SOL     OW16639   1.384   6.142   0.731
 5247SOL    HW116640   1.459   6.075   0.725
 5247SOL    HW216641   1.297   6.094   0.718
 5248SOL     OW16642   6.055   0.739   5.050
 5248SOL    HW116643   6.006   0.697   4.974
 5248SOL    HW216644   6.116   0.672   5.092
 5249SOL     OW16645   0.886   4.929   5.507
 5249SOL    HW116646   0.815   4.913   5.439
 5249SOL    HW216647   0.943   5.006   5.479
 5250SOL     OW16648   0.130   1.254   5.820
 5250SOL    HW116649   0.134   1.253   5.720
 5250SOL    HW216650   0.221   1.234   5.857
 5251SOL     OW16651   0.644   3.120   1.255
 5251SOL    HW116652   0.735   3.142   1.219
 5251SOL    HW216653   0.599   3.054   1.196
 5252SOL     OW16654   2.099   5.754   1.138
 5252SOL    HW116655   2.109   5.816   1.216
 5252SOL    HW216656   2.099   5.806   1.053
 5253SOL     OW16657   5.735   4.086   5.823
 5253SOL    HW116658   5.799   4.032   5.768
 5253SOL    HW216659   5.786   4.137   5.892
 5254SOL     OW16660   5.968   1.172   3.591
 5254SOL    HW116661   5.960   1.222   3.504
 5254SOL    HW216662   5.911   1.090   3.587
 5255SOL     OW16663   4.569   0.257   5.662
 5255SOL    HW116664   4.480   0.299   5.675
 5255SOL    HW216665   4.615   0.298   5.583
 5256SOL     OW16666   4.747   1.013   2.990
 5256SOL    HW116667   4.678   1.083   2.976
 5256SOL    HW216668   4.835   1.056   3.013
 5257SOL     OW16669   4.346   0.638   1.891
 5257SOL    HW116670   4.366   0.557   1.837
 5257SOL    HW216671   4.249   0.638   1.917
 5258SOL     OW16672   5.500   4.389   2.086
 5258SOL    HW116673   5.555   4.433   2.158
 5258SOL    HW216674   5.439   4.321   2.127
 5259SOL     OW16675   4.391   6.526   1.249
 5259SOL    HW116676   4.409   6.429   1.267
 5259SOL    HW216677   4.376   6.539   1.151
 5260SOL     OW16678   5.927   3.888   0.932
 5260SOL    HW116679   5.930   3.851   1.024
 5260SOL    HW216680   5.987   3.968   0.925
 5261SOL     OW16681   1.546   3.139   5.984
 5261SOL    HW116682   1.531   3.079   5.906
 5261SOL    HW216683   1.511   3.095   6.067
 5262SOL     OW16684   3.217   0.562   2.459
 5262SOL    HW116685   3.201   0.466   2.440
 5262SOL    HW216686   3.130   0.609   2.474
 5263SOL     OW16687   0.903   0.983   5.660
 5263SOL    HW116688   0.847   1.026   5.731
 5263SOL    HW216689   0.944   1.054   5.602
 5264SOL     OW16690   6.412   0.227   2.113
 5264SOL    HW116691   6.333   0.165   2.123
 5264SOL    HW216692   6.439   0.260   2.204
 5265SOL     OW16693   5.000   4.505   2.962
 5265SOL    HW116694   4.989   4.430   3.027
 5265SOL    HW216695   5.095   4.538   2.966
 5266SOL     OW16696   2.824   0.715   1.977
 5266SOL    HW116697   2.833   0.734   2.075
 5266SOL    HW216698   2.819   0.617   1.962
 5267SOL     OW16699   4.640   4.902   5.975
 5267SOL    HW116700   4.608   4.807   5.982
 5267SOL    HW216701   4.688   4.927   6.059
 5268SOL     OW16702   6.119   5.927   6.343
 5268SOL    HW116703   6.067   5.846   6.371
 5268SOL    HW216704   6.200   5.899   6.293
 5269SOL     OW16705   2.605   6.495   4.444
 5269SOL    HW116706   2.594   6.574   4.505
 5269SOL    HW216707   2.580   6.411   4.494
 5270SOL     OW16708   4.430   1.638   1.795
 5270SOL    HW116709   4.358   1.610   1.858
 5270SOL    HW216710   4.497   1.563   1.787
 5271SOL     OW16711   4.533   5.138   4.749
 5271SOL    HW116712   4.530   5.040   4.766
 5271SOL    HW216713   4.557   5.154   4.653
 5272SOL     OW16714   1.829   5.658   3.415
 5272SOL    HW116715   1.841   5.681   3.318
 5272SOL    HW216716   1.899   5.704   3.469
 5273SOL     OW16717   0.334   3.541   3.421
 5273SOL    HW116718   0.274   3.470   3.383
 5273SOL    HW216719   0.387   3.503   3.496
 5274SOL     OW16720   6.017   5.144   2.455
 5274SOL    HW116721   6.077   5.140   2.376
 5274SOL    HW216722   6.070   5.164   2.537
 5275SOL     OW16723   3.421   1.272   6.379
 5275SOL    HW116724   3.378   1.235   6.296
 5275SOL    HW216725   3.449   1.196   6.438
 5276SOL     OW16726   1.093   6.380   0.809
 5276SOL    HW116727   1.105   6.426   0.897
 5276SOL    HW216728   1.182   6.359   0.771
 5277SOL     OW16729   1.231   2.523   3.208
 5277SOL    HW116730   1.272   2.606   3.171
 5277SOL    HW216731   1.132   2.532   3.209
 5278SOL     OW16732   5.176   6.631   4.506
 5278SOL    HW116733   5.193   6.533   4.496
 5278SOL    HW216734   5.084   6.652   4.471
 5279SOL     OW16735   1.545   5.662   6.570
 5279SOL    HW116736   1.617   5.642   6.636
 5279SOL    HW216737   1.461   5.615   6.597
 5280SOL     OW16738   3.095   5.567   5.594
 5280SOL    HW116739   3.075   5.480   5.639
 5280SOL    HW216740   3.054   5.568   5.503
 5281SOL     OW16741   1.273   0.778   4.022
 5281SOL    HW116742   1.213   0.746   4.095
 5281SOL    HW216743   1.283   0.707   3.952
 5282SOL     OW16744   1.715   1.372   2.407
 5282SOL    HW116745   1.802   1.328   2.430
 5282SOL    HW216746   1.642   1.304   2.408
 5283SOL     OW16747   2.835   0.315   2.458
 5283SOL    HW116748   2.736   0.306   2.456
 5283SOL    HW216749   2.864   0.380   2.388
 5284SOL     OW16750   4.839   3.104   2.673
 5284SOL    HW116751   4.868   3.041   2.745
 5284SOL    HW216752   4.828   3.053   2.588
 5285SOL     OW16753   1.666   3.408   4.289
 5285SOL    HW116754   1.721   3.491   4.297
 5285SOL    HW216755   1.623   3.388   4.376
 5286SOL     OW16756   6.347   3.656   1.176
 5286SOL    HW116757   6.253   3.655   1.210
 5286SOL    HW216758   6.357   3.588   1.104
 5287SOL     OW16759   2.389   5.941   1.682
 5287SOL    HW116760   2.398   6.037   1.711
 5287SOL    HW216761   2.335   5.937   1.599
 5288SOL     OW16762   3.863   0.985   2.632
 5288SOL    HW116763   3.844   0.974   2.730
 5288SOL    HW216764   3.932   1.057   2.620
 5289SOL     OW16765   1.633   6.014   6.110
 5289SOL    HW116766   1.676   5.929   6.143
 5289SOL    HW216767   1.704   6.080   6.088
 5290SOL     OW16768   0.796   4.615   5.912
 5290SOL    HW116769   0.879   4.580   5.955
 5290SOL    HW216770   0.797   4.715   5.913
 5291SOL     OW16771   2.789   4.938   6.270
 5291SOL    HW116772   2.775   5.037   6.269
 5291SOL    HW216773   2.842   4.911   6.190
 5292SOL     OW16774   6.313   4.626   6.616
 5292SOL    HW116775   6.256   4.585   6.544
 5292SOL    HW216776   6.295   4.724   6.621
 5293SOL     OW16777   1.481   6.965   4.730
 5293SOL    HW116778   1.428   6.951   4.646
 5293SOL    HW216779   1.479   6.881   4.784
 5294SOL     OW16780   5.700   2.826   5.082
 5294SOL    HW116781   5.606   2.855   5.063
 5294SOL    HW216782   5.763   2.899   5.057
 5295SOL     OW16783   4.396   0.921   2.853
 5295SOL    HW116784   4.400   0.903   2.951
 5295SOL    HW216785   4.359   0.841   2.806
 5296SOL     OW16786   3.150   5.031   6.896
 5296SOL    HW116787   3.127   5.040   6.799
 5296SOL    HW216788   3.078   4.981   6.943
 5297SOL     OW16789   1.913   3.153   0.635
 5297SOL    HW116790   1.968   3.104   0.568
 5297SOL    HW216791   1.821   3.169   0.598
 5298SOL     OW16792   1.066   6.041   6.937
 5298SOL    HW116793   1.011   6.123   6.921
 5298SOL    HW216794   1.153   6.067   6.979
 5299SOL     OW16795   2.383   3.171   0.633
 5299SOL    HW116796   2.387   3.199   0.537
 5299SOL    HW216797   2.468   3.125   0.658
 5300SOL     OW16798   1.020   5.855   0.990
 5300SOL    HW116799   0.991   5.876   1.083
 5300SOL    HW216800   1.096   5.915   0.964
 5301SOL     OW16801   3.426   2.200   6.231
 5301SOL    HW116802   3.337   2.217   6.188
 5301SOL    HW216803   3.494   2.181   6.160
 5302SOL     OW16804   5.842   5.519   3.778
 5302SOL    HW116805   5.782   5.516   3.698
 5302SOL    HW216806   5.845   5.612   3.814
 5303SOL     OW16807   0.104   5.117   3.901
 5303SOL    HW116808   0.132   5.185   3.832
 5303SOL    HW216809   0.137   5.145   3.991
 5304SOL     OW16810   5.286   0.840   0.502
 5304SOL    HW116811   5.224   0.916   0.482
 5304SOL    HW216812   5.378   0.876   0.520
 5305SOL     OW16813   0.681   4.426   3.101
 5305SOL    HW116814   0.743   4.460   3.029
 5305SOL    HW216815   0.678   4.492   3.175
 5306SOL     OW16816   1.354   4.016   4.794
 5306SOL    HW116817   1.408   4.035   4.875
 5306SOL    HW216818   1.340   4.101   4.742
 5307SOL     OW16819   4.368   1.821   0.206
 5307SOL    HW116820   4.274   1.851   0.193
 5307SOL    HW216821   4.411   1.875   0.278
 5308SOL     OW16822   0.958   4.585   3.633
 5308SOL    HW116823   0.988   4.586   3.538
 5308SOL    HW216824   0.992   4.667   3.679
 5309SOL     OW16825   4.070   4.879   1.682
 5309SOL    HW116826   3.989   4.823   1.698
 5309SOL    HW216827   4.074   4.952   1.750
 5310SOL     OW16828   6.545   3.823   1.882
 5310SOL    HW116829   6.562   3.725   1.895
 5310SOL    HW216830   6.447   3.840   1.886
 5311SOL     OW16831   6.742   6.247   6.885
 5311SOL    HW116832   6.796   6.331   6.899
 5311SOL    HW216833   6.775   6.175   6.946
 5312SOL     OW16834   0.084   5.189   1.710
 5312SOL    HW116835   7.008   5.216   1.685
 5312SOL    HW216836   0.084   5.155   1.804
 5313SOL     OW16837   1.495   3.639   5.902
 5313SOL    HW116838   1.463   3.639   5.807
 5313SOL    HW216839   1.474   3.727   5.944
 5314SOL     OW16840   3.173   6.731   0.778
 5314SOL    HW116841   3.214   6.818   0.805
 5314SOL    HW216842   3.141   6.737   0.684
 5315SOL     OW16843   5.056   3.613   1.660
 5315SOL    HW116844   5.026   3.551   1.732
 5315SOL    HW216845   5.122   3.567   1.601
 5316SOL     OW16846   1.072   3.654   4.271
 5316SOL    HW116847   1.095   3.699   4.185
 5316SOL    HW216848   1.146   3.669   4.337
 5317SOL     OW16849   5.936   0.084   4.628
 5317SOL    HW116850   5.979   0.156   4.574
 5317SOL    HW216851   6.007   0.032   4.676
 5318SOL     OW16852   0.573   3.198   6.363
 5318SOL    HW116853   0.505   3.147   6.415
 5318SOL    HW216854   0.609   3.141   6.289
 5319SOL     OW16855   3.419   6.472   0.194
 5319SOL    HW116856   3.478   6.472   0.276
 5319SOL    HW216857   3.424   6.382   0.150
 5320SOL     OW16858   5.216   5.071   0.196
 5320SOL    HW116859   5.139   5.011   0.215
 5320SOL    HW216860   5.241   5.120   0.279
 5321SOL     OW16861   1.008   5.210   4.571
 5321SOL    HW116862   0.961   5.288   4.529
 5321SOL    HW216863   1.008   5.133   4.508
 5322SOL     OW16864   5.179   6.245   5.941
 5322SOL    HW116865   5.203   6.279   5.850
 5322SOL    HW216866   5.180   6.321   6.006
 5323SOL     OW16867   4.019   2.062   6.996
 5323SOL    HW116868   4.048   1.987   0.039
 5323SOL    HW216869   3.987   2.139   0.035
 5324SOL     OW16870   3.468   2.279   0.631
 5324SOL    HW116871   3.532   2.286   0.555
 5324SOL    HW216872   3.375   2.268   0.596
 5325SOL     OW16873   4.617   0.360   4.417
 5325SOL    HW116874   4.621   0.326   4.511
 5325SOL    HW216875   4.528   0.403   4.400
 5326SOL     OW16876   6.493   4.969   2.959
 5326SOL    HW116877   6.592   4.958   2.961
 5326SOL    HW216878   6.457   4.931   2.873
 5327SOL     OW16879   5.670   3.253   5.529
 5327SOL    HW116880   5.656   3.287   5.436
 5327SOL    HW216881   5.612   3.174   5.545
 5328SOL     OW16882   4.402   2.947   5.427
 5328SOL    HW116883   4.413   3.046   5.435
 5328SOL    HW216884   4.481   2.909   5.379
 5329SOL     OW16885   0.453   4.596   0.225
 5329SOL    HW116886   0.479   4.666   0.159
 5329SOL    HW216887   0.471   4.629   0.318
 5330SOL     OW16888   3.380   4.422   5.766
 5330SOL    HW116889   3.354   4.502   5.712
 5330SOL    HW216890   3.450   4.448   5.832
 5331SOL     OW16891   5.353   1.224   0.499
 5331SOL    HW116892   5.433   1.236   0.557
 5331SOL    HW216893   5.276   1.194   0.556
 5332SOL     OW16894   0.730   3.272   0.886
 5332SOL    HW116895   0.792   3.245   0.960
 5332SOL    HW216896   0.779   3.270   0.799
 5333SOL     OW16897   0.902   0.572   3.822
 5333SOL    HW116898   0.935   0.666   3.831
 5333SOL    HW216899   0.901   0.546   3.726
 5334SOL     OW16900   3.703   0.240   4.351
 5334SOL    HW116901   3.692   0.336   4.376
 5334SOL    HW216902   3.782   0.202   4.399
 5335SOL     OW16903   6.656   5.504   2.248
 5335SOL    HW116904   6.595   5.573   2.288
 5335SOL    HW216905   6.750   5.519   2.281
 5336SOL     OW16906   2.549   2.052   2.876
 5336SOL    HW116907   2.458   2.089   2.894
 5336SOL    HW216908   2.590   2.024   2.962
 5337SOL     OW16909   5.245   4.356   1.516
 5337SOL    HW116910   5.197   4.421   1.576
 5337SOL    HW216911   5.238   4.264   1.555
 5338SOL     OW16912   5.858   2.114   6.139
 5338SOL    HW116913   5.835   2.162   6.223
 5338SOL    HW216914   5.830   2.169   6.060
 5339SOL     OW16915   6.695   2.107   4.360
 5339SOL    HW116916   6.668   2.074   4.269
 5339SOL    HW216917   6.793   2.093   4.373
 5340SOL     OW16918   5.495   3.090   1.259
 5340SOL    HW116919   5.592   3.086   1.282
 5340SOL    HW216920   5.485   3.086   1.159
 5341SOL     OW16921   3.439   3.696   6.309
 5341SOL    HW116922   3.346   3.659   6.312
 5341SOL    HW216923   3.436   3.794   6.329
 5342SOL     OW16924   3.002   0.074   3.805
 5342SOL    HW116925   2.956   7.004   3.824
 5342SOL    HW216926   3.097   0.056   3.780
 5343SOL     OW16927   3.877   3.522   4.281
 5343SOL    HW116928   3.870   3.428   4.246
 5343SOL    HW216929   3.967   3.536   4.321
 5344SOL     OW16930   2.366   2.334   2.730
 5344SOL    HW116931   2.350   2.288   2.818
 5344SOL    HW216932   2.320   2.422   2.731
 5345SOL     OW16933   3.675   6.912   1.617
 5345SOL    HW116934   3.586   6.924   1.661
 5345SOL    HW216935   3.663   6.862   1.531
 5346SOL     OW16936   2.965   5.925   4.483
 5346SOL    HW116937   2.870   5.954   4.496
 5346SOL    HW216938   3.001   5.966   4.399
 5347SOL     OW16939   0.660   2.577   1.645
 5347SOL    HW116940   0.676   2.594   1.742
 5347SOL    HW216941   0.678   2.660   1.593
 5348SOL     OW16942   6.704   2.267   0.825
 5348SOL    HW116943   6.620   2.316   0.804
 5348SOL    HW216944   6.754   2.315   0.897
 5349SOL     OW16945   2.047   3.022   0.399
 5349SOL    HW116946   1.985   2.970   0.340
 5349SOL    HW216947   2.073   3.107   0.353
 5350SOL     OW16948   1.356   6.983   5.419
 5350SOL    HW116949   1.399   6.950   5.335
 5350SOL    HW216950   1.383   6.924   5.495
 5351SOL     OW16951   6.871   5.031   2.509
 5351SOL    HW116952   6.833   5.051   2.419
 5351SOL    HW216953   6.813   5.073   2.579
 5352SOL     OW16954   2.684   4.690   3.645
 5352SOL    HW116955   2.614   4.753   3.677
 5352SOL    HW216956   2.712   4.715   3.552
 5353SOL     OW16957   4.212   4.690   3.642
 5353SOL    HW116958   4.285   4.731   3.588
 5353SOL    HW216959   4.232   4.593   3.656
 5354SOL     OW16960   2.441   5.510   2.124
 5354SOL    HW116961   2.505   5.572   2.080
 5354SOL    HW216962   2.480   5.476   2.210
 5355SOL     OW16963   6.586   3.999   3.849
 5355SOL    HW116964   6.567   3.905   3.821
 5355SOL    HW216965   6.503   4.054   3.836
 5356SOL     OW16966   5.881   4.679   1.556
 5356SOL    HW116967   5.854   4.747   1.488
 5356SOL    HW216968   5.888   4.589   1.512
 5357SOL     OW16969   4.068   6.450   1.057
 5357SOL    HW116970   4.045   6.524   1.119
 5357SOL    HW216971   4.149   6.476   1.003
 5358SOL     OW16972   4.641   1.613   0.478
 5358SOL    HW116973   4.727   1.590   0.433
 5358SOL    HW216974   4.600   1.530   0.517
 5359SOL     OW16975   1.033   1.233   5.767
 5359SOL    HW116976   1.130   1.207   5.765
 5359SOL    HW216977   1.015   1.289   5.847
 5360SOL     OW16978   3.813   6.611   5.161
 5360SOL    HW116979   3.787   6.541   5.095
 5360SOL    HW216980   3.912   6.616   5.168
 5361SOL     OW16981   2.555   1.180   5.739
 5361SOL    HW116982   2.583   1.276   5.735
 5361SOL    HW216983   2.630   1.122   5.708
 5362SOL     OW16984   6.458   5.797   3.389
 5362SOL    HW116985   6.493   5.847   3.468
 5362SOL    HW216986   6.371   5.839   3.361
 5363SOL     OW16987   0.137   0.799   0.046
 5363SOL    HW116988   0.229   0.761   0.036
 5363SOL    HW216989   0.075   0.754   6.999
 5364SOL     OW16990   6.601   6.744   1.911
 5364SOL    HW116991   6.596   6.779   1.817
 5364SOL    HW216992   6.673   6.793   1.960
 5365SOL     OW16993   3.744   3.477   0.183
 5365SOL    HW116994   3.818   3.411   0.170
 5365SOL    HW216995   3.753   3.550   0.115
 5366SOL     OW16996   5.376   5.881   1.707
 5366SOL    HW116997   5.276   5.880   1.713
 5366SOL    HW216998   5.414   5.914   1.794
 5367SOL     OW16999   0.891   6.654   1.006
 5367SOL    HW117000   0.902   6.611   0.917
 5367SOL    HW217001   0.920   6.750   1.001
 5368SOL     OW17002   5.094   0.035   2.532
 5368SOL    HW117003   5.012   0.067   2.579
 5368SOL    HW217004   5.089   0.059   2.435
 5369SOL     OW17005   2.525   6.815   1.751
 5369SOL    HW117006   2.531   6.910   1.781
 5369SOL    HW217007   2.481   6.760   1.822
 5370SOL     OW17008   4.489   2.882   1.668
 5370SOL    HW117009   4.393   2.852   1.667
 5370SOL    HW217010   4.506   2.934   1.752
 5371SOL     OW17011   0.846   3.620   5.025
 5371SOL    HW117012   0.886   3.529   5.012
 5371SOL    HW217013   0.857   3.673   4.941
 5372SOL     OW17014   2.070   6.357   4.028
 5372SOL    HW117015   2.123   6.426   3.979
 5372SOL    HW217016   2.131   6.303   4.087
 5373SOL     OW17017   3.652   0.068   4.595
 5373SOL    HW117018   3.556   0.093   4.582
 5373SOL    HW217019   3.708   0.112   4.525
 5374SOL     OW17020   1.356   4.483   6.990
 5374SOL    HW117021   1.335   4.566   6.938
 5374SOL    HW217022   1.452   4.460   6.978
 5375SOL     OW17023   0.662   4.911   5.031
 5375SOL    HW117024   0.758   4.914   5.002
 5375SOL    HW217025   0.614   4.990   4.993
 5376SOL     OW17026   1.575   3.067   1.145
 5376SOL    HW117027   1.510   3.118   1.202
 5376SOL    HW217028   1.558   2.969   1.155
 5377SOL     OW17029   6.986   6.689   2.549
 5377SOL    HW117030   6.907   6.658   2.496
 5377SOL    HW217031   0.009   6.611   2.598
 5378SOL     OW17032   6.451   0.666   1.562
 5378SOL    HW117033   6.355   0.656   1.537
 5378SOL    HW217034   6.459   0.660   1.662
 5379SOL     OW17035   1.581   4.394   5.363
 5379SOL    HW117036   1.567   4.489   5.336
 5379SOL    HW217037   1.497   4.357   5.401
 5380SOL     OW17038   2.149   1.482   2.907
 5380SOL    HW117039   2.223   1.545   2.929
 5380SOL    HW217040   2.159   1.448   2.814
 5381SOL     OW17041   6.389   4.618   1.809
 5381SOL    HW117042   6.317   4.573   1.861
 5381SOL    HW217043   6.478   4.596   1.849
 5382SOL     OW17044   3.221   1.197   2.327
 5382SOL    HW117045   3.208   1.116   2.271
 5382SOL    HW217046   3.138   1.253   2.325
 5383SOL     OW17047   2.580   2.361   5.212
 5383SOL    HW117048   2.650   2.291   5.229
 5383SOL    HW217049   2.612   2.449   5.246
 5384SOL     OW17050   5.915   6.844   5.093
 5384SOL    HW117051   5.991   6.909   5.102
 5384SOL    HW217052   5.940   6.772   5.028
 5385SOL     OW17053   3.474   3.384   4.344
 5385SOL    HW117054   3.514   3.409   4.432
 5385SOL    HW217055   3.516   3.299   4.311
 5386SOL     OW17056   4.815   0.634   4.257
 5386SOL    HW117057   4.772   0.558   4.208
 5386SOL    HW217058   4.880   0.598   4.324
 5387SOL     OW17059   2.550   6.841   3.290
 5387SOL    HW117060   2.638   6.888   3.279
 5387SOL    HW217061   2.555   6.780   3.369
 5388SOL     OW17062   0.183   0.846   4.027
 5388SOL    HW117063   0.275   0.885   4.037
 5388SOL    HW217064   0.169   0.818   3.933
 5389SOL     OW17065   4.678   1.159   2.710
 5389SOL    HW117066   4.691   1.059   2.713
 5389SOL    HW217067   4.752   1.200   2.656
 5390SOL     OW17068   4.668   4.419   2.767
 5390SOL    HW117069   4.715   4.498   2.806
 5390SOL    HW217070   4.592   4.450   2.711
 5391SOL     OW17071   2.075   2.148   1.015
 5391SOL    HW117072   2.114   2.067   0.971
 5391SOL    HW217073   2.139   2.225   1.006
 5392SOL     OW17074   5.438   3.119   0.987
 5392SOL    HW117075   5.452   3.156   0.895
 5392SOL    HW217076   5.344   3.137   1.016
 5393SOL     OW17077   4.594   6.661   6.882
 5393SOL    HW117078   4.656   6.624   6.814
 5393SOL    HW217079   4.594   6.761   6.877
 5394SOL     OW17080   6.872   4.634   6.922
 5394SOL    HW117081   6.775   4.646   6.900
 5394SOL    HW217082   6.882   4.610   0.001
 5395SOL     OW17083   5.422   1.562   1.515
 5395SOL    HW117084   5.423   1.535   1.419
 5395SOL    HW217085   5.387   1.486   1.570
 5396SOL     OW17086   4.343   4.497   1.858
 5396SOL    HW117087   4.329   4.554   1.939
 5396SOL    HW217088   4.368   4.405   1.887
 5397SOL     OW17089   0.734   2.811   1.523
 5397SOL    HW117090   0.776   2.853   1.443
 5397SOL    HW217091   0.782   2.840   1.606
 5398SOL     OW17092   3.816   2.106   3.792
 5398SOL    HW117093   3.856   2.075   3.706
 5398SOL    HW217094   3.720   2.129   3.777
 5399SOL     OW17095   3.056   5.896   0.794
 5399SOL    HW117096   3.072   5.925   0.700
 5399SOL    HW217097   3.091   5.966   0.857
 5400SOL     OW17098   2.360   3.958   0.068
 5400SOL    HW117099   2.338   3.946   6.988
 5400SOL    HW217100   2.314   3.887   0.121
 5401SOL     OW17101   6.001   3.843   1.199
 5401SOL    HW117102   6.075   3.911   1.201
 5401SOL    HW217103   6.024   3.767   1.259
 5402SOL     OW17104   2.607   5.176   1.709
 5402SOL    HW117105   2.611   5.076   1.718
 5402SOL    HW217106   2.696   5.215   1.732
 5403SOL     OW17107   5.554   2.526   6.382
 5403SOL    HW117108   5.521   2.619   6.370
 5403SOL    HW217109   5.478   2.466   6.408
 5404SOL     OW17110   0.710   0.815   2.044
 5404SOL    HW117111   0.696   0.787   1.949
 5404SOL    HW217112   0.634   0.874   2.072
 5405SOL     OW17113   5.712   6.211   0.322
 5405SOL    HW117114   5.782   6.283   0.321
 5405SOL    HW217115   5.750   6.129   0.365
 5406SOL     OW17116   2.847   0.110   6.628
 5406SOL    HW117117   2.865   0.045   6.702
 5406SOL    HW217118   2.748   0.123   6.619
 5407SOL     OW17119   4.475   2.416   1.633
 5407SOL    HW117120   4.549   2.429   1.699
 5407SOL    HW217121   4.388   2.440   1.675
 5408SOL     OW17122   3.320   1.089   5.896
 5408SOL    HW117123   3.376   1.044   5.966
 5408SOL    HW217124   3.228   1.049   5.895
 5409SOL     OW17125   5.983   1.713   4.183
 5409SOL    HW117126   5.958   1.623   4.147
 5409SOL    HW217127   6.072   1.707   4.229
 5410SOL     OW17128   1.661   3.207   0.523
 5410SOL    HW117129   1.597   3.283   0.535
 5410SOL    HW217130   1.611   3.121   0.526
 5411SOL     OW17131   6.382   4.941   5.503
 5411SOL    HW117132   6.401   5.013   5.570
 5411SOL    HW217133   6.383   4.979   5.411
 5412SOL     OW17134   4.511   0.656   0.107
 5412SOL    HW117135   4.477   0.574   0.061
 5412SOL    HW217136   4.568   0.708   0.044
 5413SOL     OW17137   0.439   0.216   1.137
 5413SOL    HW117138   0.392   0.247   1.220
 5413SOL    HW217139   0.383   0.236   1.057
 5414SOL     OW17140   5.879   3.010   4.997
 5414SOL    HW117141   5.816   3.085   5.018
 5414SOL    HW217142   5.911   3.019   4.902
 5415SOL     OW17143   1.532   6.463   1.824
 5415SOL    HW117144   1.474   6.488   1.901
 5415SOL    HW217145   1.612   6.523   1.821
 5416SOL     OW17146   3.596   4.886   6.213
 5416SOL    HW117147   3.531   4.954   6.247
 5416SOL    HW217148   3.578   4.867   6.116
 5417SOL     OW17149   3.778   6.913   5.170
 5417SOL    HW117150   3.781   6.813   5.164
 5417SOL    HW217151   3.816   6.942   5.258
 5418SOL     OW17152   4.394   0.214   4.499
 5418SOL    HW117153   4.466   0.230   4.432
 5418SOL    HW217154   4.429   0.235   4.591
 5419SOL     OW17155   2.958   5.651   0.467
 5419SOL    HW117156   3.054   5.629   0.483
 5419SOL    HW217157   2.951   5.743   0.430
 5420SOL     OW17158   1.380   2.898   1.957
 5420SOL    HW117159   1.462   2.842   1.944
 5420SOL    HW217160   1.407   2.992   1.976
 5421SOL     OW17161   2.285   4.177   2.853
 5421SOL    HW117162   2.351   4.104   2.837
 5421SOL    HW217163   2.204   4.162   2.797
 5422SOL     OW17164   0.969   5.498   5.975
 5422SOL    HW117165   0.970   5.430   6.049
 5422SOL    HW217166   1.027   5.467   5.900
 5423SOL     OW17167   5.603   3.440   6.767
 5423SOL    HW117168   5.598   3.474   6.673
 5423SOL    HW217169   5.517   3.460   6.813
 5424SOL     OW17170   5.512   3.294   4.068
 5424SOL    HW117171   5.420   3.332   4.064
 5424SOL    HW217172   5.508   3.197   4.089
 5425SOL     OW17173   4.914   1.721   4.285
 5425SOL    HW117174   4.924   1.710   4.383
 5425SOL    HW217175   4.929   1.817   4.260
 5426SOL     OW17176   6.923   5.450   3.866
 5426SOL    HW117177   6.838   5.434   3.916
 5426SOL    HW217178   6.905   5.513   3.790
 5427SOL     OW17179   5.280   5.181   0.740
 5427SOL    HW117180   5.213   5.108   0.726
 5427SOL    HW217181   5.243   5.248   0.804
 5428SOL     OW17182   6.867   0.489   1.766
 5428SOL    HW117183   6.891   0.570   1.713
 5428SOL    HW217184   6.807   0.515   1.841
 5429SOL     OW17185   1.267   1.457   5.923
 5429SOL    HW117186   1.286   1.459   6.021
 5429SOL    HW217187   1.186   1.513   5.903
 5430SOL     OW17188   1.095   2.923   4.989
 5430SOL    HW117189   1.191   2.910   5.013
 5430SOL    HW217190   1.038   2.868   5.049
 5431SOL     OW17191   3.662   5.614   6.328
 5431SOL    HW117192   3.645   5.562   6.412
 5431SOL    HW217193   3.658   5.553   6.249
 5432SOL     OW17194   3.981   6.401   6.301
 5432SOL    HW117195   4.062   6.405   6.359
 5432SOL    HW217196   4.000   6.447   6.215
 5433SOL     OW17197   0.074   1.317   3.332
 5433SOL    HW117198   0.093   1.390   3.267
 5433SOL    HW217199   0.003   1.347   3.396
 5434SOL     OW17200   3.823   0.942   4.870
 5434SOL    HW117201   3.798   0.891   4.952
 5434SOL    HW217202   3.906   0.902   4.830
 5435SOL     OW17203   6.052   1.640   1.281
 5435SOL    HW117204   6.131   1.684   1.323
 5435SOL    HW217205   5.968   1.673   1.325
 5436SOL     OW17206   5.395   4.196   4.946
 5436SOL    HW117207   5.410   4.124   4.879
 5436SOL    HW217208   5.386   4.156   5.037
 5437SOL     OW17209   2.398   4.825   5.019
 5437SOL    HW117210   2.313   4.840   4.969
 5437SOL    HW217211   2.396   4.876   5.105
 5438SOL     OW17212   5.755   3.767   2.855
 5438SOL    HW117213   5.711   3.851   2.887
 5438SOL    HW217214   5.695   3.721   2.790
 5439SOL     OW17215   0.051   2.179   0.456
 5439SOL    HW117216   7.015   2.094   0.459
 5439SOL    HW217217   0.016   2.237   0.383
 5440SOL     OW17218   0.649   0.238   2.421
 5440SOL    HW117219   0.593   0.251   2.339
 5440SOL    HW217220   0.660   0.140   2.439
 5441SOL     OW17221   4.824   3.141   3.064
 5441SOL    HW117222   4.798   3.092   2.980
 5441SOL    HW217223   4.762   3.114   3.138
 5442SOL     OW17224   3.439   6.532   3.233
 5442SOL    HW117225   3.448   6.627   3.263
 5442SOL    HW217226   3.342   6.507   3.229
 5443SOL     OW17227   2.556   6.860   3.991
 5443SOL    HW117228   2.648   6.898   3.974
 5443SOL    HW217229   2.510   6.845   3.903
 5444SOL     OW17230   0.905   0.475   3.565
 5444SOL    HW117231   0.926   0.570   3.540
 5444SOL    HW217232   0.985   0.418   3.550
 5445SOL     OW17233   6.009   4.500   4.153
 5445SOL    HW117234   5.921   4.452   4.147
 5445SOL    HW217235   6.029   4.544   4.065
 5446SOL     OW17236   5.634   5.463   5.301
 5446SOL    HW117237   5.634   5.431   5.395
 5446SOL    HW217238   5.718   5.434   5.255
 5447SOL     OW17239   1.301   2.004   0.634
 5447SOL    HW117240   1.339   2.006   0.726
 5447SOL    HW217241   1.324   1.917   0.590
 5448SOL     OW17242   5.785   3.662   4.865
 5448SOL    HW117243   5.773   3.564   4.852
 5448SOL    HW217244   5.853   3.678   4.937
 5449SOL     OW17245   1.540   1.907   6.814
 5449SOL    HW117246   1.515   2.003   6.819
 5449SOL    HW217247   1.639   1.898   6.800
 5450SOL     OW17248   1.861   0.668   2.133
 5450SOL    HW117249   1.796   0.729   2.089
 5450SOL    HW217250   1.933   0.643   2.069
 5451SOL     OW17251   1.602   5.483   3.418
 5451SOL    HW117252   1.621   5.388   3.393
 5451SOL    HW217253   1.686   5.526   3.450
 5452SOL     OW17254   2.029   3.831   6.980
 5452SOL    HW117255   2.084   3.818   6.897
 5452SOL    HW217256   1.963   3.755   6.987
 5453SOL     OW17257   5.092   3.986   1.060
 5453SOL    HW117258   5.181   3.944   1.077
 5453SOL    HW217259   5.026   3.953   1.129
 5454SOL     OW17260   6.253   4.113   5.614
 5454SOL    HW117261   6.177   4.167   5.578
 5454SOL    HW217262   6.271   4.140   5.708
 5455SOL     OW17263   6.415   2.354   1.822
 5455SOL    HW117264   6.336   2.383   1.875
 5455SOL    HW217265   6.433   2.257   1.840
 5456SOL     OW17266   2.464   0.239   0.017
 5456SOL    HW117267   2.438   0.297   0.094
 5456SOL    HW217268   2.470   0.144   0.046
 5457SOL     OW17269   6.927   2.542   0.583
 5457SOL    HW117270   6.843   2.570   0.628
 5457SOL    HW217271   6.955   2.452   0.618
 5458SOL     OW17272   0.392   4.011   0.323
 5458SOL    HW117273   0.343   4.078   0.379
 5458SOL    HW217274   0.326   3.962   0.266
 5459SOL     OW17275   2.413   4.258   6.658
 5459SOL    HW117276   2.355   4.182   6.690
 5459SOL    HW217277   2.483   4.222   6.596
 5460SOL     OW17278   3.921   0.165   3.337
 5460SOL    HW117279   3.903   0.079   3.384
 5460SOL    HW217280   4.014   0.196   3.358
 5461SOL     OW17281   0.176   0.589   5.907
 5461SOL    HW117282   0.270   0.575   5.877
 5461SOL    HW217283   0.113   0.563   5.834
 5462SOL     OW17284   0.451   6.562   1.102
 5462SOL    HW117285   0.476   6.478   1.053
 5462SOL    HW217286   0.375   6.606   1.054
 5463SOL     OW17287   6.755   1.328   0.282
 5463SOL    HW117288   6.776   1.245   0.333
 5463SOL    HW217289   6.823   1.398   0.303
 5464SOL     OW17290   0.613   0.558   4.796
 5464SOL    HW117291   0.611   0.649   4.754
 5464SOL    HW217292   0.623   0.488   4.726
 5465SOL     OW17293   4.358   0.485   4.286
 5465SOL    HW117294   4.337   0.395   4.249
 5465SOL    HW217295   4.397   0.542   4.214
 5466SOL     OW17296   5.389   3.086   4.665
 5466SOL    HW117297   5.302   3.124   4.697
 5466SOL    HW217298   5.455   3.085   4.740
 5467SOL     OW17299   4.832   4.016   3.447
 5467SOL    HW117300   4.916   4.069   3.434
 5467SOL    HW217301   4.851   3.919   3.436
 5468SOL     OW17302   6.597   2.663   3.886
 5468SOL    HW117303   6.513   2.613   3.864
 5468SOL    HW217304   6.653   2.607   3.948
 5469SOL     OW17305   2.910   5.802   6.029
 5469SOL    HW117306   2.971   5.756   6.094
 5469SOL    HW217307   2.965   5.845   5.957
 5470SOL     OW17308   3.530   5.441   2.916
 5470SOL    HW117309   3.617   5.489   2.922
 5470SOL    HW217310   3.467   5.493   2.859
 5471SOL     OW17311   5.552   6.783   2.629
 5471SOL    HW117312   5.638   6.803   2.581
 5471SOL    HW217313   5.506   6.869   2.652
 5472SOL     OW17314   3.756   3.896   6.006
 5472SOL    HW117315   3.763   3.798   5.988
 5472SOL    HW217316   3.771   3.914   6.103
 5473SOL     OW17317   0.259   2.995   2.591
 5473SOL    HW117318   0.326   2.979   2.519
 5473SOL    HW217319   0.258   2.916   2.653
 5474SOL     OW17320   1.154   4.646   3.951
 5474SOL    HW117321   1.143   4.733   3.903
 5474SOL    HW217322   1.161   4.572   3.883
 5475SOL     OW17323   2.395   2.978   1.132
 5475SOL    HW117324   2.331   2.903   1.146
 5475SOL    HW217325   2.463   2.978   1.205
 5476SOL     OW17326   2.342   4.328   5.620
 5476SOL    HW117327   2.399   4.246   5.613
 5476SOL    HW217328   2.247   4.302   5.637
 5477SOL     OW17329   1.998   4.755   2.994
 5477SOL    HW117330   2.040   4.781   3.081
 5477SOL    HW217331   2.041   4.671   2.960
 5478SOL     OW17332   3.330   5.843   4.808
 5478SOL    HW117333   3.339   5.767   4.743
 5478SOL    HW217334   3.312   5.807   4.899
 5479SOL     OW17335   5.289   1.375   5.942
 5479SOL    HW117336   5.199   1.400   5.904
 5479SOL    HW217337   5.355   1.364   5.868
 5480SOL     OW17338   5.808   4.516   2.908
 5480SOL    HW117339   5.822   4.605   2.952
 5480SOL    HW217340   5.868   4.508   2.829
 5481SOL     OW17341   4.144   1.864   4.113
 5481SOL    HW117342   4.107   1.872   4.020
 5481SOL    HW217343   4.069   1.862   4.179
 5482SOL     OW17344   3.594   4.397   1.718
 5482SOL    HW117345   3.596   4.479   1.775
 5482SOL    HW217346   3.500   4.377   1.691
 5483SOL     OW17347   0.175   1.780   5.907
 5483SOL    HW117348   0.206   1.839   5.832
 5483SOL    HW217349   0.170   1.685   5.875
 5484SOL     OW17350   4.151   1.408   4.256
 5484SOL    HW117351   4.195   1.498   4.255
 5484SOL    HW217352   4.177   1.359   4.340
 5485SOL     OW17353   3.840   0.084   5.397
 5485SOL    HW117354   3.918   0.144   5.413
 5485SOL    HW217355   3.842   0.008   5.462
 5486SOL     OW17356   2.627   5.836   5.235
 5486SOL    HW117357   2.719   5.849   5.272
 5486SOL    HW217358   2.587   5.752   5.273
 5487SOL     OW17359   4.506   2.518   0.026
 5487SOL    HW117360   4.423   2.481   0.069
 5487SOL    HW217361   4.566   2.556   0.097
 5488SOL     OW17362   6.204   0.409   1.216
 5488SOL    HW117363   6.213   0.451   1.126
 5488SOL    HW217364   6.280   0.440   1.275
 5489SOL     OW17365   0.798   4.984   1.429
 5489SOL    HW117366   0.755   4.955   1.514
 5489SOL    HW217367   0.886   5.026   1.448
 5490SOL     OW17368   3.163   0.252   2.405
 5490SOL    HW117369   3.133   0.245   2.310
 5490SOL    HW217370   3.093   0.298   2.459
 5491SOL     OW17371   0.793   2.929   0.408
 5491SOL    HW117372   0.695   2.949   0.410
 5491SOL    HW217373   0.819   2.896   0.317
 5492SOL     OW17374   0.511   4.061   6.398
 5492SOL    HW117375   0.451   4.125   6.351
 5492SOL    HW217376   0.458   3.981   6.429
 5493SOL     OW17377   3.219   3.999   3.899
 5493SOL    HW117378   3.227   4.058   3.979
 5493SOL    HW217379   3.257   4.046   3.819
 5494SOL     OW17380   0.904   3.986   5.636
 5494SOL    HW117381   0.908   3.892   5.670
 5494SOL    HW217382   0.932   4.048   5.709
 5495SOL     OW17383   5.961   0.806   0.755
 5495SOL    HW117384   5.962   0.708   0.774
 5495SOL    HW217385   5.923   0.821   0.664
 5496SOL     OW17386   4.143   1.021   3.539
 5496SOL    HW117387   4.194   1.080   3.476
 5496SOL    HW217388   4.174   1.037   3.632
 5497SOL     OW17389   0.371   0.683   4.901
 5497SOL    HW117390   0.406   0.641   4.817
 5497SOL    HW217391   0.302   0.752   4.876
 5498SOL     OW17392   6.808   5.439   1.292
 5498SOL    HW117393   6.865   5.359   1.309
 5498SOL    HW217394   6.826   5.508   1.361
 5499SOL     OW17395   1.082   0.891   4.707
 5499SOL    HW117396   1.116   0.851   4.623
 5499SOL    HW217397   1.086   0.824   4.781
 5500SOL     OW17398   0.863   0.592   0.250
 5500SOL    HW117399   0.891   0.509   0.202
 5500SOL    HW217400   0.942   0.651   0.265
 5501SOL     OW17401   3.906   1.690   6.855
 5501SOL    HW117402   3.818   1.676   6.899
 5501SOL    HW217403   3.892   1.717   6.760
 5502SOL     OW17404   5.003   3.890   0.014
 5502SOL    HW117405   4.968   3.897   0.107
 5502SOL    HW217406   4.998   3.795   7.000
 5503SOL     OW17407   6.912   4.354   0.897
 5503SOL    HW117408   6.889   4.429   0.835
 5503SOL    HW217409   6.984   4.384   0.960
 5504SOL     OW17410   4.721   1.597   5.088
 5504SOL    HW117411   4.682   1.512   5.123
 5504SOL    HW217412   4.678   1.674   5.135
 5505SOL     OW17413   1.942   5.378   4.078
 5505SOL    HW117414   1.969   5.446   4.145
 5505SOL    HW217415   2.008   5.376   4.002
 5506SOL     OW17416   0.558   3.766   0.649
 5506SOL    HW117417   0.604   3.839   0.701
 5506SOL    HW217418   0.459   3.776   0.658
 5507SOL     OW17419   3.866   1.258   4.864
 5507SOL    HW117420   3.783   1.226   4.911
 5507SOL    HW217421   3.944   1.202   4.892
 5508SOL     OW17422   1.231   1.265   0.394
 5508SOL    HW117423   1.140   1.288   0.427
 5508SOL    HW217424   1.279   1.211   0.464
 5509SOL     OW17425   0.473   6.105   6.604
 5509SOL    HW117426   0.470   6.202   6.580
 5509SOL    HW217427   0.569   6.075   6.604
 5510SOL     OW17428   4.484   5.482   6.620
 5510SOL    HW117429   4.498   5.396   6.671
 5510SOL    HW217430   4.386   5.496   6.606
 5511SOL     OW17431   1.065   7.004   4.318
 5511SOL    HW117432   1.093   0.083   4.326
 5511SOL    HW217433   1.011   6.979   4.398
 5512SOL     OW17434   4.894   1.947   0.773
 5512SOL    HW117435   4.983   1.991   0.766
 5512SOL    HW217436   4.847   1.952   0.684
 5513SOL     OW17437   3.872   5.555   5.945
 5513SOL    HW117438   3.800   5.605   5.898
 5513SOL    HW217439   3.834   5.511   6.027
 5514SOL     OW17440   3.418   0.259   4.547
 5514SOL    HW117441   3.430   0.321   4.470
 5514SOL    HW217442   3.321   0.238   4.559
 5515SOL     OW17443   0.903   5.751   1.533
 5515SOL    HW117444   0.997   5.747   1.499
 5515SOL    HW217445   0.884   5.842   1.570
 5516SOL     OW17446   1.720   2.430   5.394
 5516SOL    HW117447   1.674   2.482   5.467
 5516SOL    HW217448   1.818   2.444   5.401
 5517SOL     OW17449   2.129   3.637   2.257
 5517SOL    HW117450   2.107   3.733   2.245
 5517SOL    HW217451   2.175   3.602   2.176
 5518SOL     OW17452   5.909   5.560   6.881
 5518SOL    HW117453   6.000   5.564   6.923
 5518SOL    HW217454   5.847   5.620   6.932
 5519SOL     OW17455   5.398   3.082   2.958
 5519SOL    HW117456   5.464   3.150   2.991
 5519SOL    HW217457   5.428   2.991   2.985
 5520SOL     OW17458   5.907   6.632   2.363
 5520SOL    HW117459   5.862   6.546   2.339
 5520SOL    HW217460   5.997   6.612   2.401
 5521SOL     OW17461   4.629   6.410   2.069
 5521SOL    HW117462   4.724   6.440   2.080
 5521SOL    HW217463   4.582   6.472   2.006
 5522SOL     OW17464   6.351   5.064   0.409
 5522SOL    HW117465   6.258   5.047   0.441
 5522SOL    HW217466   6.415   5.056   0.485
 5523SOL     OW17467   4.264   1.233   1.617
 5523SOL    HW117468   4.352   1.189   1.596
 5523SOL    HW217469   4.273   1.288   1.700
 5524SOL     OW17470   3.939   0.129   4.529
 5524SOL    HW117471   4.014   0.162   4.471
 5524SOL    HW217472   3.972   0.057   4.590
 5525SOL     OW17473   0.826   2.372   0.215
 5525SOL    HW117474   0.855   2.347   0.308
 5525SOL    HW217475   0.820   2.472   0.208
 5526SOL     OW17476   5.008   5.230   2.874
 5526SOL    HW117477   4.999   5.150   2.814
 5526SOL    HW217478   5.104   5.241   2.900
 5527SOL     OW17479   4.907   3.767   3.688
 5527SOL    HW117480   4.888   3.683   3.739
 5527SOL    HW217481   4.855   3.842   3.728
 5528SOL     OW17482   1.660   0.768   0.829
 5528SOL    HW117483   1.703   0.773   0.738
 5528SOL    HW217484   1.710   0.703   0.886
 5529SOL     OW17485   3.621   6.687   4.792
 5529SOL    HW117486   3.619   6.764   4.856
 5529SOL    HW217487   3.715   6.655   4.781
 5530SOL     OW17488   6.046   1.822   0.761
 5530SOL    HW117489   6.068   1.911   0.802
 5530SOL    HW217490   6.125   1.788   0.711
 5531SOL     OW17491   3.853   3.424   1.609
 5531SOL    HW117492   3.773   3.425   1.550
 5531SOL    HW217493   3.894   3.515   1.612
 5532SOL     OW17494   1.190   3.129   1.417
 5532SOL    HW117495   1.220   3.067   1.344
 5532SOL    HW217496   1.196   3.082   1.505
 5533SOL     OW17497   4.345   1.889   3.474
 5533SOL    HW117498   4.356   1.984   3.503
 5533SOL    HW217499   4.326   1.886   3.376
 5534SOL     OW17500   0.862   1.734   6.965
 5534SOL    HW117501   0.929   1.779   6.905
 5534SOL    HW217502   0.881   1.636   6.969
 5535SOL     OW17503   1.470   1.137   3.050
 5535SOL    HW117504   1.503   1.229   3.071
 5535SOL    HW217505   1.503   1.073   3.119
 5536SOL     OW17506   3.716   0.361   4.051
 5536SOL    HW117507   3.717   0.361   4.151
 5536SOL    HW217508   3.622   0.373   4.019
 5537SOL     OW17509   3.266   1.610   2.451
 5537SOL    HW117510   3.187   1.549   2.445
 5537SOL    HW217511   3.347   1.563   2.417
 5538SOL     OW17512   4.115   5.679   5.061
 5538SOL    HW117513   4.086   5.608   5.126
 5538SOL    HW217514   4.178   5.742   5.105
 5539SOL     OW17515   1.401   4.284   1.876
 5539SOL    HW117516   1.418   4.250   1.969
 5539SOL    HW217517   1.359   4.375   1.881
 5540SOL     OW17518   4.687   4.814   3.948
 5540SOL    HW117519   4.611   4.847   4.004
 5540SOL    HW217520   4.766   4.797   4.006
 5541SOL     OW17521   4.804   0.104   6.516
 5541SOL    HW117522   4.778   0.109   6.420
 5541SOL    HW217523   4.801   0.009   6.547
 5542SOL     OW17524   4.435   3.558   6.183
 5542SOL    HW117525   4.492   3.499   6.240
 5542SOL    HW217526   4.479   3.571   6.094
 5543SOL     OW17527   4.355   3.917   0.071
 5543SOL    HW117528   4.445   3.874   0.066
 5543SOL    HW217529   4.309   3.889   0.155
 5544SOL     OW17530   5.131   5.447   6.942
 5544SOL    HW117531   5.081   5.475   0.007
 5544SOL    HW217532   5.130   5.347   6.935
 5545SOL     OW17533   4.650   0.305   3.014
 5545SOL    HW117534   4.693   0.358   2.941
 5545SOL    HW217535   4.600   0.228   2.974
 5546SOL     OW17536   0.367   4.260   4.164
 5546SOL    HW117537   0.293   4.194   4.171
 5546SOL    HW217538   0.389   4.296   4.255
 5547SOL     OW17539   3.140   6.859   5.342
 5547SOL    HW117540   3.235   6.836   5.320
 5547SOL    HW217541   3.093   6.890   5.259
 5548SOL     OW17542   6.396   3.144   5.906
 5548SOL    HW117543   6.370   3.221   5.963
 5548SOL    HW217544   6.397   3.172   5.810
 5549SOL     OW17545   4.192   5.062   0.226
 5549SOL    HW117546   4.279   5.027   0.190
 5549SOL    HW217547   4.143   4.987   0.270
 5550SOL     OW17548   2.821   5.458   2.377
 5550SOL    HW117549   2.868   5.543   2.354
 5550SOL    HW217550   2.888   5.384   2.385
 5551SOL     OW17551   1.702   1.153   2.877
 5551SOL    HW117552   1.609   1.169   2.911
 5551SOL    HW217553   1.739   1.238   2.840
 5552SOL     OW17554   6.874   1.190   0.067
 5552SOL    HW117555   6.810   1.236   0.129
 5552SOL    HW217556   6.967   1.219   0.089
 5553SOL     OW17557   3.696   6.531   0.351
 5553SOL    HW117558   3.778   6.549   0.405
 5553SOL    HW217559   3.712   6.452   0.292
 5554SOL     OW17560   2.704   1.862   5.732
 5554SOL    HW117561   2.762   1.942   5.719
 5554SOL    HW217562   2.736   1.788   5.672
 5555SOL     OW17563   0.766   4.870   3.800
 5555SOL    HW117564   0.828   4.945   3.781
 5555SOL    HW217565   0.741   4.870   3.897
 5556SOL     OW17566   0.575   2.425   4.138
 5556SOL    HW117567   0.638   2.458   4.208
 5556SOL    HW217568   0.505   2.494   4.121
 5557SOL     OW17569   3.235   5.023   3.841
 5557SOL    HW117570   3.178   4.987   3.914
 5557SOL    HW217571   3.180   5.033   3.757
 5558SOL     OW17572   4.843   3.338   5.414
 5558SOL    HW117573   4.892   3.395   5.349
 5558SOL    HW217574   4.817   3.252   5.369
 5559SOL     OW17575   2.545   6.728   2.364
 5559SOL    HW117576   2.510   6.817   2.335
 5559SOL    HW217577   2.618   6.740   2.431
 5560SOL     OW17578   0.271   6.759   2.805
 5560SOL    HW117579   0.331   6.831   2.768
 5560SOL    HW217580   0.255   6.690   2.734
 5561SOL     OW17581   1.852   2.245   4.173
 5561SOL    HW117582   1.811   2.274   4.086
 5561SOL    HW217583   1.906   2.162   4.157
 5562SOL     OW17584   1.820   1.912   6.766
 5562SOL    HW117585   1.837   1.910   6.865
 5562SOL    HW217586   1.904   1.936   6.718
 5563SOL     OW17587   4.422   6.554   2.532
 5563SOL    HW117588   4.489   6.505   2.476
 5563SOL    HW217589   4.349   6.491   2.560
 5564SOL     OW17590   5.145   2.469   1.123
 5564SOL    HW117591   5.156   2.540   1.192
 5564SOL    HW217592   5.094   2.392   1.162
 5565SOL     OW17593   4.968   2.206   6.020
 5565SOL    HW117594   5.067   2.214   6.010
 5565SOL    HW217595   4.940   2.244   6.108
 5566SOL     OW17596   0.941   5.927   1.226
 5566SOL    HW117597   0.948   5.997   1.297
 5566SOL    HW217598   0.864   5.867   1.245
 5567SOL     OW17599   0.799   4.877   0.586
 5567SOL    HW117600   0.839   4.808   0.647
 5567SOL    HW217601   0.867   4.948   0.568
 5568SOL     OW17602   4.774   2.557   1.168
 5568SOL    HW117603   4.813   2.526   1.255
 5568SOL    HW217604   4.690   2.609   1.186
 5569SOL     OW17605   4.000   1.976   1.740
 5569SOL    HW117606   3.911   2.016   1.760
 5569SOL    HW217607   4.045   1.949   1.825
 5570SOL     OW17608   6.121   4.900   4.909
 5570SOL    HW117609   6.217   4.883   4.886
 5570SOL    HW217610   6.099   4.854   4.994
 5571SOL     OW17611   0.118   6.135   0.607
 5571SOL    HW117612   0.186   6.106   0.540
 5571SOL    HW217613   0.091   6.230   0.588
 5572SOL     OW17614   2.942   2.663   6.406
 5572SOL    HW117615   2.874   2.736   6.396
 5572SOL    HW217616   2.904   2.577   6.373
 5573SOL     OW17617   1.041   2.543   0.465
 5573SOL    HW117618   1.101   2.575   0.538
 5573SOL    HW217619   0.956   2.597   0.466
 5574SOL     OW17620   6.730   0.578   4.566
 5574SOL    HW117621   6.778   0.610   4.484
 5574SOL    HW217622   6.714   0.655   4.627
 5575SOL     OW17623   1.483   0.695   1.592
 5575SOL    HW117624   1.478   0.752   1.510
 5575SOL    HW217625   1.391   0.668   1.620
 5576SOL     OW17626   6.191   5.148   1.560
 5576SOL    HW117627   6.138   5.090   1.620
 5576SOL    HW217628   6.190   5.111   1.467
 5577SOL     OW17629   2.157   3.585   5.300
 5577SOL    HW117630   2.183   3.496   5.262
 5577SOL    HW217631   2.239   3.642   5.308
 5578SOL     OW17632   2.958   2.625   0.135
 5578SOL    HW117633   2.917   2.542   0.171
 5578SOL    HW217634   3.024   2.602   0.063
 5579SOL     OW17635   5.447   4.002   6.442
 5579SOL    HW117636   5.410   4.086   6.484
 5579SOL    HW217637   5.532   3.977   6.490
 5580SOL     OW17638   4.615   1.863   0.921
 5580SOL    HW117639   4.653   1.833   0.834
 5580SOL    HW217640   4.607   1.784   0.983
 5581SOL     OW17641   2.383   0.324   0.267
 5581SOL    HW117642   2.320   0.246   0.264
 5581SOL    HW217643   2.332   0.408   0.246
 5582SOL     OW17644   3.789   3.715   4.064
 5582SOL    HW117645   3.867   3.772   4.039
 5582SOL    HW217646   3.818   3.644   4.129
 5583SOL     OW17647   4.297   6.961   2.805
 5583SOL    HW117648   4.375   6.976   2.866
 5583SOL    HW217649   4.213   6.986   2.852
 5584SOL     OW17650   5.404   3.940   3.574
 5584SOL    HW117651   5.357   4.006   3.633
 5584SOL    HW217652   5.461   3.880   3.629
 5585SOL     OW17653   5.499   0.123   3.767
 5585SOL    HW117654   5.573   0.188   3.751
 5585SOL    HW217655   5.524   0.063   3.843
 5586SOL     OW17656   1.815   1.341   6.405
 5586SOL    HW117657   1.720   1.344   6.438
 5586SOL    HW217658   1.878   1.356   6.481
 5587SOL     OW17659   3.334   0.317   3.048
 5587SOL    HW117660   3.347   0.237   3.108
 5587SOL    HW217661   3.422   0.359   3.029
 5588SOL     OW17662   2.018   6.497   5.153
 5588SOL    HW117663   1.978   6.548   5.229
 5588SOL    HW217664   1.988   6.537   5.067
 5589SOL     OW17665   5.058   3.145   5.549
 5589SOL    HW117666   5.051   3.050   5.579
 5589SOL    HW217667   4.979   3.196   5.584
 5590SOL     OW17668   6.601   5.525   3.532
 5590SOL    HW117669   6.568   5.538   3.626
 5590SOL    HW217670   6.581   5.607   3.478
 5591SOL     OW17671   5.863   0.528   0.468
 5591SOL    HW117672   5.770   0.493   0.452
 5591SOL    HW217673   5.890   0.510   0.562
 5592SOL     OW17674   2.109   3.608   3.845
 5592SOL    HW117675   2.020   3.593   3.889
 5592SOL    HW217676   2.135   3.525   3.796
 5593SOL     OW17677   0.526   2.496   5.470
 5593SOL    HW117678   0.427   2.505   5.456
 5593SOL    HW217679   0.573   2.509   5.383
 5594SOL     OW17680   2.095   1.000   0.197
 5594SOL    HW117681   2.044   1.082   0.223
 5594SOL    HW217682   2.142   1.016   0.110
 5595SOL     OW17683   6.478   0.623   6.208
 5595SOL    HW117684   6.536   0.604   6.288
 5595SOL    HW217685   6.405   0.555   6.204
 5596SOL     OW17686   5.938   0.379   2.271
 5596SOL    HW117687   5.929   0.292   2.319
 5596SOL    HW217688   5.963   0.361   2.176
 5597SOL     OW17689   5.536   2.259   6.037
 5597SOL    HW117690   5.578   2.243   6.126
 5597SOL    HW217691   5.437   2.257   6.046
 5598SOL     OW17692   4.959   1.978   4.222
 5598SOL    HW117693   5.036   2.041   4.228
 5598SOL    HW217694   4.881   2.016   4.272
 5599SOL     OW17695   5.558   4.130   1.803
 5599SOL    HW117696   5.519   4.113   1.713
 5599SOL    HW217697   5.562   4.228   1.820
 5600SOL     OW17698   2.296   0.180   2.909
 5600SOL    HW117699   2.380   0.160   2.958
 5600SOL    HW217700   2.281   0.111   2.838
 5601SOL     OW17701   5.369   3.143   6.032
 5601SOL    HW117702   5.418   3.215   5.983
 5601SOL    HW217703   5.298   3.105   5.973
 5602SOL     OW17704   0.198   1.798   3.424
 5602SOL    HW117705   0.158   1.730   3.361
 5602SOL    HW217706   0.293   1.814   3.398
 5603SOL     OW17707   4.617   2.670   5.030
 5603SOL    HW117708   4.549   2.655   4.958
 5603SOL    HW217709   4.698   2.714   4.991
 5604SOL     OW17710   0.926   0.038   4.717
 5604SOL    HW117711   1.007   0.095   4.702
 5604SOL    HW217712   0.931   6.973   4.660
 5605SOL     OW17713   1.363   7.015   4.506
 5605SOL    HW117714   1.267   6.990   4.488
 5605SOL    HW217715   1.416   7.004   4.423
 5606SOL     OW17716   4.782   1.581   0.035
 5606SOL    HW117717   4.786   1.676   0.004
 5606SOL    HW217718   4.874   1.547   0.053
 5607SOL     OW17719   6.203   2.405   3.171
 5607SOL    HW117720   6.138   2.359   3.111
 5607SOL    HW217721   6.215   2.351   3.254
 5608SOL     OW17722   5.960   0.482   3.407
 5608SOL    HW117723   5.965   0.385   3.383
 5608SOL    HW217724   6.050   0.513   3.440
 5609SOL     OW17725   4.793   6.797   0.264
 5609SOL    HW117726   4.804   6.708   0.220
 5609SOL    HW217727   4.767   6.785   0.359
 5610SOL     OW17728   5.597   3.813   0.080
 5610SOL    HW117729   5.510   3.779   0.116
 5610SOL    HW217730   5.634   3.748   0.014
 5611SOL     OW17731   0.483   4.834   1.325
 5611SOL    HW117732   0.423   4.756   1.342
 5611SOL    HW217733   0.484   4.854   1.227
 5612SOL     OW17734   2.794   2.659   6.910
 5612SOL    HW117735   2.845   2.640   6.826
 5612SOL    HW217736   2.857   2.662   6.988
 5613SOL     OW17737   0.230   5.237   4.591
 5613SOL    HW117738   0.207   5.139   4.594
 5613SOL    HW217739   0.156   5.290   4.633
 5614SOL     OW17740   6.290   1.778   4.583
 5614SOL    HW117741   6.257   1.865   4.620
 5614SOL    HW217742   6.238   1.754   4.501
 5615SOL     OW17743   0.359   2.220   2.701
 5615SOL    HW117744   0.424   2.148   2.726
 5615SOL    HW217745   0.409   2.305   2.683
 5616SOL     OW17746   2.006   1.983   4.470
 5616SOL    HW117747   2.068   1.906   4.459
 5616SOL    HW217748   1.919   1.962   4.425
 5617SOL     OW17749   1.976   5.353   5.330
 5617SOL    HW117750   1.882   5.327   5.351
 5617SOL    HW217751   2.037   5.277   5.353
 5618SOL     OW17752   6.868   4.988   3.601
 5618SOL    HW117753   6.827   4.993   3.510
 5618SOL    HW217754   6.858   5.076   3.647
 5619SOL     OW17755   3.045   3.122   3.325
 5619SOL    HW117756   2.985   3.101   3.402
 5619SOL    HW217757   3.133   3.156   3.360
 5620SOL     OW17758   4.639   3.874   5.964
 5620SOL    HW117759   4.735   3.847   5.971
 5620SOL    HW217760   4.612   3.925   6.046
 5621SOL     OW17761   1.604   2.996   5.763
 5621SOL    HW117762   1.656   2.925   5.811
 5621SOL    HW217763   1.661   3.038   5.693
 5622SOL     OW17764   4.608   5.801   4.625
 5622SOL    HW117765   4.679   5.749   4.672
 5622SOL    HW217766   4.519   5.761   4.645
 5623SOL     OW17767   4.792   6.404   4.234
 5623SOL    HW117768   4.805   6.305   4.227
 5623SOL    HW217769   4.871   6.451   4.195
 5624SOL     OW17770   0.357   5.245   3.683
 5624SOL    HW117771   0.428   5.265   3.616
 5624SOL    HW217772   0.271   5.287   3.654
 5625SOL     OW17773   1.334   5.649   4.569
 5625SOL    HW117774   1.395   5.728   4.563
 5625SOL    HW217775   1.268   5.651   4.494
 5626SOL     OW17776   2.018   4.735   4.122
 5626SOL    HW117777   2.076   4.663   4.161
 5626SOL    HW217778   1.943   4.693   4.070
 5627SOL     OW17779   0.940   5.801   6.540
 5627SOL    HW117780   0.949   5.813   6.441
 5627SOL    HW217781   0.875   5.867   6.577
 5628SOL     OW17782   2.797   3.441   0.759
 5628SOL    HW117783   2.745   3.371   0.807
 5628SOL    HW217784   2.746   3.527   0.759
 5629SOL     OW17785   4.149   3.610   0.977
 5629SOL    HW117786   4.093   3.691   0.985
 5629SOL    HW217787   4.091   3.528   0.975
 5630SOL     OW17788   1.761   4.244   6.473
 5630SOL    HW117789   1.832   4.313   6.460
 5630SOL    HW217790   1.794   4.156   6.439
 5631SOL     OW17791   4.813   0.816   1.732
 5631SOL    HW117792   4.795   0.757   1.653
 5631SOL    HW217793   4.866   0.766   1.800
 5632SOL     OW17794   4.881   1.084   5.904
 5632SOL    HW117795   4.981   1.078   5.903
 5632SOL    HW217796   4.850   1.103   5.997
 5633SOL     OW17797   0.415   4.828   4.692
 5633SOL    HW117798   0.498   4.817   4.747
 5633SOL    HW217799   0.402   4.747   4.634
 5634SOL     OW17800   2.642   5.186   5.549
 5634SOL    HW117801   2.689   5.177   5.461
 5634SOL    HW217802   2.692   5.136   5.619
 5635SOL     OW17803   3.049   6.999   6.820
 5635SOL    HW117804   3.004   7.015   6.908
 5635SOL    HW217805   3.141   0.021   6.822
 5636SOL     OW17806   5.552   1.214   5.549
 5636SOL    HW117807   5.552   1.271   5.467
 5636SOL    HW217808   5.606   1.132   5.533
 5637SOL     OW17809   5.653   6.042   4.509
 5637SOL    HW117810   5.622   5.966   4.566
 5637SOL    HW217811   5.687   6.007   4.421
 5638SOL     OW17812   5.062   6.324   1.686
 5638SOL    HW117813   4.997   6.386   1.642
 5638SOL    HW217814   5.064   6.237   1.637
 5639SOL     OW17815   1.974   0.375   2.069
 5639SOL    HW117816   1.961   0.474   2.061
 5639SOL    HW217817   1.946   0.331   1.984
 5640SOL     OW17818   2.263   0.038   2.688
 5640SOL    HW117819   2.292   6.962   2.666
 5640SOL    HW217820   2.302   0.102   2.622
 5641SOL     OW17821   0.564   4.441   5.573
 5641SOL    HW117822   0.566   4.515   5.640
 5641SOL    HW217823   0.614   4.362   5.610
 5642SOL     OW17824   0.252   5.000   6.226
 5642SOL    HW117825   0.242   5.098   6.205
 5642SOL    HW217826   0.302   4.956   6.151
 5643SOL     OW17827   3.506   1.610   4.810
 5643SOL    HW117828   3.498   1.708   4.832
 5643SOL    HW217829   3.588   1.573   4.853
 5644SOL     OW17830   5.271   1.822   4.291
 5644SOL    HW117831   5.242   1.734   4.255
 5644SOL    HW217832   5.369   1.818   4.313
 5645SOL     OW17833   5.608   4.167   2.681
 5645SOL    HW117834   5.620   4.191   2.777
 5645SOL    HW217835   5.529   4.106   2.672
 5646SOL     OW17836   1.117   5.274   3.666
 5646SOL    HW117837   1.067   5.358   3.647
 5646SOL    HW217838   1.182   5.255   3.592
 5647SOL     OW17839   6.824   6.360   6.599
 5647SOL    HW117840   6.847   6.361   6.696
 5647SOL    HW217841   6.725   6.363   6.587
 5648SOL     OW17842   1.927   1.495   3.626
 5648SOL    HW117843   1.925   1.411   3.573
 5648SOL    HW217844   1.950   1.572   3.566
 5649SOL     OW17845   1.585   0.266   4.983
 5649SOL    HW117846   1.552   0.245   5.074
 5649SOL    HW217847   1.640   0.349   4.985
 5650SOL     OW17848   0.262   4.669   1.017
 5650SOL    HW117849   0.258   4.769   1.021
 5650SOL    HW217850   0.175   4.633   0.984
 5651SOL     OW17851   0.283   2.187   1.449
 5651SOL    HW117852   0.359   2.242   1.483
 5651SOL    HW217853   0.212   2.247   1.412
 5652SOL     OW17854   4.835   5.856   2.279
 5652SOL    HW117855   4.849   5.933   2.341
 5652SOL    HW217856   4.741   5.823   2.288
 5653SOL     OW17857   0.191   6.507   5.959
 5653SOL    HW117858   0.142   6.576   5.905
 5653SOL    HW217859   0.126   6.446   6.003
 5654SOL     OW17860   0.654   0.217   6.086
 5654SOL    HW117861   0.688   0.129   6.121
 5654SOL    HW217862   0.596   0.260   6.156
 5655SOL     OW17863   0.910   2.604   4.421
 5655SOL    HW117864   0.900   2.688   4.473
 5655SOL    HW217865   0.821   2.562   4.405
 5656SOL     OW17866   2.985   4.545   1.125
 5656SOL    HW117867   3.036   4.473   1.078
 5656SOL    HW217868   2.954   4.512   1.214
 5657SOL     OW17869   4.994   6.804   1.411
 5657SOL    HW117870   4.961   6.779   1.320
 5657SOL    HW217871   4.997   6.904   1.420
 5658SOL     OW17872   2.443   6.782   6.033
 5658SOL    HW117873   2.484   6.844   5.966
 5658SOL    HW217874   2.458   6.817   6.125
 5659SOL     OW17875   3.249   3.246   2.947
 5659SOL    HW117876   3.244   3.151   2.977
 5659SOL    HW217877   3.208   3.305   3.017
 5660SOL     OW17878   5.319   0.788   6.816
 5660SOL    HW117879   5.416   0.782   6.796
 5660SOL    HW217880   5.301   0.757   6.909
 5661SOL     OW17881   6.888   5.390   5.656
 5661SOL    HW117882   6.967   5.329   5.653
 5661SOL    HW217883   6.914   5.480   5.622
 5662SOL     OW17884   2.546   5.056   4.246
 5662SOL    HW117885   2.466   5.074   4.189
 5662SOL    HW217886   2.560   5.132   4.308
 5663SOL     OW17887   1.254   4.208   6.896
 5663SOL    HW117888   1.336   4.255   6.928
 5663SOL    HW217889   1.215   4.257   6.819
 5664SOL     OW17890   0.404   3.900   3.519
 5664SOL    HW117891   0.436   3.810   3.490
 5664SOL    HW217892   0.468   3.970   3.487
 5665SOL     OW17893   1.623   1.515   6.882
 5665SOL    HW117894   1.597   1.583   6.951
 5665SOL    HW217895   1.610   1.553   6.791
 5666SOL     OW17896   4.823   5.888   1.372
 5666SOL    HW117897   4.914   5.852   1.350
 5666SOL    HW217898   4.755   5.844   1.312
 5667SOL     OW17899   0.465   4.721   3.476
 5667SOL    HW117900   0.529   4.711   3.552
 5667SOL    HW217901   0.388   4.778   3.504
 5668SOL     OW17902   5.653   2.005   6.627
 5668SOL    HW117903   5.672   1.907   6.629
 5668SOL    HW217904   5.566   2.021   6.579
 5669SOL     OW17905   0.090   3.836   6.181
 5669SOL    HW117906   0.146   3.881   6.111
 5669SOL    HW217907   0.023   3.777   6.137
 5670SOL     OW17908   0.013   3.232   3.615
 5670SOL    HW117909   6.957   3.251   3.681
 5670SOL    HW217910   6.992   3.231   3.523
 5671SOL     OW17911   1.377   7.007   6.211
 5671SOL    HW117912   1.350   0.034   6.297
 5671SOL    HW217913   1.295   6.975   6.163
 5672SOL     OW17914   4.398   4.618   6.210
 5672SOL    HW117915   4.494   4.621   6.182
 5672SOL    HW217916   4.339   4.625   6.130
 5673SOL     OW17917   0.439   6.975   1.815
 5673SOL    HW117918   0.425   6.884   1.856
 5673SOL    HW217919   0.352   7.010   1.781
 5674SOL     OW17920   0.023   3.957   2.062
 5674SOL    HW117921   6.974   3.886   2.039
 5674SOL    HW217922   0.111   3.935   2.021
 5675SOL     OW17923   4.108   2.502   5.462
 5675SOL    HW117924   4.089   2.518   5.365
 5675SOL    HW217925   4.118   2.590   5.509
 5676SOL     OW17926   2.033   1.270   1.732
 5676SOL    HW117927   1.938   1.269   1.700
 5676SOL    HW217928   2.090   1.317   1.665
 5677SOL     OW17929   0.711   1.745   3.537
 5677SOL    HW117930   0.711   1.780   3.444
 5677SOL    HW217931   0.805   1.734   3.569
 5678SOL     OW17932   3.431   6.609   2.873
 5678SOL    HW117933   3.523   6.644   2.855
 5678SOL    HW217934   3.436   6.533   2.937
 5679SOL     OW17935   1.837   6.877   4.710
 5679SOL    HW117936   1.882   6.962   4.737
 5679SOL    HW217937   1.859   6.857   4.614
 5680SOL     OW17938   1.828   5.734   0.666
 5680SOL    HW117939   1.825   5.799   0.742
 5680SOL    HW217940   1.743   5.680   0.664
 5681SOL     OW17941   1.301   3.596   6.609
 5681SOL    HW117942   1.203   3.604   6.594
 5681SOL    HW217943   1.348   3.588   6.521
 5682SOL     OW17944   2.248   4.287   5.986
 5682SOL    HW117945   2.221   4.327   5.899
 5682SOL    HW217946   2.329   4.335   6.020
 5683SOL     OW17947   4.537   1.893   6.251
 5683SOL    HW117948   4.606   1.896   6.323
 5683SOL    HW217949   4.560   1.959   6.179
 5684SOL     OW17950   4.051   3.508   4.689
 5684SOL    HW117951   4.017   3.601   4.708
 5684SOL    HW217952   4.102   3.475   4.768
 5685SOL     OW17953   1.166   4.568   1.524
 5685SOL    HW117954   1.108   4.568   1.442
 5685SOL    HW217955   1.259   4.540   1.498
 5686SOL     OW17956   3.124   0.707   0.178
 5686SOL    HW117957   3.187   0.628   0.174
 5686SOL    HW217958   3.032   0.677   0.155
 5687SOL     OW17959   6.200   3.841   4.829
 5687SOL    HW117960   6.187   3.939   4.814
 5687SOL    HW217961   6.138   3.790   4.768
 5688SOL     OW17962   6.309   1.755   0.530
 5688SOL    HW117963   6.293   1.737   0.434
 5688SOL    HW217964   6.300   1.670   0.582
 5689SOL     OW17965   3.970   1.221   0.209
 5689SOL    HW117966   3.944   1.292   0.144
 5689SOL    HW217967   3.927   1.240   0.297
 5690SOL     OW17968   3.128   6.116   1.010
 5690SOL    HW117969   3.032   6.137   1.026
 5690SOL    HW217970   3.183   6.199   1.017
 5691SOL     OW17971   3.230   6.302   2.011
 5691SOL    HW117972   3.192   6.288   1.919
 5691SOL    HW217973   3.179   6.247   2.077
 5692SOL     OW17974   6.824   2.307   5.869
 5692SOL    HW117975   6.798   2.285   5.775
 5692SOL    HW217976   6.786   2.238   5.931
 5693SOL     OW17977   5.494   2.873   2.092
 5693SOL    HW117978   5.515   2.965   2.127
 5693SOL    HW217979   5.487   2.876   1.992
 5694SOL     OW17980   0.596   1.055   3.884
 5694SOL    HW117981   0.631   0.962   3.891
 5694SOL    HW217982   0.663   1.114   3.838
 5695SOL     OW17983   1.352   2.289   3.190
 5695SOL    HW117984   1.316   2.379   3.214
 5695SOL    HW217985   1.283   2.238   3.139
 5696SOL     OW17986   2.152   0.531   3.152
 5696SOL    HW117987   2.102   0.466   3.095
 5696SOL    HW217988   2.234   0.487   3.189
 5697SOL     OW17989   6.259   1.939   1.160
 5697SOL    HW117990   6.165   1.963   1.135
 5697SOL    HW217991   6.302   1.889   1.085
 5698SOL     OW17992   0.500   2.281   2.373
 5698SOL    HW117993   0.576   2.279   2.437
 5698SOL    HW217994   0.528   2.329   2.290
 5699SOL     OW17995   6.510   2.058   3.599
 5699SOL    HW117996   6.580   2.062   3.527
 5699SOL    HW217997   6.423   2.028   3.559
 5700SOL     OW17998   6.667   6.184   4.886
 5700SOL    HW117999   6.740   6.128   4.926
 5700SOL    HW218000   6.580   6.163   4.931
 5701SOL     OW18001   1.170   5.554   3.521
 5701SOL    HW118002   1.076   5.550   3.554
 5701SOL    HW218003   1.170   5.583   3.425
 5702SOL     OW18004   1.918   6.803   6.056
 5702SOL    HW118005   1.943   6.719   6.009
 5702SOL    HW218006   1.905   6.784   6.153
 5703SOL     OW18007   4.784   4.692   0.340
 5703SOL    HW118008   4.738   4.778   0.364
 5703SOL    HW218009   4.865   4.680   0.398
 5704SOL     OW18010   3.987   5.555   2.536
 5704SOL    HW118011   4.038   5.560   2.621
 5704SOL    HW218012   3.994   5.642   2.487
 5705SOL     OW18013   6.266   1.198   0.122
 5705SOL    HW118014   6.347   1.141   0.109
 5705SOL    HW218015   6.231   1.227   0.033
 5706SOL     OW18016   1.413   1.508   0.597
 5706SOL    HW118017   1.418   1.409   0.584
 5706SOL    HW218018   1.317   1.535   0.609
 5707SOL     OW18019   1.068   6.980   0.128
 5707SOL    HW118020   1.075   6.902   0.066
 5707SOL    HW218021   1.005   6.958   0.202
 5708SOL     OW18022   5.523   6.552   1.646
 5708SOL    HW118023   5.470   6.469   1.666
 5708SOL    HW218024   5.515   6.573   1.548
 5709SOL     OW18025   0.928   6.334   3.528
 5709SOL    HW118026   0.993   6.340   3.453
 5709SOL    HW218027   0.864   6.411   3.524
 5710SOL     OW18028   2.567   3.496   5.364
 5710SOL    HW118029   2.569   3.486   5.463
 5710SOL    HW218030   2.502   3.568   5.339
 5711SOL     OW18031   5.388   0.111   2.978
 5711SOL    HW118032   5.429   0.145   2.893
 5711SOL    HW218033   5.454   0.116   3.052
 5712SOL     OW18034   0.722   6.645   5.543
 5712SOL    HW118035   0.692   6.578   5.611
 5712SOL    HW218036   0.672   6.630   5.458
 5713SOL     OW18037   1.001   2.307   1.090
 5713SOL    HW118038   0.962   2.391   1.129
 5713SOL    HW218039   0.960   2.289   1.001
 5714SOL     OW18040   1.433   6.523   6.876
 5714SOL    HW118041   1.391   6.433   6.883
 5714SOL    HW218042   1.379   6.580   6.814
 5715SOL     OW18043   1.249   5.958   3.189
 5715SOL    HW118044   1.305   5.934   3.269
 5715SOL    HW218045   1.185   6.030   3.214
 5716SOL     OW18046   1.066   3.747   5.383
 5716SOL    HW118047   0.967   3.737   5.369
 5716SOL    HW218048   1.085   3.755   5.481
 5717SOL     OW18049   1.398   5.489   0.203
 5717SOL    HW118050   1.407   5.425   0.127
 5717SOL    HW218051   1.387   5.582   0.167
 5718SOL     OW18052   1.605   4.262   6.249
 5718SOL    HW118053   1.520   4.248   6.301
 5718SOL    HW218054   1.684   4.245   6.308
 5719SOL     OW18055   2.656   1.335   6.357
 5719SOL    HW118056   2.629   1.354   6.263
 5719SOL    HW218057   2.574   1.312   6.411
 5720SOL     OW18058   0.678   4.648   4.981
 5720SOL    HW118059   0.662   4.746   4.995
 5720SOL    HW218060   0.591   4.602   4.962
 5721SOL     OW18061   0.849   3.847   0.610
 5721SOL    HW118062   0.773   3.803   0.561
 5721SOL    HW218063   0.837   3.833   0.708
 5722SOL     OW18064   5.655   1.735   5.186
 5722SOL    HW118065   5.755   1.746   5.185
 5722SOL    HW218066   5.629   1.666   5.119
 5723SOL     OW18067   4.198   4.009   0.631
 5723SOL    HW118068   4.148   3.971   0.553
 5723SOL    HW218069   4.246   4.092   0.603
 5724SOL     OW18070   3.991   2.157   5.306
 5724SOL    HW118071   3.919   2.102   5.263
 5724SOL    HW218072   3.954   2.246   5.332
 5725SOL     OW18073   5.351   5.957   3.366
 5725SOL    HW118074   5.419   5.967   3.293
 5725SOL    HW218075   5.350   6.041   3.421
 5726SOL     OW18076   6.375   3.284   3.852
 5726SOL    HW118077   6.379   3.309   3.949
 5726SOL    HW218078   6.422   3.197   3.839
 5727SOL     OW18079   6.415   3.432   3.368
 5727SOL    HW118080   6.509   3.464   3.357
 5727SOL    HW218081   6.355   3.510   3.382
 5728SOL     OW18082   4.799   1.792   6.124
 5728SOL    HW118083   4.756   1.715   6.076
 5728SOL    HW218084   4.888   1.811   6.083
 5729SOL     OW18085   1.109   1.735   0.913
 5729SOL    HW118086   1.018   1.704   0.883
 5729SOL    HW218087   1.157   1.658   0.955
 5730SOL     OW18088   4.503   5.514   5.305
 5730SOL    HW118089   4.419   5.465   5.329
 5730SOL    HW218090   4.535   5.567   5.383
 5731SOL     OW18091   2.140   6.460   3.606
 5731SOL    HW118092   2.178   6.537   3.555
 5731SOL    HW218093   2.041   6.456   3.592
 5732SOL     OW18094   6.362   4.493   5.064
 5732SOL    HW118095   6.427   4.439   5.011
 5732SOL    HW218096   6.399   4.511   5.155
 5733SOL     OW18097   3.482   0.819   5.755
 5733SOL    HW118098   3.537   0.767   5.690
 5733SOL    HW218099   3.541   0.875   5.813
 5734SOL     OW18100   0.987   6.670   6.141
 5734SOL    HW118101   0.927   6.724   6.199
 5734SOL    HW218102   0.959   6.574   6.142
 5735SOL     OW18103   3.548   1.602   2.219
 5735SOL    HW118104   3.546   1.575   2.315
 5735SOL    HW218105   3.509   1.529   2.163
 5736SOL     OW18106   5.171   4.643   0.277
 5736SOL    HW118107   5.254   4.687   0.311
 5736SOL    HW218108   5.191   4.548   0.255
 5737SOL     OW18109   5.368   6.239   0.832
 5737SOL    HW118110   5.364   6.300   0.911
 5737SOL    HW218111   5.338   6.148   0.860
 5738SOL     OW18112   3.658   1.639   6.926
 5738SOL    HW118113   3.568   1.665   6.891
 5738SOL    HW218114   3.647   1.586   7.010
 5739SOL     OW18115   1.397   6.856   5.650
 5739SOL    HW118116   1.314   6.881   5.700
 5739SOL    HW218117   1.392   6.760   5.623
 5740SOL     OW18118   4.460   3.325   1.008
 5740SOL    HW118119   4.471   3.421   0.980
 5740SOL    HW218120   4.363   3.304   1.019
 5741SOL     OW18121   0.078   3.618   4.139
 5741SOL    HW118122   0.170   3.592   4.167
 5741SOL    HW218123   0.050   3.563   4.060
 5742SOL     OW18124   4.395   6.645   3.325
 5742SOL    HW118125   4.457   6.674   3.397
 5742SOL    HW218126   4.363   6.726   3.274
 5743SOL     OW18127   3.565   5.311   5.442
 5743SOL    HW118128   3.588   5.224   5.485
 5743SOL    HW218129   3.638   5.377   5.460
 5744SOL     OW18130   5.554   1.218   2.386
 5744SOL    HW118131   5.599   1.129   2.374
 5744SOL    HW218132   5.469   1.205   2.437
 5745SOL     OW18133   2.457   0.777   4.117
 5745SOL    HW118134   2.421   0.869   4.137
 5745SOL    HW218135   2.542   0.786   4.064
 5746SOL     OW18136   4.785   6.825   2.080
 5746SOL    HW118137   4.772   6.893   2.007
 5746SOL    HW218138   4.764   6.866   2.168
 5747SOL     OW18139   0.637   5.764   1.840
 5747SOL    HW118140   0.715   5.826   1.829
 5747SOL    HW218141   0.594   5.750   1.751
 5748SOL     OW18142   1.925   0.115   1.029
 5748SOL    HW118143   1.971   0.163   0.955
 5748SOL    HW218144   1.958   0.020   1.033
 5749SOL     OW18145   1.666   6.323   5.092
 5749SOL    HW118146   1.710   6.273   5.017
 5749SOL    HW218147   1.584   6.368   5.057
 5750SOL     OW18148   6.238   5.872   5.812
 5750SOL    HW118149   6.318   5.903   5.863
 5750SOL    HW218150   6.170   5.945   5.810
 5751SOL     OW18151   2.101   2.722   5.060
 5751SOL    HW118152   2.128   2.818   5.066
 5751SOL    HW218153   2.045   2.698   5.140
 5752SOL     OW18154   5.321   0.058   0.596
 5752SOL    HW118155   5.409   0.060   0.644
 5752SOL    HW218156   5.308   6.986   0.552
 5753SOL     OW18157   2.868   3.568   4.553
 5753SOL    HW118158   2.852   3.509   4.632
 5753SOL    HW218159   2.781   3.583   4.505
 5754SOL     OW18160   1.181   5.688   1.488
 5754SOL    HW118161   1.167   5.590   1.485
 5754SOL    HW218162   1.255   5.709   1.553
 5755SOL     OW18163   1.716   1.981   5.616
 5755SOL    HW118164   1.778   1.903   5.615
 5755SOL    HW218165   1.698   2.009   5.711
 5756SOL     OW18166   0.407   0.267   2.616
 5756SOL    HW118167   0.397   0.366   2.626
 5756SOL    HW218168   0.503   0.246   2.596
 5757SOL     OW18169   0.256   5.279   4.097
 5757SOL    HW118170   0.278   5.376   4.092
 5757SOL    HW218171   0.333   5.230   4.138
 5758SOL     OW18172   2.469   1.368   2.812
 5758SOL    HW118173   2.374   1.338   2.803
 5758SOL    HW218174   2.519   1.348   2.727
 5759SOL     OW18175   4.813   1.274   0.405
 5759SOL    HW118176   4.809   1.339   0.481
 5759SOL    HW218177   4.851   1.187   0.438
 5760SOL     OW18178   6.640   2.394   1.247
 5760SOL    HW118179   6.691   2.418   1.164
 5760SOL    HW218180   6.558   2.343   1.222
 5761SOL     OW18181   5.932   5.233   5.840
 5761SOL    HW118182   5.917   5.267   5.933
 5761SOL    HW218183   5.845   5.203   5.801
 5762SOL     OW18184   4.533   4.162   0.939
 5762SOL    HW118185   4.433   4.160   0.929
 5762SOL    HW218186   4.561   4.250   0.976
 5763SOL     OW18187   5.898   6.391   1.076
 5763SOL    HW118188   5.829   6.432   1.016
 5763SOL    HW218189   5.854   6.353   1.157
 5764SOL     OW18190   4.327   5.126   4.273
 5764SOL    HW118191   4.422   5.139   4.245
 5764SOL    HW218192   4.267   5.175   4.209
 5765SOL     OW18193   6.114   3.517   0.565
 5765SOL    HW118194   6.174   3.475   0.633
 5765SOL    HW218195   6.167   3.540   0.484
 5766SOL     OW18196   1.636   1.948   5.025
 5766SOL    HW118197   1.553   1.932   4.971
 5766SOL    HW218198   1.685   2.027   4.988
 5767SOL     OW18199   2.600   0.457   0.690
 5767SOL    HW118200   2.616   0.415   0.600
 5767SOL    HW218201   2.617   0.556   0.684
 5768SOL     OW18202   0.544   0.107   3.636
 5768SOL    HW118203   0.516   0.031   3.695
 5768SOL    HW218204   0.486   0.108   3.554
 5769SOL     OW18205   2.749   5.651   4.660
 5769SOL    HW118206   2.843   5.684   4.667
 5769SOL    HW218207   2.750   5.551   4.648
 5770SOL     OW18208   6.696   0.050   6.314
 5770SOL    HW118209   6.670   6.985   6.263
 5770SOL    HW218210   6.795   0.063   6.308
 5771SOL     OW18211   1.583   0.127   4.071
 5771SOL    HW118212   1.644   0.107   3.995
 5771SOL    HW218213   1.624   0.095   4.157
 5772SOL     OW18214   5.571   1.065   0.901
 5772SOL    HW118215   5.549   0.975   0.941
 5772SOL    HW218216   5.517   1.135   0.947
 5773SOL     OW18217   4.481   1.018   3.627
 5773SOL    HW118218   4.412   0.953   3.659
 5773SOL    HW218219   4.535   0.976   3.554
 5774SOL     OW18220   2.767   0.476   4.330
 5774SOL    HW118221   2.812   0.488   4.418
 5774SOL    HW218222   2.835   0.479   4.257
 5775SOL     OW18223   1.177   0.110   2.541
 5775SOL    HW118224   1.107   0.085   2.608
 5775SOL    HW218225   1.256   0.149   2.588
 5776SOL     OW18226   0.740   6.870   3.653
 5776SOL    HW118227   0.837   6.894   3.652
 5776SOL    HW218228   0.698   6.907   3.736
 5777SOL     OW18229   0.707   0.298   4.484
 5777SOL    HW118230   0.670   0.206   4.500
 5777SOL    HW218231   0.763   0.326   4.563
 5778SOL     OW18232   1.694   0.135   0.331
 5778SOL    HW118233   1.785   0.117   0.293
 5778SOL    HW218234   1.700   0.213   0.394
 5779SOL     OW18235   4.496   2.686   0.598
 5779SOL    HW118236   4.409   2.653   0.635
 5779SOL    HW218237   4.489   2.784   0.581
 5780SOL     OW18238   6.094   5.869   3.847
 5780SOL    HW118239   6.096   5.930   3.926
 5780SOL    HW218240   6.014   5.809   3.852
 5781SOL     OW18241   0.282   4.548   4.556
 5781SOL    HW118242   0.203   4.514   4.505
 5781SOL    HW218243   0.260   4.550   4.654
 5782SOL     OW18244   1.990   1.674   0.705
 5782SOL    HW118245   1.926   1.707   0.774
 5782SOL    HW218246   2.065   1.740   0.696
 5783SOL     OW18247   1.222   0.646   1.715
 5783SOL    HW118248   1.273   0.708   1.776
 5783SOL    HW218249   1.144   0.608   1.765
 5784SOL     OW18250   0.295   6.367   5.560
 5784SOL    HW118251   0.226   6.295   5.566
 5784SOL    HW218252   0.297   6.405   5.467
 5785SOL     OW18253   2.189   2.306   0.357
 5785SOL    HW118254   2.188   2.344   0.449
 5785SOL    HW218255   2.263   2.348   0.304
 5786SOL     OW18256   0.367   3.487   0.269
 5786SOL    HW118257   0.409   3.505   0.358
 5786SOL    HW218258   0.373   3.569   0.212
 5787SOL     OW18259   2.375   1.822   4.978
 5787SOL    HW118260   2.417   1.857   4.894
 5787SOL    HW218261   2.322   1.740   4.958
 5788SOL     OW18262   2.545   1.459   1.745
 5788SOL    HW118263   2.593   1.545   1.758
 5788SOL    HW218264   2.597   1.399   1.684
 5789SOL     OW18265   3.310   4.995   0.279
 5789SOL    HW118266   3.257   4.925   0.327
 5789SOL    HW218267   3.251   5.038   0.210
 5790SOL     OW18268   1.342   4.282   4.681
 5790SOL    HW118269   1.427   4.281   4.735
 5790SOL    HW218270   1.363   4.310   4.587
 5791SOL     OW18271   3.867   1.322   2.201
 5791SOL    HW118272   3.875   1.319   2.101
 5791SOL    HW218273   3.856   1.416   2.231
 5792SOL     OW18274   6.527   3.083   2.593
 5792SOL    HW118275   6.458   3.030   2.543
 5792SOL    HW218276   6.575   3.143   2.530
 5793SOL     OW18277   5.217   0.887   3.904
 5793SOL    HW118278   5.286   0.815   3.905
 5793SOL    HW218279   5.138   0.859   3.959
 5794SOL     OW18280   2.901   1.358   0.458
 5794SOL    HW118281   2.878   1.353   0.555
 5794SOL    HW218282   2.883   1.451   0.424
 5795SOL     OW18283   6.632   6.803   0.518
 5795SOL    HW118284   6.648   6.857   0.601
 5795SOL    HW218285   6.711   6.743   0.502
 5796SOL     OW18286   4.299   1.585   6.739
 5796SOL    HW118287   4.259   1.629   6.819
 5796SOL    HW218288   4.398   1.578   6.751
 5797SOL     OW18289   4.642   2.018   6.025
 5797SOL    HW118290   4.652   2.015   5.925
 5797SOL    HW218291   4.686   1.938   6.065
 5798SOL     OW18292   0.700   4.487   5.315
 5798SOL    HW118293   0.742   4.403   5.350
 5798SOL    HW218294   0.621   4.510   5.372
 5799SOL     OW18295   6.590   0.602   2.512
 5799SOL    HW118296   6.605   0.652   2.597
 5799SOL    HW218297   6.492   0.593   2.496
 5800SOL     OW18298   6.318   6.383   1.942
 5800SOL    HW118299   6.380   6.439   1.887
 5800SOL    HW218300   6.230   6.429   1.951
 5801SOL     OW18301   1.919   2.160   3.111
 5801SOL    HW118302   1.874   2.086   3.162
 5801SOL    HW218303   1.954   2.228   3.175
 5802SOL     OW18304   1.470   4.635   1.402
 5802SOL    HW118305   1.508   4.616   1.312
 5802SOL    HW218306   1.523   4.588   1.472
 5803SOL     OW18307   1.983   4.820   2.657
 5803SOL    HW118308   2.051   4.893   2.645
 5803SOL    HW218309   1.938   4.802   2.569
 5804SOL     OW18310   0.316   4.759   4.124
 5804SOL    HW118311   0.404   4.753   4.171
 5804SOL    HW218312   0.319   4.833   4.056
 5805SOL     OW18313   2.512   3.898   6.601
 5805SOL    HW118314   2.501   3.973   6.536
 5805SOL    HW218315   2.541   3.815   6.552
 5806SOL     OW18316   6.857   6.059   5.371
 5806SOL    HW118317   6.767   6.016   5.362
 5806SOL    HW218318   6.914   6.034   5.292
 5807SOL     OW18319   0.422   3.345   2.497
 5807SOL    HW118320   0.446   3.418   2.562
 5807SOL    HW218321   0.506   3.300   2.466
 5808SOL     OW18322   5.449   5.483   4.873
 5808SOL    HW118323   5.365   5.438   4.840
 5808SOL    HW218324   5.451   5.482   4.973
 5809SOL     OW18325   5.980   1.892   4.881
 5809SOL    HW118326   6.025   1.906   4.793
 5809SOL    HW218327   5.884   1.920   4.874
 5810SOL     OW18328   3.706   1.706   4.433
 5810SOL    HW118329   3.634   1.640   4.456
 5810SOL    HW218330   3.694   1.789   4.488
 5811SOL     OW18331   3.138   0.313   5.775
 5811SOL    HW118332   3.183   0.247   5.835
 5811SOL    HW218333   3.079   0.264   5.711
 5812SOL     OW18334   6.491   2.299   4.505
 5812SOL    HW118335   6.569   2.248   4.469
 5812SOL    HW218336   6.524   2.379   4.556
 5813SOL     OW18337   1.805   1.819   0.867
 5813SOL    HW118338   1.796   1.807   0.966
 5813SOL    HW218339   1.715   1.818   0.825
 5814SOL     OW18340   6.226   4.573   1.063
 5814SOL    HW118341   6.211   4.509   0.987
 5814SOL    HW218342   6.240   4.521   1.147
 5815SOL     OW18343   3.834   2.114   4.363
 5815SOL    HW118344   3.742   2.118   4.326
 5815SOL    HW218345   3.885   2.040   4.319
 5816SOL     OW18346   4.557   5.696   6.936
 5816SOL    HW118347   4.532   5.615   6.989
 5816SOL    HW218348   4.493   5.707   6.860
 5817SOL     OW18349   5.778   3.782   6.472
 5817SOL    HW118350   5.823   3.693   6.484
 5817SOL    HW218351   5.762   3.798   6.375
 5818SOL     OW18352   6.602   5.795   4.815
 5818SOL    HW118353   6.618   5.830   4.907
 5818SOL    HW218354   6.668   5.835   4.752
 5819SOL     OW18355   4.192   6.494   6.916
 5819SOL    HW118356   4.095   6.515   6.909
 5819SOL    HW218357   4.222   6.444   6.835
 5820SOL     OW18358   3.916   5.799   4.081
 5820SOL    HW118359   3.964   5.818   4.167
 5820SOL    HW218360   3.891   5.702   4.078
 5821SOL     OW18361   0.293   6.876   1.397
 5821SOL    HW118362   0.220   6.855   1.462
 5821SOL    HW218363   0.349   6.795   1.382
 5822SOL     OW18364   0.853   2.617   2.440
 5822SOL    HW118365   0.934   2.611   2.382
 5822SOL    HW218366   0.880   2.651   2.530
 5823SOL     OW18367   1.666   0.992   5.397
 5823SOL    HW118368   1.700   0.956   5.311
 5823SOL    HW218369   1.618   1.078   5.381
 5824SOL     OW18370   6.477   5.084   2.685
 5824SOL    HW118371   6.559   5.126   2.646
 5824SOL    HW218372   6.450   5.134   2.767
 5825SOL     OW18373   2.215   1.889   5.628
 5825SOL    HW118374   2.281   1.963   5.619
 5825SOL    HW218375   2.215   1.834   5.544
 5826SOL     OW18376   0.094   5.155   5.661
 5826SOL    HW118377   0.111   5.063   5.696
 5826SOL    HW218378   0.117   5.159   5.564
 5827SOL     OW18379   1.678   4.519   4.742
 5827SOL    HW118380   1.634   4.604   4.772
 5827SOL    HW218381   1.695   4.522   4.644
 5828SOL     OW18382   6.683   2.800   1.574
 5828SOL    HW118383   6.736   2.834   1.652
 5828SOL    HW218384   6.695   2.701   1.566
 5829SOL     OW18385   2.036   0.923   3.187
 5829SOL    HW118386   2.110   0.877   3.139
 5829SOL    HW218387   2.002   0.863   3.260
 5830SOL     OW18388   4.968   0.101   5.536
 5830SOL    HW118389   4.913   0.165   5.589
 5830SOL    HW218390   5.063   0.103   5.568
 5831SOL     OW18391   6.978   0.804   5.101
 5831SOL    HW118392   6.914   0.872   5.066
 5831SOL    HW218393   0.055   0.833   5.083
 5832SOL     OW18394   3.317   4.786   5.894
 5832SOL    HW118395   3.273   4.760   5.979
 5832SOL    HW218396   3.300   4.883   5.876
 5833SOL     OW18397   4.000   4.024   5.064
 5833SOL    HW118398   3.930   4.040   4.994
 5833SOL    HW218399   4.012   4.107   5.118
 5834SOL     OW18400   6.757   3.335   6.766
 5834SOL    HW118401   6.823   3.410   6.757
 5834SOL    HW218402   6.754   3.284   6.680
 5835SOL     OW18403   4.858   3.226   3.780
 5835SOL    HW118404   4.863   3.129   3.804
 5835SOL    HW218405   4.907   3.280   3.849
 5836SOL     OW18406   3.104   6.760   2.527
 5836SOL    HW118407   3.076   6.853   2.502
 5836SOL    HW218408   3.055   6.732   2.610
 5837SOL     OW18409   3.633   4.513   5.807
 5837SOL    HW118410   3.719   4.558   5.829
 5837SOL    HW218411   3.649   4.444   5.736
 5838SOL     OW18412   3.391   2.765   6.864
 5838SOL    HW118413   3.399   2.715   6.778
 5838SOL    HW218414   3.316   2.830   6.859
 5839SOL     OW18415   0.452   2.000   2.283
 5839SOL    HW118416   0.359   1.967   2.298
 5839SOL    HW218417   0.462   2.091   2.321
 5840SOL     OW18418   0.897   5.499   6.389
 5840SOL    HW118419   0.822   5.439   6.416
 5840SOL    HW218420   0.860   5.586   6.357
 5841SOL     OW18421   5.154   1.766   2.618
 5841SOL    HW118422   5.089   1.717   2.677
 5841SOL    HW218423   5.122   1.760   2.523
 5842SOL     OW18424   4.631   3.078   1.466
 5842SOL    HW118425   4.584   3.137   1.400
 5842SOL    HW218426   4.590   3.090   1.557
 5843SOL     OW18427   1.992   3.816   2.694
 5843SOL    HW118428   2.055   3.751   2.652
 5843SOL    HW218429   1.949   3.772   2.773
 5844SOL     OW18430   1.710   6.447   6.249
 5844SOL    HW118431   1.686   6.506   6.172
 5844SOL    HW218432   1.627   6.405   6.286
 5845SOL     OW18433   0.666   0.483   2.229
 5845SOL    HW118434   0.727   0.518   2.299
 5845SOL    HW218435   0.591   0.432   2.272
 5846SOL     OW18436   0.118   2.134   3.894
 5846SOL    HW118437   0.116   2.217   3.949
 5846SOL    HW218438   0.213   2.111   3.871
 5847SOL     OW18439   2.006   2.164   1.836
 5847SOL    HW118440   2.040   2.133   1.925
 5847SOL    HW218441   1.934   2.102   1.804
 5848SOL     OW18442   2.220   5.221   3.410
 5848SOL    HW118443   2.306   5.269   3.431
 5848SOL    HW218444   2.234   5.162   3.331
 5849SOL     OW18445   0.407   0.056   6.908
 5849SOL    HW118446   0.502   0.072   6.881
 5849SOL    HW218447   0.372   6.993   6.859
 5850SOL     OW18448   0.108   3.273   1.760
 5850SOL    HW118449   0.196   3.316   1.740
 5850SOL    HW218450   0.053   3.335   1.816
 5851SOL     OW18451   5.927   3.748   3.582
 5851SOL    HW118452   5.838   3.788   3.562
 5851SOL    HW218453   5.962   3.703   3.500
 5852SOL     OW18454   6.476   6.191   3.584
 5852SOL    HW118455   6.529   6.230   3.509
 5852SOL    HW218456   6.420   6.263   3.626
 5853SOL     OW18457   3.625   5.831   4.568
 5853SOL    HW118458   3.565   5.908   4.546
 5853SOL    HW218459   3.579   5.770   4.632
 5854SOL     OW18460   5.706   5.022   5.966
 5854SOL    HW118461   5.651   4.951   6.011
 5854SOL    HW218462   5.778   4.978   5.912
 5855SOL     OW18463   0.179   1.122   4.327
 5855SOL    HW118464   0.233   1.192   4.374
 5855SOL    HW218465   0.237   1.073   4.262
 5856SOL     OW18466   1.795   5.907   4.204
 5856SOL    HW118467   1.722   5.966   4.238
 5856SOL    HW218468   1.809   5.831   4.266
 5857SOL     OW18469   6.128   2.793   5.515
 5857SOL    HW118470   6.101   2.697   5.510
 5857SOL    HW218471   6.208   2.803   5.574
 5858SOL     OW18472   1.842   2.764   2.281
 5858SOL    HW118473   1.855   2.680   2.332
 5858SOL    HW218474   1.883   2.755   2.190
 5859SOL     OW18475   5.561   6.143   1.913
 5859SOL    HW118476   5.547   6.238   1.939
 5859SOL    HW218477   5.646   6.135   1.860
 5860SOL     OW18478   1.694   4.082   1.523
 5860SOL    HW118479   1.782   4.034   1.523
 5860SOL    HW218480   1.629   4.032   1.465
 5861SOL     OW18481   4.372   1.133   4.351
 5861SOL    HW118482   4.464   1.173   4.357
 5861SOL    HW218483   4.379   1.034   4.369
 5862SOL     OW18484   5.156   5.238   2.080
 5862SOL    HW118485   5.077   5.284   2.121
 5862SOL    HW218486   5.234   5.246   2.141
 5863SOL     OW18487   3.201   0.796   4.903
 5863SOL    HW118488   3.225   0.774   4.808
 5863SOL    HW218489   3.135   0.872   4.903
 5864SOL     OW18490   4.026   3.634   1.610
 5864SOL    HW118491   4.000   3.721   1.651
 5864SOL    HW218492   4.126   3.628   1.607
 5865SOL     OW18493   6.186   0.498   5.200
 5865SOL    HW118494   6.169   0.509   5.298
 5865SOL    HW218495   6.282   0.478   5.184
 5866SOL     OW18496   4.221   5.137   0.837
 5866SOL    HW118497   4.212   5.053   0.784
 5866SOL    HW218498   4.291   5.126   0.907
 5867SOL     OW18499   1.001   4.111   0.775
 5867SOL    HW118500   1.024   4.126   0.678
 5867SOL    HW218501   0.961   4.194   0.813
 5868SOL     OW18502   0.118   1.059   4.969
 5868SOL    HW118503   0.135   1.081   4.873
 5868SOL    HW218504   0.204   1.034   5.013
 5869SOL     OW18505   2.516   6.464   4.059
 5869SOL    HW118506   2.597   6.438   4.112
 5869SOL    HW218507   2.467   6.537   4.107
 5870SOL     OW18508   5.196   6.286   4.747
 5870SOL    HW118509   5.262   6.221   4.786
 5870SOL    HW218510   5.103   6.252   4.762
 5871SOL     OW18511   4.132   3.024   0.981
 5871SOL    HW118512   4.095   3.107   0.939
 5871SOL    HW218513   4.188   3.049   1.061
 5872SOL     OW18514   4.129   5.486   1.037
 5872SOL    HW118515   4.061   5.423   0.999
 5872SOL    HW218516   4.112   5.578   1.002
 5873SOL     OW18517   2.742   2.055   1.060
 5873SOL    HW118518   2.715   1.990   0.990
 5873SOL    HW218519   2.761   2.006   1.145
 5874SOL     OW18520   3.412   4.098   0.414
 5874SOL    HW118521   3.315   4.076   0.423
 5874SOL    HW218522   3.425   4.197   0.416
 5875SOL     OW18523   4.155   1.312   6.796
 5875SOL    HW118524   4.112   1.291   6.883
 5875SOL    HW218525   4.148   1.411   6.779
 5876SOL     OW18526   3.044   3.256   0.111
 5876SOL    HW118527   3.000   3.243   0.200
 5876SOL    HW218528   2.976   3.291   0.046
 5877SOL     OW18529   0.406   6.720   0.803
 5877SOL    HW118530   0.504   6.712   0.786
 5877SOL    HW218531   0.386   6.808   0.847
 5878SOL     OW18532   5.446   4.835   3.690
 5878SOL    HW118533   5.356   4.805   3.722
 5878SOL    HW218534   5.517   4.781   3.735
 5879SOL     OW18535   1.780   3.281   5.985
 5879SOL    HW118536   1.861   3.224   6.001
 5879SOL    HW218537   1.699   3.223   5.975
 5880SOL     OW18538   4.865   4.560   6.918
 5880SOL    HW118539   4.895   4.650   6.950
 5880SOL    HW218540   4.880   4.553   6.819
 5881SOL     OW18541   1.678   6.871   1.874
 5881SOL    HW118542   1.719   6.945   1.928
 5881SOL    HW218543   1.713   6.783   1.906
 5882SOL     OW18544   1.092   6.913   6.086
 5882SOL    HW118545   1.063   6.817   6.094
 5882SOL    HW218546   1.016   6.972   6.115
 5883SOL     OW18547   0.941   1.273   0.018
 5883SOL    HW118548   1.029   1.242   0.055
 5883SOL    HW218549   0.867   1.235   0.074
 5884SOL     OW18550   4.836   0.910   4.896
 5884SOL    HW118551   4.833   0.963   4.811
 5884SOL    HW218552   4.792   0.822   4.883
 5885SOL     OW18553   0.101   5.482   2.159
 5885SOL    HW118554   0.101   5.530   2.071
 5885SOL    HW218555   0.184   5.505   2.209
 5886SOL     OW18556   0.999   1.859   3.818
 5886SOL    HW118557   0.954   1.947   3.811
 5886SOL    HW218558   1.023   1.826   3.727
 5887SOL     OW18559   2.299   2.177   1.865
 5887SOL    HW118560   2.216   2.175   1.810
 5887SOL    HW218561   2.379   2.185   1.805
 5888SOL     OW18562   2.471   6.762   1.486
 5888SOL    HW118563   2.442   6.849   1.445
 5888SOL    HW218564   2.476   6.772   1.585
 5889SOL     OW18565   5.892   1.876   6.286
 5889SOL    HW118566   5.906   1.887   6.385
 5889SOL    HW218567   5.887   1.966   6.243
 5890SOL     OW18568   1.993   7.002   2.760
 5890SOL    HW118569   2.001   6.986   2.859
 5890SOL    HW218570   2.085   7.008   2.720
 5891SOL     OW18571   2.689   4.215   0.879
 5891SOL    HW118572   2.730   4.154   0.811
 5891SOL    HW218573   2.678   4.165   0.965
 5892SOL     OW18574   6.884   5.268   2.040
 5892SOL    HW118575   6.888   5.231   1.947
 5892SOL    HW218576   6.977   5.290   2.070
 5893SOL     OW18577   2.603   4.915   1.733
 5893SOL    HW118578   2.513   4.883   1.706
 5893SOL    HW218579   2.666   4.838   1.737
 5894SOL     OW18580   0.818   5.577   5.571
 5894SOL    HW118581   0.760   5.551   5.648
 5894SOL    HW218582   0.870   5.659   5.594
 5895SOL     OW18583   6.191   3.932   3.498
 5895SOL    HW118584   6.138   4.011   3.467
 5895SOL    HW218585   6.158   3.904   3.588
 5896SOL     OW18586   4.701   1.765   0.697
 5896SOL    HW118587   4.780   1.718   0.736
 5896SOL    HW218588   4.654   1.704   0.632
 5897SOL     OW18589   4.192   1.389   0.799
 5897SOL    HW118590   4.097   1.358   0.801
 5897SOL    HW218591   4.247   1.325   0.746
 5898SOL     OW18592   2.436   0.810   5.357
 5898SOL    HW118593   2.386   0.835   5.440
 5898SOL    HW218594   2.390   0.734   5.311
 5899SOL     OW18595   5.658   6.090   6.651
 5899SOL    HW118596   5.591   6.041   6.708
 5899SOL    HW218597   5.746   6.043   6.655
 5900SOL     OW18598   6.732   4.723   2.686
 5900SOL    HW118599   6.722   4.700   2.783
 5900SOL    HW218600   6.830   4.730   2.664
 5901SOL     OW18601   2.686   1.521   0.578
 5901SOL    HW118602   2.667   1.446   0.516
 5901SOL    HW218603   2.679   1.489   0.673
 5902SOL     OW18604   5.542   3.987   5.995
 5902SOL    HW118605   5.608   4.027   5.932
 5902SOL    HW218606   5.496   4.060   6.046
 5903SOL     OW18607   4.631   3.904   0.009
 5903SOL    HW118608   4.694   3.837   6.985
 5903SOL    HW218609   4.672   3.995   0.004
 5904SOL     OW18610   1.079   4.488   1.087
 5904SOL    HW118611   1.144   4.415   1.110
 5904SOL    HW218612   0.991   4.448   1.062
 5905SOL     OW18613   6.540   0.733   3.701
 5905SOL    HW118614   6.609   0.688   3.645
 5905SOL    HW218615   6.586   0.791   3.769
 5906SOL     OW18616   4.874   1.945   4.969
 5906SOL    HW118617   4.795   1.957   5.029
 5906SOL    HW218618   4.844   1.952   4.873
 5907SOL     OW18619   1.459   6.674   0.527
 5907SOL    HW118620   1.555   6.671   0.554
 5907SOL    HW218621   1.445   6.613   0.448
 5908SOL     OW18622   6.616   4.001   0.106
 5908SOL    HW118623   6.692   3.937   0.093
 5908SOL    HW218624   6.534   3.963   0.064
 5909SOL     OW18625   6.469   5.064   6.489
 5909SOL    HW118626   6.514   5.109   6.566
 5909SOL    HW218627   6.382   5.109   6.470
 5910SOL     OW18628   0.761   4.633   1.000
 5910SOL    HW118629   0.665   4.614   1.021
 5910SOL    HW218630   0.794   4.706   1.060
 5911SOL     OW18631   6.329   5.012   6.898
 5911SOL    HW118632   6.246   4.999   6.843
 5911SOL    HW218633   6.308   5.067   6.978
 5912SOL     OW18634   6.090   3.403   6.962
 5912SOL    HW118635   6.016   3.351   7.005
 5912SOL    HW218636   6.134   3.348   6.892
 5913SOL     OW18637   2.944   2.932   6.078
 5913SOL    HW118638   2.887   2.911   6.158
 5913SOL    HW218639   2.972   3.028   6.083
 5914SOL     OW18640   3.024   5.363   6.087
 5914SOL    HW118641   2.938   5.331   6.047
 5914SOL    HW218642   3.018   5.358   6.187
 5915SOL     OW18643   6.243   4.087   1.986
 5915SOL    HW118644   6.253   3.993   1.953
 5915SOL    HW218645   6.271   4.151   1.915
 5916SOL     OW18646   4.516   6.220   5.720
 5916SOL    HW118647   4.572   6.295   5.757
 5916SOL    HW218648   4.535   6.137   5.771
 5917SOL     OW18649   3.829   2.944   4.350
 5917SOL    HW118650   3.743   2.901   4.378
 5917SOL    HW218651   3.831   2.951   4.250
 5918SOL     OW18652   2.366   3.762   5.325
 5918SOL    HW118653   2.353   3.808   5.413
 5918SOL    HW218654   2.367   3.829   5.251
 5919SOL     OW18655   2.564   2.312   0.385
 5919SOL    HW118656   2.543   2.286   0.479
 5919SOL    HW218657   2.590   2.408   0.382
 5920SOL     OW18658   3.708   6.953   0.418
 5920SOL    HW118659   3.770   6.993   0.351
 5920SOL    HW218660   3.640   6.897   0.371
 5921SOL     OW18661   3.787   5.542   5.501
 5921SOL    HW118662   3.786   5.627   5.448
 5921SOL    HW218663   3.851   5.477   5.459
 5922SOL     OW18664   6.582   5.338   4.194
 5922SOL    HW118665   6.583   5.248   4.238
 5922SOL    HW218666   6.619   5.407   4.257
 5923SOL     OW18667   5.331   0.605   1.694
 5923SOL    HW118668   5.425   0.599   1.729
 5923SOL    HW218669   5.324   0.553   1.609
 5924SOL     OW18670   6.149   2.146   5.021
 5924SOL    HW118671   6.172   2.066   4.967
 5924SOL    HW218672   6.064   2.186   4.988
 5925SOL     OW18673   3.787   5.919   3.649
 5925SOL    HW118674   3.802   5.934   3.747
 5925SOL    HW218675   3.839   5.986   3.597
 5926SOL     OW18676   3.930   5.097   2.316
 5926SOL    HW118677   3.882   5.183   2.333
 5926SOL    HW218678   3.868   5.033   2.271
 5927SOL     OW18679   1.604   4.172   3.476
 5927SOL    HW118680   1.514   4.145   3.440
 5927SOL    HW218681   1.665   4.093   3.475
 5928SOL     OW18682   3.117   0.642   1.759
 5928SOL    HW118683   3.143   0.721   1.815
 5928SOL    HW218684   3.161   0.560   1.795
 5929SOL     OW18685   1.129   6.522   5.656
 5929SOL    HW118686   1.084   6.549   5.571
 5929SOL    HW218687   1.061   6.484   5.719
 5930SOL     OW18688   0.056   1.127   3.123
 5930SOL    HW118689   0.048   1.152   3.219
 5930SOL    HW218690   0.040   1.029   3.112
 5931SOL     OW18691   5.635   5.264   3.536
 5931SOL    HW118692   5.711   5.204   3.560
 5931SOL    HW218693   5.548   5.220   3.558
 5932SOL     OW18694   2.857   6.167   1.016
 5932SOL    HW118695   2.795   6.096   1.048
 5932SOL    HW218696   2.803   6.247   0.987
 5933SOL     OW18697   0.524   5.788   3.068
 5933SOL    HW118698   0.567   5.870   3.105
 5933SOL    HW218699   0.430   5.782   3.103
 5934SOL     OW18700   4.144   3.598   4.047
 5934SOL    HW118701   4.224   3.596   4.107
 5934SOL    HW218702   4.107   3.691   4.044
 5935SOL     OW18703   4.148   3.481   5.003
 5935SOL    HW118704   4.217   3.449   5.068
 5935SOL    HW218705   4.059   3.482   5.048
 5936SOL     OW18706   4.041   3.349   0.436
 5936SOL    HW118707   4.140   3.360   0.440
 5936SOL    HW218708   4.019   3.256   0.407
 5937SOL     OW18709   0.513   4.822   2.216
 5937SOL    HW118710   0.532   4.815   2.118
 5937SOL    HW218711   0.417   4.799   2.234
 5938SOL     OW18712   1.180   5.670   4.230
 5938SOL    HW118713   1.271   5.706   4.207
 5938SOL    HW218714   1.119   5.746   4.254
 5939SOL     OW18715   3.256   0.595   3.615
 5939SOL    HW118716   3.169   0.550   3.636
 5939SOL    HW218717   3.330   0.550   3.665
 5940SOL     OW18718   4.208   5.579   2.280
 5940SOL    HW118719   4.225   5.484   2.308
 5940SOL    HW218720   4.202   5.583   2.180
 5941SOL     OW18721   6.264   3.365   2.129
 5941SOL    HW118722   6.348   3.324   2.163
 5941SOL    HW218723   6.218   3.301   2.068
 5942SOL     OW18724   4.949   2.873   6.605
 5942SOL    HW118725   4.871   2.894   6.664
 5942SOL    HW218726   4.928   2.792   6.550
 5943SOL     OW18727   3.420   5.354   0.957
 5943SOL    HW118728   3.485   5.412   1.006
 5943SOL    HW218729   3.464   5.268   0.931
 5944SOL     OW18730   5.371   2.026   1.215
 5944SOL    HW118731   5.299   2.027   1.145
 5944SOL    HW218732   5.369   2.113   1.265
 5945SOL     OW18733   6.523   5.220   5.351
 5945SOL    HW118734   6.487   5.193   5.441
 5945SOL    HW218735   6.622   5.220   5.353
 5946SOL     OW18736   3.496   3.166   5.630
 5946SOL    HW118737   3.590   3.166   5.665
 5946SOL    HW218738   3.496   3.185   5.532
 5947SOL     OW18739   4.108   3.054   1.749
 5947SOL    HW118740   4.112   3.080   1.846
 5947SOL    HW218741   4.120   3.135   1.692
 5948SOL     OW18742   3.583   5.176   3.502
 5948SOL    HW118743   3.631   5.132   3.578
 5948SOL    HW218744   3.644   5.244   3.460
 5949SOL     OW18745   3.955   3.395   1.027
 5949SOL    HW118746   3.995   3.343   0.951
 5949SOL    HW218747   3.993   3.362   1.113
 5950SOL     OW18748   5.932   3.455   5.540
 5950SOL    HW118749   5.935   3.423   5.634
 5950SOL    HW218750   5.952   3.380   5.477
 5951SOL     OW18751   0.457   5.603   5.258
 5951SOL    HW118752   0.548   5.563   5.254
 5951SOL    HW218753   0.391   5.542   5.215
 5952SOL     OW18754   5.507   5.330   4.461
 5952SOL    HW118755   5.447   5.306   4.538
 5952SOL    HW218756   5.602   5.318   4.488
 5953SOL     OW18757   6.715   2.858   6.062
 5953SOL    HW118758   6.727   2.957   6.056
 5953SOL    HW218759   6.660   2.826   5.985
 5954SOL     OW18760   7.011   4.346   5.636
 5954SOL    HW118761   6.925   4.340   5.585
 5954SOL    HW218762   0.001   4.436   5.679
 5955SOL     OW18763   5.578   5.927   2.682
 5955SOL    HW118764   5.604   5.852   2.744
 5955SOL    HW218765   5.507   5.982   2.725
 5956SOL     OW18766   3.721   2.009   6.927
 5956SOL    HW118767   3.797   1.954   6.892
 5956SOL    HW218768   3.685   1.967   7.010
 5957SOL     OW18769   4.713   0.395   5.451
 5957SOL    HW118770   4.809   0.415   5.432
 5957SOL    HW218771   4.656   0.461   5.402
 5958SOL     OW18772   6.750   5.663   3.022
 5958SOL    HW118773   6.726   5.601   2.946
 5958SOL    HW218774   6.844   5.695   3.011
 5959SOL     OW18775   3.529   1.998   5.363
 5959SOL    HW118776   3.496   2.078   5.313
 5959SOL    HW218777   3.465   1.975   5.436
 5960SOL     OW18778   3.974   6.637   4.502
 5960SOL    HW118779   3.950   6.544   4.476
 5960SOL    HW218780   4.071   6.654   4.484
 5961SOL     OW18781   5.137   1.042   3.708
 5961SOL    HW118782   5.045   1.080   3.702
 5961SOL    HW218783   5.146   0.990   3.793
 5962SOL     OW18784   5.083   5.855   1.708
 5962SOL    HW118785   5.126   5.766   1.724
 5962SOL    HW218786   5.071   5.902   1.795
 5963SOL     OW18787   3.085   3.080   4.801
 5963SOL    HW118788   3.161   3.022   4.830
 5963SOL    HW218789   3.085   3.087   4.701
 5964SOL     OW18790   0.532   5.188   5.923
 5964SOL    HW118791   0.620   5.231   5.944
 5964SOL    HW218792   0.496   5.226   5.838
 5965SOL     OW18793   1.643   1.782   6.352
 5965SOL    HW118794   1.658   1.834   6.268
 5965SOL    HW218795   1.564   1.722   6.341
 5966SOL     OW18796   3.071   5.871   5.380
 5966SOL    HW118797   3.106   5.961   5.404
 5966SOL    HW218798   3.000   5.844   5.446
 5967SOL     OW18799   4.144   6.371   1.531
 5967SOL    HW118800   4.200   6.443   1.490
 5967SOL    HW218801   4.173   6.282   1.496
 5968SOL     OW18802   4.761   0.814   2.450
 5968SOL    HW118803   4.673   0.845   2.486
 5968SOL    HW218804   4.819   0.894   2.432
 5969SOL     OW18805   6.514   0.985   5.998
 5969SOL    HW118806   6.510   1.068   5.943
 5969SOL    HW218807   6.429   0.932   5.985
 5970SOL     OW18808   0.626   4.516   2.396
 5970SOL    HW118809   0.612   4.572   2.477
 5970SOL    HW218810   0.681   4.436   2.420
 5971SOL     OW18811   1.937   0.883   2.936
 5971SOL    HW118812   1.959   0.874   3.033
 5971SOL    HW218813   1.908   0.977   2.917
 5972SOL     OW18814   5.648   6.613   0.298
 5972SOL    HW118815   5.574   6.651   0.243
 5972SOL    HW218816   5.612   6.543   0.359
 5973SOL     OW18817   1.689   4.784   2.497
 5973SOL    HW118818   1.701   4.703   2.440
 5973SOL    HW218819   1.620   4.765   2.568
 5974SOL     OW18820   5.697   4.531   6.898
 5974SOL    HW118821   5.670   4.614   6.947
 5974SOL    HW218822   5.651   4.452   6.940
 5975SOL     OW18823   3.150   2.291   0.018
 5975SOL    HW118824   3.137   2.385   7.003
 5975SOL    HW218825   3.088   2.231   6.986
 5976SOL     OW18826   3.318   3.864   4.264
 5976SOL    HW118827   3.377   3.784   4.260
 5976SOL    HW218828   3.223   3.836   4.248
 5977SOL     OW18829   2.007   5.033   1.792
 5977SOL    HW118830   1.935   5.102   1.781
 5977SOL    HW218831   2.094   5.070   1.760
 5978SOL     OW18832   4.971   4.853   3.484
 5978SOL    HW118833   4.904   4.901   3.427
 5978SOL    HW218834   4.978   4.758   3.454
 5979SOL     OW18835   5.929   6.940   2.635
 5979SOL    HW118836   6.020   6.969   2.605
 5979SOL    HW218837   5.936   6.855   2.687
 5980SOL     OW18838   3.963   3.754   6.872
 5980SOL    HW118839   3.993   3.670   6.917
 5980SOL    HW218840   3.888   3.733   6.809
 5981SOL     OW18841   6.368   0.768   2.146
 5981SOL    HW118842   6.408   0.835   2.209
 5981SOL    HW218843   6.366   0.806   2.054
 5982SOL     OW18844   6.473   2.326   0.327
 5982SOL    HW118845   6.570   2.311   0.344
 5982SOL    HW218846   6.462   2.406   0.267
 5983SOL     OW18847   1.867   0.979   4.830
 5983SOL    HW118848   1.946   0.938   4.785
 5983SOL    HW218849   1.889   1.073   4.858
 5984SOL     OW18850   6.261   6.410   4.987
 5984SOL    HW118851   6.331   6.479   5.007
 5984SOL    HW218852   6.303   6.333   4.939
 5985SOL     OW18853   5.962   3.156   3.887
 5985SOL    HW118854   6.015   3.133   3.806
 5985SOL    HW218855   5.872   3.189   3.860
 5986SOL     OW18856   3.455   3.863   3.594
 5986SOL    HW118857   3.400   3.945   3.613
 5986SOL    HW218858   3.549   3.878   3.622
 5987SOL     OW18859   4.428   1.201   5.015
 5987SOL    HW118860   4.482   1.280   5.044
 5987SOL    HW218861   4.479   1.117   5.034
 5988SOL     OW18862   4.261   6.889   4.717
 5988SOL    HW118863   4.338   6.873   4.778
 5988SOL    HW218864   4.295   6.920   4.628
 5989SOL     OW18865   2.737   5.856   6.621
 5989SOL    HW118866   2.700   5.873   6.530
 5989SOL    HW218867   2.700   5.922   6.686
 5990SOL     OW18868   3.935   4.656   0.475
 5990SOL    HW118869   3.843   4.618   0.485
 5990SOL    HW218870   4.002   4.581   0.477
 5991SOL     OW18871   4.279   5.379   5.379
 5991SOL    HW118872   4.272   5.329   5.292
 5991SOL    HW218873   4.192   5.423   5.399
 5992SOL     OW18874   3.490   0.970   3.659
 5992SOL    HW118875   3.542   0.909   3.599
 5992SOL    HW218876   3.510   0.948   3.755
 5993SOL     OW18877   3.297   6.708   5.746
 5993SOL    HW118878   3.284   6.735   5.842
 5993SOL    HW218879   3.221   6.744   5.691
 5994SOL     OW18880   6.296   1.795   1.930
 5994SOL    HW118881   6.226   1.844   1.982
 5994SOL    HW218882   6.252   1.740   1.859
 5995SOL     OW18883   6.208   4.189   2.793
 5995SOL    HW118884   6.156   4.259   2.744
 5995SOL    HW218885   6.229   4.114   2.730
 5996SOL     OW18886   0.772   5.952   0.724
 5996SOL    HW118887   0.683   5.957   0.680
 5996SOL    HW218888   0.764   5.980   0.820
 5997SOL     OW18889   1.178   5.960   2.491
 5997SOL    HW118890   1.084   5.930   2.475
 5997SOL    HW218891   1.194   5.972   2.589
 5998SOL     OW18892   5.992   2.200   1.711
 5998SOL    HW118893   6.063   2.130   1.715
 5998SOL    HW218894   6.031   2.284   1.674
 5999SOL     OW18895   1.375   2.140   2.870
 5999SOL    HW118896   1.428   2.161   2.788
 5999SOL    HW218897   1.313   2.217   2.890
 6000SOL     OW18898   3.594   6.926   1.972
 6000SOL    HW118899   3.552   7.010   2.005
 6000SOL    HW218900   3.663   6.947   1.903
 6001SOL     OW18901   0.344   4.245   6.266
 6001SOL    HW118902   0.372   4.252   6.170
 6001SOL    HW218903   0.244   4.241   6.271
 6002SOL     OW18904   0.254   0.304   0.948
 6002SOL    HW118905   0.156   0.305   0.932
 6002SOL    HW218906   0.296   0.383   0.903
 6003SOL     OW18907   0.168   1.916   4.573
 6003SOL    HW118908   0.165   1.996   4.513
 6003SOL    HW218909   0.103   1.848   4.541
 6004SOL     OW18910   6.760   4.488   2.872
 6004SOL    HW118911   6.753   4.393   2.840
 6004SOL    HW218912   6.855   4.509   2.895
 6005SOL     OW18913   4.591   4.886   4.778
 6005SOL    HW118914   4.526   4.857   4.848
 6005SOL    HW218915   4.668   4.821   4.775
 6006SOL     OW18916   3.707   6.744   0.156
 6006SOL    HW118917   3.681   6.840   0.148
 6006SOL    HW218918   3.647   6.699   0.222
 6007SOL     OW18919   5.284   3.845   4.527
 6007SOL    HW118920   5.377   3.820   4.498
 6007SOL    HW218921   5.218   3.780   4.489
 6008SOL     OW18922   2.318   5.568   6.340
 6008SOL    HW118923   2.307   5.663   6.311
 6008SOL    HW218924   2.241   5.541   6.397
 6009SOL     OW18925   3.782   0.829   5.108
 6009SOL    HW118926   3.791   0.729   5.107
 6009SOL    HW218927   3.685   0.854   5.097
 6010SOL     OW18928   1.141   4.253   2.561
 6010SOL    HW118929   1.231   4.214   2.539
 6010SOL    HW218930   1.076   4.178   2.577
 6011SOL     OW18931   4.634   2.675   2.815
 6011SOL    HW118932   4.582   2.614   2.876
 6011SOL    HW218933   4.571   2.735   2.767
 6012SOL     OW18934   6.312   1.727   0.232
 6012SOL    HW118935   6.277   1.815   0.200
 6012SOL    HW218936   6.351   1.676   0.154
 6013SOL     OW18937   5.683   1.843   2.979
 6013SOL    HW118938   5.768   1.802   2.945
 6013SOL    HW218939   5.618   1.854   2.904
 6014SOL     OW18940   4.360   2.074   1.060
 6014SOL    HW118941   4.314   2.163   1.058
 6014SOL    HW218942   4.412   2.065   1.144
 6015SOL     OW18943   5.678   2.592   5.524
 6015SOL    HW118944   5.725   2.635   5.447
 6015SOL    HW218945   5.741   2.532   5.573
 6016SOL     OW18946   0.693   1.790   6.479
 6016SOL    HW118947   0.698   1.735   6.563
 6016SOL    HW218948   0.758   1.754   6.412
 6017SOL     OW18949   6.360   4.601   2.797
 6017SOL    HW118950   6.377   4.542   2.718
 6017SOL    HW218951   6.431   4.585   2.866
 6018SOL     OW18952   3.335   1.323   0.281
 6018SOL    HW118953   3.243   1.286   0.269
 6018SOL    HW218954   3.401   1.248   0.284
 6019SOL     OW18955   5.759   1.464   4.477
 6019SOL    HW118956   5.831   1.466   4.407
 6019SOL    HW218957   5.776   1.537   4.543
 6020SOL     OW18958   1.954   5.964   1.880
 6020SOL    HW118959   1.906   5.981   1.966
 6020SOL    HW218960   2.032   5.904   1.896
 6021SOL     OW18961   3.985   0.656   2.206
 6021SOL    HW118962   4.009   0.623   2.297
 6021SOL    HW218963   3.904   0.715   2.213
 6022SOL     OW18964   4.627   1.341   5.141
 6022SOL    HW118965   4.575   1.323   5.225
 6022SOL    HW218966   4.721   1.308   5.152
 6023SOL     OW18967   6.069   1.725   2.355
 6023SOL    HW118968   6.070   1.816   2.313
 6023SOL    HW218969   6.086   1.656   2.285
 6024SOL     OW18970   0.676   4.089   3.400
 6024SOL    HW118971   0.615   4.138   3.337
 6024SOL    HW218972   0.715   4.009   3.354
 6025SOL     OW18973   3.790   1.409   1.754
 6025SOL    HW118974   3.757   1.316   1.763
 6025SOL    HW218975   3.742   1.455   1.679
 6026SOL     OW18976   6.881   4.294   4.082
 6026SOL    HW118977   6.858   4.197   4.086
 6026SOL    HW218978   6.977   4.306   4.059
 6027SOL     OW18979   1.701   4.343   5.688
 6027SOL    HW118980   1.775   4.367   5.625
 6027SOL    HW218981   1.690   4.244   5.691
 6028SOL     OW18982   1.011   3.636   0.466
 6028SOL    HW118983   0.938   3.701   0.488
 6028SOL    HW218984   1.100   3.682   0.473
 6029SOL     OW18985   1.962   5.966   5.455
 6029SOL    HW118986   1.914   5.914   5.385
 6029SOL    HW218987   1.964   5.914   5.540
 6030SOL     OW18988   3.611   6.820   3.206
 6030SOL    HW118989   3.630   6.889   3.136
 6030SOL    HW218990   3.654   6.734   3.181
 6031SOL     OW18991   3.926   5.295   3.950
 6031SOL    HW118992   3.874   5.279   3.866
 6031SOL    HW218993   3.903   5.225   4.017
 6032SOL     OW18994   1.974   3.342   3.039
 6032SOL    HW118995   1.959   3.254   3.084
 6032SOL    HW218996   2.005   3.327   2.945
 6033SOL     OW18997   2.907   2.010   2.456
 6033SOL    HW118998   2.967   2.082   2.421
 6033SOL    HW218999   2.883   2.031   2.551
 6034SOL     OW19000   1.352   6.011   4.816
 6034SOL    HW119001   1.412   5.989   4.739
 6034SOL    HW219002   1.330   6.109   4.814
 6035SOL     OW19003   6.821   0.578   3.338
 6035SOL    HW119004   6.912   0.595   3.301
 6035SOL    HW219005   6.804   0.640   3.415
 6036SOL     OW19006   6.547   6.086   4.160
 6036SOL    HW119007   6.576   6.164   4.104
 6036SOL    HW219008   6.454   6.103   4.194
 6037SOL     OW19009   3.904   4.764   5.939
 6037SOL    HW119010   3.918   4.701   5.863
 6037SOL    HW219011   3.921   4.716   6.025
 6038SOL     OW19012   1.090   3.402   6.160
 6038SOL    HW119013   1.080   3.489   6.111
 6038SOL    HW219014   1.107   3.421   6.257
 6039SOL     OW19015   3.291   2.863   2.617
 6039SOL    HW119016   3.217   2.929   2.633
 6039SOL    HW219017   3.297   2.842   2.519
 6040SOL     OW19018   1.105   2.233   6.364
 6040SOL    HW119019   1.160   2.151   6.379
 6040SOL    HW219020   1.008   2.211   6.378
 6041SOL     OW19021   1.640   0.903   5.126
 6041SOL    HW119022   1.602   0.987   5.088
 6041SOL    HW219023   1.673   0.845   5.052
 6042SOL     OW19024   5.381   5.604   1.798
 6042SOL    HW119025   5.411   5.699   1.795
 6042SOL    HW219026   5.283   5.600   1.812
 6043SOL     OW19027   0.723   4.205   5.519
 6043SOL    HW119028   0.801   4.265   5.505
 6043SOL    HW219029   0.756   4.115   5.551
 6044SOL     OW19030   1.001   2.702   1.013
 6044SOL    HW119031   0.954   2.724   1.099
 6044SOL    HW219032   1.100   2.705   1.028
 6045SOL     OW19033   5.993   5.816   1.285
 6045SOL    HW119034   5.988   5.871   1.201
 6045SOL    HW219035   5.994   5.877   1.364
 6046SOL     OW19036   2.906   1.633   0.403
 6046SOL    HW119037   2.975   1.702   0.423
 6046SOL    HW219038   2.820   1.657   0.449
 6047SOL     OW19039   6.122   1.963   2.028
 6047SOL    HW119040   6.141   2.058   2.004
 6047SOL    HW219041   6.061   1.960   2.108
 6048SOL     OW19042   4.800   6.493   3.559
 6048SOL    HW119043   4.727   6.475   3.625
 6048SOL    HW219044   4.777   6.452   3.471
 6049SOL     OW19045   5.139   4.047   5.945
 6049SOL    HW119046   5.067   4.038   5.876
 6049SOL    HW219047   5.189   4.132   5.929
 6050SOL     OW19048   3.191   4.578   5.331
 6050SOL    HW119049   3.161   4.550   5.422
 6050SOL    HW219050   3.113   4.578   5.268
 6051SOL     OW19051   2.703   1.401   3.606
 6051SOL    HW119052   2.719   1.493   3.569
 6051SOL    HW219053   2.702   1.335   3.531
 6052SOL     OW19054   6.614   6.319   0.293
 6052SOL    HW119055   6.558   6.336   0.212
 6052SOL    HW219056   6.572   6.363   0.372
 6053SOL     OW19057   3.767   0.616   6.344
 6053SOL    HW119058   3.850   0.572   6.378
 6053SOL    HW219059   3.706   0.547   6.307
 6054SOL     OW19060   2.870   4.296   0.610
 6054SOL    HW119061   2.848   4.354   0.689
 6054SOL    HW219062   2.787   4.278   0.558
 6055SOL     OW19063   5.212   1.100   5.396
 6055SOL    HW119064   5.285   1.146   5.344
 6055SOL    HW219065   5.217   1.128   5.491
 6056SOL     OW19066   5.200   3.401   4.936
 6056SOL    HW119067   5.158   3.484   4.971
 6056SOL    HW219068   5.299   3.416   4.925
 6057SOL     OW19069   5.305   2.887   4.501
 6057SOL    HW119070   5.357   2.809   4.533
 6057SOL    HW219071   5.310   2.961   4.568
 6058SOL     OW19072   5.093   2.730   2.356
 6058SOL    HW119073   4.995   2.751   2.349
 6058SOL    HW219074   5.138   2.752   2.270
 6059SOL     OW19075   4.580   5.920   5.265
 6059SOL    HW119076   4.635   5.969   5.332
 6059SOL    HW219077   4.588   5.964   5.175
 6060SOL     OW19078   2.827   4.018   6.562
 6060SOL    HW119079   2.753   3.955   6.582
 6060SOL    HW219080   2.904   3.968   6.521
 6061SOL     OW19081   4.428   2.009   0.807
 6061SOL    HW119082   4.378   2.044   0.886
 6061SOL    HW219083   4.494   1.940   0.837
 6062SOL     OW19084   1.936   0.622   4.508
 6062SOL    HW119085   1.869   0.684   4.468
 6062SOL    HW219086   1.920   0.529   4.474
 6063SOL     OW19087   3.813   1.394   6.814
 6063SOL    HW119088   3.818   1.420   6.718
 6063SOL    HW219089   3.767   1.465   6.866
 6064SOL     OW19090   3.105   6.131   2.203
 6064SOL    HW119091   3.184   6.090   2.250
 6064SOL    HW219092   3.074   6.070   2.131
 6065SOL     OW19093   5.576   7.009   2.272
 6065SOL    HW119094   5.602   6.930   2.328
 6065SOL    HW219095   5.656   0.023   2.221
 6066SOL     OW19096   4.477   1.591   0.270
 6066SOL    HW119097   4.436   1.678   0.244
 6066SOL    HW219098   4.554   1.607   0.331
 6067SOL     OW19099   5.231   1.974   6.559
 6067SOL    HW119100   5.229   1.952   6.657
 6067SOL    HW219101   5.159   2.039   6.538
 6068SOL     OW19102   5.855   2.611   4.742
 6068SOL    HW119103   5.952   2.637   4.741
 6068SOL    HW219104   5.800   2.690   4.715
 6069SOL     OW19105   0.298   3.500   5.029
 6069SOL    HW119106   0.230   3.572   5.018
 6069SOL    HW219107   0.365   3.527   5.097
 6070SOL     OW19108   2.198   1.733   6.280
 6070SOL    HW119109   2.209   1.681   6.196
 6070SOL    HW219110   2.287   1.757   6.316
 6071SOL     OW19111   4.919   5.084   4.626
 6071SOL    HW119112   4.973   5.007   4.659
 6071SOL    HW219113   4.884   5.136   4.704
 6072SOL     OW19114   0.218   0.791   1.749
 6072SOL    HW119115   0.123   0.798   1.720
 6072SOL    HW219116   0.239   0.696   1.771
 6073SOL     OW19117   6.865   3.817   0.453
 6073SOL    HW119118   6.797   3.888   0.433
 6073SOL    HW219119   6.884   3.815   0.551
 6074SOL     OW19120   0.957   6.828   4.521
 6074SOL    HW119121   0.912   6.747   4.483
 6074SOL    HW219122   1.038   6.799   4.572
 6075SOL     OW19123   0.229   2.664   6.633
 6075SOL    HW119124   0.278   2.668   6.720
 6075SOL    HW219125   0.143   2.715   6.640
 6076SOL     OW19126   2.974   5.722   5.181
 6076SOL    HW119127   2.982   5.787   5.256
 6076SOL    HW219128   3.021   5.757   5.100
 6077SOL     OW19129   4.732   5.491   2.067
 6077SOL    HW119130   4.669   5.478   2.144
 6077SOL    HW219131   4.710   5.576   2.019
 6078SOL     OW19132   3.780   4.976   1.715
 6078SOL    HW119133   3.781   4.964   1.814
 6078SOL    HW219134   3.699   4.933   1.676
 6079SOL     OW19135   3.141   3.604   5.858
 6079SOL    HW119136   3.150   3.693   5.902
 6079SOL    HW219137   3.220   3.547   5.882
 6080SOL     OW19138   6.967   1.568   1.140
 6080SOL    HW119139   6.954   1.520   1.054
 6080SOL    HW219140   6.890   1.550   1.201
 6081SOL     OW19141   6.196   3.143   5.042
 6081SOL    HW119142   6.274   3.205   5.041
 6081SOL    HW219143   6.111   3.196   5.054
 6082SOL     OW19144   3.586   1.375   3.186
 6082SOL    HW119145   3.598   1.291   3.240
 6082SOL    HW219146   3.525   1.437   3.235
 6083SOL     OW19147   0.628   6.353   5.926
 6083SOL    HW119148   0.684   6.433   5.951
 6083SOL    HW219149   0.542   6.356   5.978
 6084SOL     OW19150   0.316   5.534   4.024
 6084SOL    HW119151   0.391   5.581   3.978
 6084SOL    HW219152   0.231   5.585   4.011
 6085SOL     OW19153   0.413   4.359   6.969
 6085SOL    HW119154   0.380   4.453   6.977
 6085SOL    HW219155   0.500   4.350   0.001
 6086SOL     OW19156   3.193   1.449   5.027
 6086SOL    HW119157   3.165   1.531   5.078
 6086SOL    HW219158   3.174   1.463   4.930
 6087SOL     OW19159   4.924   5.909   6.657
 6087SOL    HW119160   4.886   5.879   6.745
 6087SOL    HW219161   4.973   5.833   6.614
 6088SOL     OW19162   6.279   6.293   4.549
 6088SOL    HW119163   6.375   6.311   4.573
 6088SOL    HW219164   6.231   6.380   4.538
 6089SOL     OW19165   0.780   3.717   1.352
 6089SOL    HW119166   0.753   3.731   1.447
 6089SOL    HW219167   0.827   3.798   1.318
 6090SOL     OW19168   1.822   5.828   6.205
 6090SOL    HW119169   1.886   5.886   6.256
 6090SOL    HW219170   1.866   5.798   6.120
 6091SOL     OW19171   1.279   1.883   2.413
 6091SOL    HW119172   1.300   1.853   2.320
 6091SOL    HW219173   1.268   1.982   2.414
 6092SOL     OW19174   2.778   0.475   3.359
 6092SOL    HW119175   2.821   0.493   3.270
 6092SOL    HW219176   2.740   0.560   3.396
 6093SOL     OW19177   1.250   2.955   3.220
 6093SOL    HW119178   1.314   3.029   3.200
 6093SOL    HW219179   1.269   2.877   3.160
 6094SOL     OW19180   3.882   0.868   0.964
 6094SOL    HW119181   3.840   0.785   0.926
 6094SOL    HW219182   3.927   0.847   1.050
 6095SOL     OW19183   4.822   3.032   6.367
 6095SOL    HW119184   4.774   3.005   6.450
 6095SOL    HW219185   4.845   2.951   6.313
 6096SOL     OW19186   5.781   0.468   2.986
 6096SOL    HW119187   5.810   0.382   2.943
 6096SOL    HW219188   5.715   0.449   3.058
 6097SOL     OW19189   1.773   0.064   2.018
 6097SOL    HW119190   1.725   0.101   2.098
 6097SOL    HW219191   1.775   0.133   1.946
 6098SOL     OW19192   1.152   2.057   6.080
 6098SOL    HW119193   1.206   1.973   6.091
 6098SOL    HW219194   1.056   2.032   6.068
 6099SOL     OW19195   6.996   5.780   0.336
 6099SOL    HW119196   0.009   5.875   0.328
 6099SOL    HW219197   0.029   5.724   0.270
 6100SOL     OW19198   5.368   3.273   6.603
 6100SOL    HW119199   5.351   3.230   6.692
 6100SOL    HW219200   5.390   3.203   6.536
 6101SOL     OW19201   6.086   2.165   5.491
 6101SOL    HW119202   6.179   2.155   5.528
 6101SOL    HW219203   6.051   2.076   5.464
 6102SOL     OW19204   3.856   0.716   4.088
 6102SOL    HW119205   3.765   0.718   4.129
 6102SOL    HW219206   3.925   0.723   4.161
 6103SOL     OW19207   0.402   1.554   3.115
 6103SOL    HW119208   0.399   1.526   3.211
 6103SOL    HW219209   0.490   1.530   3.076
 6104SOL     OW19210   6.616   2.635   6.194
 6104SOL    HW119211   6.674   2.710   6.162
 6104SOL    HW219212   6.535   2.672   6.239
 6105SOL     OW19213   2.251   0.039   5.918
 6105SOL    HW119214   2.259   0.137   5.936
 6105SOL    HW219215   2.342   7.014   5.922
 6106SOL     OW19216   1.322   4.449   5.496
 6106SOL    HW119217   1.311   4.542   5.460
 6106SOL    HW219218   1.360   4.453   5.588
 6107SOL     OW19219   2.328   5.140   4.108
 6107SOL    HW119220   2.316   5.224   4.161
 6107SOL    HW219221   2.238   5.103   4.084
 6108SOL     OW19222   0.466   2.396   3.307
 6108SOL    HW119223   0.366   2.386   3.304
 6108SOL    HW219224   0.493   2.430   3.397
 6109SOL     OW19225   5.151   3.294   6.177
 6109SOL    HW119226   5.249   3.290   6.198
 6109SOL    HW219227   5.128   3.384   6.139
 6110SOL     OW19228   3.877   3.237   0.046
 6110SOL    HW119229   3.961   3.206   0.090
 6110SOL    HW219230   3.900   3.285   6.978
 6111SOL     OW19231   1.747   4.686   2.825
 6111SOL    HW119232   1.768   4.606   2.882
 6111SOL    HW219233   1.649   4.689   2.807
 6112SOL     OW19234   3.721   1.320   3.553
 6112SOL    HW119235   3.765   1.236   3.584
 6112SOL    HW219236   3.622   1.308   3.553
 6113SOL     OW19237   0.357   1.138   5.936
 6113SOL    HW119238   0.402   1.099   5.856
 6113SOL    HW219239   0.339   1.065   6.003
 6114SOL     OW19240   4.735   4.468   1.238
 6114SOL    HW119241   4.826   4.426   1.245
 6114SOL    HW219242   4.720   4.529   1.316
 6115SOL     OW19243   5.556   6.096   3.145
 6115SOL    HW119244   5.490   6.156   3.190
 6115SOL    HW219245   5.622   6.152   3.094
 6116SOL     OW19246   2.855   1.137   1.285
 6116SOL    HW119247   2.793   1.082   1.341
 6116SOL    HW219248   2.804   1.205   1.234
 6117SOL     OW19249   6.612   0.393   5.889
 6117SOL    HW119250   6.605   0.492   5.905
 6117SOL    HW219251   6.642   0.377   5.795
 6118SOL     OW19252   6.684   0.837   1.594
 6118SOL    HW119253   6.614   0.766   1.584
 6118SOL    HW219254   6.682   0.897   1.514
 6119SOL     OW19255   1.282   3.442   3.963
 6119SOL    HW119256   1.240   3.374   4.024
 6119SOL    HW219257   1.352   3.493   4.013
 6120SOL     OW19258   4.101   6.926   3.621
 6120SOL    HW119259   4.078   0.000   3.654
 6120SOL    HW219260   4.095   6.861   3.697
 6121SOL     OW19261   0.347   3.049   4.396
 6121SOL    HW119262   0.292   2.966   4.389
 6121SOL    HW219263   0.391   3.067   4.308
 6122SOL     OW19264   3.432   6.960   1.699
 6122SOL    HW119265   3.338   6.983   1.675
 6122SOL    HW219266   3.478   0.024   1.734
 6123SOL     OW19267   6.561   0.385   0.152
 6123SOL    HW119268   6.532   0.291   0.133
 6123SOL    HW219269   6.535   0.409   0.246
 6124SOL     OW19270   3.467   0.650   5.455
 6124SOL    HW119271   3.541   0.717   5.456
 6124SOL    HW219272   3.382   0.695   5.427
 6125SOL     OW19273   3.092   5.623   0.847
 6125SOL    HW119274   3.110   5.609   0.944
 6125SOL    HW219275   3.043   5.709   0.834
 6126SOL     OW19276   5.957   0.093   4.272
 6126SOL    HW119277   6.016   0.037   4.330
 6126SOL    HW219278   5.888   0.139   4.328
 6127SOL     OW19279   2.367   0.758   2.558
 6127SOL    HW119280   2.403   0.771   2.650
 6127SOL    HW219281   2.277   0.714   2.563
 6128SOL     OW19282   6.862   3.138   0.461
 6128SOL    HW119283   6.846   3.124   0.559
 6128SOL    HW219284   6.870   3.236   0.443
 6129SOL     OW19285   5.972   4.654   3.222
 6129SOL    HW119286   6.020   4.645   3.309
 6129SOL    HW219287   6.022   4.717   3.162
 6130SOL     OW19288   5.820   1.842   3.978
 6130SOL    HW119289   5.730   1.806   4.000
 6130SOL    HW219290   5.888   1.800   4.039
 6131SOL     OW19291   6.525   1.562   5.420
 6131SOL    HW119292   6.521   1.657   5.452
 6131SOL    HW219293   6.448   1.545   5.359
 6132SOL     OW19294   4.982   1.149   0.033
 6132SOL    HW119295   5.023   1.125   0.121
 6132SOL    HW219296   4.894   1.193   0.048
 6133SOL     OW19297   1.041   2.740   2.942
 6133SOL    HW119298   1.130   2.695   2.947
 6133SOL    HW219299   0.975   2.690   2.997
 6134SOL     OW19300   3.301   4.388   0.250
 6134SOL    HW119301   3.250   4.376   0.336
 6134SOL    HW219302   3.259   4.333   0.178
 6135SOL     OW19303   0.341   6.635   1.655
 6135SOL    HW119304   0.304   6.596   1.571
 6135SOL    HW219305   0.417   6.697   1.632
 6136SOL     OW19306   0.723   2.311   2.527
 6136SOL    HW119307   0.796   2.362   2.481
 6136SOL    HW219308   0.723   2.334   2.624
 6137SOL     OW19309   4.600   1.868   4.870
 6137SOL    HW119310   4.591   1.772   4.841
 6137SOL    HW219311   4.520   1.893   4.924
 6138SOL     OW19312   3.622   6.772   2.786
 6138SOL    HW119313   3.636   6.747   2.690
 6138SOL    HW219314   3.645   6.868   2.800
 6139SOL     OW19315   1.859   2.600   4.812
 6139SOL    HW119316   1.948   2.582   4.771
 6139SOL    HW219317   1.851   2.552   4.899
 6140SOL     OW19318   0.503   6.105   1.591
 6140SOL    HW119319   0.480   6.189   1.543
 6140SOL    HW219320   0.581   6.121   1.652
 6141SOL     OW19321   5.885   6.159   5.437
 6141SOL    HW119322   5.956   6.097   5.472
 6141SOL    HW219323   5.891   6.164   5.338
 6142SOL     OW19324   6.963   5.239   0.977
 6142SOL    HW119325   0.040   5.213   0.956
 6142SOL    HW219326   6.921   5.171   1.036
 6143SOL     OW19327   6.166   4.750   0.286
 6143SOL    HW119328   6.209   4.714   0.368
 6143SOL    HW219329   6.222   4.728   0.206
 6144SOL     OW19330   6.166   4.783   2.447
 6144SOL    HW119331   6.189   4.686   2.449
 6144SOL    HW219332   6.249   4.838   2.436
 6145SOL     OW19333   4.718   6.162   4.394
 6145SOL    HW119334   4.764   6.074   4.406
 6145SOL    HW219335   4.741   6.222   4.470
 6146SOL     OW19336   4.076   1.326   3.616
 6146SOL    HW119337   4.094   1.262   3.542
 6146SOL    HW219338   4.148   1.394   3.620
 6147SOL     OW19339   1.660   4.206   4.319
 6147SOL    HW119340   1.633   4.205   4.223
 6147SOL    HW219341   1.680   4.112   4.348
 6148SOL     OW19342   6.654   0.110   4.609
 6148SOL    HW119343   6.666   0.044   4.683
 6148SOL    HW219344   6.687   0.200   4.638
 6149SOL     OW19345   2.967   4.868   2.960
 6149SOL    HW119346   3.040   4.891   2.896
 6149SOL    HW219347   2.949   4.946   3.020
 6150SOL     OW19348   3.879   4.930   6.831
 6150SOL    HW119349   3.824   4.980   6.765
 6150SOL    HW219350   3.826   4.916   6.915
 6151SOL     OW19351   5.765   4.152   4.713
 6151SOL    HW119352   5.778   4.232   4.773
 6151SOL    HW219353   5.731   4.075   4.767
 6152SOL     OW19354   5.763   5.085   5.475
 6152SOL    HW119355   5.719   5.174   5.490
 6152SOL    HW219356   5.763   5.063   5.378
 6153SOL     OW19357   4.861   3.917   1.868
 6153SOL    HW119358   4.832   4.010   1.845
 6153SOL    HW219359   4.956   3.904   1.842
 6154SOL     OW19360   5.565   1.658   2.724
 6154SOL    HW119361   5.498   1.652   2.798
 6154SOL    HW219362   5.604   1.568   2.706
 6155SOL     OW19363   1.987   1.892   4.771
 6155SOL    HW119364   1.955   1.976   4.814
 6155SOL    HW219365   1.948   1.813   4.818
 6156SOL     OW19366   4.463   4.864   2.470
 6156SOL    HW119367   4.475   4.802   2.392
 6156SOL    HW219368   4.531   4.937   2.465
 6157SOL     OW19369   1.203   1.735   4.683
 6157SOL    HW119370   1.138   1.812   4.680
 6157SOL    HW219371   1.296   1.770   4.676
 6158SOL     OW19372   4.501   0.701   6.113
 6158SOL    HW119373   4.540   0.766   6.047
 6158SOL    HW219374   4.571   0.675   6.180
 6159SOL     OW19375   4.789   2.746   0.635
 6159SOL    HW119376   4.824   2.654   0.618
 6159SOL    HW219377   4.692   2.742   0.657
 6160SOL     OW19378   5.493   6.371   0.416
 6160SOL    HW119379   5.447   6.350   0.330
 6160SOL    HW219380   5.573   6.312   0.427
 6161SOL     OW19381   5.828   2.363   5.569
 6161SOL    HW119382   5.882   2.322   5.643
 6161SOL    HW219383   5.820   2.297   5.494
 6162SOL     OW19384   0.768   5.397   3.800
 6162SOL    HW119385   0.716   5.354   3.726
 6162SOL    HW219386   0.711   5.400   3.882
 6163SOL     OW19387   5.127   6.249   1.939
 6163SOL    HW119388   5.098   6.312   2.011
 6163SOL    HW219389   5.095   6.283   1.850
 6164SOL     OW19390   1.972   3.173   1.460
 6164SOL    HW119391   1.995   3.269   1.445
 6164SOL    HW219392   1.957   3.128   1.371
 6165SOL     OW19393   3.761   6.749   5.982
 6165SOL    HW119394   3.741   6.847   5.993
 6165SOL    HW219395   3.727   6.699   6.062
 6166SOL     OW19396   4.035   1.022   5.359
 6166SOL    HW119397   3.967   1.048   5.291
 6166SOL    HW219398   4.021   0.927   5.386
 6167SOL     OW19399   0.369   4.500   2.315
 6167SOL    HW119400   0.467   4.490   2.332
 6167SOL    HW219401   0.349   4.595   2.290
 6168SOL     OW19402   0.546   3.305   0.506
 6168SOL    HW119403   0.526   3.403   0.498
 6168SOL    HW219404   0.557   3.282   0.603
 6169SOL     OW19405   0.886   3.564   2.446
 6169SOL    HW119406   0.906   3.485   2.503
 6169SOL    HW219407   0.831   3.536   2.368
 6170SOL     OW19408   0.758   3.414   5.217
 6170SOL    HW119409   0.844   3.425   5.167
 6170SOL    HW219410   0.752   3.322   5.254
 6171SOL     OW19411   0.643   1.686   0.271
 6171SOL    HW119412   0.707   1.757   0.239
 6171SOL    HW219413   0.606   1.713   0.360
 6172SOL     OW19414   1.374   3.335   2.941
 6172SOL    HW119415   1.406   3.307   2.850
 6172SOL    HW219416   1.362   3.254   2.999
 6173SOL     OW19417   6.866   5.484   3.370
 6173SOL    HW119418   6.846   5.577   3.340
 6173SOL    HW219419   6.805   5.420   3.323
 6174SOL     OW19420   4.586   5.170   4.195
 6174SOL    HW119421   4.622   5.246   4.140
 6174SOL    HW219422   4.661   5.124   4.242
 6175SOL     OW19423   3.447   0.446   4.043
 6175SOL    HW119424   3.492   0.530   4.072
 6175SOL    HW219425   3.412   0.398   4.123
 6176SOL     OW19426   4.762   3.815   5.250
 6176SOL    HW119427   4.824   3.806   5.328
 6176SOL    HW219428   4.740   3.724   5.214
 6177SOL     OW19429   5.300   1.832   2.053
 6177SOL    HW119430   5.229   1.861   1.989
 6177SOL    HW219431   5.290   1.735   2.073
 6178SOL     OW19432   5.370   3.655   2.238
 6178SOL    HW119433   5.285   3.701   2.264
 6178SOL    HW219434   5.401   3.598   2.315
 6179SOL     OW19435   6.634   4.515   1.858
 6179SOL    HW119436   6.729   4.539   1.839
 6179SOL    HW219437   6.630   4.453   1.936
 6180SOL     OW19438   2.939   5.018   0.990
 6180SOL    HW119439   2.957   5.088   1.060
 6180SOL    HW219440   2.969   4.929   1.024
 6181SOL     OW19441   4.969   6.332   6.128
 6181SOL    HW119442   5.019   6.325   6.214
 6181SOL    HW219443   4.877   6.294   6.139
 6182SOL     OW19444   4.522   2.960   6.252
 6182SOL    HW119445   4.589   3.021   6.207
 6182SOL    HW219446   4.477   3.010   6.326
 6183SOL     OW19447   1.696   2.245   2.288
 6183SOL    HW119448   1.775   2.185   2.274
 6183SOL    HW219449   1.612   2.195   2.271
 6184SOL     OW19450   3.540   0.070   5.934
 6184SOL    HW119451   3.552   0.169   5.942
 6184SOL    HW219452   3.607   0.024   5.991
 6185SOL     OW19453   1.540   4.628   5.931
 6185SOL    HW119454   1.475   4.646   6.005
 6185SOL    HW219455   1.614   4.570   5.966
 6186SOL     OW19456   6.155   1.366   1.201
 6186SOL    HW119457   6.095   1.420   1.260
 6186SOL    HW219458   6.137   1.269   1.215
 6187SOL     OW19459   4.857   3.287   4.577
 6187SOL    HW119460   4.880   3.332   4.664
 6187SOL    HW219461   4.911   3.327   4.503
 6188SOL     OW19462   1.733   1.715   5.902
 6188SOL    HW119463   1.789   1.757   5.831
 6188SOL    HW219464   1.789   1.656   5.959
 6189SOL     OW19465   3.399   4.928   2.911
 6189SOL    HW119466   3.455   4.921   2.995
 6189SOL    HW219467   3.459   4.948   2.834
 6190SOL     OW19468   0.002   3.351   5.402
 6190SOL    HW119469   0.098   3.373   5.384
 6190SOL    HW219470   7.010   3.253   5.420
 6191SOL     OW19471   2.463   3.276   5.857
 6191SOL    HW119472   2.376   3.226   5.863
 6191SOL    HW219473   2.507   3.257   5.769
 6192SOL     OW19474   2.785   2.087   6.521
 6192SOL    HW119475   2.711   2.154   6.511
 6192SOL    HW219476   2.749   2.004   6.564
 6193SOL     OW19477   4.554   6.266   1.372
 6193SOL    HW119478   4.479   6.200   1.372
 6193SOL    HW219479   4.586   6.281   1.278
 6194SOL     OW19480   6.283   0.452   6.484
 6194SOL    HW119481   6.251   0.362   6.514
 6194SOL    HW219482   6.275   0.459   6.385
 6195SOL     OW19483   5.560   6.314   4.496
 6195SOL    HW119484   5.599   6.224   4.479
 6195SOL    HW219485   5.583   6.343   4.589
 6196SOL     OW19486   4.561   4.378   2.489
 6196SOL    HW119487   4.561   4.420   2.398
 6196SOL    HW219488   4.483   4.412   2.541
 6197SOL     OW19489   2.449   5.133   2.317
 6197SOL    HW119490   2.350   5.142   2.307
 6197SOL    HW219491   2.492   5.222   2.304
 6198SOL     OW19492   4.596   6.063   0.342
 6198SOL    HW119493   4.552   6.104   0.422
 6198SOL    HW219494   4.551   6.097   0.259
 6199SOL     OW19495   0.670   0.978   0.313
 6199SOL    HW119496   0.735   0.973   0.389
 6199SOL    HW219497   0.580   1.002   0.348
 6200SOL     OW19498   0.698   1.761   4.374
 6200SOL    HW119499   0.756   1.753   4.293
 6200SOL    HW219500   0.685   1.670   4.415
 6201SOL     OW19501   1.223   3.035   4.426
 6201SOL    HW119502   1.297   3.026   4.493
 6201SOL    HW219503   1.137   3.055   4.472
 6202SOL     OW19504   5.748   1.568   2.272
 6202SOL    HW119505   5.693   1.603   2.196
 6202SOL    HW219506   5.840   1.546   2.240
 6203SOL     OW19507   5.477   5.286   2.144
 6203SOL    HW119508   5.496   5.327   2.055
 6203SOL    HW219509   5.501   5.189   2.142
 6204SOL     OW19510   0.879   5.966   5.337
 6204SOL    HW119511   0.865   6.027   5.415
 6204SOL    HW219512   0.965   5.916   5.349
 6205SOL     OW19513   5.784   4.391   1.174
 6205SOL    HW119514   5.776   4.292   1.166
 6205SOL    HW219515   5.812   4.415   1.267
 6206SOL     OW19516   5.471   1.094   3.150
 6206SOL    HW119517   5.429   1.185   3.147
 6206SOL    HW219518   5.546   1.093   3.216
 6207SOL     OW19519   1.771   6.160   4.905
 6207SOL    HW119520   1.769   6.069   4.946
 6207SOL    HW219521   1.857   6.172   4.855
 6208SOL     OW19522   3.123   2.370   5.570
 6208SOL    HW119523   3.136   2.412   5.660
 6208SOL    HW219524   3.164   2.428   5.500
 6209SOL     OW19525   3.392   5.440   0.683
 6209SOL    HW119526   3.411   5.364   0.621
 6209SOL    HW219527   3.387   5.406   0.777
 6210SOL     OW19528   5.260   3.919   3.095
 6210SOL    HW119529   5.164   3.903   3.072
 6210SOL    HW219530   5.266   3.967   3.183
 6211SOL     OW19531   3.730   6.359   5.401
 6211SOL    HW119532   3.701   6.430   5.337
 6211SOL    HW219533   3.830   6.350   5.397
 6212SOL     OW19534   2.255   4.823   3.955
 6212SOL    HW119535   2.188   4.770   4.006
 6212SOL    HW219536   2.346   4.787   3.972
 6213SOL     OW19537   4.411   6.620   0.034
 6213SOL    HW119538   4.332   6.593   6.996
 6213SOL    HW219539   4.486   6.648   6.990
 6214SOL     OW19540   5.607   5.877   5.659
 6214SOL    HW119541   5.646   5.953   5.711
 6214SOL    HW219542   5.514   5.858   5.693
 6215SOL     OW19543   4.092   2.840   5.967
 6215SOL    HW119544   4.160   2.836   6.040
 6215SOL    HW219545   4.084   2.934   5.934
 6216SOL     OW19546   6.080   2.690   2.602
 6216SOL    HW119547   6.152   2.628   2.570
 6216SOL    HW219548   6.008   2.696   2.534
 6217SOL     OW19549   0.983   4.975   2.446
 6217SOL    HW119550   0.910   4.964   2.379
 6217SOL    HW219551   0.944   4.996   2.535
 6218SOL     OW19552   3.784   6.317   0.182
 6218SOL    HW119553   3.829   6.229   0.171
 6218SOL    HW219554   3.783   6.366   0.094
 6219SOL     OW19555   1.740   0.731   4.956
 6219SOL    HW119556   1.731   0.642   4.912
 6219SOL    HW219557   1.797   0.790   4.900
 6220SOL     OW19558   3.331   0.756   6.384
 6220SOL    HW119559   3.322   0.727   6.289
 6220SOL    HW219560   3.260   0.822   6.407
 6221SOL     OW19561   6.226   6.567   6.639
 6221SOL    HW119562   6.208   6.472   6.668
 6221SOL    HW219563   6.162   6.591   6.567
 6222SOL     OW19564   6.523   6.984   2.208
 6222SOL    HW119565   6.517   0.004   2.116
 6222SOL    HW219566   6.607   7.015   2.251
 6223SOL     OW19567   1.487   5.648   3.235
 6223SOL    HW119568   1.396   5.684   3.254
 6223SOL    HW219569   1.518   5.595   3.314
 6224SOL     OW19570   4.165   1.613   5.581
 6224SOL    HW119571   4.133   1.523   5.609
 6224SOL    HW219572   4.090   1.679   5.589
 6225SOL     OW19573   4.303   2.210   6.392
 6225SOL    HW119574   4.288   2.139   6.462
 6225SOL    HW219575   4.214   2.248   6.365
 6226SOL     OW19576   1.140   1.437   4.061
 6226SOL    HW119577   1.155   1.504   3.988
 6226SOL    HW219578   1.071   1.472   4.125
 6227SOL     OW19579   3.072   4.814   5.089
 6227SOL    HW119580   3.053   4.841   5.183
 6227SOL    HW219581   3.024   4.728   5.069
 6228SOL     OW19582   0.512   2.467   3.564
 6228SOL    HW119583   0.573   2.388   3.560
 6228SOL    HW219584   0.534   2.522   3.644
 6229SOL     OW19585   6.883   2.937   5.477
 6229SOL    HW119586   6.795   2.889   5.468
 6229SOL    HW219587   6.880   2.995   5.559
 6230SOL     OW19588   1.670   1.884   3.520
 6230SOL    HW119589   1.631   1.942   3.448
 6230SOL    HW219590   1.737   1.936   3.572
 6231SOL     OW19591   5.386   5.708   0.892
 6231SOL    HW119592   5.304   5.759   0.866
 6231SOL    HW219593   5.453   5.771   0.931
 6232SOL     OW19594   5.989   1.398   0.471
 6232SOL    HW119595   6.080   1.437   0.481
 6232SOL    HW219596   5.988   1.336   0.392
 6233SOL     OW19597   6.790   3.376   1.674
 6233SOL    HW119598   6.828   3.392   1.766
 6233SOL    HW219599   6.801   3.280   1.650
 6234SOL     OW19600   0.054   0.517   5.476
 6234SOL    HW119601   0.056   0.424   5.511
 6234SOL    HW219602   0.032   0.516   5.378
 6235SOL     OW19603   6.935   0.727   1.648
 6235SOL    HW119604   6.984   0.714   1.562
 6235SOL    HW219605   6.850   0.776   1.630
 6236SOL     OW19606   0.031   4.436   0.475
 6236SOL    HW119607   0.081   4.488   0.545
 6236SOL    HW219608   0.070   4.454   0.385
 6237SOL     OW19609   3.183   6.580   0.212
 6237SOL    HW119610   3.130   6.550   0.133
 6237SOL    HW219611   3.277   6.545   0.204
 6238SOL     OW19612   3.971   6.558   3.577
 6238SOL    HW119613   3.916   6.517   3.650
 6238SOL    HW219614   3.911   6.599   3.509
 6239SOL     OW19615   3.504   0.721   1.706
 6239SOL    HW119616   3.489   0.630   1.666
 6239SOL    HW219617   3.430   0.742   1.770
 6240SOL     OW19618   3.134   3.635   4.891
 6240SOL    HW119619   3.185   3.550   4.876
 6240SOL    HW219620   3.049   3.615   4.939
 6241SOL     OW19621   4.145   0.629   3.680
 6241SOL    HW119622   4.125   0.605   3.585
 6241SOL    HW219623   4.060   0.634   3.732
 6242SOL     OW19624   2.357   0.803   3.622
 6242SOL    HW119625   2.281   0.800   3.557
 6242SOL    HW219626   2.369   0.897   3.656
 6243SOL     OW19627   6.720   0.852   5.747
 6243SOL    HW119628   6.710   0.909   5.666
 6243SOL    HW219629   6.810   0.810   5.747
 6244SOL     OW19630   5.061   4.177   3.369
 6244SOL    HW119631   5.051   4.213   3.277
 6244SOL    HW219632   5.053   4.252   3.435
 6245SOL     OW19633   0.976   5.223   1.681
 6245SOL    HW119634   1.022   5.286   1.744
 6245SOL    HW219635   0.927   5.275   1.611
 6246SOL     OW19636   0.766   0.608   4.561
 6246SOL    HW119637   0.792   0.689   4.614
 6246SOL    HW219638   0.845   0.550   4.545
 6247SOL     OW19639   1.315   5.990   3.490
 6247SOL    HW119640   1.350   6.039   3.569
 6247SOL    HW219641   1.237   5.933   3.518
 6248SOL     OW19642   3.458   3.854   6.901
 6248SOL    HW119643   3.521   3.890   6.970
 6248SOL    HW219644   3.449   3.920   6.826
 6249SOL     OW19645   0.137   2.912   1.247
 6249SOL    HW119646   0.074   2.989   1.260
 6249SOL    HW219647   0.155   2.868   1.336
 6250SOL     OW19648   6.485   6.557   0.757
 6250SOL    HW119649   6.550   6.522   0.825
 6250SOL    HW219650   6.469   6.654   0.773
 6251SOL     OW19651   3.830   5.724   4.459
 6251SOL    HW119652   3.749   5.769   4.495
 6251SOL    HW219653   3.883   5.789   4.404
 6252SOL     OW19654   2.705   5.070   0.342
 6252SOL    HW119655   2.700   4.986   0.289
 6252SOL    HW219656   2.799   5.104   0.342
 6253SOL     OW19657   2.259   5.069   4.784
 6253SOL    HW119658   2.220   4.977   4.775
 6253SOL    HW219659   2.356   5.067   4.758
 6254SOL     OW19660   0.689   6.415   1.243
 6254SOL    HW119661   0.754   6.490   1.252
 6254SOL    HW219662   0.657   6.410   1.149
 6255SOL     OW19663   1.827   2.385   0.959
 6255SOL    HW119664   1.747   2.328   0.979
 6255SOL    HW219665   1.875   2.349   0.879
 6256SOL     OW19666   4.641   5.164   2.542
 6256SOL    HW119667   4.652   5.131   2.449
 6256SOL    HW219668   4.587   5.249   2.541
 6257SOL     OW19669   3.952   3.095   0.430
 6257SOL    HW119670   3.973   3.004   0.393
 6257SOL    HW219671   3.885   3.085   0.504
 6258SOL     OW19672   3.417   0.228   5.413
 6258SOL    HW119673   3.401   0.178   5.499
 6258SOL    HW219674   3.443   0.164   5.341
 6259SOL     OW19675   2.126   1.417   6.206
 6259SOL    HW119676   2.094   1.340   6.150
 6259SOL    HW219677   2.056   1.488   6.207
 6260SOL     OW19678   2.006   0.519   1.131
 6260SOL    HW119679   2.064   0.450   1.174
 6260SOL    HW219680   1.943   0.475   1.067
 6261SOL     OW19681   4.832   6.740   1.192
 6261SOL    HW119682   4.830   6.801   1.113
 6261SOL    HW219683   4.744   6.695   1.202
 6262SOL     OW19684   0.713   6.240   2.556
 6262SOL    HW119685   0.659   6.159   2.535
 6262SOL    HW219686   0.742   6.238   2.651
 6263SOL     OW19687   6.778   6.698   5.060
 6263SOL    HW119688   6.698   6.734   5.011
 6263SOL    HW219689   6.813   6.617   5.013
 6264SOL     OW19690   1.325   0.042   1.186
 6264SOL    HW119691   1.324   0.097   1.270
 6264SOL    HW219692   1.359   0.096   1.110
 6265SOL     OW19693   3.865   2.493   0.853
 6265SOL    HW119694   3.772   2.491   0.818
 6265SOL    HW219695   3.914   2.411   0.822
 6266SOL     OW19696   3.781   6.636   3.388
 6266SOL    HW119697   3.709   6.702   3.409
 6266SOL    HW219698   3.839   6.671   3.314
 6267SOL     OW19699   1.092   6.891   5.442
 6267SOL    HW119700   1.069   6.900   5.539
 6267SOL    HW219701   1.184   6.927   5.426
 6268SOL     OW19702   3.320   0.665   2.168
 6268SOL    HW119703   3.275   0.626   2.249
 6268SOL    HW219704   3.255   0.667   2.092
 6269SOL     OW19705   5.673   6.315   1.525
 6269SOL    HW119706   5.578   6.319   1.556
 6269SOL    HW219707   5.729   6.374   1.581
 6270SOL     OW19708   0.750   6.522   0.299
 6270SOL    HW119709   0.810   6.442   0.302
 6270SOL    HW219710   0.697   6.520   0.215
 6271SOL     OW19711   6.136   2.632   6.826
 6271SOL    HW119712   6.210   2.637   6.759
 6271SOL    HW219713   6.065   2.570   6.792
 6272SOL     OW19714   0.595   0.532   0.257
 6272SOL    HW119715   0.689   0.566   0.263
 6272SOL    HW219716   0.594   0.443   0.211
 6273SOL     OW19717   0.402   6.039   3.664
 6273SOL    HW119718   0.459   6.065   3.742
 6273SOL    HW219719   0.308   6.024   3.695
 6274SOL     OW19720   2.373   6.937   4.867
 6274SOL    HW119721   2.311   6.972   4.796
 6274SOL    HW219722   2.391   6.840   4.850
 6275SOL     OW19723   2.160   6.176   0.686
 6275SOL    HW119724   2.204   6.259   0.652
 6275SOL    HW219725   2.138   6.115   0.610
 6276SOL     OW19726   3.271   5.615   3.534
 6276SOL    HW119727   3.252   5.607   3.632
 6276SOL    HW219728   3.369   5.631   3.520
 6277SOL     OW19729   5.256   1.729   1.109
 6277SOL    HW119730   5.345   1.732   1.155
 6277SOL    HW219731   5.257   1.658   1.039
 6278SOL     OW19732   3.931   0.589   6.138
 6278SOL    HW119733   3.843   0.584   6.186
 6278SOL    HW219734   4.001   0.624   6.200
 6279SOL     OW19735   3.842   6.263   0.615
 6279SOL    HW119736   3.772   6.197   0.640
 6279SOL    HW219737   3.909   6.219   0.554
 6280SOL     OW19738   0.110   1.277   6.641
 6280SOL    HW119739   0.079   1.242   6.729
 6280SOL    HW219740   0.139   1.372   6.650
 6281SOL     OW19741   5.929   4.871   3.627
 6281SOL    HW119742   5.959   4.925   3.548
 6281SOL    HW219743   5.997   4.876   3.700
 6282SOL     OW19744   5.964   3.318   5.078
 6282SOL    HW119745   5.909   3.343   5.158
 6282SOL    HW219746   6.035   3.387   5.064
 6283SOL     OW19747   0.678   4.701   4.683
 6283SOL    HW119748   0.677   4.635   4.759
 6283SOL    HW219749   0.706   4.654   4.599
 6284SOL     OW19750   1.203   5.657   6.556
 6284SOL    HW119751   1.168   5.610   6.475
 6284SOL    HW219752   1.127   5.691   6.611
 6285SOL     OW19753   1.542   3.553   3.427
 6285SOL    HW119754   1.482   3.556   3.508
 6285SOL    HW219755   1.514   3.623   3.362
 6286SOL     OW19756   6.380   3.360   4.119
 6286SOL    HW119757   6.478   3.341   4.119
 6286SOL    HW219758   6.362   3.444   4.067
 6287SOL     OW19759   4.291   5.085   5.359
 6287SOL    HW119760   4.313   5.159   5.422
 6287SOL    HW219761   4.193   5.088   5.338
 6288SOL     OW19762   4.154   4.411   1.282
 6288SOL    HW119763   4.211   4.491   1.302
 6288SOL    HW219764   4.191   4.331   1.328
 6289SOL     OW19765   2.734   4.760   6.817
 6289SOL    HW119766   2.787   4.678   6.794
 6289SOL    HW219767   2.641   4.735   6.841
 6290SOL     OW19768   6.305   5.228   6.343
 6290SOL    HW119769   6.365   5.306   6.359
 6290SOL    HW219770   6.249   5.245   6.262
 6291SOL     OW19771   4.008   3.151   2.999
 6291SOL    HW119772   4.080   3.219   3.010
 6291SOL    HW219773   4.018   3.080   3.069
 6292SOL     OW19774   2.118   2.404   4.703
 6292SOL    HW119775   2.047   2.397   4.634
 6292SOL    HW219776   2.182   2.328   4.694
 6293SOL     OW19777   4.263   1.557   0.475
 6293SOL    HW119778   4.239   1.609   0.557
 6293SOL    HW219779   4.362   1.546   0.470
 6294SOL     OW19780   4.342   0.476   3.349
 6294SOL    HW119781   4.356   0.487   3.447
 6294SOL    HW219782   4.427   0.496   3.300
 6295SOL     OW19783   5.346   5.054   5.069
 6295SOL    HW119784   5.403   5.120   5.119
 6295SOL    HW219785   5.327   4.976   5.127
 6296SOL     OW19786   0.430   4.366   5.996
 6296SOL    HW119787   0.488   4.367   5.915
 6296SOL    HW219788   0.413   4.460   6.027
 6297SOL     OW19789   6.225   0.114   5.349
 6297SOL    HW119790   6.245   0.186   5.415
 6297SOL    HW219791   6.160   0.049   5.389
 6298SOL     OW19792   6.602   4.759   6.280
 6298SOL    HW119793   6.694   4.724   6.264
 6298SOL    HW219794   6.539   4.721   6.213
 6299SOL     OW19795   5.687   2.804   2.280
 6299SOL    HW119796   5.616   2.803   2.209
 6299SOL    HW219797   5.723   2.711   2.292
 6300SOL     OW19798   4.603   0.674   6.786
 6300SOL    HW119799   4.565   0.613   6.717
 6300SOL    HW219800   4.671   0.734   6.744
 6301SOL     OW19801   3.002   6.678   6.306
 6301SOL    HW119802   2.996   6.619   6.387
 6301SOL    HW219803   2.968   6.769   6.330
 6302SOL     OW19804   2.413   1.438   5.428
 6302SOL    HW119805   2.457   1.400   5.347
 6302SOL    HW219806   2.392   1.534   5.412
 6303SOL     OW19807   0.935   6.495   5.846
 6303SOL    HW119808   0.893   6.586   5.844
 6303SOL    HW219809   0.906   6.447   5.929
 6304SOL     OW19810   3.976   1.700   3.544
 6304SOL    HW119811   4.059   1.644   3.534
 6304SOL    HW219812   4.002   1.796   3.547
 6305SOL     OW19813   6.108   5.978   6.947
 6305SOL    HW119814   6.131   5.994   6.851
 6305SOL    HW219815   6.040   6.045   6.977
 6306SOL     OW19816   0.232   3.420   3.880
 6306SOL    HW119817   0.291   3.497   3.904
 6306SOL    HW219818   0.137   3.450   3.878
 6307SOL     OW19819   3.413   3.097   4.065
 6307SOL    HW119820   3.392   3.146   3.981
 6307SOL    HW219821   3.466   3.014   4.044
 6308SOL     OW19822   0.875   2.025   5.654
 6308SOL    HW119823   0.785   2.028   5.609
 6308SOL    HW219824   0.930   2.103   5.624
 6309SOL     OW19825   0.251   0.006   4.345
 6309SOL    HW119826   0.199   0.065   4.284
 6309SOL    HW219827   0.189   6.984   4.414
 6310SOL     OW19828   2.284   6.461   2.916
 6310SOL    HW119829   2.309   6.367   2.893
 6310SOL    HW219830   2.305   6.479   3.012
 6311SOL     OW19831   4.989   1.091   6.745
 6311SOL    HW119832   4.960   1.107   6.839
 6311SOL    HW219833   4.911   1.103   6.684
 6312SOL     OW19834   1.694   6.583   6.569
 6312SOL    HW119835   1.612   6.640   6.558
 6312SOL    HW219836   1.747   6.583   6.485
 6313SOL     OW19837   5.523   6.868   3.571
 6313SOL    HW119838   5.567   6.821   3.495
 6313SOL    HW219839   5.471   6.946   3.537
 6314SOL     OW19840   3.429   0.499   1.546
 6314SOL    HW119841   3.475   0.511   1.458
 6314SOL    HW219842   3.451   0.409   1.583
 6315SOL     OW19843   2.145   2.175   4.932
 6315SOL    HW119844   2.239   2.209   4.927
 6315SOL    HW219845   2.103   2.181   4.842
 6316SOL     OW19846   5.074   1.739   5.726
 6316SOL    HW119847   5.133   1.810   5.688
 6316SOL    HW219848   5.032   1.687   5.651
 6317SOL     OW19849   5.174   4.171   2.978
 6317SOL    HW119850   5.216   4.083   3.000
 6317SOL    HW219851   5.243   4.234   2.943
 6318SOL     OW19852   5.197   0.071   0.179
 6318SOL    HW119853   5.115   0.015   0.167
 6318SOL    HW219854   5.277   0.011   0.192
 6319SOL     OW19855   5.902   2.027   4.491
 6319SOL    HW119856   5.950   2.064   4.412
 6319SOL    HW219857   5.812   2.071   4.499
 6320SOL     OW19858   0.187   0.300   3.703
 6320SOL    HW119859   0.209   0.211   3.743
 6320SOL    HW219860   0.271   0.343   3.669
 6321SOL     OW19861   5.281   4.023   0.087
 6321SOL    HW119862   5.294   4.019   0.186
 6321SOL    HW219863   5.371   4.021   0.043
 6322SOL     OW19864   2.680   1.478   0.899
 6322SOL    HW119865   2.586   1.500   0.875
 6322SOL    HW219866   2.727   1.562   0.929
 6323SOL     OW19867   1.916   2.784   1.390
 6323SOL    HW119868   1.987   2.825   1.333
 6323SOL    HW219869   1.894   2.846   1.465
 6324SOL     OW19870   4.201   1.645   0.757
 6324SOL    HW119871   4.191   1.550   0.789
 6324SOL    HW219872   4.227   1.703   0.835
 6325SOL     OW19873   1.799   2.588   2.964
 6325SOL    HW119874   1.845   2.669   2.927
 6325SOL    HW219875   1.865   2.529   3.009
 6326SOL     OW19876   4.879   5.187   5.733
 6326SOL    HW119877   4.902   5.167   5.828
 6326SOL    HW219878   4.857   5.102   5.685
 6327SOL     OW19879   0.185   1.008   3.624
 6327SOL    HW119880   0.160   1.091   3.673
 6327SOL    HW219881   0.112   0.983   3.560
 6328SOL     OW19882   4.812   3.581   0.121
 6328SOL    HW119883   4.813   3.618   0.028
 6328SOL    HW219884   4.724   3.603   0.164
 6329SOL     OW19885   0.820   3.065   5.004
 6329SOL    HW119886   0.917   3.046   4.987
 6329SOL    HW219887   0.771   3.069   4.917
 6330SOL     OW19888   5.570   0.519   2.418
 6330SOL    HW119889   5.633   0.477   2.483
 6330SOL    HW219890   5.540   0.451   2.352
 6331SOL     OW19891   6.581   3.030   4.957
 6331SOL    HW119892   6.591   3.089   5.037
 6331SOL    HW219893   6.519   2.955   4.979
 6332SOL     OW19894   0.602   2.012   1.560
 6332SOL    HW119895   0.684   2.046   1.515
 6332SOL    HW219896   0.539   1.973   1.492
 6333SOL     OW19897   5.097   6.836   6.687
 6333SOL    HW119898   5.056   6.819   6.777
 6333SOL    HW219899   5.135   6.929   6.685
 6334SOL     OW19900   2.386   1.486   1.965
 6334SOL    HW119901   2.321   1.419   1.930
 6334SOL    HW219902   2.455   1.505   1.896
 6335SOL     OW19903   4.821   1.428   0.645
 6335SOL    HW119904   4.916   1.417   0.675
 6335SOL    HW219905   4.760   1.409   0.722
 6336SOL     OW19906   6.898   4.179   6.539
 6336SOL    HW119907   6.941   4.234   6.467
 6336SOL    HW219908   6.944   4.198   6.626
 6337SOL     OW19909   4.483   6.010   4.741
 6337SOL    HW119910   4.524   5.940   4.683
 6337SOL    HW219911   4.468   6.093   4.688
 6338SOL     OW19912   3.004   1.632   4.433
 6338SOL    HW119913   2.991   1.583   4.347
 6338SOL    HW219914   2.939   1.598   4.501
 6339SOL     OW19915   0.950   3.610   3.077
 6339SOL    HW119916   0.966   3.589   3.174
 6339SOL    HW219917   1.033   3.649   3.038
 6340SOL     OW19918   2.393   3.413   1.052
 6340SOL    HW119919   2.350   3.338   1.102
 6340SOL    HW219920   2.322   3.473   1.014
 6341SOL     OW19921   0.898   3.658   3.647
 6341SOL    HW119922   0.903   3.605   3.733
 6341SOL    HW219923   0.989   3.665   3.607
 6342SOL     OW19924   3.249   1.447   0.805
 6342SOL    HW119925   3.264   1.525   0.745
 6342SOL    HW219926   3.333   1.393   0.812
 6343SOL     OW19927   3.784   6.328   6.921
 6343SOL    HW119928   3.728   6.379   6.855
 6343SOL    HW219929   3.776   6.230   6.903
 6344SOL     OW19930   6.007   2.298   3.614
 6344SOL    HW119931   5.966   2.232   3.676
 6344SOL    HW219932   5.996   2.390   3.652
 6345SOL     OW19933   5.060   3.243   1.910
 6345SOL    HW119934   5.010   3.321   1.948
 6345SOL    HW219935   5.021   3.220   1.820
 6346SOL     OW19936   6.592   4.332   5.187
 6346SOL    HW119937   6.632   4.422   5.171
 6346SOL    HW219938   6.623   4.269   5.116
 6347SOL     OW19939   2.405   1.741   2.024
 6347SOL    HW119940   2.443   1.740   2.117
 6347SOL    HW219941   2.375   1.649   2.000
 6348SOL     OW19942   0.978   1.846   5.835
 6348SOL    HW119943   0.955   1.916   5.767
 6348SOL    HW219944   1.078   1.836   5.840
 6349SOL     OW19945   1.519   0.027   0.144
 6349SOL    HW119946   1.588   0.031   0.217
 6349SOL    HW219947   1.431   0.058   0.180
 6350SOL     OW19948   0.838   4.993   2.669
 6350SOL    HW119949   0.777   5.050   2.724
 6350SOL    HW219950   0.835   4.899   2.704
 6351SOL     OW19951   6.387   4.219   3.818
 6351SOL    HW119952   6.374   4.316   3.796
 6351SOL    HW219953   6.364   4.164   3.737
 6352SOL     OW19954   2.428   0.512   3.624
 6352SOL    HW119955   2.391   0.605   3.629
 6352SOL    HW219956   2.386   0.463   3.548
 6353SOL     OW19957   2.540   5.237   0.484
 6353SOL    HW119958   2.611   5.183   0.437
 6353SOL    HW219959   2.450   5.212   0.447
 6354SOL     OW19960   3.921   5.880   2.609
 6354SOL    HW119961   3.975   5.820   2.668
 6354SOL    HW219962   3.834   5.836   2.587
 6355SOL     OW19963   3.254   5.626   0.466
 6355SOL    HW119964   3.268   5.709   0.412
 6355SOL    HW219965   3.283   5.642   0.560
 6356SOL     OW19966   5.515   5.055   0.121
 6356SOL    HW119967   5.555   5.095   0.204
 6356SOL    HW219968   5.454   4.981   0.145
 6357SOL     OW19969   5.811   2.571   1.602
 6357SOL    HW119970   5.736   2.506   1.605
 6357SOL    HW219971   5.842   2.582   1.507
 6358SOL     OW19972   1.008   2.423   6.759
 6358SOL    HW119973   0.936   2.355   6.775
 6358SOL    HW219974   1.068   2.391   6.686
 6359SOL     OW19975   5.939   6.376   0.684
 6359SOL    HW119976   5.847   6.363   0.646
 6359SOL    HW219977   5.985   6.450   0.635
 6360SOL     OW19978   0.525   3.570   4.062
 6360SOL    HW119979   0.615   3.602   4.091
 6360SOL    HW219980   0.466   3.557   4.142
 6361SOL     OW19981   0.308   0.908   0.373
 6361SOL    HW119982   0.354   0.826   0.406
 6361SOL    HW219983   0.219   0.884   0.335
 6362SOL     OW19984   1.637   6.327   6.863
 6362SOL    HW119985   1.581   6.387   6.920
 6362SOL    HW219986   1.682   6.258   6.920
 6363SOL     OW19987   2.888   4.797   3.891
 6363SOL    HW119988   2.797   4.759   3.906
 6363SOL    HW219989   2.887   4.895   3.912
 6364SOL     OW19990   2.257   1.736   5.360
 6364SOL    HW119991   2.357   1.744   5.361
 6364SOL    HW219992   2.220   1.789   5.285
 6365SOL     OW19993   5.747   5.951   5.007
 6365SOL    HW119994   5.774   5.859   5.035
 6365SOL    HW219995   5.656   5.947   4.964
 6366SOL     OW19996   6.601   6.872   4.964
 6366SOL    HW119997   6.555   6.948   5.010
 6366SOL    HW219998   6.671   6.908   4.902
 6367SOL     OW19999   3.422   1.846   2.646
 6367SOL    HW120000   3.373   1.916   2.698
 6367SOL    HW220001   3.360   1.805   2.579
 6368SOL     OW20002   4.317   4.695   4.200
 6368SOL    HW120003   4.320   4.730   4.294
 6368SOL    HW220004   4.241   4.632   4.189
 6369SOL     OW20005   1.996   6.609   4.776
 6369SOL    HW120006   1.977   6.706   4.759
 6369SOL    HW220007   1.914   6.555   4.757
 6370SOL     OW20008   5.168   3.964   3.758
 6370SOL    HW120009   5.121   3.900   3.698
 6370SOL    HW220010   5.127   3.961   3.849
 6371SOL     OW20011   5.601   3.927   1.531
 6371SOL    HW120012   5.561   3.835   1.527
 6371SOL    HW220013   5.680   3.926   1.593
 6372SOL     OW20014   0.219   1.154   2.124
 6372SOL    HW120015   0.249   1.186   2.034
 6372SOL    HW220016   0.183   1.061   2.116
 6373SOL     OW20017   5.917   4.100   2.319
 6373SOL    HW120018   5.956   4.109   2.228
 6373SOL    HW220019   5.842   4.034   2.317
 6374SOL     OW20020   4.644   2.550   0.426
 6374SOL    HW120021   4.663   2.612   0.349
 6374SOL    HW220022   4.579   2.594   0.488
 6375SOL     OW20023   1.005   2.607   2.186
 6375SOL    HW120024   1.049   2.560   2.109
 6375SOL    HW220025   0.922   2.652   2.154
 6376SOL     OW20026   3.899   1.637   5.792
 6376SOL    HW120027   3.962   1.569   5.829
 6376SOL    HW220028   3.948   1.696   5.728
 6377SOL     OW20029   6.744   1.363   5.714
 6377SOL    HW120030   6.798   1.321   5.787
 6377SOL    HW220031   6.786   1.342   5.626
 6378SOL     OW20032   5.015   5.540   3.437
 6378SOL    HW120033   4.936   5.483   3.420
 6378SOL    HW220034   5.012   5.621   3.377
 6379SOL     OW20035   0.916   4.377   5.444
 6379SOL    HW120036   1.002   4.379   5.392
 6379SOL    HW220037   0.913   4.454   5.507
 6380SOL     OW20038   0.231   3.282   4.287
 6380SOL    HW120039   0.261   3.208   4.346
 6380SOL    HW220040   0.135   3.268   4.261
 6381SOL     OW20041   4.207   2.572   0.375
 6381SOL    HW120042   4.231   2.620   0.291
 6381SOL    HW220043   4.205   2.474   0.358
 6382SOL     OW20044   3.039   2.007   1.193
 6382SOL    HW120045   3.079   2.097   1.179
 6382SOL    HW220046   2.965   2.013   1.260
 6383SOL     OW20047   1.274   2.434   2.394
 6383SOL    HW120048   1.355   2.448   2.337
 6383SOL    HW220049   1.279   2.494   2.473
 6384SOL     OW20050   5.862   2.913   2.110
 6384SOL    HW120051   5.834   2.894   2.016
 6384SOL    HW220052   5.793   2.879   2.173
 6385SOL     OW20053   6.810   3.940   1.566
 6385SOL    HW120054   6.749   3.875   1.520
 6385SOL    HW220055   6.759   4.024   1.585
 6386SOL     OW20056   1.854   3.612   0.035
 6386SOL    HW120057   1.905   3.529   0.017
 6386SOL    HW220058   1.845   3.625   0.134
 6387SOL     OW20059   5.955   1.295   0.160
 6387SOL    HW120060   5.878   1.356   0.142
 6387SOL    HW220061   6.039   1.349   0.166
 6388SOL     OW20062   6.413   4.688   2.185
 6388SOL    HW120063   6.435   4.759   2.251
 6388SOL    HW220064   6.328   4.712   2.137
 6389SOL     OW20065   1.692   6.836   1.326
 6389SOL    HW120066   1.666   6.821   1.421
 6389SOL    HW220067   1.715   6.932   1.312
 6390SOL     OW20068   6.236   0.734   6.497
 6390SOL    HW120069   6.259   0.762   6.404
 6390SOL    HW220070   6.260   0.638   6.510
 6391SOL     OW20071   1.560   1.274   6.453
 6391SOL    HW120072   1.556   1.232   6.543
 6391SOL    HW220073   1.476   1.250   6.402
 6392SOL     OW20074   3.147   6.341   3.800
 6392SOL    HW120075   3.048   6.337   3.817
 6392SOL    HW220076   3.174   6.264   3.742
 6393SOL     OW20077   5.807   6.065   1.490
 6393SOL    HW120078   5.787   6.001   1.565
 6393SOL    HW220079   5.756   6.150   1.504
 6394SOL     OW20080   1.526   4.602   1.113
 6394SOL    HW120081   1.535   4.509   1.077
 6394SOL    HW220082   1.610   4.653   1.094
 6395SOL     OW20083   0.087   3.637   2.411
 6395SOL    HW120084   0.150   3.702   2.369
 6395SOL    HW220085   7.012   3.653   2.377
 6396SOL     OW20086   6.072   3.795   5.872
 6396SOL    HW120087   6.129   3.795   5.954
 6396SOL    HW220088   6.107   3.729   5.806
 6397SOL     OW20089   6.141   1.043   2.210
 6397SOL    HW120090   6.234   1.016   2.235
 6397SOL    HW220091   6.122   1.134   2.246
 6398SOL     OW20092   1.629   6.794   1.596
 6398SOL    HW120093   1.647   6.822   1.690
 6398SOL    HW220094   1.540   6.829   1.567
 6399SOL     OW20095   1.894   6.988   0.174
 6399SOL    HW120096   1.955   0.047   0.195
 6399SOL    HW220097   1.868   6.992   0.078
 6400SOL     OW20098   2.001   5.283   2.744
 6400SOL    HW120099   2.044   5.350   2.803
 6400SOL    HW220100   2.020   5.306   2.648
 6401SOL     OW20101   4.681   4.974   2.849
 6401SOL    HW120102   4.679   5.017   2.940
 6401SOL    HW220103   4.599   5.001   2.798
 6402SOL     OW20104   2.117   3.502   3.450
 6402SOL    HW120105   2.155   3.594   3.457
 6402SOL    HW220106   2.029   3.499   3.498
 6403SOL     OW20107   5.582   6.579   5.257
 6403SOL    HW120108   5.534   6.530   5.184
 6403SOL    HW220109   5.530   6.661   5.281
 6404SOL     OW20110   3.777   1.553   2.507
 6404SOL    HW120111   3.783   1.631   2.570
 6404SOL    HW220112   3.816   1.578   2.419
 6405SOL     OW20113   4.613   1.775   4.120
 6405SOL    HW120114   4.705   1.740   4.143
 6405SOL    HW220115   4.555   1.699   4.093
 6406SOL     OW20116   1.484   3.225   2.715
 6406SOL    HW120117   1.426   3.233   2.634
 6406SOL    HW220118   1.580   3.218   2.687
 6407SOL     OW20119   1.732   6.244   3.174
 6407SOL    HW120120   1.683   6.284   3.096
 6407SOL    HW220121   1.666   6.219   3.245
 6408SOL     OW20122   5.931   0.438   1.170
 6408SOL    HW120123   5.909   0.518   1.115
 6408SOL    HW220124   6.030   0.434   1.187
 6409SOL     OW20125   6.951   4.742   3.151
 6409SOL    HW120126   6.972   4.649   3.122
 6409SOL    HW220127   6.861   4.745   3.194
 6410SOL     OW20128   2.337   1.086   6.726
 6410SOL    HW120129   2.410   1.032   6.685
 6410SOL    HW220130   2.267   1.105   6.658
 6411SOL     OW20131   0.958   3.272   2.321
 6411SOL    HW120132   0.987   3.183   2.286
 6411SOL    HW220133   1.019   3.343   2.288
 6412SOL     OW20134   2.704   0.480   6.627
 6412SOL    HW120135   2.670   0.495   6.720
 6412SOL    HW220136   2.637   0.515   6.561
 6413SOL     OW20137   4.001   4.786   4.495
 6413SOL    HW120138   4.072   4.776   4.424
 6413SOL    HW220139   4.022   4.726   4.572
 6414SOL     OW20140   6.707   6.777   6.584
 6414SOL    HW120141   6.645   6.710   6.543
 6414SOL    HW220142   6.777   6.802   6.517
 6415SOL     OW20143   1.633   3.262   3.631
 6415SOL    HW120144   1.538   3.246   3.603
 6415SOL    HW220145   1.687   3.289   3.551
 6416SOL     OW20146   2.949   6.756   6.732
 6416SOL    HW120147   2.950   6.685   6.802
 6416SOL    HW220148   2.997   6.837   6.765
 6417SOL     OW20149   5.130   2.305   0.870
 6417SOL    HW120150   5.197   2.366   0.913
 6417SOL    HW220151   5.173   2.255   0.795
 6418SOL     OW20152   5.051   4.464   2.687
 6418SOL    HW120153   5.140   4.499   2.657
 6418SOL    HW220154   5.051   4.454   2.787
 6419SOL     OW20155   0.260   5.457   5.532
 6419SOL    HW120156   0.187   5.525   5.531
 6419SOL    HW220157   0.231   5.375   5.483
 6420SOL     OW20158   1.733   1.648   3.960
 6420SOL    HW120159   1.721   1.746   3.976
 6420SOL    HW220160   1.715   1.627   3.864
 6421SOL     OW20161   4.989   0.648   1.049
 6421SOL    HW120162   4.995   0.735   1.000
 6421SOL    HW220163   4.924   0.657   1.125
 6422SOL     OW20164   6.629   1.782   5.561
 6422SOL    HW120165   6.600   1.705   5.618
 6422SOL    HW220166   6.729   1.784   5.556
 6423SOL     OW20167   4.591   5.434   4.706
 6423SOL    HW120168   4.611   5.402   4.614
 6423SOL    HW220169   4.566   5.356   4.764
 6424SOL     OW20170   1.146   3.459   4.710
 6424SOL    HW120171   1.212   3.509   4.765
 6424SOL    HW220172   1.090   3.401   4.769
 6425SOL     OW20173   0.354   5.741   2.773
 6425SOL    HW120174   0.454   5.748   2.775
 6425SOL    HW220175   0.319   5.735   2.866
 6426SOL     OW20176   5.815   4.684   4.006
 6426SOL    HW120177   5.726   4.726   3.990
 6426SOL    HW220178   5.828   4.667   4.104
 6427SOL     OW20179   2.949   3.797   2.780
 6427SOL    HW120180   2.920   3.777   2.686
 6427SOL    HW220181   3.017   3.871   2.778
 6428SOL     OW20182   5.483   3.095   0.052
 6428SOL    HW120183   5.484   3.187   0.091
 6428SOL    HW220184   5.416   3.039   0.101
 6429SOL     OW20185   1.200   0.376   5.305
 6429SOL    HW120186   1.238   0.466   5.281
 6429SOL    HW220187   1.221   0.311   5.232
 6430SOL     OW20188   6.213   0.740   4.471
 6430SOL    HW120189   6.225   0.688   4.556
 6430SOL    HW220190   6.253   0.689   4.395
 6431SOL     OW20191   4.386   5.073   2.783
 6431SOL    HW120192   4.288   5.082   2.803
 6431SOL    HW220193   4.437   5.138   2.839
 6432SOL     OW20194   3.453   3.919   6.044
 6432SOL    HW120195   3.456   3.904   5.945
 6432SOL    HW220196   3.529   3.871   6.088
 6433SOL     OW20197   3.180   5.151   0.114
 6433SOL    HW120198   3.262   5.206   0.095
 6433SOL    HW220199   3.161   5.091   0.036
 6434SOL     OW20200   2.463   6.450   6.024
 6434SOL    HW120201   2.401   6.399   6.083
 6434SOL    HW220202   2.416   6.476   5.940
 6435SOL     OW20203   6.384   0.140   0.414
 6435SOL    HW120204   6.317   0.067   0.429
 6435SOL    HW220205   6.346   0.227   0.444
 6436SOL     OW20206   0.772   3.498   3.431
 6436SOL    HW120207   0.828   3.561   3.483
 6436SOL    HW220208   0.755   3.415   3.484
 6437SOL     OW20209   1.167   1.985   5.449
 6437SOL    HW120210   1.162   1.896   5.494
 6437SOL    HW220211   1.233   2.042   5.496
 6438SOL     OW20212   1.395   4.958   6.157
 6438SOL    HW120213   1.391   4.874   6.104
 6438SOL    HW220214   1.461   5.021   6.116
 6439SOL     OW20215   6.187   1.117   2.865
 6439SOL    HW120216   6.211   1.147   2.957
 6439SOL    HW220217   6.089   1.131   2.849
 6440SOL     OW20218   2.755   0.846   6.484
 6440SOL    HW120219   2.714   0.786   6.415
 6440SOL    HW220220   2.795   0.925   6.440
 6441SOL     OW20221   0.137   1.232   2.400
 6441SOL    HW120222   0.039   1.251   2.411
 6441SOL    HW220223   0.155   1.204   2.305
 6442SOL     OW20224   2.677   2.132   4.780
 6442SOL    HW120225   2.657   2.179   4.693
 6442SOL    HW220226   2.740   2.188   4.834
 6443SOL     OW20227   3.633   2.167   6.070
 6443SOL    HW120228   3.708   2.187   6.134
 6443SOL    HW220229   3.652   2.210   5.982
 6444SOL     OW20230   6.768   2.835   4.669
 6444SOL    HW120231   6.681   2.803   4.631
 6444SOL    HW220232   6.809   2.762   4.725
 6445SOL     OW20233   3.757   3.193   3.221
 6445SOL    HW120234   3.822   3.117   3.222
 6445SOL    HW220235   3.683   3.173   3.156
 6446SOL     OW20236   1.057   2.186   0.007
 6446SOL    HW120237   0.958   2.187   0.004
 6446SOL    HW220238   1.093   2.235   6.944
 6447SOL     OW20239   6.753   4.187   1.936
 6447SOL    HW120240   6.841   4.232   1.952
 6447SOL    HW220241   6.736   4.121   2.009
 6448SOL     OW20242   5.056   5.479   1.479
 6448SOL    HW120243   4.991   5.408   1.508
 6448SOL    HW220244   5.148   5.441   1.476
 6449SOL     OW20245   2.546   4.948   2.147
 6449SOL    HW120246   2.544   5.037   2.192
 6449SOL    HW220247   2.467   4.940   2.086
 6450SOL     OW20248   1.101   3.858   0.234
 6450SOL    HW120249   1.110   3.926   0.162
 6450SOL    HW220250   1.188   3.849   0.282
 6451SOL     OW20251   3.176   1.733   5.881
 6451SOL    HW120252   3.180   1.742   5.980
 6451SOL    HW220253   3.095   1.681   5.855
 6452SOL     OW20254   5.090   4.163   2.439
 6452SOL    HW120255   5.073   4.162   2.537
 6452SOL    HW220256   5.186   4.185   2.421
 6453SOL     OW20257   3.155   6.768   1.424
 6453SOL    HW120258   3.194   6.683   1.459
 6453SOL    HW220259   3.066   6.750   1.383
 6454SOL     OW20260   0.251   1.744   1.643
 6454SOL    HW120261   0.218   1.730   1.550
 6454SOL    HW220262   0.291   1.836   1.651
 6455SOL     OW20263   6.710   3.532   3.277
 6455SOL    HW120264   6.801   3.540   3.316
 6455SOL    HW220265   6.696   3.605   3.210
 6456SOL     OW20266   1.147   0.436   2.972
 6456SOL    HW120267   1.115   0.480   2.888
 6456SOL    HW220268   1.123   0.493   3.050
 6457SOL     OW20269   4.861   6.548   2.036
 6457SOL    HW120270   4.850   6.640   2.073
 6457SOL    HW220271   4.958   6.525   2.031
 6458SOL     OW20272   1.482   4.903   4.993
 6458SOL    HW120273   1.425   4.981   4.968
 6458SOL    HW220274   1.424   4.822   5.005
 6459SOL     OW20275   6.215   2.222   2.649
 6459SOL    HW120276   6.297   2.165   2.644
 6459SOL    HW220277   6.241   2.319   2.646
 6460SOL     OW20278   5.735   6.085   5.825
 6460SOL    HW120279   5.741   6.022   5.902
 6460SOL    HW220280   5.682   6.165   5.851
 6461SOL     OW20281   2.985   5.066   0.329
 6461SOL    HW120282   3.039   5.135   0.281
 6461SOL    HW220283   3.021   4.975   0.310
 6462SOL     OW20284   0.583   2.999   4.549
 6462SOL    HW120285   0.604   2.995   4.452
 6462SOL    HW220286   0.495   3.044   4.563
 6463SOL     OW20287   5.305   6.665   1.075
 6463SOL    HW120288   5.332   6.754   1.111
 6463SOL    HW220289   5.214   6.672   1.034
 6464SOL     OW20290   1.388   5.551   5.150
 6464SOL    HW120291   1.316   5.605   5.108
 6464SOL    HW220292   1.369   5.454   5.139
 6465SOL     OW20293   6.671   2.443   2.045
 6465SOL    HW120294   6.610   2.403   1.976
 6465SOL    HW220295   6.766   2.418   2.024
 6466SOL     OW20296   7.014   2.209   6.517
 6466SOL    HW120297   0.051   2.271   6.575
 6466SOL    HW220298   7.014   2.243   6.423
 6467SOL     OW20299   4.623   0.756   0.555
 6467SOL    HW120300   4.607   0.792   0.463
 6467SOL    HW220301   4.579   0.667   0.564
 6468SOL     OW20302   3.450   6.309   1.511
 6468SOL    HW120303   3.462   6.270   1.420
 6468SOL    HW220304   3.472   6.406   1.509
 6469SOL     OW20305   3.151   2.121   4.227
 6469SOL    HW120306   3.248   2.101   4.212
 6469SOL    HW220307   3.100   2.036   4.235
 6470SOL     OW20308   5.608   2.521   0.300
 6470SOL    HW120309   5.693   2.547   0.346
 6470SOL    HW220310   5.562   2.449   0.353
 6471SOL     OW20311   0.511   6.557   5.106
 6471SOL    HW120312   0.522   6.503   5.022
 6471SOL    HW220313   0.596   6.555   5.158
 6472SOL     OW20314   6.202   5.929   2.585
 6472SOL    HW120315   6.229   5.963   2.675
 6472SOL    HW220316   6.225   5.832   2.578
 6473SOL     OW20317   1.945   1.654   4.896
 6473SOL    HW120318   1.983   1.652   4.989
 6473SOL    HW220319   1.845   1.659   4.901
 6474SOL     OW20320   4.154   5.627   5.578
 6474SOL    HW120321   4.143   5.677   5.493
 6474SOL    HW220322   4.069   5.580   5.601
 6475SOL     OW20323   5.884   5.063   4.077
 6475SOL    HW120324   5.937   5.020   4.003
 6475SOL    HW220325   5.890   5.162   4.069
 6476SOL     OW20326   4.395   2.608   6.353
 6476SOL    HW120327   4.434   2.652   6.272
 6476SOL    HW220328   4.456   2.619   6.431
 6477SOL     OW20329   6.861   5.321   0.679
 6477SOL    HW120330   6.858   5.294   0.775
 6477SOL    HW220331   6.811   5.255   0.624
 6478SOL     OW20332   2.833   6.215   2.308
 6478SOL    HW120333   2.926   6.204   2.275
 6478SOL    HW220334   2.816   6.312   2.327
 6479SOL     OW20335   3.085   5.087   4.109
 6479SOL    HW120336   3.007   5.113   4.165
 6479SOL    HW220337   3.133   5.010   4.153
 6480SOL     OW20338   2.306   1.373   0.076
 6480SOL    HW120339   2.343   1.352   7.002
 6480SOL    HW220340   2.375   1.422   0.129
 6481SOL     OW20341   3.381   2.711   1.771
 6481SOL    HW120342   3.399   2.619   1.735
 6481SOL    HW220343   3.466   2.763   1.775
 6482SOL     OW20344   6.321   2.460   5.642
 6482SOL    HW120345   6.325   2.514   5.726
 6482SOL    HW220346   6.382   2.500   5.573
 6483SOL     OW20347   0.619   6.158   4.312
 6483SOL    HW120348   0.692   6.187   4.250
 6483SOL    HW220349   0.534   6.205   4.287
 6484SOL     OW20350   2.475   1.829   2.644
 6484SOL    HW120351   2.535   1.771   2.700
 6484SOL    HW220352   2.438   1.902   2.701
 6485SOL     OW20353   2.330   5.957   4.271
 6485SOL    HW120354   2.331   5.924   4.366
 6485SOL    HW220355   2.359   5.884   4.210
 6486SOL     OW20356   0.694   5.192   2.809
 6486SOL    HW120357   0.762   5.253   2.769
 6486SOL    HW220358   0.668   5.226   2.900
 6487SOL     OW20359   1.188   6.802   4.661
 6487SOL    HW120360   1.219   6.861   4.736
 6487SOL    HW220361   1.267   6.771   4.608
 6488SOL     OW20362   4.404   5.805   4.909
 6488SOL    HW120363   4.381   5.720   4.861
 6488SOL    HW220364   4.427   5.876   4.842
 6489SOL     OW20365   3.158   3.586   6.365
 6489SOL    HW120366   3.063   3.605   6.342
 6489SOL    HW220367   3.163   3.542   6.454
 6490SOL     OW20368   2.688   1.598   6.466
 6490SOL    HW120369   2.739   1.519   6.432
 6490SOL    HW220370   2.694   1.601   6.566
 6491SOL     OW20371   2.584   0.977   1.668
 6491SOL    HW120372   2.628   0.892   1.697
 6491SOL    HW220373   2.537   1.019   1.747
 6492SOL     OW20374   4.065   3.779   4.628
 6492SOL    HW120375   4.031   3.844   4.559
 6492SOL    HW220376   4.061   3.821   4.718
 6493SOL     OW20377   1.560   4.627   6.298
 6493SOL    HW120378   1.588   4.556   6.235
 6493SOL    HW220379   1.614   4.621   6.382
 6494SOL     OW20380   6.775   6.625   2.368
 6494SOL    HW120381   6.696   6.653   2.314
 6494SOL    HW220382   6.852   6.606   2.307
 6495SOL     OW20383   6.869   0.300   4.340
 6495SOL    HW120384   6.900   0.260   4.426
 6495SOL    HW220385   6.770   0.312   4.342
 6496SOL     OW20386   5.681   6.649   1.362
 6496SOL    HW120387   5.683   6.701   1.277
 6496SOL    HW220388   5.586   6.636   1.391
 6497SOL     OW20389   1.053   0.717   0.986
 6497SOL    HW120390   1.127   0.652   0.999
 6497SOL    HW220391   1.022   0.714   0.891
 6498SOL     OW20392   1.075   3.765   4.013
 6498SOL    HW120393   1.159   3.810   3.983
 6498SOL    HW220394   0.997   3.825   3.993
 6499SOL     OW20395   5.645   3.853   4.673
 6499SOL    HW120396   5.646   3.754   4.667
 6499SOL    HW220397   5.676   3.892   4.586
 6500SOL     OW20398   0.401   3.983   1.804
 6500SOL    HW120399   0.384   4.070   1.757
 6500SOL    HW220400   0.383   3.907   1.741
 6501SOL     OW20401   0.693   1.152   1.374
 6501SOL    HW120402   0.671   1.142   1.471
 6501SOL    HW220403   0.615   1.193   1.327
 6502SOL     OW20404   6.674   3.528   1.470
 6502SOL    HW120405   6.743   3.489   1.532
 6502SOL    HW220406   6.641   3.458   1.408
 6503SOL     OW20407   5.778   0.850   3.952
 6503SOL    HW120408   5.771   0.800   4.039
 6503SOL    HW220409   5.762   0.947   3.968
 6504SOL     OW20410   4.666   6.341   6.944
 6504SOL    HW120411   4.651   6.278   0.002
 6504SOL    HW220412   4.611   6.423   6.957
 6505SOL     OW20413   4.832   6.862   6.604
 6505SOL    HW120414   4.931   6.857   6.600
 6505SOL    HW220415   4.793   6.770   6.603
 6506SOL     OW20416   6.952   3.241   3.361
 6506SOL    HW120417   6.937   3.186   3.279
 6506SOL    HW220418   0.005   3.310   3.343
 6507SOL     OW20419   2.640   5.604   6.260
 6507SOL    HW120420   2.645   5.677   6.192
 6507SOL    HW220421   2.549   5.563   6.258
 6508SOL     OW20422   1.817   0.292   3.340
 6508SOL    HW120423   1.851   0.250   3.255
 6508SOL    HW220424   1.729   0.252   3.364
 6509SOL     OW20425   5.068   1.532   4.875
 6509SOL    HW120426   5.163   1.499   4.879
 6509SOL    HW220427   5.031   1.539   4.968
 6510SOL     OW20428   4.455   5.456   0.015
 6510SOL    HW120429   4.495   5.404   0.091
 6510SOL    HW220430   4.384   5.403   6.988
 6511SOL     OW20431   4.306   0.960   5.296
 6511SOL    HW120432   4.365   1.036   5.270
 6511SOL    HW220433   4.210   0.988   5.286
 6512SOL     OW20434   3.350   6.635   2.606
 6512SOL    HW120435   3.375   6.615   2.701
 6512SOL    HW220436   3.260   6.679   2.603
 6513SOL     OW20437   2.019   6.035   4.369
 6513SOL    HW120438   1.946   5.999   4.310
 6513SOL    HW220439   2.085   6.086   4.314
 6514SOL     OW20440   5.810   0.702   4.805
 6514SOL    HW120441   5.808   0.796   4.840
 6514SOL    HW220442   5.731   0.652   4.841
 6515SOL     OW20443   1.112   3.844   2.735
 6515SOL    HW120444   1.097   3.942   2.725
 6515SOL    HW220445   1.036   3.794   2.693
 6516SOL     OW20446   6.581   3.554   1.923
 6516SOL    HW120447   6.564   3.488   1.849
 6516SOL    HW220448   6.495   3.572   1.971
 6517SOL     OW20449   0.026   2.057   0.838
 6517SOL    HW120450   7.005   2.018   0.923
 6517SOL    HW220451   0.089   1.991   0.797
 6518SOL     OW20452   6.501   0.324   2.339
 6518SOL    HW120453   6.547   0.408   2.311
 6518SOL    HW220454   6.569   0.258   2.372
 6519SOL     OW20455   0.549   1.090   3.212
 6519SOL    HW120456   0.637   1.093   3.261
 6519SOL    HW220457   0.474   1.103   3.277
 6520SOL     OW20458   0.050   5.593   6.921
 6520SOL    HW120459   0.115   5.551   6.857
 6520SOL    HW220460   6.988   5.628   6.871
 6521SOL     OW20461   1.520   2.850   3.555
 6521SOL    HW120462   1.556   2.864   3.647
 6521SOL    HW220463   1.430   2.892   3.547
 6522SOL     OW20464   2.274   4.506   5.411
 6522SOL    HW120465   2.287   4.475   5.317
 6522SOL    HW220466   2.298   4.432   5.474
 6523SOL     OW20467   3.955   0.072   0.311
 6523SOL    HW120468   4.020   0.001   0.283
 6523SOL    HW220469   3.972   0.096   0.407
 6524SOL     OW20470   2.753   2.402   1.692
 6524SOL    HW120471   2.835   2.412   1.748
 6524SOL    HW220472   2.771   2.438   1.600
 6525SOL     OW20473   1.952   5.284   3.413
 6525SOL    HW120474   1.914   5.200   3.452
 6525SOL    HW220475   2.051   5.286   3.428
 6526SOL     OW20476   0.779   0.562   1.096
 6526SOL    HW120477   0.844   0.632   1.068
 6526SOL    HW220478   0.731   0.528   1.015
 6527SOL     OW20479   0.368   1.993   6.932
 6527SOL    HW120480   0.453   1.975   6.981
 6527SOL    HW220481   0.320   1.907   6.917
 6528SOL     OW20482   6.304   1.608   5.708
 6528SOL    HW120483   6.373   1.570   5.645
 6528SOL    HW220484   6.272   1.536   5.770
 6529SOL     OW20485   1.314   0.497   2.590
 6529SOL    HW120486   1.357   0.409   2.611
 6529SOL    HW220487   1.369   0.544   2.521
 6530SOL     OW20488   0.381   1.887   0.715
 6530SOL    HW120489   0.480   1.891   0.728
 6530SOL    HW220490   0.345   1.980   0.710
 6531SOL     OW20491   4.594   3.480   5.369
 6531SOL    HW120492   4.609   3.504   5.273
 6531SOL    HW220493   4.674   3.432   5.404
 6532SOL     OW20494   1.966   0.825   1.315
 6532SOL    HW120495   2.045   0.770   1.342
 6532SOL    HW220496   1.988   0.875   1.231
 6533SOL     OW20497   4.531   6.391   0.550
 6533SOL    HW120498   4.484   6.429   0.470
 6533SOL    HW220499   4.625   6.366   0.525
 6534SOL     OW20500   4.894   5.009   1.969
 6534SOL    HW120501   4.906   4.935   2.036
 6534SOL    HW220502   4.835   5.079   2.008
 6535SOL     OW20503   5.979   4.528   4.546
 6535SOL    HW120504   6.068   4.488   4.565
 6535SOL    HW220505   5.943   4.570   4.630
 6536SOL     OW20506   0.023   1.500   5.083
 6536SOL    HW120507   0.023   1.498   4.983
 6536SOL    HW220508   6.959   1.549   5.116
 6537SOL     OW20509   7.007   4.848   4.667
 6537SOL    HW120510   0.064   4.901   4.625
 6537SOL    HW220511   7.003   4.757   4.625
 6538SOL     OW20512   1.191   3.694   5.657
 6538SOL    HW120513   1.144   3.659   5.737
 6538SOL    HW220514   1.232   3.619   5.606
 6539SOL     OW20515   4.433   0.449   6.960
 6539SOL    HW120516   4.455   0.456   6.863
 6539SOL    HW220517   4.483   0.373   7.001
 6540SOL     OW20518   2.701   2.465   5.985
 6540SOL    HW120519   2.690   2.537   6.053
 6540SOL    HW220520   2.786   2.479   5.935
 6541SOL     OW20521   5.194   2.726   5.799
 6541SOL    HW120522   5.133   2.650   5.821
 6541SOL    HW220523   5.289   2.696   5.811
 6542SOL     OW20524   1.212   2.863   4.756
 6542SOL    HW120525   1.157   2.872   4.839
 6542SOL    HW220526   1.171   2.793   4.696
 6543SOL     OW20527   3.567   2.592   5.723
 6543SOL    HW120528   3.642   2.644   5.682
 6543SOL    HW220529   3.499   2.655   5.761
 6544SOL     OW20530   1.136   6.229   2.687
 6544SOL    HW120531   1.218   6.172   2.687
 6544SOL    HW220532   1.158   6.319   2.649
 6545SOL     OW20533   3.883   0.219   0.548
 6545SOL    HW120534   3.897   0.248   0.643
 6545SOL    HW220535   3.788   0.190   0.536
 6546SOL     OW20536   4.100   3.856   6.147
 6546SOL    HW120537   4.184   3.875   6.199
 6546SOL    HW220538   4.029   3.922   6.172
 6547SOL     OW20539   5.179   0.804   6.167
 6547SOL    HW120540   5.120   0.880   6.140
 6547SOL    HW220541   5.127   0.718   6.163
 6548SOL     OW20542   1.554   2.928   0.513
 6548SOL    HW120543   1.643   2.883   0.514
 6548SOL    HW220544   1.487   2.869   0.467
 6549SOL     OW20545   4.654   0.288   1.998
 6549SOL    HW120546   4.626   0.358   1.933
 6549SOL    HW220547   4.604   0.203   1.980
 6550SOL     OW20548   0.213   6.816   3.851
 6550SOL    HW120549   0.140   6.810   3.783
 6550SOL    HW220550   0.222   6.728   3.897
 6551SOL     OW20551   2.585   3.426   1.743
 6551SOL    HW120552   2.626   3.494   1.682
 6551SOL    HW220553   2.497   3.460   1.776
 6552SOL     OW20554   2.561   6.971   0.643
 6552SOL    HW120555   2.465   6.995   0.661
 6552SOL    HW220556   2.583   6.884   0.687
 6553SOL     OW20557   0.597   2.097   3.246
 6553SOL    HW120558   0.556   2.182   3.279
 6553SOL    HW220559   0.630   2.110   3.153
 6554SOL     OW20560   2.420   0.850   4.670
 6554SOL    HW120561   2.503   0.852   4.725
 6554SOL    HW220562   2.426   0.919   4.598
 6555SOL     OW20563   5.768   1.793   3.652
 6555SOL    HW120564   5.735   1.743   3.732
 6555SOL    HW220565   5.729   1.754   3.569
 6556SOL     OW20566   6.213   3.257   3.101
 6556SOL    HW120567   6.174   3.345   3.127
 6556SOL    HW220568   6.308   3.269   3.074
 6557SOL     OW20569   2.704   0.699   2.691
 6557SOL    HW120570   2.710   0.768   2.620
 6557SOL    HW220571   2.616   0.705   2.737
 6558SOL     OW20572   5.950   5.612   0.576
 6558SOL    HW120573   6.010   5.674   0.627
 6558SOL    HW220574   5.874   5.585   0.634
 6559SOL     OW20575   6.705   3.557   5.831
 6559SOL    HW120576   6.610   3.536   5.807
 6559SOL    HW220577   6.732   3.644   5.788
 6560SOL     OW20578   3.691   4.740   0.947
 6560SOL    HW120579   3.692   4.824   0.893
 6560SOL    HW220580   3.779   4.729   0.993
 6561SOL     OW20581   3.782   4.604   1.228
 6561SOL    HW120582   3.748   4.673   1.163
 6561SOL    HW220583   3.805   4.648   1.314
 6562SOL     OW20584   5.756   1.806   1.251
 6562SOL    HW120585   5.802   1.808   1.340
 6562SOL    HW220586   5.809   1.859   1.185
 6563SOL     OW20587   5.238   6.901   5.775
 6563SOL    HW120588   5.299   6.824   5.790
 6563SOL    HW220589   5.154   6.889   5.829
 6564SOL     OW20590   6.505   3.363   1.706
 6564SOL    HW120591   6.596   3.363   1.665
 6564SOL    HW220592   6.441   3.410   1.646
 6565SOL     OW20593   6.081   6.464   2.990
 6565SOL    HW120594   6.150   6.394   3.009
 6565SOL    HW220595   6.042   6.450   2.899
 6566SOL     OW20596   3.065   5.626   2.359
 6566SOL    HW120597   3.106   5.686   2.428
 6566SOL    HW220598   3.133   5.558   2.330
 6567SOL     OW20599   4.864   1.240   1.792
 6567SOL    HW120600   4.832   1.172   1.858
 6567SOL    HW220601   4.945   1.286   1.827
 6568SOL     OW20602   3.784   1.744   3.205
 6568SOL    HW120603   3.701   1.764   3.153
 6568SOL    HW220604   3.759   1.710   3.295
 6569SOL     OW20605   1.923   3.062   6.449
 6569SOL    HW120606   1.866   3.031   6.373
 6569SOL    HW220607   1.974   2.985   6.486
 6570SOL     OW20608   3.170   1.169   2.615
 6570SOL    HW120609   3.205   1.202   2.528
 6570SOL    HW220610   3.127   1.080   2.603
 6571SOL     OW20611   2.536   4.853   2.739
 6571SOL    HW120612   2.465   4.806   2.792
 6571SOL    HW220613   2.625   4.814   2.761
 6572SOL     OW20614   0.101   4.208   3.970
 6572SOL    HW120615   0.042   4.156   3.907
 6572SOL    HW220616   0.178   4.247   3.919
 6573SOL     OW20617   0.962   0.731   3.457
 6573SOL    HW120618   0.871   0.724   3.416
 6573SOL    HW220619   1.019   0.793   3.404
 6574SOL     OW20620   2.537   5.844   3.304
 6574SOL    HW120621   2.504   5.930   3.344
 6574SOL    HW220622   2.630   5.826   3.336
 6575SOL     OW20623   0.360   6.752   3.457
 6575SOL    HW120624   0.293   6.694   3.411
 6575SOL    HW220625   0.364   6.727   3.554
 6576SOL     OW20626   3.158   5.990   0.549
 6576SOL    HW120627   3.211   5.947   0.476
 6576SOL    HW220628   3.214   6.062   0.591
 6577SOL     OW20629   1.347   1.821   3.372
 6577SOL    HW120630   1.392   1.736   3.400
 6577SOL    HW220631   1.417   1.890   3.352
 6578SOL     OW20632   1.177   5.948   1.778
 6578SOL    HW120633   1.272   5.972   1.795
 6578SOL    HW220634   1.142   6.004   1.702
 6579SOL     OW20635   7.005   3.163   4.110
 6579SOL    HW120636   6.998   3.166   4.209
 6579SOL    HW220637   6.913   3.161   4.070
 6580SOL     OW20638   0.789   1.883   0.157
 6580SOL    HW120639   0.873   1.901   0.209
 6580SOL    HW220640   0.807   1.898   0.059
 6581SOL     OW20641   1.809   0.982   1.140
 6581SOL    HW120642   1.717   0.972   1.102
 6581SOL    HW220643   1.811   0.945   1.233
 6582SOL     OW20644   0.224   0.387   2.867
 6582SOL    HW120645   0.182   0.327   2.935
 6582SOL    HW220646   0.260   0.333   2.791
 6583SOL     OW20647   4.872   6.317   5.285
 6583SOL    HW120648   4.823   6.383   5.229
 6583SOL    HW220649   4.832   6.315   5.377
 6584SOL     OW20650   3.570   1.920   0.781
 6584SOL    HW120651   3.559   1.924   0.681
 6584SOL    HW220652   3.587   1.826   0.808
 6585SOL     OW20653   6.219   6.292   6.758
 6585SOL    HW120654   6.308   6.273   6.798
 6585SOL    HW220655   6.192   6.216   6.698
 6586SOL     OW20656   6.440   1.781   5.879
 6586SOL    HW120657   6.469   1.720   5.953
 6586SOL    HW220658   6.404   1.727   5.804
 6587SOL     OW20659   1.510   4.848   6.614
 6587SOL    HW120660   1.451   4.893   6.547
 6587SOL    HW220661   1.528   4.911   6.690
 6588SOL     OW20662   0.401   3.400   1.785
 6588SOL    HW120663   0.461   3.438   1.714
 6588SOL    HW220664   0.416   3.301   1.792
 6589SOL     OW20665   4.336   0.999   1.945
 6589SOL    HW120666   4.325   1.081   2.000
 6589SOL    HW220667   4.381   0.928   1.999
 6590SOL     OW20668   0.517   0.261   5.857
 6590SOL    HW120669   0.567   0.218   5.932
 6590SOL    HW220670   0.543   0.217   5.771
 6591SOL     OW20671   5.581   5.938   4.028
 6591SOL    HW120672   5.617   5.845   4.041
 6591SOL    HW220673   5.493   5.946   4.073
 6592SOL     OW20674   4.866   6.451   2.811
 6592SOL    HW120675   4.815   6.506   2.746
 6592SOL    HW220676   4.958   6.433   2.776
 6593SOL     OW20677   2.651   2.423   2.248
 6593SOL    HW120678   2.635   2.333   2.290
 6593SOL    HW220679   2.728   2.416   2.184
 6594SOL     OW20680   3.282   1.399   5.780
 6594SOL    HW120681   3.302   1.420   5.875
 6594SOL    HW220682   3.282   1.483   5.726
 6595SOL     OW20683   1.387   3.864   6.070
 6595SOL    HW120684   1.416   3.840   6.162
 6595SOL    HW220685   1.292   3.895   6.071
 6596SOL     OW20686   3.374   6.500   3.566
 6596SOL    HW120687   3.474   6.502   3.562
 6596SOL    HW220688   3.344   6.407   3.582
 6597SOL     OW20689   1.984   5.125   2.091
 6597SOL    HW120690   2.041   5.184   2.034
 6597SOL    HW220691   1.973   5.036   2.047
 6598SOL     OW20692   1.697   4.960   4.052
 6598SOL    HW120693   1.758   4.916   3.987
 6598SOL    HW220694   1.602   4.950   4.020
 6599SOL     OW20695   4.379   6.029   6.664
 6599SOL    HW120696   4.404   6.123   6.688
 6599SOL    HW220697   4.425   6.003   6.579
 6600SOL     OW20698   3.728   6.713   4.403
 6600SOL    HW120699   3.680   6.638   4.449
 6600SOL    HW220700   3.827   6.703   4.418
 6601SOL     OW20701   0.589   1.960   3.657
 6601SOL    HW120702   0.532   1.935   3.735
 6601SOL    HW220703   0.584   1.888   3.587
 6602SOL     OW20704   1.838   0.375   1.587
 6602SOL    HW120705   1.888   0.447   1.539
 6602SOL    HW220706   1.742   0.401   1.594
 6603SOL     OW20707   0.856   2.888   4.036
 6603SOL    HW120708   0.892   2.931   3.953
 6603SOL    HW220709   0.919   2.816   4.066
 6604SOL     OW20710   1.934   6.893   1.606
 6604SOL    HW120711   2.013   6.910   1.547
 6604SOL    HW220712   1.921   6.794   1.616
 6605SOL     OW20713   5.691   5.867   2.445
 6605SOL    HW120714   5.702   5.945   2.383
 6605SOL    HW220715   5.642   5.896   2.527
 6606SOL     OW20716   6.868   4.752   2.004
 6606SOL    HW120717   6.814   4.747   2.089
 6606SOL    HW220718   6.946   4.812   2.018
 6607SOL     OW20719   0.148   5.126   3.305
 6607SOL    HW120720   0.122   5.192   3.375
 6607SOL    HW220721   0.248   5.124   3.297
 6608SOL     OW20722   6.931   6.696   0.220
 6608SOL    HW120723   6.996   6.728   0.151
 6608SOL    HW220724   6.842   6.740   0.205
 6609SOL     OW20725   5.308   1.133   6.458
 6609SOL    HW120726   5.271   1.070   6.526
 6609SOL    HW220727   5.403   1.108   6.438
 6610SOL     OW20728   2.592   6.703   0.353
 6610SOL    HW120729   2.691   6.712   0.350
 6610SOL    HW220730   2.550   6.793   0.355
 6611SOL     OW20731   4.873   3.093   3.373
 6611SOL    HW120732   4.829   3.017   3.326
 6611SOL    HW220733   4.963   3.109   3.333
 6612SOL     OW20734   0.234   2.598   6.378
 6612SOL    HW120735   0.177   2.518   6.360
 6612SOL    HW220736   0.221   2.628   6.473
 6613SOL     OW20737   5.956   6.645   5.343
 6613SOL    HW120738   6.025   6.658   5.271
 6613SOL    HW220739   5.979   6.564   5.397
 6614SOL     OW20740   4.457   6.522   0.316
 6614SOL    HW120741   4.454   6.567   0.227
 6614SOL    HW220742   4.412   6.580   0.384
 6615SOL     OW20743   1.383   6.058   1.219
 6615SOL    HW120744   1.478   6.086   1.227
 6615SOL    HW220745   1.336   6.075   1.306
 6616SOL     OW20746   4.865   0.033   6.140
 6616SOL    HW120747   4.770   0.020   6.169
 6616SOL    HW220748   4.882   6.996   6.058
 6617SOL     OW20749   4.203   5.958   3.484
 6617SOL    HW120750   4.143   6.033   3.457
 6617SOL    HW220751   4.188   5.936   3.580
 6618SOL     OW20752   1.030   1.802   2.502
 6618SOL    HW120753   0.985   1.854   2.575
 6618SOL    HW220754   1.122   1.839   2.487
 6619SOL     OW20755   4.661   6.966   3.568
 6619SOL    HW120756   4.647   6.985   3.665
 6619SOL    HW220757   4.749   7.003   3.539
 6620SOL     OW20758   2.114   3.286   4.926
 6620SOL    HW120759   2.093   3.290   5.024
 6620SOL    HW220760   2.165   3.203   4.906
 6621SOL     OW20761   3.723   2.798   5.218
 6621SOL    HW120762   3.815   2.782   5.254
 6621SOL    HW220763   3.729   2.847   5.132
 6622SOL     OW20764   6.414   5.710   1.853
 6622SOL    HW120765   6.350   5.772   1.807
 6622SOL    HW220766   6.380   5.690   1.945
 6623SOL     OW20767   3.475   3.952   4.596
 6623SOL    HW120768   3.528   3.955   4.681
 6623SOL    HW220769   3.386   3.995   4.611
 6624SOL     OW20770   0.803   3.677   5.329
 6624SOL    HW120771   0.758   3.591   5.351
 6624SOL    HW220772   0.845   3.671   5.238
 6625SOL     OW20773   5.126   1.817   5.122
 6625SOL    HW120774   5.075   1.842   5.039
 6625SOL    HW220775   5.207   1.874   5.130
 6626SOL     OW20776   3.341   0.059   5.613
 6626SOL    HW120777   3.344   0.061   5.713
 6626SOL    HW220778   3.380   6.989   5.580
 6627SOL     OW20779   1.888   6.656   4.115
 6627SOL    HW120780   1.878   6.595   4.194
 6627SOL    HW220781   1.978   6.643   4.074
 6628SOL     OW20782   5.648   4.991   4.379
 6628SOL    HW120783   5.717   4.984   4.451
 6628SOL    HW220784   5.610   5.083   4.379
 6629SOL     OW20785   4.965   6.000   6.309
 6629SOL    HW120786   5.037   6.043   6.255
 6629SOL    HW220787   5.002   5.922   6.360
 6630SOL     OW20788   3.488   2.323   1.415
 6630SOL    HW120789   3.510   2.378   1.495
 6630SOL    HW220790   3.455   2.233   1.444
 6631SOL     OW20791   2.111   5.763   4.420
 6631SOL    HW120792   2.094   5.858   4.445
 6631SOL    HW220793   2.104   5.705   4.502
 6632SOL     OW20794   1.441   0.961   0.906
 6632SOL    HW120795   1.372   1.030   0.882
 6632SOL    HW220796   1.429   0.880   0.849
 6633SOL     OW20797   2.334   4.865   5.882
 6633SOL    HW120798   2.344   4.776   5.926
 6633SOL    HW220799   2.267   4.920   5.932
 6634SOL     OW20800   4.908   2.056   5.242
 6634SOL    HW120801   4.928   2.021   5.334
 6634SOL    HW220802   4.935   1.987   5.175
 6635SOL     OW20803   4.763   4.471   3.322
 6635SOL    HW120804   4.745   4.418   3.239
 6635SOL    HW220805   4.677   4.509   3.356
 6636SOL     OW20806   4.247   1.900   0.632
 6636SOL    HW120807   4.233   1.804   0.654
 6636SOL    HW220808   4.308   1.941   0.700
 6637SOL     OW20809   2.306   6.857   6.583
 6637SOL    HW120810   2.302   6.945   6.630
 6637SOL    HW220811   2.247   6.791   6.629
 6638SOL     OW20812   3.493   3.123   3.097
 6638SOL    HW120813   3.519   3.209   3.053
 6638SOL    HW220814   3.426   3.142   3.169
 6639SOL     OW20815   3.508   3.567   6.783
 6639SOL    HW120816   3.524   3.664   6.802
 6639SOL    HW220817   3.563   3.539   6.704
 6640SOL     OW20818   0.159   1.784   4.862
 6640SOL    HW120819   0.129   1.689   4.852
 6640SOL    HW220820   0.109   1.841   4.796
 6641SOL     OW20821   3.635   1.449   0.134
 6641SOL    HW120822   3.688   1.422   0.214
 6641SOL    HW220823   3.546   1.405   0.137
 6642SOL     OW20824   2.796   5.286   5.929
 6642SOL    HW120825   2.795   5.200   5.879
 6642SOL    HW220826   2.730   5.350   5.887
 6643SOL     OW20827   6.484   6.413   0.072
 6643SOL    HW120828   6.547   6.485   0.042
 6643SOL    HW220829   6.468   6.350   7.014
 6644SOL     OW20830   2.158   5.894   2.691
 6644SOL    HW120831   2.216   5.834   2.636
 6644SOL    HW220832   2.100   5.838   2.751
 6645SOL     OW20833   5.385   3.589   0.558
 6645SOL    HW120834   5.421   3.574   0.650
 6645SOL    HW220835   5.450   3.554   0.490
 6646SOL     OW20836   4.130   1.395   5.148
 6646SOL    HW120837   4.161   1.462   5.080
 6646SOL    HW220838   4.188   1.400   5.229
 6647SOL     OW20839   4.547   6.690   0.702
 6647SOL    HW120840   4.579   6.638   0.782
 6647SOL    HW220841   4.611   6.676   0.626
 6648SOL     OW20842   2.870   6.725   4.637
 6648SOL    HW120843   2.887   6.641   4.688
 6648SOL    HW220844   2.957   6.768   4.614
 6649SOL     OW20845   6.035   2.648   5.837
 6649SOL    HW120846   6.087   2.680   5.916
 6649SOL    HW220847   5.988   2.725   5.795
 6650SOL     OW20848   4.272   1.610   4.557
 6650SOL    HW120849   4.302   1.518   4.580
 6650SOL    HW220850   4.279   1.669   4.638
 6651SOL     OW20851   1.885   1.572   6.291
 6651SOL    HW120852   1.841   1.647   6.342
 6651SOL    HW220853   1.872   1.486   6.341
 6652SOL     OW20854   0.327   4.811   6.718
 6652SOL    HW120855   0.341   4.862   6.633
 6652SOL    HW220856   0.229   4.804   6.737
 6653SOL     OW20857   4.410   2.705   1.098
 6653SOL    HW120858   4.400   2.724   1.000
 6653SOL    HW220859   4.449   2.614   1.110
 6654SOL     OW20860   1.103   5.414   2.580
 6654SOL    HW120861   1.134   5.424   2.675
 6654SOL    HW220862   1.183   5.399   2.521
 6655SOL     OW20863   6.840   6.220   2.466
 6655SOL    HW120864   6.879   6.143   2.518
 6655SOL    HW220865   6.858   6.207   2.368
 6656SOL     OW20866   5.689   2.234   2.936
 6656SOL    HW120867   5.709   2.229   2.838
 6656SOL    HW220868   5.759   2.289   2.982
 6657SOL     OW20869   6.407   3.357   5.017
 6657SOL    HW120870   6.492   3.390   4.975
 6657SOL    HW220871   6.405   3.384   5.113
 6658SOL     OW20872   5.403   6.695   5.782
 6658SOL    HW120873   5.490   6.739   5.760
 6658SOL    HW220874   5.389   6.618   5.720
 6659SOL     OW20875   1.339   3.301   1.281
 6659SOL    HW120876   1.426   3.300   1.329
 6659SOL    HW220877   1.269   3.257   1.338
 6660SOL     OW20878   1.689   5.242   1.516
 6660SOL    HW120879   1.681   5.298   1.598
 6660SOL    HW220880   1.618   5.171   1.517
 6661SOL     OW20881   2.467   0.218   5.711
 6661SOL    HW120882   2.390   0.227   5.648
 6661SOL    HW220883   2.550   0.252   5.666
 6662SOL     OW20884   2.023   0.422   0.695
 6662SOL    HW120885   2.075   0.399   0.613
 6662SOL    HW220886   2.082   0.467   0.761
 6663SOL     OW20887   6.402   6.116   5.013
 6663SOL    HW120888   6.373   6.038   5.068
 6663SOL    HW220889   6.355   6.114   4.925
 6664SOL     OW20890   2.667   0.338   1.329
 6664SOL    HW120891   2.591   0.320   1.391
 6664SOL    HW220892   2.642   0.309   1.236
 6665SOL     OW20893   2.001   6.706   5.348
 6665SOL    HW120894   2.061   6.786   5.343
 6665SOL    HW220895   1.967   6.696   5.442
 6666SOL     OW20896   6.494   5.919   5.908
 6666SOL    HW120897   6.561   5.866   5.960
 6666SOL    HW220898   6.490   6.013   5.943
 6667SOL     OW20899   0.205   0.057   5.372
 6667SOL    HW120900   0.301   0.053   5.399
 6667SOL    HW220901   0.192   0.005   5.287
 6668SOL     OW20902   6.662   6.411   1.166
 6668SOL    HW120903   6.614   6.497   1.181
 6668SOL    HW220904   6.601   6.335   1.187
 6669SOL     OW20905   3.194   2.321   1.719
 6669SOL    HW120906   3.159   2.275   1.637
 6669SOL    HW220907   3.117   2.352   1.775
 6670SOL     OW20908   3.172   0.981   6.471
 6670SOL    HW120909   3.165   1.061   6.531
 6670SOL    HW220910   3.118   0.906   6.509
 6671SOL     OW20911   5.464   6.599   6.829
 6671SOL    HW120912   5.536   6.572   6.892
 6671SOL    HW220913   5.504   6.634   6.744
 6672SOL     OW20914   0.320   2.026   0.311
 6672SOL    HW120915   0.358   2.114   0.338
 6672SOL    HW220916   0.221   2.031   0.311
 6673SOL     OW20917   4.698   4.135   3.692
 6673SOL    HW120918   4.710   4.088   3.605
 6673SOL    HW220919   4.718   4.071   3.767
 6674SOL     OW20920   0.623   3.917   0.205
 6674SOL    HW120921   0.689   3.990   0.187
 6674SOL    HW220922   0.546   3.954   0.259
 6675SOL     OW20923   5.919   2.757   0.168
 6675SOL    HW120924   6.008   2.729   0.133
 6675SOL    HW220925   5.924   2.851   0.202
 6676SOL     OW20926   0.926   3.425   4.301
 6676SOL    HW120927   0.986   3.496   4.263
 6676SOL    HW220928   0.933   3.425   4.400
 6677SOL     OW20929   0.497   1.330   6.410
 6677SOL    HW120930   0.429   1.323   6.337
 6677SOL    HW220931   0.512   1.240   6.451
 6678SOL     OW20932   2.872   4.735   0.608
 6678SOL    HW120933   2.962   4.707   0.573
 6678SOL    HW220934   2.880   4.826   0.649
 6679SOL     OW20935   3.928   0.514   3.884
 6679SOL    HW120936   3.904   0.586   3.949
 6679SOL    HW220937   3.893   0.426   3.916
 6680SOL     OW20938   4.283   6.350   6.676
 6680SOL    HW120939   4.382   6.341   6.686
 6680SOL    HW220940   4.262   6.381   6.583
 6681SOL     OW20941   4.952   5.739   1.062
 6681SOL    HW120942   4.983   5.734   1.157
 6681SOL    HW220943   4.970   5.652   1.016
 6682SOL     OW20944   2.288   5.035   0.055
 6682SOL    HW120945   2.281   4.983   6.987
 6682SOL    HW220946   2.370   5.093   0.051
 6683SOL     OW20947   6.178   3.279   5.750
 6683SOL    HW120948   6.156   3.181   5.757
 6683SOL    HW220949   6.256   3.291   5.689
 6684SOL     OW20950   4.139   6.684   2.361
 6684SOL    HW120951   4.121   6.738   2.278
 6684SOL    HW220952   4.158   6.746   2.437
 6685SOL     OW20953   4.972   2.617   6.087
 6685SOL    HW120954   4.946   2.709   6.058
 6685SOL    HW220955   4.985   2.559   6.006
 6686SOL     OW20956   5.553   5.485   3.996
 6686SOL    HW120957   5.491   5.551   3.953
 6686SOL    HW220958   5.581   5.417   3.929
 6687SOL     OW20959   0.637   2.864   2.585
 6687SOL    HW120960   0.589   2.916   2.514
 6687SOL    HW220961   0.673   2.926   2.654
 6688SOL     OW20962   3.956   4.801   1.032
 6688SOL    HW120963   3.994   4.810   0.941
 6688SOL    HW220964   4.029   4.780   1.098
 6689SOL     OW20965   4.554   3.913   5.716
 6689SOL    HW120966   4.460   3.947   5.719
 6689SOL    HW220967   4.590   3.907   5.810
 6690SOL     OW20968   0.651   6.963   0.948
 6690SOL    HW120969   0.640   6.885   1.011
 6690SOL    HW220970   0.676   0.027   1.000
 6691SOL     OW20971   1.938   0.583   2.541
 6691SOL    HW120972   1.895   0.619   2.624
 6691SOL    HW220973   2.034   0.563   2.560
 6692SOL     OW20974   3.932   3.982   2.918
 6692SOL    HW120975   3.971   4.037   2.845
 6692SOL    HW220976   3.846   4.023   2.949
 6693SOL     OW20977   4.486   2.506   4.830
 6693SOL    HW120978   4.483   2.417   4.783
 6693SOL    HW220979   4.408   2.512   4.893
 6694SOL     OW20980   4.282   6.537   1.889
 6694SOL    HW120981   4.215   6.471   1.923
 6694SOL    HW220982   4.337   6.571   1.965
 6695SOL     OW20983   2.939   2.598   6.700
 6695SOL    HW120984   2.943   2.599   6.600
 6695SOL    HW220985   3.031   2.580   6.736
 6696SOL     OW20986   3.791   3.122   3.785
 6696SOL    HW120987   3.712   3.179   3.764
 6696SOL    HW220988   3.867   3.179   3.816
 6697SOL     OW20989   4.853   1.873   3.175
 6697SOL    HW120990   4.837   1.778   3.148
 6697SOL    HW220991   4.951   1.889   3.183
 6698SOL     OW20992   2.890   3.279   1.096
 6698SOL    HW120993   2.795   3.292   1.122
 6698SOL    HW220994   2.895   3.222   1.014
 6699SOL     OW20995   1.918   6.681   5.596
 6699SOL    HW120996   1.974   6.644   5.670
 6699SOL    HW220997   1.845   6.739   5.634
 6700SOL     OW20998   6.958   1.796   1.401
 6700SOL    HW120999   6.928   1.820   1.493
 6700SOL    HW221000   0.031   1.754   1.405
 6701SOL     OW21001   5.410   5.928   1.974
 6701SOL    HW121002   5.421   5.882   2.062
 6701SOL    HW221003   5.455   6.018   1.979
 6702SOL     OW21004   1.829   2.448   2.137
 6702SOL    HW121005   1.907   2.490   2.184
 6702SOL    HW221006   1.796   2.370   2.191
 6703SOL     OW21007   6.762   0.061   0.781
 6703SOL    HW121008   6.696   0.102   0.717
 6703SOL    HW221009   6.848   0.043   0.733
 6704SOL     OW21010   4.007   2.244   3.547
 6704SOL    HW121011   4.005   2.265   3.449
 6704SOL    HW221012   4.071   2.306   3.593
 6705SOL     OW21013   5.993   3.022   0.533
 6705SOL    HW121014   6.076   3.048   0.583
 6705SOL    HW221015   5.913   3.035   0.592
 6706SOL     OW21016   0.786   5.609   0.867
 6706SOL    HW121017   0.808   5.653   0.780
 6706SOL    HW221018   0.692   5.575   0.864
 6707SOL     OW21019   5.636   6.354   3.662
 6707SOL    HW121020   5.616   6.281   3.728
 6707SOL    HW221021   5.550   6.400   3.638
 6708SOL     OW21022   5.634   5.257   1.262
 6708SOL    HW121023   5.724   5.266   1.304
 6708SOL    HW221024   5.627   5.319   1.184
 6709SOL     OW21025   0.837   5.362   2.631
 6709SOL    HW121026   0.929   5.390   2.605
 6709SOL    HW221027   0.783   5.345   2.548
 6710SOL     OW21028   3.776   0.656   6.655
 6710SOL    HW121029   3.776   0.618   6.563
 6710SOL    HW221030   3.864   0.700   6.673
 6711SOL     OW21031   4.901   6.244   5.818
 6711SOL    HW121032   4.823   6.277   5.871
 6711SOL    HW221033   4.980   6.234   5.879
 6712SOL     OW21034   5.593   3.421   1.268
 6712SOL    HW121035   5.511   3.477   1.263
 6712SOL    HW221036   5.629   3.405   1.177
 6713SOL     OW21037   1.006   0.517   3.188
 6713SOL    HW121038   0.913   0.526   3.154
 6713SOL    HW221039   1.037   0.606   3.224
 6714SOL     OW21040   6.549   1.626   6.719
 6714SOL    HW121041   6.545   1.557   6.792
 6714SOL    HW221042   6.516   1.585   6.634
 6715SOL     OW21043   1.648   0.611   1.335
 6715SOL    HW121044   1.683   0.652   1.419
 6715SOL    HW221045   1.580   0.541   1.358
 6716SOL     OW21046   0.436   5.633   1.991
 6716SOL    HW121047   0.497   5.695   1.943
 6716SOL    HW221048   0.468   5.620   2.085
 6717SOL     OW21049   3.231   2.852   6.090
 6717SOL    HW121050   3.253   2.755   6.077
 6717SOL    HW221051   3.152   2.876   6.034
 6718SOL     OW21052   4.652   0.039   0.809
 6718SOL    HW121053   4.585   0.030   0.883
 6718SOL    HW221054   4.630   6.992   0.735
 6719SOL     OW21055   2.406   6.961   0.401
 6719SOL    HW121056   2.492   6.992   0.362
 6719SOL    HW221057   2.417   6.946   0.499
 6720SOL     OW21058   2.082   0.911   3.486
 6720SOL    HW121059   2.069   0.914   3.585
 6720SOL    HW221060   2.042   0.827   3.450
 6721SOL     OW21061   0.061   6.479   0.817
 6721SOL    HW121062   0.016   6.561   0.781
 6721SOL    HW221063   0.039   6.402   0.758
 6722SOL     OW21064   0.022   2.598   0.258
 6722SOL    HW121065   0.021   2.621   0.356
 6722SOL    HW221066   0.045   2.680   0.205
 6723SOL     OW21067   1.425   6.914   5.172
 6723SOL    HW121068   1.484   6.861   5.111
 6723SOL    HW221069   1.330   6.909   5.139
 6724SOL     OW21070   1.982   3.091   5.948
 6724SOL    HW121071   2.019   3.137   5.868
 6724SOL    HW221072   2.047   3.021   5.978
 6725SOL     OW21073   0.096   2.654   1.980
 6725SOL    HW121074   0.160   2.644   1.905
 6725SOL    HW221075   0.003   2.664   1.944
 6726SOL     OW21076   0.274   2.596   3.837
 6726SOL    HW121077   0.327   2.669   3.795
 6726SOL    HW221078   0.224   2.546   3.766
 6727SOL     OW21079   0.105   4.846   5.628
 6727SOL    HW121080   0.189   4.801   5.657
 6727SOL    HW221081   0.027   4.790   5.653
 6728SOL     OW21082   3.945   2.092   2.918
 6728SOL    HW121083   3.917   2.116   2.825
 6728SOL    HW221084   4.044   2.079   2.921
 6729SOL     OW21085   7.012   1.490   0.421
 6729SOL    HW121086   7.001   1.585   0.449
 6729SOL    HW221087   6.966   1.430   0.486
 6730SOL     OW21088   2.294   6.856   0.969
 6730SOL    HW121089   2.341   6.944   0.975
 6730SOL    HW221090   2.197   6.868   0.991
 6731SOL     OW21091   1.504   6.738   0.886
 6731SOL    HW121092   1.409   6.737   0.919
 6731SOL    HW221093   1.534   6.644   0.870
 6732SOL     OW21094   5.658   4.578   4.740
 6732SOL    HW121095   5.634   4.675   4.752
 6732SOL    HW221096   5.745   4.559   4.786
 6733SOL     OW21097   3.918   5.258   6.505
 6733SOL    HW121098   3.943   5.307   6.589
 6733SOL    HW221099   3.938   5.315   6.426
 6734SOL     OW21100   5.840   2.394   5.222
 6734SOL    HW121101   5.932   2.435   5.226
 6734SOL    HW221102   5.834   2.320   5.289
 6735SOL     OW21103   6.161   3.514   5.004
 6735SOL    HW121104   6.260   3.514   5.012
 6735SOL    HW221105   6.135   3.502   4.909
 6736SOL     OW21106   2.911   3.509   6.461
 6736SOL    HW121107   2.821   3.494   6.420
 6736SOL    HW221108   2.899   3.542   6.555
 6737SOL     OW21109   1.414   3.113   0.923
 6737SOL    HW121110   1.458   3.073   1.004
 6737SOL    HW221111   1.387   3.039   0.861
 6738SOL     OW21112   1.453   5.858   4.312
 6738SOL    HW121113   1.485   5.782   4.255
 6738SOL    HW221114   1.439   5.938   4.255
 6739SOL     OW21115   5.796   6.249   3.943
 6739SOL    HW121116   5.721   6.314   3.930
 6739SOL    HW221117   5.783   6.171   3.883
 6740SOL     OW21118   6.672   0.366   5.612
 6740SOL    HW121119   6.644   0.436   5.547
 6740SOL    HW221120   6.605   0.292   5.613
 6741SOL     OW21121   3.506   2.757   5.345
 6741SOL    HW121122   3.591   2.776   5.295
 6741SOL    HW221123   3.499   2.659   5.362
 6742SOL     OW21124   5.944   5.884   3.193
 6742SOL    HW121125   5.945   5.797   3.243
 6742SOL    HW221126   5.907   5.869   3.101
 6743SOL     OW21127   3.920   4.777   6.470
 6743SOL    HW121128   3.847   4.783   6.538
 6743SOL    HW221129   3.911   4.851   6.403
 6744SOL     OW21130   0.283   5.955   5.542
 6744SOL    HW121131   0.311   5.954   5.638
 6744SOL    HW221132   0.346   5.898   5.488
 6745SOL     OW21133   6.996   6.332   3.600
 6745SOL    HW121134   0.004   6.312   3.505
 6745SOL    HW221135   6.963   6.248   3.643
 6746SOL     OW21136   0.583   6.969   3.862
 6746SOL    HW121137   0.589   0.040   3.909
 6746SOL    HW221138   0.559   6.898   3.928
 6747SOL     OW21139   5.831   0.626   6.650
 6747SOL    HW121140   5.910   0.684   6.670
 6747SOL    HW221141   5.833   0.545   6.709
 6748SOL     OW21142   3.989   1.488   2.908
 6748SOL    HW121143   3.959   1.454   2.819
 6748SOL    HW221144   3.927   1.456   2.979
 6749SOL     OW21145   3.948   4.351   0.728
 6749SOL    HW121146   3.944   4.330   0.630
 6749SOL    HW221147   3.866   4.403   0.753
 6750SOL     OW21148   3.453   1.790   4.020
 6750SOL    HW121149   3.514   1.714   3.997
 6750SOL    HW221150   3.429   1.786   4.117
 6751SOL     OW21151   5.210   0.592   3.053
 6751SOL    HW121152   5.162   0.680   3.053
 6751SOL    HW221153   5.295   0.601   3.002
 6752SOL     OW21154   2.325   6.804   2.548
 6752SOL    HW121155   2.366   6.737   2.610
 6752SOL    HW221156   2.398   6.856   2.504
 6753SOL     OW21157   3.269   1.052   6.230
 6753SOL    HW121158   3.205   1.050   6.154
 6753SOL    HW221159   3.220   1.039   6.316
 6754SOL     OW21160   6.604   0.868   0.662
 6754SOL    HW121161   6.552   0.953   0.670
 6754SOL    HW221162   6.614   0.843   0.566
 6755SOL     OW21163   4.105   2.587   1.480
 6755SOL    HW121164   4.127   2.670   1.429
 6755SOL    HW221165   4.142   2.507   1.432
 6756SOL     OW21166   4.048   6.242   5.030
 6756SOL    HW121167   3.960   6.265   5.072
 6756SOL    HW221168   4.045   6.148   4.996
 6757SOL     OW21169   3.185   2.013   6.994
 6757SOL    HW121170   3.126   1.942   0.016
 6757SOL    HW221171   3.200   2.085   0.045
 6758SOL     OW21172   6.068   2.475   1.655
 6758SOL    HW121173   6.110   2.534   1.724
 6758SOL    HW221174   5.974   2.506   1.638
 6759SOL     OW21175   0.578   3.895   2.949
 6759SOL    HW121176   0.617   3.805   2.928
 6759SOL    HW221177   0.505   3.885   3.016
 6760SOL     OW21178   6.677   3.218   2.396
 6760SOL    HW121179   6.756   3.235   2.455
 6760SOL    HW221180   6.696   3.138   2.338
 6761SOL     OW21181   6.490   2.673   4.986
 6761SOL    HW121182   6.399   2.711   4.998
 6761SOL    HW221183   6.484   2.581   4.947
 6762SOL     OW21184   1.048   4.076   4.542
 6762SOL    HW121185   0.956   4.094   4.578
 6762SOL    HW221186   1.067   3.978   4.548
 6763SOL     OW21187   6.621   5.304   3.873
 6763SOL    HW121188   6.590   5.244   3.800
 6763SOL    HW221189   6.581   5.274   3.960
 6764SOL     OW21190   2.206   5.840   1.908
 6764SOL    HW121191   2.236   5.862   2.001
 6764SOL    HW221192   2.265   5.886   1.842
 6765SOL     OW21193   5.648   4.925   4.037
 6765SOL    HW121194   5.736   4.966   4.062
 6765SOL    HW221195   5.574   4.988   4.062
 6766SOL     OW21196   5.179   6.183   5.569
 6766SOL    HW121197   5.169   6.266   5.513
 6766SOL    HW221198   5.274   6.174   5.599
 6767SOL     OW21199   2.619   0.929   1.351
 6767SOL    HW121200   2.590   0.946   1.445
 6767SOL    HW221201   2.634   0.831   1.338
 6768SOL     OW21202   1.699   0.476   5.197
 6768SOL    HW121203   1.669   0.546   5.262
 6768SOL    HW221204   1.752   0.518   5.124
 6769SOL     OW21205   3.357   0.581   6.606
 6769SOL    HW121206   3.359   0.639   6.524
 6769SOL    HW221207   3.313   0.630   6.681
 6770SOL     OW21208   0.102   0.903   2.087
 6770SOL    HW121209   0.029   0.926   2.023
 6770SOL    HW221210   0.067   0.839   2.156
 6771SOL     OW21211   5.288   1.745   3.141
 6771SOL    HW121212   5.277   1.696   3.228
 6771SOL    HW221213   5.249   1.836   3.149
 6772SOL     OW21214   3.855   2.137   2.682
 6772SOL    HW121215   3.778   2.074   2.674
 6772SOL    HW221216   3.894   2.154   2.591
 6773SOL     OW21217   6.381   4.941   2.348
 6773SOL    HW121218   6.447   4.907   2.415
 6773SOL    HW221219   6.429   4.985   2.272
 6774SOL     OW21220   1.190   2.901   5.495
 6774SOL    HW121221   1.231   2.810   5.489
 6774SOL    HW221222   1.254   2.963   5.540
 6775SOL     OW21223   2.093   2.421   1.752
 6775SOL    HW121224   2.171   2.416   1.689
 6775SOL    HW221225   2.059   2.328   1.769
 6776SOL     OW21226   4.583   4.750   6.984
 6776SOL    HW121227   4.612   4.658   6.957
 6776SOL    HW221228   4.485   4.750   7.003
 6777SOL     OW21229   4.328   4.249   0.590
 6777SOL    HW121230   4.388   4.300   0.652
 6777SOL    HW221231   4.348   4.275   0.496
 6778SOL     OW21232   6.273   5.399   1.658
 6778SOL    HW121233   6.236   5.315   1.619
 6778SOL    HW221234   6.325   5.448   1.588
 6779SOL     OW21235   5.799   5.348   6.768
 6779SOL    HW121236   5.836   5.429   6.813
 6779SOL    HW221237   5.787   5.275   6.836
 6780SOL     OW21238   1.398   2.803   2.472
 6780SOL    HW121239   1.371   2.831   2.380
 6780SOL    HW221240   1.316   2.779   2.524
 6781SOL     OW21241   6.629   1.571   4.103
 6781SOL    HW121242   6.656   1.475   4.108
 6781SOL    HW221243   6.585   1.598   4.188
 6782SOL     OW21244   7.003   0.892   3.443
 6782SOL    HW121245   6.943   0.935   3.510
 6782SOL    HW221246   6.950   0.871   3.360
 6783SOL     OW21247   6.375   1.915   5.426
 6783SOL    HW121248   6.288   1.881   5.460
 6783SOL    HW221249   6.391   2.007   5.460
 6784SOL     OW21250   2.074   3.373   0.553
 6784SOL    HW121251   2.012   3.310   0.601
 6784SOL    HW221252   2.127   3.424   0.620
 6785SOL     OW21253   6.265   5.220   3.759
 6785SOL    HW121254   6.336   5.163   3.718
 6785SOL    HW221255   6.277   5.222   3.858
 6786SOL     OW21256   1.864   2.449   0.129
 6786SOL    HW121257   1.780   2.497   0.153
 6786SOL    HW221258   1.888   2.384   0.202
 6787SOL     OW21259   1.988   2.589   1.103
 6787SOL    HW121260   1.945   2.503   1.074
 6787SOL    HW221261   1.932   2.665   1.071
 6788SOL     OW21262   1.960   3.974   1.523
 6788SOL    HW121263   2.007   3.954   1.437
 6788SOL    HW221264   1.936   3.889   1.568
 6789SOL     OW21265   0.365   5.209   2.977
 6789SOL    HW121266   0.348   5.112   2.965
 6789SOL    HW221267   0.280   5.260   2.963
 6790SOL     OW21268   0.275   3.889   1.023
 6790SOL    HW121269   0.264   3.798   0.980
 6790SOL    HW221270   0.371   3.903   1.047
 6791SOL     OW21271   4.087   2.322   1.770
 6791SOL    HW121272   4.052   2.268   1.693
 6791SOL    HW221273   4.048   2.414   1.768
 6792SOL     OW21274   6.409   6.186   5.270
 6792SOL    HW121275   6.411   6.177   5.171
 6792SOL    HW221276   6.448   6.274   5.297
 6793SOL     OW21277   1.407   2.104   1.113
 6793SOL    HW121278   1.313   2.079   1.137
 6793SOL    HW221279   1.470   2.036   1.152
 6794SOL     OW21280   4.805   1.444   6.061
 6794SOL    HW121281   4.887   1.460   6.116
 6794SOL    HW221282   4.804   1.508   5.985
 6795SOL     OW21283   2.722   6.750   1.160
 6795SOL    HW121284   2.673   6.835   1.180
 6795SOL    HW221285   2.679   6.704   1.083
 6796SOL     OW21286   6.611   0.144   1.945
 6796SOL    HW121287   6.525   0.194   1.951
 6796SOL    HW221288   6.623   0.112   1.851
 6797SOL     OW21289   6.471   2.207   1.506
 6797SOL    HW121290   6.445   2.298   1.473
 6797SOL    HW221291   6.512   2.216   1.597
 6798SOL     OW21292   4.687   0.052   2.309
 6798SOL    HW121293   4.733   0.107   2.379
 6798SOL    HW221294   4.615   0.107   2.266
 6799SOL     OW21295   6.538   6.450   1.751
 6799SOL    HW121296   6.598   6.406   1.817
 6799SOL    HW221297   6.579   6.538   1.723
 6800SOL     OW21298   2.167   3.711   1.798
 6800SOL    HW121299   2.175   3.671   1.890
 6800SOL    HW221300   2.255   3.703   1.751
 6801SOL     OW21301   1.073   6.936   3.467
 6801SOL    HW121302   1.154   6.992   3.452
 6801SOL    HW221303   1.004   6.958   3.398
 6802SOL     OW21304   3.364   5.947   1.344
 6802SOL    HW121305   3.395   6.037   1.314
 6802SOL    HW221306   3.282   5.921   1.292
 6803SOL     OW21307   4.749   2.746   5.669
 6803SOL    HW121308   4.776   2.676   5.603
 6803SOL    HW221309   4.652   2.736   5.690
 6804SOL     OW21310   3.526   5.438   3.701
 6804SOL    HW121311   3.549   5.502   3.775
 6804SOL    HW221312   3.449   5.381   3.730
 6805SOL     OW21313   6.965   4.940   6.063
 6805SOL    HW121314   6.990   4.894   6.148
 6805SOL    HW221315   7.008   4.893   5.985
 6806SOL     OW21316   5.976   0.232   3.292
 6806SOL    HW121317   5.959   0.291   3.213
 6806SOL    HW221318   5.974   0.136   3.263
 6807SOL     OW21319   3.160   2.988   0.591
 6807SOL    HW121320   3.114   3.035   0.666
 6807SOL    HW221321   3.253   2.964   0.619
 6808SOL     OW21322   6.744   2.478   5.436
 6808SOL    HW121323   6.764   2.437   5.347
 6808SOL    HW221324   6.813   2.547   5.457
 6809SOL     OW21325   0.877   2.813   1.222
 6809SOL    HW121326   0.802   2.803   1.157
 6809SOL    HW221327   0.887   2.910   1.246
 6810SOL     OW21328   1.554   1.160   2.567
 6810SOL    HW121329   1.490   1.159   2.489
 6810SOL    HW221330   1.604   1.073   2.570
 6811SOL     OW21331   6.193   4.019   1.221
 6811SOL    HW121332   6.216   4.047   1.314
 6811SOL    HW221333   6.257   4.060   1.157
 6812SOL     OW21334   2.933   3.290   3.535
 6812SOL    HW121335   2.889   3.372   3.499
 6812SOL    HW221336   2.968   3.309   3.627
 6813SOL     OW21337   5.110   2.433   2.396
 6813SOL    HW121338   5.077   2.365   2.462
 6813SOL    HW221339   5.032   2.477   2.352
 6814SOL     OW21340   3.358   1.877   6.313
 6814SOL    HW121341   3.425   1.950   6.326
 6814SOL    HW221342   3.290   1.905   6.246
 6815SOL     OW21343   3.295   0.004   1.361
 6815SOL    HW121344   3.241   6.938   1.372
 6815SOL    HW221345   3.250   0.079   1.411
 6816SOL     OW21346   6.533   6.981   6.695
 6816SOL    HW121347   6.578   6.892   6.687
 6816SOL    HW221348   6.500   7.010   6.605
 6817SOL     OW21349   1.990   2.487   2.584
 6817SOL    HW121350   2.073   2.508   2.635
 6817SOL    HW221351   2.005   2.505   2.486
 6818SOL     OW21352   3.271   6.041   2.380
 6818SOL    HW121353   3.177   6.062   2.408
 6818SOL    HW221354   3.333   6.054   2.457
 6819SOL     OW21355   5.341   1.354   3.981
 6819SOL    HW121356   5.426   1.369   3.932
 6819SOL    HW221357   5.329   1.256   3.999
 6820SOL     OW21358   1.982   5.490   2.162
 6820SOL    HW121359   1.892   5.485   2.118
 6820SOL    HW221360   1.981   5.433   2.245
 6821SOL     OW21361   4.006   1.911   4.962
 6821SOL    HW121362   3.948   1.983   5.000
 6821SOL    HW221363   4.063   1.872   5.034
 6822SOL     OW21364   5.203   2.444   6.461
 6822SOL    HW121365   5.159   2.446   6.371
 6822SOL    HW221366   5.215   2.350   6.491
 6823SOL     OW21367   4.268   3.286   5.609
 6823SOL    HW121368   4.358   3.250   5.582
 6823SOL    HW221369   4.268   3.385   5.600
 6824SOL     OW21370   0.891   2.101   6.081
 6824SOL    HW121371   0.893   2.184   6.026
 6824SOL    HW221372   0.851   2.122   6.171
 6825SOL     OW21373   5.196   6.567   1.708
 6825SOL    HW121374   5.293   6.590   1.713
 6825SOL    HW221375   5.183   6.470   1.729
 6826SOL     OW21376   1.868   3.720   2.927
 6826SOL    HW121377   1.933   3.737   3.001
 6826SOL    HW221378   1.830   3.628   2.938
 6827SOL     OW21379   4.738   5.570   5.924
 6827SOL    HW121380   4.669   5.527   5.866
 6827SOL    HW221381   4.824   5.520   5.917
 6828SOL     OW21382   2.917   1.975   1.611
 6828SOL    HW121383   2.945   2.022   1.694
 6828SOL    HW221384   2.900   1.879   1.631
 6829SOL     OW21385   4.373   6.613   4.046
 6829SOL    HW121386   4.338   6.522   4.067
 6829SOL    HW221387   4.405   6.657   4.130
 6830SOL     OW21388   5.598   0.873   3.677
 6830SOL    HW121389   5.522   0.807   3.677
 6830SOL    HW221390   5.604   0.917   3.767
 6831SOL     OW21391   1.721   0.427   6.940
 6831SOL    HW121392   1.643   0.407   6.998
 6831SOL    HW221393   1.690   0.439   6.845
 6832SOL     OW21394   3.152   4.300   1.004
 6832SOL    HW121395   3.212   4.221   1.014
 6832SOL    HW221396   3.125   4.310   0.908
 6833SOL     OW21397   3.410   4.589   6.450
 6833SOL    HW121398   3.340   4.545   6.394
 6833SOL    HW221399   3.391   4.687   6.455
 6834SOL     OW21400   4.867   6.449   1.130
 6834SOL    HW121401   4.899   6.509   1.056
 6834SOL    HW221402   4.945   6.414   1.181
 6835SOL     OW21403   4.128   0.311   4.422
 6835SOL    HW121404   4.105   0.397   4.467
 6835SOL    HW221405   4.210   0.271   4.465
 6836SOL     OW21406   2.503   5.194   0.108
 6836SOL    HW121407   2.603   5.199   0.113
 6836SOL    HW221408   2.464   5.283   0.132
 6837SOL     OW21409   0.496   1.893   2.033
 6837SOL    HW121410   0.517   1.945   1.949
 6837SOL    HW221411   0.500   1.955   2.111
 6838SOL     OW21412   3.305   6.131   0.289
 6838SOL    HW121413   3.387   6.151   0.234
 6838SOL    HW221414   3.301   6.194   0.367
 6839SOL     OW21415   5.575   0.781   6.777
 6839SOL    HW121416   5.656   0.739   6.735
 6839SOL    HW221417   5.597   0.874   6.806
 6840SOL     OW21418   3.502   0.620   4.508
 6840SOL    HW121419   3.481   0.602   4.604
 6840SOL    HW221420   3.421   0.654   4.462
 6841SOL     OW21421   4.026   4.091   6.909
 6841SOL    HW121422   3.981   4.033   6.977
 6841SOL    HW221423   4.031   4.185   6.943
 6842SOL     OW21424   2.249   4.427   1.041
 6842SOL    HW121425   2.186   4.476   0.981
 6842SOL    HW221426   2.331   4.401   0.989
 6843SOL     OW21427   6.106   6.974   1.096
 6843SOL    HW121428   6.195   6.991   1.053
 6843SOL    HW221429   6.098   0.014   1.178
 6844SOL     OW21430   5.442   0.706   3.918
 6844SOL    HW121431   5.378   0.636   3.948
 6844SOL    HW221432   5.525   0.663   3.882
 6845SOL     OW21433   6.437   3.346   2.906
 6845SOL    HW121434   6.509   3.327   2.973
 6845SOL    HW221435   6.397   3.436   2.924
 6846SOL     OW21436   3.700   3.028   0.105
 6846SOL    HW121437   3.748   3.114   0.085
 6846SOL    HW221438   3.619   3.021   0.046
 6847SOL     OW21439   0.033   3.521   4.499
 6847SOL    HW121440   0.036   3.453   4.573
 6847SOL    HW221441   6.974   3.501   4.438
 6848SOL     OW21442   4.688   5.114   3.750
 6848SOL    HW121443   4.641   5.197   3.781
 6848SOL    HW221444   4.625   5.056   3.699
 6849SOL     OW21445   4.842   4.454   5.431
 6849SOL    HW121446   4.932   4.494   5.415
 6849SOL    HW221447   4.831   4.434   5.528
 6850SOL     OW21448   5.458   3.398   2.861
 6850SOL    HW121449   5.360   3.388   2.876
 6850SOL    HW221450   5.506   3.402   2.948
 6851SOL     OW21451   0.045   1.635   3.260
 6851SOL    HW121452   6.970   1.646   3.298
 6851SOL    HW221453   0.041   1.587   3.173
 6852SOL     OW21454   2.729   4.202   1.397
 6852SOL    HW121455   2.659   4.247   1.341
 6852SOL    HW221456   2.700   4.203   1.492
 6853SOL     OW21457   5.351   4.773   0.030
 6853SOL    HW121458   5.370   4.797   6.952
 6853SOL    HW221459   5.329   4.675   0.036
 6854SOL     OW21460   5.053   0.958   5.608
 6854SOL    HW121461   4.966   1.004   5.626
 6854SOL    HW221462   5.119   0.985   5.678
 6855SOL     OW21463   3.942   6.397   3.876
 6855SOL    HW121464   4.033   6.426   3.848
 6855SOL    HW221465   3.939   6.387   3.975
 6856SOL     OW21466   0.247   2.412   5.174
 6856SOL    HW121467   0.202   2.487   5.223
 6856SOL    HW221468   0.186   2.333   5.170
 6857SOL     OW21469   1.917   2.252   6.651
 6857SOL    HW121470   2.005   2.227   6.611
 6857SOL    HW221471   1.849   2.260   6.579
 6858SOL     OW21472   4.096   3.553   1.978
 6858SOL    HW121473   4.099   3.565   2.078
 6858SOL    HW221474   4.006   3.519   1.952
 6859SOL     OW21475   1.145   1.313   1.081
 6859SOL    HW121476   1.057   1.313   1.035
 6859SOL    HW221477   1.144   1.245   1.155
 6860SOL     OW21478   7.013   5.287   1.369
 6860SOL    HW121479   0.048   5.354   1.423
 6860SOL    HW221480   0.040   5.198   1.377
 6861SOL     OW21481   3.896   3.936   0.077
 6861SOL    HW121482   3.804   3.940   0.117
 6861SOL    HW221483   3.910   3.847   0.035
 6862SOL     OW21484   1.026   5.352   6.216
 6862SOL    HW121485   1.058   5.265   6.254
 6862SOL    HW221486   0.973   5.401   6.286
 6863SOL     OW21487   5.918   6.614   6.024
 6863SOL    HW121488   5.876   6.524   6.027
 6863SOL    HW221489   5.885   6.668   6.102
 6864SOL     OW21490   2.033   4.877   4.378
 6864SOL    HW121491   2.023   4.833   4.289
 6864SOL    HW221492   1.959   4.944   4.391
 6865SOL     OW21493   0.853   6.128   4.968
 6865SOL    HW121494   0.916   6.192   4.925
 6865SOL    HW221495   0.810   6.172   5.048
 6866SOL     OW21496   5.555   5.504   3.226
 6866SOL    HW121497   5.563   5.600   3.253
 6866SOL    HW221498   5.468   5.467   3.259
 6867SOL     OW21499   2.115   3.930   2.270
 6867SOL    HW121500   2.064   3.947   2.354
 6867SOL    HW221501   2.197   3.988   2.268
 6868SOL     OW21502   1.813   6.177   6.437
 6868SOL    HW121503   1.819   6.224   6.349
 6868SOL    HW221504   1.823   6.243   6.511
 6869SOL     OW21505   4.957   0.957   6.254
 6869SOL    HW121506   4.936   0.933   6.349
 6869SOL    HW221507   4.905   1.039   6.228
 6870SOL     OW21508   6.947   4.166   1.297
 6870SOL    HW121509   6.917   4.129   1.384
 6870SOL    HW221510   6.916   4.261   1.289
 6871SOL     OW21511   6.252   3.976   3.116
 6871SOL    HW121512   6.248   4.075   3.124
 6871SOL    HW221513   6.263   3.935   3.206
 6872SOL     OW21514   0.413   2.506   1.257
 6872SOL    HW121515   0.408   2.465   1.166
 6872SOL    HW221516   0.477   2.453   1.314
 6873SOL     OW21517   6.854   3.725   3.824
 6873SOL    HW121518   6.764   3.685   3.805
 6873SOL    HW221519   6.847   3.825   3.824
 6874SOL     OW21520   6.972   5.327   2.961
 6874SOL    HW121521   0.031   5.302   2.902
 6874SOL    HW221522   7.005   5.380   3.039
 6875SOL     OW21523   2.283   2.764   2.213
 6875SOL    HW121524   2.270   2.804   2.122
 6875SOL    HW221525   2.334   2.679   2.204
 6876SOL     OW21526   3.923   0.150   4.020
 6876SOL    HW121527   3.870   0.221   4.067
 6876SOL    HW221528   3.893   0.060   4.052
 6877SOL     OW21529   3.085   4.176   1.240
 6877SOL    HW121530   3.102   4.244   1.169
 6877SOL    HW221531   3.160   4.110   1.242
 6878SOL     OW21532   3.883   1.025   4.201
 6878SOL    HW121533   3.943   1.092   4.158
 6878SOL    HW221534   3.905   0.933   4.168
 6879SOL     OW21535   1.475   2.653   0.847
 6879SOL    HW121536   1.569   2.627   0.826
 6879SOL    HW221537   1.454   2.741   0.805
 6880SOL     OW21538   1.837   5.327   5.907
 6880SOL    HW121539   1.929   5.364   5.895
 6880SOL    HW221540   1.779   5.356   5.831
 6881SOL     OW21541   1.900   3.863   1.055
 6881SOL    HW121542   1.929   3.942   1.109
 6881SOL    HW221543   1.906   3.885   0.958
 6882SOL     OW21544   2.972   0.462   0.158
 6882SOL    HW121545   2.946   0.460   0.254
 6882SOL    HW221546   2.916   0.398   0.107
 6883SOL     OW21547   5.015   2.389   0.221
 6883SOL    HW121548   5.102   2.351   0.188
 6883SOL    HW221549   5.011   2.381   0.320
 6884SOL     OW21550   1.014   4.160   3.525
 6884SOL    HW121551   1.004   4.066   3.494
 6884SOL    HW221552   0.980   4.223   3.455
 6885SOL     OW21553   4.667   4.805   3.648
 6885SOL    HW121554   4.747   4.860   3.623
 6885SOL    HW221555   4.655   4.806   3.747
 6886SOL     OW21556   6.646   1.408   4.453
 6886SOL    HW121557   6.649   1.323   4.401
 6886SOL    HW221558   6.739   1.442   4.467
 6887SOL     OW21559   4.946   5.088   6.602
 6887SOL    HW121560   4.857   5.041   6.610
 6887SOL    HW221561   4.936   5.183   6.631
 6888SOL     OW21562   5.504   5.609   6.641
 6888SOL    HW121563   5.452   5.681   6.594
 6888SOL    HW221564   5.567   5.566   6.577
 6889SOL     OW21565   1.082   3.040   5.905
 6889SOL    HW121566   1.099   3.074   5.813
 6889SOL    HW221567   1.042   2.949   5.900
 6890SOL     OW21568   4.040   6.415   2.419
 6890SOL    HW121569   4.049   6.507   2.381
 6890SOL    HW221570   3.943   6.395   2.434
 6891SOL     OW21571   2.035   4.040   2.524
 6891SOL    HW121572   2.032   3.963   2.587
 6891SOL    HW221573   1.972   4.111   2.556
 6892SOL     OW21574   3.366   1.988   3.842
 6892SOL    HW121575   3.395   1.918   3.908
 6892SOL    HW221576   3.444   2.017   3.787
 6893SOL     OW21577   4.612   4.520   0.223
 6893SOL    HW121578   4.686   4.583   0.248
 6893SOL    HW221579   4.637   4.471   0.140
 6894SOL     OW21580   5.736   4.573   0.621
 6894SOL    HW121581   5.777   4.537   0.538
 6894SOL    HW221582   5.749   4.672   0.624
 6895SOL     OW21583   2.089   4.575   0.891
 6895SOL    HW121584   2.126   4.620   0.809
 6895SOL    HW221585   2.071   4.644   0.961
 6896SOL     OW21586   2.767   1.590   4.048
 6896SOL    HW121587   2.811   1.563   4.133
 6896SOL    HW221588   2.803   1.678   4.019
 6897SOL     OW21589   4.876   3.866   4.932
 6897SOL    HW121590   4.876   3.766   4.936
 6897SOL    HW221591   4.794   3.902   4.976
 6898SOL     OW21592   4.313   1.525   1.387
 6898SOL    HW121593   4.300   1.535   1.486
 6898SOL    HW221594   4.405   1.489   1.369
 6899SOL     OW21595   4.569   5.911   2.045
 6899SOL    HW121596   4.595   5.988   2.103
 6899SOL    HW221597   4.537   5.835   2.103
 6900SOL     OW21598   6.059   5.514   4.952
 6900SOL    HW121599   6.158   5.507   4.958
 6900SOL    HW221600   6.034   5.601   4.910
 6901SOL     OW21601   6.312   6.164   6.405
 6901SOL    HW121602   6.287   6.116   6.489
 6901SOL    HW221603   6.359   6.100   6.343
 6902SOL     OW21604   6.468   5.926   6.754
 6902SOL    HW121605   6.439   5.855   6.689
 6902SOL    HW221606   6.568   5.929   6.757
 6903SOL     OW21607   3.087   5.143   5.059
 6903SOL    HW121608   3.069   5.047   5.079
 6903SOL    HW221609   3.032   5.173   4.982
 6904SOL     OW21610   6.051   0.563   5.434
 6904SOL    HW121611   6.074   0.491   5.499
 6904SOL    HW221612   6.070   0.652   5.475
 6905SOL     OW21613   5.328   6.007   0.491
 6905SOL    HW121614   5.297   6.098   0.517
 6905SOL    HW221615   5.252   5.956   0.450
 6906SOL     OW21616   3.234   1.559   3.942
 6906SOL    HW121617   3.268   1.645   3.980
 6906SOL    HW221618   3.310   1.509   3.900
 6907SOL     OW21619   5.609   2.367   1.401
 6907SOL    HW121620   5.572   2.420   1.477
 6907SOL    HW221621   5.670   2.296   1.437
 6908SOL     OW21622   1.353   5.468   6.682
 6908SOL    HW121623   1.299   5.437   6.761
 6908SOL    HW221624   1.298   5.527   6.625
 6909SOL     OW21625   4.970   3.739   0.958
 6909SOL    HW121626   4.970   3.802   0.879
 6909SOL    HW221627   4.940   3.789   1.039
 6910SOL     OW21628   1.245   3.298   3.727
 6910SOL    HW121629   1.279   3.355   3.801
 6910SOL    HW221630   1.146   3.309   3.719
 6911SOL     OW21631   4.032   6.827   3.879
 6911SOL    HW121632   4.040   6.732   3.908
 6911SOL    HW221633   3.940   6.861   3.900
 6912SOL     OW21634   2.648   3.515   6.340
 6912SOL    HW121635   2.681   3.472   6.257
 6912SOL    HW221636   2.564   3.470   6.370
 6913SOL     OW21637   5.772   5.991   4.246
 6913SOL    HW121638   5.827   6.075   4.238
 6913SOL    HW221639   5.710   5.985   4.167
 6914SOL     OW21640   5.799   4.258   3.639
 6914SOL    HW121641   5.791   4.264   3.738
 6914SOL    HW221642   5.708   4.256   3.598
 6915SOL     OW21643   6.246   2.571   1.471
 6915SOL    HW121644   6.340   2.539   1.485
 6915SOL    HW221645   6.191   2.549   1.552
 6916SOL     OW21646   5.268   1.807   6.854
 6916SOL    HW121647   5.276   1.907   6.858
 6916SOL    HW221648   5.171   1.782   6.858
 6917SOL     OW21649   3.686   6.713   1.144
 6917SOL    HW121650   3.694   6.616   1.119
 6917SOL    HW221651   3.677   6.768   1.060
 6918SOL     OW21652   0.727   2.274   3.949
 6918SOL    HW121653   0.646   2.295   4.004
 6918SOL    HW221654   0.789   2.352   3.949
 6919SOL     OW21655   5.568   5.821   4.632
 6919SOL    HW121656   5.642   5.780   4.685
 6919SOL    HW221657   5.572   5.788   4.537
 6920SOL     OW21658   4.467   7.003   5.658
 6920SOL    HW121659   4.498   0.081   5.665
 6920SOL    HW221660   4.525   6.954   5.593
 6921SOL     OW21661   4.504   6.243   4.186
 6921SOL    HW121662   4.578   6.221   4.249
 6921SOL    HW221663   4.519   6.196   4.099
 6922SOL     OW21664   2.040   5.680   5.054
 6922SOL    HW121665   2.115   5.731   5.094
 6922SOL    HW221666   2.054   5.582   5.069
 6923SOL     OW21667   5.281   5.766   2.905
 6923SOL    HW121668   5.285   5.765   3.004
 6923SOL    HW221669   5.200   5.717   2.873
 6924SOL     OW21670   2.026   4.510   0.175
 6924SOL    HW121671   2.046   4.462   0.261
 6924SOL    HW221672   1.933   4.490   0.147
 6925SOL     OW21673   4.934   5.998   4.419
 6925SOL    HW121674   4.991   6.080   4.411
 6925SOL    HW221675   4.933   5.967   4.514
 6926SOL     OW21676   2.543   2.550   0.825
 6926SOL    HW121677   2.594   2.466   0.806
 6926SOL    HW221678   2.464   2.556   0.764
 6927SOL     OW21679   3.768   3.101   5.702
 6927SOL    HW121680   3.865   3.118   5.685
 6927SOL    HW221681   3.754   3.081   5.799
 6928SOL     OW21682   5.767   5.526   0.782
 6928SOL    HW121683   5.796   5.439   0.742
 6928SOL    HW221684   5.671   5.543   0.757
 6929SOL     OW21685   5.085   5.649   2.025
 6929SOL    HW121686   5.143   5.587   2.077
 6929SOL    HW221687   5.084   5.621   1.929
 6930SOL     OW21688   1.580   0.427   1.562
 6930SOL    HW121689   1.555   0.516   1.601
 6930SOL    HW221690   1.520   0.356   1.600
 6931SOL     OW21691   1.518   1.501   2.252
 6931SOL    HW121692   1.585   1.441   2.297
 6931SOL    HW221693   1.427   1.478   2.285
 6932SOL     OW21694   4.377   0.308   0.358
 6932SOL    HW121695   4.393   0.227   0.302
 6932SOL    HW221696   4.289   0.301   0.404
 6933SOL     OW21697   3.557   6.217   5.542
 6933SOL    HW121698   3.627   6.273   5.499
 6933SOL    HW221699   3.600   6.156   5.609
 6934SOL     OW21700   4.680   2.750   6.269
 6934SOL    HW121701   4.618   2.828   6.259
 6934SOL    HW221702   4.775   2.782   6.268
 6935SOL     OW21703   4.749   5.483   2.951
 6935SOL    HW121704   4.788   5.461   2.862
 6935SOL    HW221705   4.712   5.576   2.948
 6936SOL     OW21706   6.266   3.029   4.214
 6936SOL    HW121707   6.197   2.985   4.156
 6936SOL    HW221708   6.233   3.120   4.241
 6937SOL     OW21709   5.935   6.090   0.697
 6937SOL    HW121710   5.898   6.049   0.614
 6937SOL    HW221711   5.935   6.190   0.689
 6938SOL     OW21712   6.683   2.780   5.159
 6938SOL    HW121713   6.740   2.829   5.094
 6938SOL    HW221714   6.625   2.715   5.111
 6939SOL     OW21715   0.567   5.350   2.024
 6939SOL    HW121716   0.527   5.305   2.104
 6939SOL    HW221717   0.589   5.445   2.046
 6940SOL     OW21718   3.833   0.264   6.161
 6940SOL    HW121719   3.780   0.246   6.243
 6940SOL    HW221720   3.777   0.314   6.095
 6941SOL     OW21721   3.063   3.891   1.888
 6941SOL    HW121722   3.029   3.821   1.951
 6941SOL    HW221723   3.133   3.852   1.828
 6942SOL     OW21724   5.989   6.426   2.711
 6942SOL    HW121725   5.920   6.498   2.722
 6942SOL    HW221726   5.965   6.370   2.631
 6943SOL     OW21727   4.049   5.996   0.843
 6943SOL    HW121728   4.107   6.057   0.789
 6943SOL    HW221729   4.012   6.046   0.921
 6944SOL     OW21730   1.197   4.936   6.787
 6944SOL    HW121731   1.239   4.980   6.866
 6944SOL    HW221732   1.205   4.996   6.707
 6945SOL     OW21733   6.659   1.611   0.034
 6945SOL    HW121734   6.638   1.629   0.130
 6945SOL    HW221735   6.683   1.697   7.006
 6946SOL     OW21736   4.307   0.001   1.486
 6946SOL    HW121737   4.302   6.919   1.494
 6946SOL    HW221738   4.215   0.038   1.474
 6947SOL     OW21739   3.621   5.404   6.978
 6947SOL    HW121740   3.612   5.476   6.909
 6947SOL    HW221741   3.685   5.434   0.032
 6948SOL     OW21742   0.901   6.588   1.263
 6948SOL    HW121743   0.908   6.605   1.164
 6948SOL    HW221744   0.919   6.674   1.312
 6949SOL     OW21745   3.614   6.814   3.491
 6949SOL    HW121746   3.614   6.871   3.409
 6949SOL    HW221747   3.696   6.832   3.545
 6950SOL     OW21748   1.897   1.232   4.894
 6950SOL    HW121749   1.961   1.263   4.965
 6950SOL    HW221750   1.808   1.274   4.908
 6951SOL     OW21751   6.633   5.765   6.079
 6951SOL    HW121752   6.572   5.694   6.115
 6951SOL    HW221753   6.670   5.819   6.155
 6952SOL     OW21754   1.168   5.642   3.239
 6952SOL    HW121755   1.076   5.673   3.263
 6952SOL    HW221756   1.203   5.697   3.164
 6953SOL     OW21757   4.390   6.580   1.651
 6953SOL    HW121758   4.469   6.518   1.655
 6953SOL    HW221759   4.355   6.593   1.744
 6954SOL     OW21760   0.754   4.100   2.083
 6954SOL    HW121761   0.699   4.021   2.056
 6954SOL    HW221762   0.816   4.124   2.008
 6955SOL     OW21763   5.598   0.931   1.973
 6955SOL    HW121764   5.518   0.881   2.006
 6955SOL    HW221765   5.665   0.867   1.936
 6956SOL     OW21766   5.364   5.468   3.586
 6956SOL    HW121767   5.418   5.383   3.586
 6956SOL    HW221768   5.286   5.458   3.648
 6957SOL     OW21769   5.867   5.978   0.972
 6957SOL    HW121770   5.832   6.019   1.057
 6957SOL    HW221771   5.933   6.039   0.930
 6958SOL     OW21772   3.893   3.326   4.575
 6958SOL    HW121773   3.950   3.267   4.517
 6958SOL    HW221774   3.952   3.386   4.630
 6959SOL     OW21775   2.169   3.122   3.118
 6959SOL    HW121776   2.220   3.054   3.171
 6959SOL    HW221777   2.134   3.192   3.180
 6960SOL     OW21778   1.922   3.752   1.665
 6960SOL    HW121779   2.006   3.757   1.718
 6960SOL    HW221780   1.898   3.656   1.648
 6961SOL     OW21781   6.067   0.422   4.474
 6961SOL    HW121782   6.011   0.451   4.396
 6961SOL    HW221783   6.022   0.449   4.559
 6962SOL     OW21784   4.320   5.672   1.968
 6962SOL    HW121785   4.341   5.643   1.875
 6962SOL    HW221786   4.403   5.706   2.012
 6963SOL     OW21787   5.493   5.437   1.528
 6963SOL    HW121788   5.458   5.528   1.504
 6963SOL    HW221789   5.589   5.445   1.554
 6964SOL     OW21790   3.556   1.425   5.652
 6964SOL    HW121791   3.628   1.439   5.584
 6964SOL    HW221792   3.521   1.514   5.682
 6965SOL     OW21793   1.767   1.222   6.879
 6965SOL    HW121794   1.738   1.177   6.964
 6965SOL    HW221795   1.700   1.291   6.853
 6966SOL     OW21796   0.801   1.615   2.308
 6966SOL    HW121797   0.737   1.584   2.238
 6966SOL    HW221798   0.771   1.704   2.343
 6967SOL     OW21799   3.055   0.511   6.272
 6967SOL    HW121800   2.998   0.518   6.354
 6967SOL    HW221801   3.062   0.415   6.244
 6968SOL     OW21802   4.016   0.820   3.392
 6968SOL    HW121803   3.969   0.879   3.327
 6968SOL    HW221804   4.046   0.874   3.471
 6969SOL     OW21805   2.810   2.269   1.305
 6969SOL    HW121806   2.850   2.307   1.222
 6969SOL    HW221807   2.774   2.342   1.362
 6970SOL     OW21808   3.767   3.715   5.511
 6970SOL    HW121809   3.832   3.761   5.571
 6970SOL    HW221810   3.799   3.718   5.417
 6971SOL     OW21811   6.405   4.668   0.738
 6971SOL    HW121812   6.481   4.732   0.745
 6971SOL    HW221813   6.440   4.576   0.720
 6972SOL     OW21814   5.381   4.475   3.228
 6972SOL    HW121815   5.437   4.548   3.266
 6972SOL    HW221816   5.395   4.390   3.280
 6973SOL     OW21817   0.595   3.028   3.361
 6973SOL    HW121818   0.613   3.098   3.293
 6973SOL    HW221819   0.587   2.939   3.316
 6974SOL     OW21820   2.925   3.717   2.486
 6974SOL    HW121821   2.894   3.625   2.509
 6974SOL    HW221822   3.024   3.723   2.499
 6975SOL     OW21823   1.558   6.551   5.353
 6975SOL    HW121824   1.577   6.646   5.375
 6975SOL    HW221825   1.643   6.503   5.332
 6976SOL     OW21826   6.533   5.316   6.072
 6976SOL    HW121827   6.554   5.312   5.974
 6976SOL    HW221828   6.534   5.224   6.110
 6977SOL     OW21829   3.566   2.767   0.814
 6977SOL    HW121830   3.538   2.751   0.909
 6977SOL    HW221831   3.530   2.694   0.756
 6978SOL     OW21832   5.338   2.421   2.263
 6978SOL    HW121833   5.259   2.409   2.322
 6978SOL    HW221834   5.317   2.387   2.172
 6979SOL     OW21835   1.252   4.209   1.631
 6979SOL    HW121836   1.182   4.281   1.640
 6979SOL    HW221837   1.306   4.205   1.715
 6980SOL     OW21838   1.793   0.564   3.484
 6980SOL    HW121839   1.782   0.489   3.419
 6980SOL    HW221840   1.723   0.633   3.467
 6981SOL     OW21841   3.475   4.084   5.429
 6981SOL    HW121842   3.425   4.102   5.344
 6981SOL    HW221843   3.492   3.986   5.437
 6982SOL     OW21844   0.830   0.909   4.589
 6982SOL    HW121845   0.769   0.964   4.646
 6982SOL    HW221846   0.922   0.910   4.627
 6983SOL     OW21847   4.562   1.967   4.335
 6983SOL    HW121848   4.656   1.994   4.353
 6983SOL    HW221849   4.560   1.899   4.262
 6984SOL     OW21850   2.317   1.939   3.284
 6984SOL    HW121851   2.387   1.868   3.276
 6984SOL    HW221852   2.235   1.910   3.236
 6985SOL     OW21853   5.659   5.484   1.058
 6985SOL    HW121854   5.677   5.494   0.961
 6985SOL    HW221855   5.739   5.446   1.104
 6986SOL     OW21856   3.354   6.848   6.597
 6986SOL    HW121857   3.352   6.761   6.645
 6986SOL    HW221858   3.366   6.922   6.663
 6987SOL     OW21859   5.998   1.427   6.061
 6987SOL    HW121860   5.939   1.428   5.980
 6987SOL    HW221861   6.045   1.515   6.069
 6988SOL     OW21862   1.035   6.822   6.780
 6988SOL    HW121863   0.998   6.914   6.769
 6988SOL    HW221864   1.014   6.787   6.871
 6989SOL     OW21865   0.459   4.542   2.908
 6989SOL    HW121866   0.504   4.459   2.873
 6989SOL    HW221867   0.425   4.525   3.000
 6990SOL     OW21868   4.471   2.455   1.144
 6990SOL    HW121869   4.487   2.394   1.222
 6990SOL    HW221870   4.537   2.434   1.072
 6991SOL     OW21871   4.535   4.395   3.693
 6991SOL    HW121872   4.516   4.445   3.777
 6991SOL    HW221873   4.605   4.326   3.710
 6992SOL     OW21874   5.855   0.263   6.344
 6992SOL    HW121875   5.760   0.294   6.348
 6992SOL    HW221876   5.880   0.222   6.432
 6993SOL     OW21877   5.695   6.496   2.692
 6993SOL    HW121878   5.612   6.531   2.648
 6993SOL    HW221879   5.699   6.529   2.786
 6994SOL     OW21880   6.935   2.296   3.730
 6994SOL    HW121881   6.849   2.340   3.754
 6994SOL    HW221882   6.966   2.239   3.806
 6995SOL     OW21883   1.276   4.374   6.382
 6995SOL    HW121884   1.210   4.308   6.418
 6995SOL    HW221885   1.262   4.383   6.283
 6996SOL     OW21886   2.048   0.374   0.178
 6996SOL    HW121887   2.023   0.302   0.243
 6996SOL    HW221888   2.136   0.413   0.205
 6997SOL     OW21889   0.420   5.102   5.265
 6997SOL    HW121890   0.483   5.134   5.194
 6997SOL    HW221891   0.471   5.081   5.348
 6998SOL     OW21892   1.313   1.425   1.394
 6998SOL    HW121893   1.293   1.354   1.462
 6998SOL    HW221894   1.231   1.480   1.379
 6999SOL     OW21895   1.885   3.341   6.347
 6999SOL    HW121896   1.830   3.315   6.268
 6999SOL    HW221897   1.880   3.269   6.416
 7000SOL     OW21898   5.693   6.527   2.086
 7000SOL    HW121899   5.789   6.541   2.059
 7000SOL    HW221900   5.690   6.483   2.176
 7001SOL     OW21901   1.560   3.463   5.434
 7001SOL    HW121902   1.634   3.399   5.413
 7001SOL    HW221903   1.544   3.522   5.355
 7002SOL     OW21904   1.514   5.859   4.565
 7002SOL    HW121905   1.569   5.788   4.610
 7002SOL    HW221906   1.516   5.845   4.466
 7003SOL     OW21907   4.539   5.907   1.077
 7003SOL    HW121908   4.630   5.921   1.037
 7003SOL    HW221909   4.478   5.981   1.050
 7004SOL     OW21910   0.739   5.732   1.308
 7004SOL    HW121911   0.797   5.728   1.390
 7004SOL    HW221912   0.758   5.653   1.250
 7005SOL     OW21913   1.062   0.434   0.895
 7005SOL    HW121914   1.099   0.444   0.803
 7005SOL    HW221915   0.975   0.384   0.890
 7006SOL     OW21916   5.595   5.246   3.844
 7006SOL    HW121917   5.511   5.194   3.828
 7006SOL    HW221918   5.669   5.208   3.789
 7007SOL     OW21919   3.847   0.730   4.669
 7007SOL    HW121920   3.748   0.735   4.678
 7007SOL    HW221921   3.880   0.805   4.612
 7008SOL     OW21922   0.562   4.041   4.141
 7008SOL    HW121923   0.524   4.132   4.125
 7008SOL    HW221924   0.503   3.971   4.101
 7009SOL     OW21925   4.015   6.745   2.669
 7009SOL    HW121926   3.982   6.829   2.714
 7009SOL    HW221927   3.936   6.693   2.636
 7010SOL     OW21928   5.437   4.145   3.870
 7010SOL    HW121929   5.517   4.143   3.930
 7010SOL    HW221930   5.459   4.196   3.787
 7011SOL     OW21931   3.219   6.451   6.472
 7011SOL    HW121932   3.226   6.402   6.385
 7011SOL    HW221933   3.127   6.441   6.509
 7012SOL     OW21934   1.161   1.977   1.029
 7012SOL    HW121935   1.132   2.065   0.991
 7012SOL    HW221936   1.132   1.903   0.969
 7013SOL     OW21937   1.207   6.352   6.954
 7013SOL    HW121938   1.203   6.431   7.015
 7013SOL    HW221939   1.116   6.333   6.917
 7014SOL     OW21940   4.909   3.198   0.739
 7014SOL    HW121941   4.886   3.101   0.746
 7014SOL    HW221942   4.898   3.242   0.828
 7015SOL     OW21943   5.448   4.172   1.258
 7015SOL    HW121944   5.391   4.212   1.186
 7015SOL    HW221945   5.540   4.158   1.223
 7016SOL     OW21946   3.766   4.998   1.104
 7016SOL    HW121947   3.839   4.932   1.083
 7016SOL    HW221948   3.715   4.967   1.184
 7017SOL     OW21949   2.878   5.381   3.323
 7017SOL    HW121950   2.858   5.325   3.403
 7017SOL    HW221951   2.976   5.400   3.320
 7018SOL     OW21952   5.091   3.883   4.015
 7018SOL    HW121953   5.100   3.965   4.071
 7018SOL    HW221954   5.088   3.802   4.073
 7019SOL     OW21955   3.620   4.871   0.451
 7019SOL    HW121956   3.531   4.825   0.452
 7019SOL    HW221957   3.660   4.863   0.359
 7020SOL     OW21958   6.844   4.268   5.370
 7020SOL    HW121959   6.838   4.356   5.415
 7020SOL    HW221960   6.783   4.267   5.290
 7021SOL     OW21961   1.823   2.483   5.087
 7021SOL    HW121962   1.880   2.402   5.097
 7021SOL    HW221963   1.738   2.471   5.137
 7022SOL     OW21964   4.541   0.210   6.756
 7022SOL    HW121965   4.532   0.296   6.705
 7022SOL    HW221966   4.451   0.176   6.781
 7023SOL     OW21967   1.367   2.983   2.785
 7023SOL    HW121968   1.440   2.938   2.837
 7023SOL    HW221969   1.393   3.077   2.765
 7024SOL     OW21970   3.038   3.851   4.213
 7024SOL    HW121971   3.022   3.756   4.243
 7024SOL    HW221972   3.012   3.860   4.117
 7025SOL     OW21973   3.960   1.185   0.929
 7025SOL    HW121974   3.947   1.215   0.834
 7025SOL    HW221975   3.875   1.198   0.980
 7026SOL     OW21976   3.471   2.050   2.162
 7026SOL    HW121977   3.535   2.113   2.117
 7026SOL    HW221978   3.476   1.961   2.118
 7027SOL     OW21979   2.582   5.757   4.469
 7027SOL    HW121980   2.533   5.833   4.510
 7027SOL    HW221981   2.618   5.698   4.541
 7028SOL     OW21982   3.935   1.295   3.355
 7028SOL    HW121983   3.920   1.297   3.454
 7028SOL    HW221984   3.900   1.380   3.314
 7029SOL     OW21985   4.124   4.457   5.346
 7029SOL    HW121986   4.188   4.465   5.270
 7029SOL    HW221987   4.173   4.474   5.432
 7030SOL     OW21988   0.380   1.128   5.120
 7030SOL    HW121989   0.335   1.172   5.197
 7030SOL    HW221990   0.468   1.091   5.149
 7031SOL     OW21991   3.763   6.037   6.844
 7031SOL    HW121992   3.732   5.949   6.809
 7031SOL    HW221993   3.860   6.033   6.867
 7032SOL     OW21994   4.254   1.314   3.885
 7032SOL    HW121995   4.239   1.405   3.847
 7032SOL    HW221996   4.337   1.275   3.843
 7033SOL     OW21997   1.287   2.348   3.499
 7033SOL    HW121998   1.347   2.413   3.453
 7033SOL    HW221999   1.198   2.390   3.516
 7034SOL     OW22000   0.046   1.655   2.789
 7034SOL    HW122001   0.076   1.750   2.789
 7034SOL    HW222002   0.126   1.595   2.782
 7035SOL     OW22003   1.574   0.318   0.710
 7035SOL    HW122004   1.572   0.351   0.805
 7035SOL    HW222005   1.499   0.255   0.695
 7036SOL     OW22006   6.721   1.329   2.153
 7036SOL    HW122007   6.818   1.312   2.169
 7036SOL    HW222008   6.711   1.406   2.090
 7037SOL     OW22009   0.576   1.112   6.574
 7037SOL    HW122010   0.583   1.013   6.581
 7037SOL    HW222011   0.657   1.154   6.614
 7038SOL     OW22012   2.237   4.204   4.774
 7038SOL    HW122013   2.295   4.283   4.792
 7038SOL    HW222014   2.249   4.136   4.846
 7039SOL     OW22015   0.476   6.054   2.896
 7039SOL    HW122016   0.394   6.110   2.906
 7039SOL    HW222017   0.451   5.963   2.865
 7040SOL     OW22018   5.551   2.848   5.840
 7040SOL    HW122019   5.497   2.765   5.856
 7040SOL    HW222020   5.609   2.866   5.920
 7041SOL     OW22021   6.603   1.822   1.992
 7041SOL    HW122022   6.635   1.917   1.984
 7041SOL    HW222023   6.517   1.820   2.043
 7042SOL     OW22024   4.209   5.858   4.506
 7042SOL    HW122025   4.281   5.928   4.503
 7042SOL    HW222026   4.214   5.808   4.592
 7043SOL     OW22027   2.395   4.558   3.624
 7043SOL    HW122028   2.419   4.653   3.605
 7043SOL    HW222029   2.430   4.531   3.714
 7044SOL     OW22030   5.674   5.336   5.556
 7044SOL    HW122031   5.752   5.397   5.558
 7044SOL    HW222032   5.655   5.301   5.648
 7045SOL     OW22033   5.305   5.267   2.356
 7045SOL    HW122034   5.353   5.294   2.440
 7045SOL    HW222035   5.366   5.279   2.278
 7046SOL     OW22036   3.158   1.813   3.432
 7046SOL    HW122037   3.247   1.832   3.392
 7046SOL    HW222038   3.107   1.751   3.372
 7047SOL     OW22039   6.720   0.823   2.117
 7047SOL    HW122040   6.777   0.895   2.157
 7047SOL    HW222041   6.714   0.746   2.180
 7048SOL     OW22042   5.891   6.394   4.409
 7048SOL    HW122043   5.811   6.438   4.450
 7048SOL    HW222044   5.971   6.453   4.421
 7049SOL     OW22045   3.811   1.877   1.126
 7049SOL    HW122046   3.809   1.977   1.136
 7049SOL    HW222047   3.854   1.853   1.039
 7050SOL     OW22048   4.159   3.421   1.353
 7050SOL    HW122049   4.200   3.510   1.372
 7050SOL    HW222050   4.125   3.381   1.439
 7051SOL     OW22051   0.296   6.274   1.417
 7051SOL    HW122052   0.224   6.240   1.477
 7051SOL    HW222053   0.297   6.221   1.332
 7052SOL     OW22054   6.607   0.766   4.123
 7052SOL    HW122055   6.557   0.685   4.092
 7052SOL    HW222056   6.620   0.828   4.046
 7053SOL     OW22057   1.795   3.403   4.807
 7053SOL    HW122058   1.862   3.385   4.735
 7053SOL    HW222059   1.842   3.403   4.896
 7054SOL     OW22060   0.191   6.638   1.026
 7054SOL    HW122061   0.164   6.579   0.950
 7054SOL    HW222062   0.133   6.719   1.028
 7055SOL     OW22063   3.172   0.244   0.179
 7055SOL    HW122064   3.136   0.336   0.166
 7055SOL    HW222065   3.099   0.185   0.215
 7056SOL     OW22066   6.437   4.865   1.495
 7056SOL    HW122067   6.415   4.908   1.407
 7056SOL    HW222068   6.446   4.766   1.483
 7057SOL     OW22069   3.105   5.103   3.597
 7057SOL    HW122070   3.187   5.147   3.560
 7057SOL    HW222071   3.072   5.034   3.532
 7058SOL     OW22072   5.428   2.595   5.867
 7058SOL    HW122073   5.452   2.524   5.801
 7058SOL    HW222074   5.474   2.579   5.953
 7059SOL     OW22075   1.078   0.720   4.209
 7059SOL    HW122076   1.085   0.765   4.298
 7059SOL    HW222077   0.994   0.668   4.204
 7060SOL     OW22078   3.240   0.454   0.606
 7060SOL    HW122079   3.285   0.447   0.695
 7060SOL    HW222080   3.213   0.549   0.588
 7061SOL     OW22081   0.332   2.809   3.691
 7061SOL    HW122082   0.253   2.870   3.687
 7061SOL    HW222083   0.416   2.863   3.682
 7062SOL     OW22084   3.703   2.152   5.115
 7062SOL    HW122085   3.733   2.089   5.187
 7062SOL    HW222086   3.607   2.132   5.092
 7063SOL     OW22087   1.588   6.760   2.193
 7063SOL    HW122088   1.505   6.815   2.186
 7063SOL    HW222089   1.658   6.811   2.242
 7064SOL     OW22090   4.137   2.376   6.755
 7064SOL    HW122091   4.058   2.426   6.791
 7064SOL    HW222092   4.181   2.430   6.683
 7065SOL     OW22093   3.305   3.770   5.057
 7065SOL    HW122094   3.311   3.870   5.052
 7065SOL    HW222095   3.247   3.736   4.983
 7066SOL     OW22096   3.970   0.120   5.982
 7066SOL    HW122097   3.929   0.161   6.063
 7066SOL    HW222098   4.069   0.111   5.995
 7067SOL     OW22099   0.820   3.429   5.591
 7067SOL    HW122100   0.852   3.520   5.619
 7067SOL    HW222101   0.892   3.384   5.538
 7068SOL     OW22102   5.827   4.143   5.290
 7068SOL    HW122103   5.895   4.166   5.222
 7068SOL    HW222104   5.833   4.045   5.312
 7069SOL     OW22105   5.877   1.698   5.471
 7069SOL    HW122106   5.815   1.627   5.438
 7069SOL    HW222107   5.969   1.659   5.483
 7070SOL     OW22108   1.179   6.609   4.138
 7070SOL    HW122109   1.088   6.591   4.099
 7070SOL    HW222110   1.186   6.705   4.162
 7071SOL     OW22111   3.535   5.916   0.118
 7071SOL    HW122112   3.594   5.969   0.180
 7071SOL    HW222113   3.490   5.843   0.170
 7072SOL     OW22114   1.814   5.261   0.136
 7072SOL    HW122115   1.736   5.206   0.167
 7072SOL    HW222116   1.781   5.348   0.099
 7073SOL     OW22117   4.139   0.297   3.442
 7073SOL    HW122118   4.089   0.383   3.447
 7073SOL    HW222119   4.236   0.315   3.428
 7074SOL     OW22120   5.999   3.169   2.406
 7074SOL    HW122121   5.995   3.258   2.452
 7074SOL    HW222122   6.001   3.183   2.307
 7075SOL     OW22123   2.004   4.473   4.532
 7075SOL    HW122124   1.929   4.423   4.490
 7075SOL    HW222125   2.067   4.504   4.461
 7076SOL     OW22126   5.445   3.322   0.192
 7076SOL    HW122127   5.470   3.400   0.249
 7076SOL    HW222128   5.345   3.321   0.179
 7077SOL     OW22129   2.099   3.918   3.294
 7077SOL    HW122130   2.134   3.906   3.201
 7077SOL    HW222131   2.004   3.949   3.290
 7078SOL     OW22132   6.483   6.169   1.242
 7078SOL    HW122133   6.397   6.160   1.191
 7078SOL    HW222134   6.543   6.092   1.219
 7079SOL     OW22135   0.787   6.533   3.800
 7079SOL    HW122136   0.809   6.596   3.725
 7079SOL    HW222137   0.758   6.445   3.762
 7080SOL     OW22138   3.469   1.372   4.062
 7080SOL    HW122139   3.467   1.432   4.142
 7080SOL    HW222140   3.564   1.347   4.042
 7081SOL     OW22141   1.220   5.454   0.417
 7081SOL    HW122142   1.293   5.456   0.348
 7081SOL    HW222143   1.241   5.384   0.485
 7082SOL     OW22144   6.839   4.216   0.401
 7082SOL    HW122145   6.901   4.290   0.428
 7082SOL    HW222146   6.763   4.211   0.467
 7083SOL     OW22147   0.003   1.317   2.137
 7083SOL    HW122148   0.092   1.277   2.113
 7083SOL    HW222149   0.016   1.390   2.204
 7084SOL     OW22150   1.248   5.211   5.580
 7084SOL    HW122151   1.160   5.228   5.535
 7084SOL    HW222152   1.234   5.153   5.660
 7085SOL     OW22153   0.026   2.046   2.498
 7085SOL    HW122154   6.964   2.080   2.448
 7085SOL    HW222155   0.056   2.115   2.564
 7086SOL     OW22156   5.250   0.840   5.846
 7086SOL    HW122157   5.311   0.878   5.777
 7086SOL    HW222158   5.304   0.800   5.921
 7087SOL     OW22159   6.010   4.528   2.663
 7087SOL    HW122160   6.095   4.511   2.613
 7087SOL    HW222161   5.936   4.474   2.623
 7088SOL     OW22162   5.057   2.649   5.029
 7088SOL    HW122163   5.138   2.646   4.970
 7088SOL    HW222164   5.050   2.564   5.081
 7089SOL     OW22165   2.153   3.242   3.356
 7089SOL    HW122166   2.168   3.166   3.419
 7089SOL    HW222167   2.174   3.328   3.402
 7090SOL     OW22168   2.453   1.523   0.260
 7090SOL    HW122169   2.532   1.480   0.303
 7090SOL    HW222170   2.484   1.591   0.193
 7091SOL     OW22171   0.672   1.386   1.110
 7091SOL    HW122172   0.668   1.448   1.188
 7091SOL    HW222173   0.592   1.326   1.112
 7092SOL     OW22174   4.056   3.086   5.645
 7092SOL    HW122175   4.083   3.022   5.574
 7092SOL    HW222176   4.128   3.155   5.657
 7093SOL     OW22177   3.333   4.324   1.666
 7093SOL    HW122178   3.258   4.374   1.624
 7093SOL    HW222179   3.297   4.252   1.725
 7094SOL     OW22180   0.353   6.965   5.599
 7094SOL    HW122181   0.364   6.909   5.681
 7094SOL    HW222182   0.296   0.028   5.620
 7095SOL     OW22183   2.871   4.841   6.026
 7095SOL    HW122184   2.789   4.886   5.990
 7095SOL    HW222185   2.874   4.746   5.992
 7096SOL     OW22186   6.515   6.888   1.702
 7096SOL    HW122187   6.585   6.911   1.635
 7096SOL    HW222188   6.435   6.850   1.656
 7097SOL     OW22189   5.185   0.942   1.726
 7097SOL    HW122190   5.155   0.847   1.730
 7097SOL    HW222191   5.106   1.002   1.738
 7098SOL     OW22192   1.507   5.190   5.797
 7098SOL    HW122193   1.419   5.167   5.756
 7098SOL    HW222194   1.554   5.257   5.740
 7099SOL     OW22195   3.486   2.076   4.282
 7099SOL    HW122196   3.440   1.988   4.290
 7099SOL    HW222197   3.548   2.075   4.204
 7100SOL     OW22198   5.928   3.105   0.293
 7100SOL    HW122199   5.945   3.060   0.381
 7100SOL    HW222200   5.948   3.203   0.302
 7101SOL     OW22201   2.516   0.918   5.064
 7101SOL    HW122202   2.459   0.937   5.144
 7101SOL    HW222203   2.503   0.823   5.035
 7102SOL     OW22204   5.498   6.914   0.875
 7102SOL    HW122205   5.429   6.919   0.947
 7102SOL    HW222206   5.470   6.848   0.805
 7103SOL     OW22207   5.658   5.045   1.655
 7103SOL    HW122208   5.583   5.089   1.606
 7103SOL    HW222209   5.657   4.947   1.637
 7104SOL     OW22210   6.402   3.736   2.649
 7104SOL    HW122211   6.422   3.638   2.647
 7104SOL    HW222212   6.410   3.770   2.742
 7105SOL     OW22213   3.150   3.449   4.565
 7105SOL    HW122214   3.118   3.499   4.645
 7105SOL    HW222215   3.249   3.452   4.561
 7106SOL     OW22216   3.558   3.189   1.340
 7106SOL    HW122217   3.539   3.199   1.438
 7106SOL    HW222218   3.476   3.153   1.295
 7107SOL     OW22219   4.701   0.283   0.745
 7107SOL    HW122220   4.683   0.199   0.796
 7107SOL    HW222221   4.756   0.345   0.801
 7108SOL     OW22222   2.608   5.578   2.990
 7108SOL    HW122223   2.684   5.576   3.056
 7108SOL    HW222224   2.643   5.557   2.899
 7109SOL     OW22225   1.948   0.595   6.575
 7109SOL    HW122226   2.021   0.604   6.507
 7109SOL    HW222227   1.930   0.499   6.593
 7110SOL     OW22228   3.089   5.687   4.149
 7110SOL    HW122229   3.081   5.588   4.148
 7110SOL    HW222230   3.116   5.718   4.240
 7111SOL     OW22231   1.809   1.876   4.294
 7111SOL    HW122232   1.881   1.831   4.242
 7111SOL    HW222233   1.758   1.808   4.347
 7112SOL     OW22234   1.932   5.342   4.466
 7112SOL    HW122235   1.875   5.326   4.547
 7112SOL    HW222236   2.006   5.275   4.464
 7113SOL     OW22237   3.555   4.124   4.410
 7113SOL    HW122238   3.466   4.134   4.367
 7113SOL    HW222239   3.549   4.055   4.482
 7114SOL     OW22240   4.719   5.427   1.390
 7114SOL    HW122241   4.656   5.372   1.444
 7114SOL    HW222242   4.667   5.492   1.334
 7115SOL     OW22243   5.067   3.251   6.664
 7115SOL    HW122244   5.036   3.218   6.574
 7115SOL    HW222245   5.164   3.228   6.675
 7116SOL     OW22246   5.106   4.521   3.588
 7116SOL    HW122247   5.091   4.441   3.646
 7116SOL    HW222248   5.199   4.556   3.603
 7117SOL     OW22249   0.207   0.053   4.731
 7117SOL    HW122250   0.245   0.145   4.721
 7117SOL    HW222251   0.228   0.018   4.822
 7118SOL     OW22252   3.832   4.288   5.993
 7118SOL    HW122253   3.912   4.245   5.949
 7118SOL    HW222254   3.755   4.287   5.929
 7119SOL     OW22255   5.097   0.925   5.028
 7119SOL    HW122256   5.010   0.915   4.980
 7119SOL    HW222257   5.133   0.834   5.049
 7120SOL     OW22258   3.512   1.761   1.449
 7120SOL    HW122259   3.502   1.796   1.542
 7120SOL    HW222260   3.465   1.822   1.385
 7121SOL     OW22261   0.824   6.703   2.923
 7121SOL    HW122262   0.763   6.668   2.852
 7121SOL    HW222263   0.770   6.741   2.998
 7122SOL     OW22264   1.722   0.519   5.567
 7122SOL    HW122265   1.719   0.548   5.663
 7122SOL    HW222266   1.700   0.597   5.508
 7123SOL     OW22267   0.762   4.873   4.067
 7123SOL    HW122268   0.691   4.830   4.123
 7123SOL    HW222269   0.736   4.967   4.045
 7124SOL     OW22270   0.875   2.535   1.316
 7124SOL    HW122271   0.853   2.632   1.306
 7124SOL    HW222272   0.945   2.524   1.387
 7125SOL     OW22273   0.590   1.592   0.908
 7125SOL    HW122274   0.617   1.546   0.992
 7125SOL    HW222275   0.503   1.554   0.877
 7126SOL     OW22276   3.929   5.883   0.519
 7126SOL    HW122277   3.997   5.815   0.493
 7126SOL    HW222278   3.885   5.855   0.605
 7127SOL     OW22279   2.723   5.975   6.336
 7127SOL    HW122280   2.764   5.969   6.245
 7127SOL    HW222281   2.771   6.044   6.390
 7128SOL     OW22282   3.920   4.123   6.643
 7128SOL    HW122283   3.900   4.220   6.637
 7128SOL    HW222284   3.948   4.100   6.737
 7129SOL     OW22285   2.018   1.300   0.874
 7129SOL    HW122286   2.054   1.393   0.885
 7129SOL    HW222287   1.919   1.302   0.876
 7130SOL     OW22288   3.610   6.505   4.548
 7130SOL    HW122289   3.610   6.407   4.571
 7130SOL    HW222290   3.584   6.558   4.629
 7131SOL     OW22291   3.284   0.882   1.789
 7131SOL    HW122292   3.265   0.943   1.711
 7131SOL    HW222293   3.294   0.937   1.872
 7132SOL     OW22294   4.414   4.367   0.344
 7132SOL    HW122295   4.481   4.435   0.314
 7132SOL    HW222296   4.428   4.282   0.293
 7133SOL     OW22297   4.024   4.874   5.039
 7133SOL    HW122298   3.987   4.815   5.111
 7133SOL    HW222299   4.080   4.946   5.081
 7134SOL     OW22300   5.448   6.651   2.389
 7134SOL    HW122301   5.488   6.717   2.453
 7134SOL    HW222302   5.449   6.689   2.296
 7135SOL     OW22303   2.561   2.505   3.103
 7135SOL    HW122304   2.549   2.510   3.202
 7135SOL    HW222305   2.633   2.438   3.083
 7136SOL     OW22306   3.057   1.834   0.775
 7136SOL    HW122307   3.125   1.775   0.732
 7136SOL    HW222308   2.992   1.778   0.826
 7137SOL     OW22309   2.849   2.011   0.329
 7137SOL    HW122310   2.749   2.007   0.337
 7137SOL    HW222311   2.884   2.081   0.391
 7138SOL     OW22312   1.721   1.256   0.807
 7138SOL    HW122313   1.651   1.326   0.821
 7138SOL    HW222314   1.680   1.174   0.768
 7139SOL     OW22315   5.016   4.836   2.675
 7139SOL    HW122316   5.054   4.837   2.767
 7139SOL    HW222317   4.923   4.799   2.678
 7140SOL     OW22318   6.442   4.084   0.719
 7140SOL    HW122319   6.512   4.026   0.762
 7140SOL    HW222320   6.374   4.025   0.674
 7141SOL     OW22321   4.221   0.029   1.068
 7141SOL    HW122322   4.134   7.005   1.097
 7141SOL    HW222323   4.211   0.128   1.063
 7142SOL     OW22324   3.783   6.937   4.017
 7142SOL    HW122325   3.720   6.892   4.080
 7142SOL    HW222326   3.732   6.973   3.939
 7143SOL     OW22327   1.775   3.672   6.812
 7143SOL    HW122328   1.677   3.669   6.796
 7143SOL    HW222329   1.795   3.653   6.908
 7144SOL     OW22330   0.905   0.868   3.132
 7144SOL    HW122331   0.846   0.797   3.093
 7144SOL    HW222332   0.921   0.939   3.063
 7145SOL     OW22333   4.338   0.735   6.531
 7145SOL    HW122334   4.419   0.789   6.510
 7145SOL    HW222335   4.350   0.642   6.498
 7146SOL     OW22336   1.850   1.042   6.084
 7146SOL    HW122337   1.759   1.076   6.109
 7146SOL    HW222338   1.909   1.118   6.059
 7147SOL     OW22339   6.698   6.019   3.377
 7147SOL    HW122340   6.736   5.963   3.450
 7147SOL    HW222341   6.694   6.114   3.406
 7148SOL     OW22342   6.166   6.052   2.081
 7148SOL    HW122343   6.095   5.984   2.064
 7148SOL    HW222344   6.198   6.044   2.176
 7149SOL     OW22345   0.347   4.930   3.926
 7149SOL    HW122346   0.395   4.876   3.857
 7149SOL    HW222347   0.312   5.014   3.883
 7150SOL     OW22348   3.454   3.222   0.107
 7150SOL    HW122349   3.535   3.209   0.165
 7150SOL    HW222350   3.471   3.183   0.017
 7151SOL     OW22351   3.030   6.866   1.085
 7151SOL    HW122352   2.988   6.781   1.116
 7151SOL    HW222353   2.989   6.943   1.133
 7152SOL     OW22354   6.863   0.649   6.537
 7152SOL    HW122355   6.774   0.649   6.490
 7152SOL    HW222356   6.853   0.603   6.625
 7153SOL     OW22357   3.953   5.183   1.642
 7153SOL    HW122358   3.910   5.101   1.680
 7153SOL    HW222359   3.884   5.255   1.634
 7154SOL     OW22360   4.218   6.656   2.838
 7154SOL    HW122361   4.134   6.698   2.806
 7154SOL    HW222362   4.282   6.727   2.869
 7155SOL     OW22363   3.660   3.421   1.430
 7155SOL    HW122364   3.641   3.502   1.374
 7155SOL    HW222365   3.631   3.339   1.381
 7156SOL     OW22366   4.890   3.753   2.617
 7156SOL    HW122367   4.880   3.817   2.540
 7156SOL    HW222368   4.801   3.712   2.638
 7157SOL     OW22369   6.907   4.565   1.814
 7157SOL    HW122370   6.898   4.634   1.886
 7157SOL    HW222371   7.002   4.534   1.809
 7158SOL     OW22372   0.650   6.525   2.719
 7158SOL    HW122373   0.675   6.437   2.679
 7158SOL    HW222374   0.603   6.509   2.806
 7159SOL     OW22375   1.072   4.785   4.358
 7159SOL    HW122376   1.113   4.734   4.282
 7159SOL    HW222377   1.043   4.720   4.429
 7160SOL     OW22378   6.265   6.089   2.372
 7160SOL    HW122379   6.333   6.146   2.418
 7160SOL    HW222380   6.215   6.035   2.440
 7161SOL     OW22381   3.245   3.944   2.524
 7161SOL    HW122382   3.246   3.844   2.519
 7161SOL    HW222383   3.208   3.982   2.440
 7162SOL     OW22384   0.792   5.062   6.536
 7162SOL    HW122385   0.718   5.012   6.582
 7162SOL    HW222386   0.796   5.034   6.440
 7163SOL     OW22387   3.348   0.807   2.586
 7163SOL    HW122388   3.320   0.715   2.560
 7163SOL    HW222389   3.281   0.845   2.650
 7164SOL     OW22390   1.938   0.244   4.952
 7164SOL    HW122391   1.841   0.221   4.953
 7164SOL    HW222392   1.986   0.191   5.022
 7165SOL     OW22393   5.829   6.178   1.837
 7165SOL    HW122394   5.890   6.200   1.913
 7165SOL    HW222395   5.848   6.085   1.805
 7166SOL     OW22396   5.477   1.606   0.357
 7166SOL    HW122397   5.549   1.542   0.384
 7166SOL    HW222398   5.493   1.694   0.401
 7167SOL     OW22399   5.117   3.125   4.699
 7167SOL    HW122400   5.028   3.117   4.655
 7167SOL    HW222401   5.108   3.174   4.786
 7168SOL     OW22402   3.026   1.935   3.127
 7168SOL    HW122403   3.063   1.927   3.034
 7168SOL    HW222404   3.080   2.002   3.178
 7169SOL     OW22405   0.212   4.242   4.882
 7169SOL    HW122406   0.247   4.212   4.794
 7169SOL    HW222407   0.180   4.337   4.874
 7170SOL     OW22408   4.452   0.186   2.716
 7170SOL    HW122409   4.368   0.240   2.717
 7170SOL    HW222410   4.504   0.207   2.633
 7171SOL     OW22411   5.943   3.496   1.026
 7171SOL    HW122412   5.845   3.484   1.035
 7171SOL    HW222413   5.991   3.426   1.078
 7172SOL     OW22414   2.323   1.316   5.677
 7172SOL    HW122415   2.418   1.284   5.680
 7172SOL    HW222416   2.308   1.367   5.593
 7173SOL     OW22417   6.265   4.890   6.480
 7173SOL    HW122418   6.272   4.830   6.401
 7173SOL    HW222419   6.345   4.949   6.485
 7174SOL     OW22420   0.225   4.944   1.049
 7174SOL    HW122421   0.258   5.015   1.113
 7174SOL    HW222422   0.174   4.987   0.975
 7175SOL     OW22423   0.077   3.275   5.080
 7175SOL    HW122424   0.121   3.191   5.050
 7175SOL    HW222425   0.130   3.316   5.155
 7176SOL     OW22426   6.975   1.774   4.404
 7176SOL    HW122427   6.899   1.755   4.342
 7176SOL    HW222428   6.939   1.795   4.495
 7177SOL     OW22429   1.450   4.460   5.733
 7177SOL    HW122430   1.461   4.539   5.793
 7177SOL    HW222431   1.539   4.430   5.700
 7178SOL     OW22432   0.573   1.585   6.341
 7178SOL    HW122433   0.542   1.497   6.378
 7178SOL    HW222434   0.546   1.658   6.403
 7179SOL     OW22435   1.554   3.848   4.648
 7179SOL    HW122436   1.472   3.885   4.693
 7179SOL    HW222437   1.595   3.778   4.706
 7180SOL     OW22438   2.429   3.898   0.465
 7180SOL    HW122439   2.411   3.800   0.461
 7180SOL    HW222440   2.524   3.915   0.439
 7181SOL     OW22441   2.277   0.618   6.772
 7181SOL    HW122442   2.209   0.678   6.816
 7181SOL    HW222443   2.276   0.635   6.673
 7182SOL     OW22444   0.664   3.770   3.529
 7182SOL    HW122445   0.754   3.736   3.556
 7182SOL    HW222446   0.592   3.715   3.573
 7183SOL     OW22447   1.857   6.036   2.139
 7183SOL    HW122448   1.792   5.973   2.182
 7183SOL    HW222449   1.808   6.111   2.095
 7184SOL     OW22450   6.827   0.878   3.789
 7184SOL    HW122451   6.852   0.914   3.878
 7184SOL    HW222452   6.825   0.952   3.722
 7185SOL     OW22453   5.469   0.946   5.332
 7185SOL    HW122454   5.374   0.914   5.337
 7185SOL    HW222455   5.497   0.954   5.237
 7186SOL     OW22456   6.784   1.530   1.389
 7186SOL    HW122457   6.812   1.551   1.483
 7186SOL    HW222458   6.699   1.579   1.368
 7187SOL     OW22459   2.929   3.959   5.370
 7187SOL    HW122460   2.922   3.930   5.466
 7187SOL    HW222461   2.837   3.968   5.331
 7188SOL     OW22462   4.884   5.598   0.116
 7188SOL    HW122463   4.912   5.506   0.143
 7188SOL    HW222464   4.795   5.619   0.156
 7189SOL     OW22465   6.409   3.148   5.634
 7189SOL    HW122466   6.448   3.108   5.552
 7189SOL    HW222467   6.364   3.076   5.688
 7190SOL     OW22468   6.086   6.037   1.431
 7190SOL    HW122469   6.158   6.047   1.499
 7190SOL    HW222470   5.998   6.062   1.472
 7191SOL     OW22471   0.542   4.325   2.731
 7191SOL    HW122472   0.549   4.286   2.639
 7191SOL    HW222473   0.517   4.254   2.796
 7192SOL     OW22474   1.609   4.002   6.937
 7192SOL    HW122475   1.698   3.993   6.892
 7192SOL    HW222476   1.538   3.963   6.879
 7193SOL     OW22477   1.924   2.094   2.281
 7193SOL    HW122478   1.889   2.002   2.265
 7193SOL    HW222479   1.975   2.095   2.367
 7194SOL     OW22480   1.740   2.758   6.994
 7194SOL    HW122481   1.810   2.826   6.971
 7194SOL    HW222482   1.730   2.694   6.917
 7195SOL     OW22483   6.367   4.153   7.006
 7195SOL    HW122484   6.319   4.241   7.004
 7195SOL    HW222485   6.426   4.145   6.925
 7196SOL     OW22486   2.565   3.872   1.388
 7196SOL    HW122487   2.660   3.892   1.412
 7196SOL    HW222488   2.560   3.839   1.294
 7197SOL     OW22489   1.022   3.318   5.405
 7197SOL    HW122490   0.976   3.231   5.385
 7197SOL    HW222491   1.049   3.363   5.320
 7198SOL     OW22492   0.722   1.221   0.197
 7198SOL    HW122493   0.690   1.133   0.232
 7198SOL    HW222494   0.650   1.262   0.140
 7199SOL     OW22495   0.947   0.221   3.008
 7199SOL    HW122496   1.033   0.272   3.002
 7199SOL    HW222497   0.895   0.232   2.923
 7200SOL     OW22498   2.070   2.854   6.572
 7200SOL    HW122499   2.146   2.843   6.508
 7200SOL    HW222500   2.105   2.866   6.664
 7201SOL     OW22501   0.494   5.634   4.230
 7201SOL    HW122502   0.463   5.654   4.323
 7201SOL    HW222503   0.420   5.593   4.177
 7202SOL     OW22504   4.706   6.590   6.642
 7202SOL    HW122505   4.753   6.502   6.636
 7202SOL    HW222506   4.659   6.609   6.555
 7203SOL     OW22507   6.867   1.586   1.653
 7203SOL    HW122508   6.786   1.558   1.704
 7203SOL    HW222509   6.948   1.572   1.709
 7204SOL     OW22510   6.783   1.393   6.711
 7204SOL    HW122511   6.793   1.473   6.652
 7204SOL    HW222512   6.801   1.418   6.806
 7205SOL     OW22513   1.883   4.111   5.236
 7205SOL    HW122514   1.962   4.119   5.176
 7205SOL    HW222515   1.912   4.118   5.331
 7206SOL     OW22516   1.537   1.270   1.662
 7206SOL    HW122517   1.564   1.364   1.639
 7206SOL    HW222518   1.448   1.250   1.622
 7207SOL     OW22519   2.934   0.560   4.551
 7207SOL    HW122520   2.954   0.486   4.616
 7207SOL    HW222521   3.016   0.581   4.498
 7208SOL     OW22522   5.188   0.653   3.367
 7208SOL    HW122523   5.228   0.657   3.275
 7208SOL    HW222524   5.241   0.589   3.423
 7209SOL     OW22525   1.973   2.734   2.042
 7209SOL    HW122526   1.932   2.680   1.969
 7209SOL    HW222527   2.070   2.712   2.048
 7210SOL     OW22528   4.033   2.198   4.018
 7210SOL    HW122529   3.988   2.228   3.934
 7210SOL    HW222530   4.118   2.150   3.995
 7211SOL     OW22531   2.768   6.337   5.276
 7211SOL    HW122532   2.730   6.249   5.248
 7211SOL    HW222533   2.812   6.327   5.365
 7212SOL     OW22534   0.561   5.817   5.385
 7212SOL    HW122535   0.508   5.734   5.368
 7212SOL    HW222536   0.644   5.815   5.329
 7213SOL     OW22537   3.405   6.046   6.388
 7213SOL    HW122538   3.377   6.126   6.336
 7213SOL    HW222539   3.324   5.997   6.422
 7214SOL     OW22540   6.353   0.538   5.580
 7214SOL    HW122541   6.421   0.611   5.581
 7214SOL    HW222542   6.275   0.564   5.636
 7215SOL     OW22543   5.590   2.955   4.301
 7215SOL    HW122544   5.576   2.857   4.315
 7215SOL    HW222545   5.660   2.969   4.231
 7216SOL     OW22546   2.675   6.641   2.110
 7216SOL    HW122547   2.602   6.673   2.050
 7216SOL    HW222548   2.646   6.651   2.205
 7217SOL     OW22549   1.799   3.223   3.397
 7217SOL    HW122550   1.810   3.318   3.366
 7217SOL    HW222551   1.878   3.196   3.451
 7218SOL     OW22552   6.607   2.488   4.292
 7218SOL    HW122553   6.634   2.585   4.299
 7218SOL    HW222554   6.537   2.478   4.222
 7219SOL     OW22555   2.959   0.523   2.303
 7219SOL    HW122556   3.004   0.531   2.214
 7219SOL    HW222557   2.896   0.600   2.316
 7220SOL     OW22558   6.463   4.488   4.151
 7220SOL    HW122559   6.460   4.418   4.223
 7220SOL    HW222560   6.559   4.513   4.134
 7221SOL     OW22561   3.638   6.249   4.608
 7221SOL    HW122562   3.600   6.157   4.613
 7221SOL    HW222563   3.737   6.245   4.613
 7222SOL     OW22564   6.250   6.366   3.373
 7222SOL    HW122565   6.189   6.426   3.322
 7222SOL    HW222566   6.306   6.313   3.310
 7223SOL     OW22567   3.072   1.491   0.993
 7223SOL    HW122568   3.134   1.476   0.916
 7223SOL    HW222569   3.079   1.414   1.056
 7224SOL     OW22570   4.893   3.185   4.219
 7224SOL    HW122571   4.867   3.123   4.145
 7224SOL    HW222572   4.862   3.147   4.307
 7225SOL     OW22573   1.700   6.204   0.825
 7225SOL    HW122574   1.789   6.245   0.846
 7225SOL    HW222575   1.630   6.241   0.886
 7226SOL     OW22576   5.638   6.784   1.124
 7226SOL    HW122577   5.551   6.832   1.118
 7226SOL    HW222578   5.682   6.782   1.035
 7227SOL     OW22579   2.702   1.680   1.726
 7227SOL    HW122580   2.795   1.696   1.691
 7227SOL    HW222581   2.688   1.735   1.808
 7228SOL     OW22582   1.434   1.365   2.696
 7228SOL    HW122583   1.473   1.290   2.643
 7228SOL    HW222584   1.493   1.445   2.689
 7229SOL     OW22585   0.919   6.767   5.029
 7229SOL    HW122586   0.861   6.777   5.110
 7229SOL    HW222587   0.867   6.795   4.948
 7230SOL     OW22588   3.111   6.050   3.667
 7230SOL    HW122589   3.149   5.966   3.707
 7230SOL    HW222590   3.052   6.027   3.590
 7231SOL     OW22591   4.031   0.744   6.663
 7231SOL    HW122592   4.093   0.794   6.603
 7231SOL    HW222593   4.083   0.697   6.734
 7232SOL     OW22594   4.641   5.755   2.877
 7232SOL    HW122595   4.720   5.817   2.882
 7232SOL    HW222596   4.604   5.756   2.784
 7233SOL     OW22597   1.389   1.217   4.773
 7233SOL    HW122598   1.323   1.287   4.747
 7233SOL    HW222599   1.392   1.145   4.704
 7234SOL     OW22600   5.877   3.041   3.234
 7234SOL    HW122601   5.866   2.942   3.238
 7234SOL    HW222602   5.884   3.069   3.138
 7235SOL     OW22603   6.746   4.179   1.673
 7235SOL    HW122604   6.739   4.166   1.772
 7235SOL    HW222605   6.776   4.272   1.654
 7236SOL     OW22606   2.733   2.326   2.685
 7236SOL    HW122607   2.790   2.348   2.606
 7236SOL    HW222608   2.653   2.274   2.655
 7237SOL     OW22609   3.983   0.297   5.525
 7237SOL    HW122610   4.050   0.351   5.575
 7237SOL    HW222611   3.909   0.270   5.587
 7238SOL     OW22612   4.246   2.029   5.818
 7238SOL    HW122613   4.291   2.052   5.904
 7238SOL    HW222614   4.308   2.047   5.742
 7239SOL     OW22615   1.022   2.640   1.762
 7239SOL    HW122616   1.091   2.705   1.794
 7239SOL    HW222617   0.961   2.616   1.837
 7240SOL     OW22618   0.075   1.377   6.223
 7240SOL    HW122619   0.040   1.301   6.278
 7240SOL    HW222620   0.087   1.458   6.280
 7241SOL     OW22621   2.631   0.374   0.941
 7241SOL    HW122622   2.618   0.393   0.844
 7241SOL    HW222623   2.543   0.351   0.983
 7242SOL     OW22624   6.218   5.792   6.694
 7242SOL    HW122625   6.271   5.722   6.741
 7242SOL    HW222626   6.149   5.748   6.637
 7243SOL     OW22627   6.769   4.335   6.179
 7243SOL    HW122628   6.748   4.324   6.082
 7243SOL    HW222629   6.827   4.260   6.209
 7244SOL     OW22630   0.237   0.573   1.236
 7244SOL    HW122631   0.331   0.607   1.233
 7244SOL    HW222632   0.185   0.610   1.159
 7245SOL     OW22633   1.385   3.116   5.174
 7245SOL    HW122634   1.347   3.184   5.238
 7245SOL    HW222635   1.484   3.128   5.168
 7246SOL     OW22636   1.273   0.222   3.768
 7246SOL    HW122637   1.200   0.235   3.834
 7246SOL    HW222638   1.274   0.126   3.738
 7247SOL     OW22639   2.527   1.305   5.149
 7247SOL    HW122640   2.515   1.227   5.210
 7247SOL    HW222641   2.615   1.297   5.102
 7248SOL     OW22642   3.456   0.890   2.333
 7248SOL    HW122643   3.540   0.941   2.347
 7248SOL    HW222644   3.411   0.874   2.421
 7249SOL     OW22645   5.163   4.890   1.986
 7249SOL    HW122646   5.224   4.861   2.060
 7249SOL    HW222647   5.076   4.840   1.994
 7250SOL     OW22648   5.417   6.154   5.681
 7250SOL    HW122649   5.486   6.162   5.608
 7250SOL    HW222650   5.456   6.188   5.767
 7251SOL     OW22651   0.743   6.859   5.717
 7251SOL    HW122652   0.836   6.824   5.701
 7251SOL    HW222653   0.691   6.854   5.632
 7252SOL     OW22654   3.402   3.603   1.796
 7252SOL    HW122655   3.330   3.592   1.864
 7252SOL    HW222656   3.417   3.516   1.749
 7253SOL     OW22657   1.467   5.645   6.900
 7253SOL    HW122658   1.561   5.680   6.904
 7253SOL    HW222659   1.452   5.601   6.811
 7254SOL     OW22660   5.107   5.335   4.780
 7254SOL    HW122661   5.055   5.416   4.806
 7254SOL    HW222662   5.083   5.259   4.841
 7255SOL     OW22663   3.941   3.708   0.329
 7255SOL    HW122664   3.990   3.645   0.389
 7255SOL    HW222665   3.843   3.689   0.333
 7256SOL     OW22666   3.252   6.082   5.223
 7256SOL    HW122667   3.300   5.998   5.196
 7256SOL    HW222668   3.243   6.142   5.144
 7257SOL     OW22669   6.990   1.898   3.822
 7257SOL    HW122670   0.011   1.983   3.859
 7257SOL    HW222671   6.939   1.919   3.739
 7258SOL     OW22672   5.111   2.551   3.269
 7258SOL    HW122673   5.166   2.551   3.186
 7258SOL    HW222674   5.142   2.478   3.330
 7259SOL     OW22675   1.917   3.604   1.979
 7259SOL    HW122676   1.933   3.703   1.979
 7259SOL    HW222677   1.998   3.559   2.017
 7260SOL     OW22678   5.268   1.771   1.761
 7260SOL    HW122679   5.366   1.785   1.762
 7260SOL    HW222680   5.237   1.757   1.667
 7261SOL     OW22681   1.758   4.479   1.822
 7261SOL    HW122682   1.831   4.503   1.759
 7261SOL    HW222683   1.795   4.422   1.896
 7262SOL     OW22684   5.594   2.187   6.300
 7262SOL    HW122685   5.541   2.119   6.351
 7262SOL    HW222686   5.659   2.232   6.361
 7263SOL     OW22687   0.689   6.847   0.114
 7263SOL    HW122688   0.643   6.889   0.035
 7263SOL    HW222689   0.637   6.767   0.144
 7264SOL     OW22690   5.536   1.385   6.767
 7264SOL    HW122691   5.489   1.388   6.679
 7264SOL    HW222692   5.602   1.310   6.768
 7265SOL     OW22693   5.455   4.910   6.432
 7265SOL    HW122694   5.532   4.952   6.481
 7265SOL    HW222695   5.369   4.935   6.476
 7266SOL     OW22696   5.497   0.285   2.772
 7266SOL    HW122697   5.560   0.303   2.696
 7266SOL    HW222698   5.405   0.274   2.736
 7267SOL     OW22699   6.025   6.587   4.896
 7267SOL    HW122700   5.958   6.532   4.947
 7267SOL    HW222701   6.088   6.526   4.848
 7268SOL     OW22702   6.661   5.579   4.436
 7268SOL    HW122703   6.616   5.655   4.389
 7268SOL    HW222704   6.754   5.605   4.460
 7269SOL     OW22705   1.518   5.981   5.859
 7269SOL    HW122706   1.543   6.031   5.942
 7269SOL    HW222707   1.553   6.030   5.779
 7270SOL     OW22708   0.743   3.139   5.260
 7270SOL    HW122709   0.781   3.073   5.325
 7270SOL    HW222710   0.782   3.123   5.169
 7271SOL     OW22711   0.969   5.029   4.375
 7271SOL    HW122712   1.003   4.936   4.389
 7271SOL    HW222713   1.015   5.070   4.296
 7272SOL     OW22714   6.198   5.384   2.327
 7272SOL    HW122715   6.246   5.391   2.415
 7272SOL    HW222716   6.191   5.288   2.301
 7273SOL     OW22717   6.358   4.107   1.021
 7273SOL    HW122718   6.399   4.185   0.974
 7273SOL    HW222719   6.413   4.025   1.006
 7274SOL     OW22720   0.572   5.235   6.212
 7274SOL    HW122721   0.503   5.247   6.141
 7274SOL    HW222722   0.590   5.138   6.225
 7275SOL     OW22723   0.621   5.776   2.796
 7275SOL    HW122724   0.602   5.787   2.894
 7275SOL    HW222725   0.714   5.742   2.784
 7276SOL     OW22726   5.077   0.128   2.819
 7276SOL    HW122727   5.157   0.070   2.835
 7276SOL    HW222728   5.055   0.179   2.902
 7277SOL     OW22729   5.491   0.808   4.256
 7277SOL    HW122730   5.545   0.892   4.249
 7277SOL    HW222731   5.468   0.776   4.165
 7278SOL     OW22732   3.691   2.616   1.502
 7278SOL    HW122733   3.670   2.608   1.404
 7278SOL    HW222734   3.698   2.525   1.542
 7279SOL     OW22735   3.876   4.650   6.209
 7279SOL    HW122736   3.916   4.710   6.278
 7279SOL    HW222737   3.776   4.647   6.221
 7280SOL     OW22738   0.326   1.833   4.179
 7280SOL    HW122739   0.366   1.834   4.088
 7280SOL    HW222740   0.398   1.848   4.247
 7281SOL     OW22741   3.035   1.853   6.766
 7281SOL    HW122742   3.106   1.819   6.827
 7281SOL    HW222743   3.064   1.939   6.725
 7282SOL     OW22744   5.738   4.828   3.279
 7282SOL    HW122745   5.818   4.769   3.288
 7282SOL    HW222746   5.766   4.917   3.240
 7283SOL     OW22747   4.472   1.308   2.633
 7283SOL    HW122748   4.536   1.240   2.669
 7283SOL    HW222749   4.399   1.324   2.700
 7284SOL     OW22750   0.545   2.592   5.948
 7284SOL    HW122751   0.590   2.503   5.933
 7284SOL    HW222752   0.500   2.592   6.037
 7285SOL     OW22753   5.171   3.168   2.275
 7285SOL    HW122754   5.193   3.137   2.183
 7285SOL    HW222755   5.088   3.223   2.273
 7286SOL     OW22756   2.219   1.102   0.584
 7286SOL    HW122757   2.257   1.122   0.494
 7286SOL    HW222758   2.145   1.167   0.605
 7287SOL     OW22759   0.378   2.647   5.663
 7287SOL    HW122760   0.468   2.639   5.705
 7287SOL    HW222761   0.385   2.695   5.576
 7288SOL     OW22762   2.408   0.923   0.697
 7288SOL    HW122763   2.379   0.856   0.765
 7288SOL    HW222764   2.331   0.983   0.674
 7289SOL     OW22765   4.950   2.516   4.330
 7289SOL    HW122766   5.037   2.500   4.284
 7289SOL    HW222767   4.888   2.439   4.312
 7290SOL     OW22768   3.543   0.466   5.256
 7290SOL    HW122769   3.489   0.488   5.175
 7290SOL    HW222770   3.515   0.525   5.332
 7291SOL     OW22771   1.961   6.586   0.790
 7291SOL    HW122772   1.881   6.622   0.839
 7291SOL    HW222773   2.015   6.663   0.755
 7292SOL     OW22774   3.478   1.233   3.560
 7292SOL    HW122775   3.424   1.238   3.476
 7292SOL    HW222776   3.481   1.138   3.592
 7293SOL     OW22777   1.371   2.181   4.626
 7293SOL    HW122778   1.441   2.110   4.631
 7293SOL    HW222779   1.390   2.251   4.695
 7294SOL     OW22780   2.501   5.038   6.580
 7294SOL    HW122781   2.592   4.998   6.589
 7294SOL    HW222782   2.501   5.103   6.504
 7295SOL     OW22783   6.850   2.909   1.068
 7295SOL    HW122784   6.872   2.988   1.126
 7295SOL    HW222785   6.930   2.848   1.063
 7296SOL     OW22786   3.387   5.842   2.213
 7296SOL    HW122787   3.422   5.873   2.125
 7296SOL    HW222788   3.331   5.915   2.254
 7297SOL     OW22789   3.882   0.113   1.566
 7297SOL    HW122790   3.829   0.028   1.573
 7297SOL    HW222791   3.952   0.114   1.637
 7298SOL     OW22792   5.153   5.076   5.913
 7298SOL    HW122793   5.078   5.013   5.933
 7298SOL    HW222794   5.205   5.093   5.996
 7299SOL     OW22795   1.192   2.198   0.350
 7299SOL    HW122796   1.126   2.132   0.315
 7299SOL    HW222797   1.220   2.261   0.277
 7300SOL     OW22798   0.705   6.203   3.373
 7300SOL    HW122799   0.625   6.263   3.366
 7300SOL    HW222800   0.788   6.258   3.380
 7301SOL     OW22801   5.020   1.298   4.698
 7301SOL    HW122802   5.010   1.359   4.777
 7301SOL    HW222803   4.977   1.340   4.618
 7302SOL     OW22804   0.881   2.369   4.934
 7302SOL    HW122805   0.903   2.352   4.838
 7302SOL    HW222806   0.794   2.419   4.940
 7303SOL     OW22807   3.566   0.529   0.355
 7303SOL    HW122808   3.541   0.613   0.404
 7303SOL    HW222809   3.646   0.545   0.299
 7304SOL     OW22810   3.659   5.305   1.295
 7304SOL    HW122811   3.651   5.386   1.354
 7304SOL    HW222812   3.755   5.288   1.274
 7305SOL     OW22813   4.547   1.132   0.350
 7305SOL    HW122814   4.484   1.209   0.341
 7305SOL    HW222815   4.626   1.160   0.404
 7306SOL     OW22816   5.097   1.363   0.686
 7306SOL    HW122817   5.080   1.272   0.647
 7306SOL    HW222818   5.148   1.354   0.772
 7307SOL     OW22819   2.528   6.412   2.529
 7307SOL    HW122820   2.492   6.489   2.583
 7307SOL    HW222821   2.479   6.408   2.442
 7308SOL     OW22822   6.856   2.935   5.780
 7308SOL    HW122823   6.922   2.876   5.826
 7308SOL    HW222824   6.890   3.029   5.782
 7309SOL     OW22825   4.486   5.647   1.682
 7309SOL    HW122826   4.462   5.561   1.636
 7309SOL    HW222827   4.531   5.708   1.618
 7310SOL     OW22828   2.461   3.759   1.125
 7310SOL    HW122829   2.382   3.778   1.067
 7310SOL    HW222830   2.431   3.706   1.205
 7311SOL     OW22831   2.096   1.702   1.545
 7311SOL    HW122832   2.130   1.678   1.636
 7311SOL    HW222833   2.049   1.790   1.549
 7312SOL     OW22834   0.914   3.480   4.562
 7312SOL    HW122835   0.893   3.577   4.545
 7312SOL    HW222836   0.990   3.473   4.626
 7313SOL     OW22837   2.243   1.065   6.983
 7313SOL    HW122838   2.322   1.052   0.025
 7313SOL    HW222839   2.273   1.065   6.887
 7314SOL     OW22840   6.882   5.488   6.009
 7314SOL    HW122841   6.805   5.509   5.949
 7314SOL    HW222842   6.966   5.485   5.955
 7315SOL     OW22843   6.054   0.144   2.117
 7315SOL    HW122844   6.101   0.119   2.202
 7315SOL    HW222845   6.112   0.119   2.039
 7316SOL     OW22846   2.871   4.484   6.538
 7316SOL    HW122847   2.776   4.490   6.508
 7316SOL    HW222848   2.906   4.391   6.522
 7317SOL     OW22849   5.077   1.239   2.776
 7317SOL    HW122850   5.048   1.186   2.856
 7317SOL    HW222851   5.177   1.237   2.768
 7318SOL     OW22852   2.008   0.896   1.852
 7318SOL    HW122853   1.928   0.872   1.797
 7318SOL    HW222854   2.075   0.944   1.795
 7319SOL     OW22855   6.961   3.642   6.083
 7319SOL    HW122856   6.864   3.626   6.096
 7319SOL    HW222857   7.010   3.554   6.081
 7320SOL     OW22858   0.080   3.404   2.522
 7320SOL    HW122859   0.103   3.417   2.619
 7320SOL    HW222860   0.090   3.490   2.473
 7321SOL     OW22861   1.976   0.598   6.056
 7321SOL    HW122862   1.905   0.534   6.028
 7321SOL    HW222863   2.062   0.575   6.010
 7322SOL     OW22864   6.954   2.764   3.402
 7322SOL    HW122865   6.980   2.751   3.498
 7322SOL    HW222866   6.948   2.676   3.357
 7323SOL     OW22867   1.181   2.330   1.879
 7323SOL    HW122868   1.184   2.420   1.924
 7323SOL    HW222869   1.270   2.311   1.838
 7324SOL     OW22870   4.586   5.469   2.306
 7324SOL    HW122871   4.525   5.432   2.376
 7324SOL    HW222872   4.681   5.460   2.336
 7325SOL     OW22873   3.498   6.771   0.323
 7325SOL    HW122874   3.485   6.717   0.406
 7325SOL    HW222875   3.411   6.814   0.298
 7326SOL     OW22876   2.869   6.082   6.099
 7326SOL    HW122877   2.912   6.129   6.022
 7326SOL    HW222878   2.883   5.983   6.090
 7327SOL     OW22879   5.876   1.364   6.318
 7327SOL    HW122880   5.863   1.454   6.358
 7327SOL    HW222881   5.925   1.373   6.231
 7328SOL     OW22882   3.153   0.884   6.013
 7328SOL    HW122883   3.154   0.835   5.926
 7328SOL    HW222884   3.203   0.831   6.082
 7329SOL     OW22885   6.627   4.265   1.236
 7329SOL    HW122886   6.588   4.291   1.148
 7329SOL    HW222887   6.665   4.172   1.229
 7330SOL     OW22888   2.505   2.638   0.104
 7330SOL    HW122889   2.413   2.677   0.102
 7330SOL    HW222890   2.568   2.696   0.053
 7331SOL     OW22891   5.375   6.350   1.704
 7331SOL    HW122892   5.331   6.282   1.645
 7331SOL    HW222893   5.388   6.310   1.795
 7332SOL     OW22894   2.600   6.239   0.240
 7332SOL    HW122895   2.506   6.270   0.229
 7332SOL    HW222896   2.602   6.158   0.298
 7333SOL     OW22897   0.449   2.944   2.387
 7333SOL    HW122898   0.411   2.852   2.390
 7333SOL    HW222899   0.440   2.982   2.295
 7334SOL     OW22900   2.462   5.853   6.449
 7334SOL    HW122901   2.451   5.941   6.494
 7334SOL    HW222902   2.548   5.851   6.398
 7335SOL     OW22903   2.092   2.507   3.081
 7335SOL    HW122904   2.179   2.532   3.123
 7335SOL    HW222905   2.096   2.524   2.982
 7336SOL     OW22906   1.604   6.301   2.943
 7336SOL    HW122907   1.518   6.265   2.977
 7336SOL    HW222908   1.597   6.317   2.845
 7337SOL     OW22909   0.391   3.148   1.477
 7337SOL    HW122910   0.413   3.126   1.382
 7337SOL    HW222911   0.292   3.147   1.490
 7338SOL     OW22912   6.133   1.657   1.747
 7338SOL    HW122913   6.077   1.734   1.715
 7338SOL    HW222914   6.073   1.583   1.777
 7339SOL     OW22915   5.711   6.555   4.198
 7339SOL    HW122916   5.711   6.615   4.278
 7339SOL    HW222917   5.762   6.599   4.124
 7340SOL     OW22918   3.249   1.667   0.627
 7340SOL    HW122919   3.276   1.723   0.549
 7340SOL    HW222920   3.199   1.587   0.594
 7341SOL     OW22921   0.602   3.816   6.222
 7341SOL    HW122922   0.694   3.852   6.205
 7341SOL    HW222923   0.598   3.777   6.314
 7342SOL     OW22924   0.294   2.040   1.049
 7342SOL    HW122925   0.350   2.000   0.977
 7342SOL    HW222926   0.303   2.139   1.048
 7343SOL     OW22927   6.345   3.584   0.899
 7343SOL    HW122928   6.261   3.634   0.917
 7343SOL    HW222929   6.323   3.498   0.853
 7344SOL     OW22930   0.985   1.122   6.339
 7344SOL    HW122931   0.970   1.029   6.373
 7344SOL    HW222932   1.000   1.120   6.240
 7345SOL     OW22933   3.972   4.956   5.679
 7345SOL    HW122934   3.945   5.028   5.743
 7345SOL    HW222935   4.004   4.876   5.730
 7346SOL     OW22936   3.815   5.055   1.996
 7346SOL    HW122937   3.785   5.000   2.074
 7346SOL    HW222938   3.751   5.130   1.981
 7347SOL     OW22939   1.047   1.953   0.317
 7347SOL    HW122940   1.085   1.906   0.397
 7347SOL    HW222941   1.112   1.949   0.241
 7348SOL     OW22942   1.837   3.618   4.231
 7348SOL    HW122943   1.916   3.678   4.246
 7348SOL    HW222944   1.786   3.650   4.152
 7349SOL     OW22945   4.793   1.374   1.525
 7349SOL    HW122946   4.795   1.422   1.613
 7349SOL    HW222947   4.703   1.382   1.484
 7350SOL     OW22948   2.824   2.589   5.644
 7350SOL    HW122949   2.894   2.628   5.585
 7350SOL    HW222950   2.753   2.657   5.662
 7351SOL     OW22951   5.363   5.711   4.789
 7351SOL    HW122952   5.432   5.740   4.722
 7351SOL    HW222953   5.388   5.621   4.825
 7352SOL     OW22954   1.577   1.686   3.104
 7352SOL    HW122955   1.626   1.707   3.019
 7352SOL    HW222956   1.479   1.703   3.091
 7353SOL     OW22957   0.295   0.120   6.533
 7353SOL    HW122958   0.209   0.153   6.573
 7353SOL    HW222959   0.304   0.155   6.440
 7354SOL     OW22960   0.567   2.167   4.698
 7354SOL    HW122961   0.636   2.201   4.634
 7354SOL    HW222962   0.562   2.067   4.690
 7355SOL     OW22963   1.539   0.493   0.954
 7355SOL    HW122964   1.637   0.511   0.964
 7355SOL    HW222965   1.488   0.554   1.014
 7356SOL     OW22966   3.988   3.601   6.128
 7356SOL    HW122967   4.043   3.685   6.129
 7356SOL    HW222968   3.904   3.615   6.179
 7357SOL     OW22969   3.261   6.986   2.023
 7357SOL    HW122970   3.192   6.914   2.031
 7357SOL    HW222971   3.338   6.953   1.968
 7358SOL     OW22972   6.084   3.382   2.613
 7358SOL    HW122973   6.179   3.352   2.625
 7358SOL    HW222974   6.083   3.468   2.562
 7359SOL     OW22975   3.990   1.805   5.630
 7359SOL    HW122976   3.969   1.818   5.533
 7359SOL    HW222977   3.929   1.862   5.685
 7360SOL     OW22978   3.027   3.147   5.845
 7360SOL    HW122979   2.994   3.053   5.833
 7360SOL    HW222980   3.063   3.180   5.758
 7361SOL     OW22981   5.084   0.586   2.018
 7361SOL    HW122982   5.085   0.595   1.918
 7361SOL    HW222983   4.992   0.603   2.052
 7362SOL     OW22984   1.423   5.465   6.279
 7362SOL    HW122985   1.505   5.500   6.325
 7362SOL    HW222986   1.441   5.456   6.181
 7363SOL     OW22987   4.876   1.937   1.060
 7363SOL    HW122988   4.806   1.962   1.128
 7363SOL    HW222989   4.837   1.940   0.969
 7364SOL     OW22990   4.585   0.719   1.529
 7364SOL    HW122991   4.607   0.776   1.451
 7364SOL    HW222992   4.513   0.762   1.583
 7365SOL     OW22993   0.528   5.991   2.047
 7365SOL    HW122994   0.548   5.929   1.971
 7365SOL    HW222995   0.439   5.968   2.085
 7366SOL     OW22996   2.106   6.369   6.698
 7366SOL    HW122997   2.012   6.344   6.675
 7366SOL    HW222998   2.151   6.408   6.618
 7367SOL     OW22999   5.674   2.550   1.219
 7367SOL    HW123000   5.624   2.503   1.147
 7367SOL    HW223001   5.662   2.501   1.305
 7368SOL     OW23002   3.855   2.960   2.578
 7368SOL    HW123003   3.828   2.958   2.675
 7368SOL    HW223004   3.912   3.040   2.561
 7369SOL     OW23005   3.267   2.433   0.244
 7369SOL    HW123006   3.324   2.481   0.177
 7369SOL    HW223007   3.218   2.358   0.199
 7370SOL     OW23008   2.662   0.882   4.813
 7370SOL    HW123009   2.753   0.908   4.782
 7370SOL    HW223010   2.648   0.913   4.908
 7371SOL     OW23011   2.475   6.890   3.746
 7371SOL    HW123012   2.419   6.961   3.789
 7371SOL    HW223013   2.492   6.914   3.650
 7372SOL     OW23014   4.650   0.441   4.040
 7372SOL    HW123015   4.623   0.345   4.050
 7372SOL    HW223016   4.569   0.499   4.048
 7373SOL     OW23017   6.269   1.651   3.744
 7373SOL    HW123018   6.222   1.581   3.796
 7373SOL    HW223019   6.337   1.696   3.801
 7374SOL     OW23020   3.035   1.773   4.947
 7374SOL    HW123021   3.055   1.870   4.934
 7374SOL    HW223022   3.094   1.736   5.019
 7375SOL     OW23023   2.063   2.505   2.290
 7375SOL    HW123024   2.103   2.590   2.256
 7375SOL    HW223025   2.136   2.446   2.325
 7376SOL     OW23026   1.478   2.014   0.873
 7376SOL    HW123027   1.440   2.076   0.941
 7376SOL    HW223028   1.475   1.920   0.908
 7377SOL     OW23029   5.199   4.549   0.720
 7377SOL    HW123030   5.165   4.549   0.814
 7377SOL    HW223031   5.299   4.549   0.721
 7378SOL     OW23032   0.259   0.847   5.727
 7378SOL    HW123033   0.333   0.779   5.728
 7378SOL    HW223034   0.274   0.912   5.654
 7379SOL     OW23035   3.185   1.893   2.410
 7379SOL    HW123036   3.091   1.898   2.442
 7379SOL    HW223037   3.212   1.797   2.401
 7380SOL     OW23038   0.122   4.450   3.546
 7380SOL    HW123039   0.194   4.427   3.480
 7380SOL    HW223040   0.043   4.391   3.531
 7381SOL     OW23041   4.237   2.901   0.487
 7381SOL    HW123042   4.158   2.904   0.548
 7381SOL    HW223043   4.241   2.811   0.442
 7382SOL     OW23044   0.329   0.805   5.426
 7382SOL    HW123045   0.368   0.770   5.341
 7382SOL    HW223046   0.242   0.850   5.407
 7383SOL     OW23047   2.913   6.612   0.642
 7383SOL    HW123048   2.914   6.555   0.724
 7383SOL    HW223049   2.878   6.703   0.664
 7384SOL     OW23050   6.726   6.141   2.877
 7384SOL    HW123051   6.682   6.084   2.808
 7384SOL    HW223052   6.765   6.083   2.949
 7385SOL     OW23053   3.274   5.414   2.396
 7385SOL    HW123054   3.278   5.351   2.474
 7385SOL    HW223055   3.249   5.362   2.314
 7386SOL     OW23056   0.211   2.504   0.087
 7386SOL    HW123057   0.155   2.537   0.163
 7386SOL    HW223058   0.253   2.581   0.039
 7387SOL     OW23059   6.054   5.742   5.978
 7387SOL    HW123060   6.108   5.788   5.908
 7387SOL    HW223061   6.103   5.746   6.066
 7388SOL     OW23062   1.262   5.190   1.778
 7388SOL    HW123063   1.190   5.172   1.845
 7388SOL    HW223064   1.310   5.105   1.757
 7389SOL     OW23065   5.716   3.725   6.175
 7389SOL    HW123066   5.803   3.679   6.192
 7389SOL    HW223067   5.689   3.711   6.080
 7390SOL     OW23068   1.893   2.542   1.887
 7390SOL    HW123069   1.960   2.489   1.835
 7390SOL    HW223070   1.849   2.482   1.954
 7391SOL     OW23071   4.005   3.155   3.534
 7391SOL    HW123072   3.947   3.211   3.475
 7391SOL    HW223073   4.013   3.197   3.624
 7392SOL     OW23074   3.166   5.482   6.460
 7392SOL    HW123075   3.229   5.461   6.535
 7392SOL    HW223076   3.110   5.562   6.484
 7393SOL     OW23077   6.209   4.507   2.490
 7393SOL    HW123078   6.295   4.459   2.509
 7393SOL    HW223079   6.156   4.454   2.423
 7394SOL     OW23080   2.003   2.854   5.686
 7394SOL    HW123081   1.992   2.764   5.643
 7394SOL    HW223082   2.014   2.842   5.785
 7395SOL     OW23083   1.921   3.574   1.263
 7395SOL    HW123084   1.983   3.652   1.253
 7395SOL    HW223085   1.878   3.554   1.176
 7396SOL     OW23086   2.115   6.725   1.259
 7396SOL    HW123087   2.206   6.686   1.271
 7396SOL    HW223088   2.100   6.796   1.328
 7397SOL     OW23089   4.888   5.929   4.687
 7397SOL    HW123090   4.822   5.854   4.697
 7397SOL    HW223091   4.976   5.902   4.726
 7398SOL     OW23092   1.439   4.353   3.706
 7398SOL    HW123093   1.359   4.345   3.765
 7398SOL    HW223094   1.447   4.272   3.649
 7399SOL     OW23095   0.652   2.655   4.386
 7399SOL    HW123096   0.645   2.743   4.339
 7399SOL    HW223097   0.571   2.642   4.443
 7400SOL     OW23098   4.482   2.875   5.805
 7400SOL    HW123099   4.435   2.815   5.740
 7400SOL    HW223100   4.522   2.820   5.878
 7401SOL     OW23101   1.348   2.588   3.724
 7401SOL    HW123102   1.394   2.575   3.636
 7401SOL    HW223103   1.249   2.581   3.712
 7402SOL     OW23104   3.132   4.812   6.088
 7402SOL    HW123105   3.043   4.821   6.043
 7402SOL    HW223106   3.170   4.902   6.108
 7403SOL     OW23107   1.694   4.234   2.324
 7403SOL    HW123108   1.697   4.141   2.361
 7403SOL    HW223109   1.770   4.247   2.260
 7404SOL     OW23110   2.792   4.286   1.680
 7404SOL    HW123111   2.702   4.290   1.724
 7404SOL    HW223112   2.852   4.355   1.721
 7405SOL     OW23113   3.441   4.883   4.258
 7405SOL    HW123114   3.403   4.933   4.336
 7405SOL    HW223115   3.467   4.791   4.286
 7406SOL     OW23116   0.124   2.474   3.647
 7406SOL    HW123117   0.050   2.410   3.668
 7406SOL    HW223118   0.133   2.483   3.548
 7407SOL     OW23119   0.814   6.833   5.277
 7407SOL    HW123120   0.862   6.916   5.249
 7407SOL    HW223121   0.728   6.857   5.323
 7408SOL     OW23122   3.658   3.956   6.596
 7408SOL    HW123123   3.579   3.982   6.652
 7408SOL    HW223124   3.739   4.008   6.627
 7409SOL     OW23125   5.253   3.360   6.928
 7409SOL    HW123126   5.229   3.355   0.008
 7409SOL    HW223127   5.259   3.268   6.890
 7410SOL     OW23128   0.421   0.671   0.439
 7410SOL    HW123129   0.348   0.607   0.416
 7410SOL    HW223130   0.506   0.643   0.395
 7411SOL     OW23131   1.927   0.925   6.840
 7411SOL    HW123132   1.907   1.003   6.899
 7411SOL    HW223133   1.930   0.841   6.895
 7412SOL     OW23134   4.538   0.546   1.300
 7412SOL    HW123135   4.533   0.572   1.397
 7412SOL    HW223136   4.623   0.497   1.284
 7413SOL     OW23137   4.559   5.097   3.397
 7413SOL    HW123138   4.465   5.073   3.372
 7413SOL    HW223139   4.568   5.196   3.400
 7414SOL     OW23140   1.240   0.766   3.209
 7414SOL    HW123141   1.242   0.804   3.117
 7414SOL    HW223142   1.234   0.840   3.276
 7415SOL     OW23143   1.762   4.471   4.372
 7415SOL    HW123144   1.746   4.381   4.331
 7415SOL    HW223145   1.798   4.533   4.303
 7416SOL     OW23146   1.730   0.911   2.037
 7416SOL    HW123147   1.648   0.939   2.086
 7416SOL    HW223148   1.704   0.858   1.956
 7417SOL     OW23149   2.242   2.192   1.332
 7417SOL    HW123150   2.304   2.233   1.265
 7417SOL    HW223151   2.290   2.183   1.420
 7418SOL     OW23152   1.573   5.557   0.413
 7418SOL    HW123153   1.499   5.528   0.352
 7418SOL    HW223154   1.537   5.622   0.480
 7419SOL     OW23155   6.503   3.698   4.288
 7419SOL    HW123156   6.455   3.737   4.367
 7419SOL    HW223157   6.602   3.706   4.301
 7420SOL     OW23158   0.714   6.170   1.850
 7420SOL    HW123159   0.670   6.259   1.839
 7420SOL    HW223160   0.666   6.117   1.919
 7421SOL     OW23161   4.536   3.633   1.292
 7421SOL    HW123162   4.446   3.610   1.331
 7421SOL    HW223163   4.607   3.620   1.361
 7422SOL     OW23164   0.488   4.444   1.785
 7422SOL    HW123165   0.517   4.358   1.743
 7422SOL    HW223166   0.475   4.431   1.883
 7423SOL     OW23167   5.892   2.953   5.448
 7423SOL    HW123168   5.819   2.893   5.481
 7423SOL    HW223169   5.981   2.910   5.466
 7424SOL     OW23170   6.462   1.197   5.511
 7424SOL    HW123171   6.513   1.198   5.598
 7424SOL    HW223172   6.516   1.243   5.441
 7425SOL     OW23173   4.655   0.025   0.363
 7425SOL    HW123174   4.699   7.004   0.444
 7425SOL    HW223175   4.688   6.996   0.281
 7426SOL     OW23176   3.180   1.676   5.207
 7426SOL    HW123177   3.279   1.689   5.215
 7426SOL    HW223178   3.133   1.739   5.269
 7427SOL     OW23179   5.447   0.598   3.593
 7427SOL    HW123180   5.455   0.567   3.498
 7427SOL    HW223181   5.528   0.571   3.644
 7428SOL     OW23182   4.182   1.589   4.958
 7428SOL    HW123183   4.142   1.657   5.019
 7428SOL    HW223184   4.223   1.635   4.879
 7429SOL     OW23185   0.369   6.291   4.262
 7429SOL    HW123186   0.356   6.296   4.164
 7429SOL    HW223187   0.344   6.378   4.305
 7430SOL     OW23188   1.283   3.654   0.904
 7430SOL    HW123189   1.246   3.747   0.893
 7430SOL    HW223190   1.224   3.603   0.966
 7431SOL     OW23191   0.548   2.776   3.263
 7431SOL    HW123192   0.529   2.772   3.165
 7431SOL    HW223193   0.470   2.740   3.314
 7432SOL     OW23194   1.598   0.714   3.413
 7432SOL    HW123195   1.623   0.781   3.343
 7432SOL    HW223196   1.499   0.706   3.417
 7433SOL     OW23197   4.303   5.950   6.001
 7433SOL    HW123198   4.369   5.954   5.926
 7433SOL    HW223199   4.218   5.994   5.973
 7434SOL     OW23200   4.763   4.829   5.360
 7434SOL    HW123201   4.723   4.882   5.285
 7434SOL    HW223202   4.829   4.764   5.324
 7435SOL     OW23203   4.251   6.123   1.430
 7435SOL    HW123204   4.289   6.032   1.413
 7435SOL    HW223205   4.212   6.159   1.345
 7436SOL     OW23206   4.239   4.225   6.663
 7436SOL    HW123207   4.258   4.287   6.739
 7436SOL    HW223208   4.228   4.132   6.697
 7437SOL     OW23209   2.066   6.080   6.865
 7437SOL    HW123210   1.986   6.033   6.901
 7437SOL    HW223211   2.096   6.034   6.781
 7438SOL     OW23212   1.010   6.635   0.341
 7438SOL    HW123213   1.028   6.563   0.408
 7438SOL    HW223214   0.912   6.654   0.338
 7439SOL     OW23215   1.823   6.214   6.071
 7439SOL    HW123216   1.778   6.299   6.045
 7439SOL    HW223217   1.913   6.209   6.029
 7440SOL     OW23218   0.091   2.983   3.713
 7440SOL    HW123219   0.037   3.051   3.664
 7440SOL    HW223220   0.116   3.019   3.803
 7441SOL     OW23221   5.559   0.244   4.386
 7441SOL    HW123222   5.486   0.288   4.439
 7441SOL    HW223223   5.611   0.183   4.446
 7442SOL     OW23224   6.113   1.359   6.540
 7442SOL    HW123225   6.094   1.312   6.453
 7442SOL    HW223226   6.210   1.382   6.545
 7443SOL     OW23227   6.332   6.192   1.499
 7443SOL    HW123228   6.313   6.289   1.510
 7443SOL    HW223229   6.396   6.179   1.423
 7444SOL     OW23230   5.161   2.491   6.956
 7444SOL    HW123231   5.232   2.538   6.903
 7444SOL    HW223232   5.075   2.495   6.905
 7445SOL     OW23233   3.490   0.549   1.058
 7445SOL    HW123234   3.498   0.632   1.002
 7445SOL    HW223235   3.534   0.564   1.146
 7446SOL     OW23236   5.301   2.912   0.182
 7446SOL    HW123237   5.248   2.918   0.267
 7446SOL    HW223238   5.392   2.877   0.203
 7447SOL     OW23239   6.734   4.040   6.788
 7447SOL    HW123240   6.641   4.067   6.764
 7447SOL    HW223241   6.796   4.118   6.775
 7448SOL     OW23242   6.210   6.774   4.986
 7448SOL    HW123243   6.144   6.701   4.966
 7448SOL    HW223244   6.301   6.734   4.995
 7449SOL     OW23245   0.821   4.812   1.185
 7449SOL    HW123246   0.793   4.873   1.259
 7449SOL    HW223247   0.873   4.864   1.117
 7450SOL     OW23248   5.680   2.831   4.762
 7450SOL    HW123249   5.662   2.831   4.860
 7450SOL    HW223250   5.594   2.817   4.713
 7451SOL     OW23251   6.887   6.015   2.630
 7451SOL    HW123252   6.945   5.995   2.709
 7451SOL    HW223253   6.842   5.930   2.600
 7452SOL     OW23254   6.091   6.001   4.114
 7452SOL    HW123255   6.072   5.950   4.198
 7452SOL    HW223256   6.037   6.085   4.113
 7453SOL     OW23257   5.431   5.082   4.806
 7453SOL    HW123258   5.393   5.066   4.897
 7453SOL    HW223259   5.530   5.092   4.812
 7454SOL     OW23260   1.620   2.089   0.667
 7454SOL    HW123261   1.567   2.084   0.582
 7454SOL    HW223262   1.564   2.057   0.743
 7455SOL     OW23263   6.904   2.897   1.791
 7455SOL    HW123264   6.912   2.797   1.794
 7455SOL    HW223265   6.865   2.929   1.877
 7456SOL     OW23266   1.621   1.031   4.672
 7456SOL    HW123267   1.605   1.117   4.720
 7456SOL    HW223268   1.709   0.993   4.699
 7457SOL     OW23269   3.201   1.054   5.266
 7457SOL    HW123270   3.137   1.098   5.202
 7457SOL    HW223271   3.289   1.042   5.221
 7458SOL     OW23272   1.956   0.384   6.307
 7458SOL    HW123273   1.922   0.333   6.228
 7458SOL    HW223274   2.054   0.368   6.317
 7459SOL     OW23275   5.403   0.785   2.053
 7459SOL    HW123276   5.317   0.831   2.030
 7459SOL    HW223277   5.391   0.686   2.044
 7460SOL     OW23278   0.604   5.134   0.582
 7460SOL    HW123279   0.664   5.055   0.570
 7460SOL    HW223280   0.653   5.217   0.557
 7461SOL     OW23281   6.306   0.282   6.868
 7461SOL    HW123282   6.316   0.380   6.851
 7461SOL    HW223283   6.292   0.266   6.966
 7462SOL     OW23284   1.596   4.625   2.010
 7462SOL    HW123285   1.653   4.586   1.937
 7462SOL    HW223286   1.522   4.678   1.970
 7463SOL     OW23287   3.059   4.387   0.397
 7463SOL    HW123288   2.991   4.388   0.324
 7463SOL    HW223289   3.016   4.355   0.482
 7464SOL     OW23290   5.456   6.687   6.135
 7464SOL    HW123291   5.430   6.627   6.211
 7464SOL    HW223292   5.485   6.776   6.170
 7465SOL     OW23293   2.689   5.446   6.458
 7465SOL    HW123294   2.671   5.516   6.389
 7465SOL    HW223295   2.700   5.490   6.547
 7466SOL     OW23296   6.697   0.503   5.150
 7466SOL    HW123297   6.638   0.580   5.125
 7466SOL    HW223298   6.692   0.432   5.079
 7467SOL     OW23299   0.181   1.557   6.387
 7467SOL    HW123300   0.209   1.524   6.477
 7467SOL    HW223301   0.249   1.622   6.352
 7468SOL     OW23302   5.697   3.223   3.883
 7468SOL    HW123303   5.635   3.270   3.946
 7468SOL    HW223304   5.649   3.203   3.798
 7469SOL     OW23305   0.186   0.201   0.048
 7469SOL    HW123306   0.262   0.149   0.086
 7469SOL    HW223307   0.104   0.185   0.103
 7470SOL     OW23308   5.746   3.451   3.439
 7470SOL    HW123309   5.713   3.395   3.362
 7470SOL    HW223310   5.670   3.473   3.500
 7471SOL     OW23311   4.681   6.608   6.028
 7471SOL    HW123312   4.635   6.672   5.965
 7471SOL    HW223313   4.738   6.660   6.091
 7472SOL     OW23314   6.119   0.569   5.728
 7472SOL    HW123315   6.113   0.663   5.694
 7472SOL    HW223316   6.038   0.548   5.783
 7473SOL     OW23317   5.125   5.224   3.588
 7473SOL    HW123318   5.127   5.321   3.615
 7473SOL    HW223319   5.080   5.216   3.499
 7474SOL     OW23320   0.031   1.995   5.938
 7474SOL    HW123321   0.076   1.906   5.946
 7474SOL    HW223322   0.018   2.017   5.841
 7475SOL     OW23323   4.830   2.399   2.188
 7475SOL    HW123324   4.842   2.306   2.153
 7475SOL    HW223325   4.820   2.463   2.111
 7476SOL     OW23326   3.262   1.215   3.054
 7476SOL    HW123327   3.350   1.188   3.014
 7476SOL    HW223328   3.236   1.304   3.019
 7477SOL     OW23329   6.782   2.159   5.032
 7477SOL    HW123330   6.795   2.063   5.057
 7477SOL    HW223331   6.791   2.170   4.933
 7478SOL     OW23332   6.350   3.866   5.533
 7478SOL    HW123333   6.316   3.959   5.549
 7478SOL    HW223334   6.277   3.800   5.545
 7479SOL     OW23335   4.346   2.347   2.111
 7479SOL    HW123336   4.333   2.343   2.210
 7479SOL    HW223337   4.389   2.263   2.079
 7480SOL     OW23338   1.524   4.857   2.294
 7480SOL    HW123339   1.587   4.832   2.367
 7480SOL    HW223340   1.448   4.791   2.291
 7481SOL     OW23341   5.867   5.413   1.205
 7481SOL    HW123342   5.953   5.445   1.164
 7481SOL    HW223343   5.855   5.456   1.295
 7482SOL     OW23344   4.291   2.360   2.823
 7482SOL    HW123345   4.242   2.425   2.882
 7482SOL    HW223346   4.308   2.401   2.734
 7483SOL     OW23347   5.039   3.375   4.401
 7483SOL    HW123348   5.009   3.346   4.310
 7483SOL    HW223349   5.136   3.355   4.412
 7484SOL     OW23350   1.331   6.091   4.200
 7484SOL    HW123351   1.328   6.181   4.243
 7484SOL    HW223352   1.331   6.102   4.101
 7485SOL     OW23353   2.385   0.282   4.702
 7485SOL    HW123354   2.419   0.249   4.614
 7485SOL    HW223355   2.285   0.287   4.700
 7486SOL     OW23356   1.404   6.492   0.286
 7486SOL    HW123357   1.489   6.497   0.233
 7486SOL    HW223358   1.409   6.416   0.351
 7487SOL     OW23359   2.128   0.882   2.750
 7487SOL    HW123360   2.042   0.889   2.800
 7487SOL    HW223361   2.203   0.870   2.815
 7488SOL     OW23362   2.769   5.303   5.178
 7488SOL    HW123363   2.813   5.363   5.244
 7488SOL    HW223364   2.669   5.310   5.188
 7489SOL     OW23365   6.591   2.839   6.475
 7489SOL    HW123366   6.563   2.904   6.546
 7489SOL    HW223367   6.659   2.777   6.513
 7490SOL     OW23368   1.145   0.359   3.513
 7490SOL    HW123369   1.166   0.392   3.421
 7490SOL    HW223370   1.224   0.309   3.548
 7491SOL     OW23371   4.498   3.173   6.491
 7491SOL    HW123372   4.477   3.242   6.560
 7491SOL    HW223373   4.593   3.182   6.462
 7492SOL     OW23374   1.970   0.668   3.656
 7492SOL    HW123375   1.928   0.709   3.737
 7492SOL    HW223376   1.900   0.623   3.601
 7493SOL     OW23377   0.769   2.546   6.282
 7493SOL    HW123378   0.780   2.608   6.359
 7493SOL    HW223379   0.711   2.590   6.213
 7494SOL     OW23380   5.935   1.122   3.163
 7494SOL    HW123381   6.020   1.071   3.152
 7494SOL    HW223382   5.945   1.188   3.238
 7495SOL     OW23383   1.527   2.390   6.785
 7495SOL    HW123384   1.544   2.459   6.714
 7495SOL    HW223385   1.614   2.367   6.830
 7496SOL     OW23386   6.297   3.918   4.183
 7496SOL    HW123387   6.376   3.956   4.231
 7496SOL    HW223388   6.247   3.992   4.138
 7497SOL     OW23389   1.916   4.316   1.272
 7497SOL    HW123390   1.864   4.247   1.221
 7497SOL    HW223391   1.895   4.309   1.369
 7498SOL     OW23392   3.045   1.062   4.844
 7498SOL    HW123393   2.968   1.126   4.846
 7498SOL    HW223394   3.130   1.111   4.859
 7499SOL     OW23395   4.285   2.089   3.192
 7499SOL    HW123396   4.320   1.996   3.204
 7499SOL    HW223397   4.361   2.154   3.202
 7500SOL     OW23398   3.495   5.969   3.617
 7500SOL    HW123399   3.585   5.929   3.602
 7500SOL    HW223400   3.484   5.993   3.713
 7501SOL     OW23401   5.035   4.156   4.531
 7501SOL    HW123402   5.092   4.080   4.561
 7501SOL    HW223403   4.947   4.153   4.579
 7502SOL     OW23404   3.236   0.880   4.614
 7502SOL    HW123405   3.276   0.971   4.605
 7502SOL    HW223406   3.243   0.833   4.526
 7503SOL     OW23407   2.527   0.023   1.271
 7503SOL    HW123408   2.451   0.072   1.314
 7503SOL    HW223409   2.594   7.014   1.341
 7504SOL     OW23410   0.689   6.253   3.693
 7504SOL    HW123411   0.777   6.216   3.662
 7504SOL    HW223412   0.659   6.203   3.774
 7505SOL     OW23413   1.203   2.779   5.765
 7505SOL    HW123414   1.231   2.698   5.816
 7505SOL    HW223415   1.108   2.769   5.736
 7506SOL     OW23416   5.339   2.110   3.737
 7506SOL    HW123417   5.268   2.090   3.670
 7506SOL    HW223418   5.423   2.136   3.689
 7507SOL     OW23419   6.051   1.790   2.636
 7507SOL    HW123420   6.021   1.746   2.552
 7507SOL    HW223421   6.046   1.889   2.625
 7508SOL     OW23422   2.103   5.809   0.849
 7508SOL    HW123423   2.166   5.820   0.773
 7508SOL    HW223424   2.012   5.841   0.822
 7509SOL     OW23425   6.139   4.040   0.864
 7509SOL    HW123426   6.211   4.088   0.913
 7509SOL    HW223427   6.136   4.071   0.769
 7510SOL     OW23428   3.439   3.361   5.044
 7510SOL    HW123429   3.372   3.384   4.973
 7510SOL    HW223430   3.527   3.403   5.021
 7511SOL     OW23431   2.935   6.003   3.463
 7511SOL    HW123432   2.896   5.917   3.430
 7511SOL    HW223433   2.868   6.077   3.452
 7512SOL     OW23434   3.035   0.767   6.521
 7512SOL    HW123435   2.947   0.792   6.481
 7512SOL    HW223436   3.022   0.688   6.582
 7513SOL     OW23437   1.104   1.371   2.043
 7513SOL    HW123438   1.148   1.350   1.955
 7513SOL    HW223439   1.008   1.394   2.027
 7514SOL     OW23440   2.269   4.811   2.858
 7514SOL    HW123441   2.197   4.880   2.847
 7514SOL    HW223442   2.227   4.720   2.859
 7515SOL     OW23443   7.009   4.616   4.476
 7515SOL    HW123444   6.939   4.567   4.424
 7515SOL    HW223445   0.047   4.672   4.414
 7516SOL     OW23446   6.736   5.407   6.461
 7516SOL    HW123447   6.778   5.489   6.500
 7516SOL    HW223448   6.800   5.362   6.398
 7517SOL     OW23449   0.763   2.184   7.012
 7517SOL    HW123450   0.703   2.113   0.030
 7517SOL    HW223451   0.777   2.255   0.064
 7518SOL     OW23452   4.994   3.837   4.377
 7518SOL    HW123453   5.042   3.751   4.391
 7518SOL    HW223454   4.920   3.845   4.443
 7519SOL     OW23455   6.524   6.323   4.673
 7519SOL    HW123456   6.542   6.419   4.692
 7519SOL    HW223457   6.572   6.266   4.740
 7520SOL     OW23458   2.090   0.309   3.009
 7520SOL    HW123459   2.077   0.234   3.074
 7520SOL    HW223460   2.169   0.290   2.951
 7521SOL     OW23461   4.974   2.777   5.308
 7521SOL    HW123462   5.025   2.808   5.388
 7521SOL    HW223463   4.961   2.678   5.312
 7522SOL     OW23464   1.412   1.215   5.920
 7522SOL    HW123465   1.350   1.287   5.950
 7522SOL    HW223466   1.363   1.128   5.915
 7523SOL     OW23467   5.057   0.555   6.217
 7523SOL    HW123468   5.094   0.565   6.309
 7523SOL    HW223469   4.994   0.478   6.215
 7524SOL     OW23470   0.665   2.624   5.162
 7524SOL    HW123471   0.676   2.647   5.065
 7524SOL    HW223472   0.633   2.529   5.170
 7525SOL     OW23473   3.892   0.195   0.058
 7525SOL    HW123474   3.797   0.208   0.087
 7525SOL    HW223475   3.941   0.141   0.127
 7526SOL     OW23476   2.802   3.150   1.560
 7526SOL    HW123477   2.840   3.243   1.551
 7526SOL    HW223478   2.704   3.156   1.577
 7527SOL     OW23479   3.237   6.147   3.997
 7527SOL    HW123480   3.177   6.068   3.985
 7527SOL    HW223481   3.215   6.216   3.928
 7528SOL     OW23482   6.133   2.386   6.092
 7528SOL    HW123483   6.213   2.328   6.110
 7528SOL    HW223484   6.071   2.339   6.029
 7529SOL     OW23485   5.657   1.214   4.576
 7529SOL    HW123486   5.568   1.205   4.532
 7529SOL    HW223487   5.703   1.297   4.544
 7530SOL     OW23488   6.704   2.078   1.897
 7530SOL    HW123489   6.695   2.164   1.847
 7530SOL    HW223490   6.793   2.074   1.942
 7531SOL     OW23491   5.368   3.547   4.135
 7531SOL    HW123492   5.381   3.494   4.219
 7531SOL    HW223493   5.378   3.644   4.155
 7532SOL     OW23494   4.742   6.213   0.881
 7532SOL    HW123495   4.804   6.286   0.856
 7532SOL    HW223496   4.794   6.130   0.903
 7533SOL     OW23497   3.502   1.904   1.688
 7533SOL    HW123498   3.579   1.922   1.749
 7533SOL    HW223499   3.421   1.952   1.722
 7534SOL     OW23500   4.611   5.800   4.348
 7534SOL    HW123501   4.595   5.704   4.323
 7534SOL    HW223502   4.617   5.808   4.447
 7535SOL     OW23503   1.869   6.772   5.067
 7535SOL    HW123504   1.928   6.825   5.006
 7535SOL    HW223505   1.919   6.750   5.151
 7536SOL     OW23506   5.129   4.591   4.210
 7536SOL    HW123507   5.207   4.544   4.170
 7536SOL    HW223508   5.073   4.526   4.261
 7537SOL     OW23509   1.739   4.981   2.692
 7537SOL    HW123510   1.750   5.072   2.652
 7537SOL    HW223511   1.752   4.911   2.621
 7538SOL     OW23512   1.857   2.194   1.476
 7538SOL    HW123513   1.868   2.251   1.395
 7538SOL    HW223514   1.764   2.203   1.511
 7539SOL     OW23515   1.314   3.400   4.479
 7539SOL    HW123516   1.382   3.364   4.543
 7539SOL    HW223517   1.233   3.340   4.480
 7540SOL     OW23518   4.365   0.648   4.513
 7540SOL    HW123519   4.336   0.578   4.448
 7540SOL    HW223520   4.413   0.605   4.590
 7541SOL     OW23521   0.928   3.854   4.746
 7541SOL    HW123522   0.888   3.945   4.748
 7541SOL    HW223523   0.918   3.815   4.654
 7542SOL     OW23524   0.531   5.894   0.132
 7542SOL    HW123525   0.499   5.968   0.072
 7542SOL    HW223526   0.534   5.927   0.226
 7543SOL     OW23527   3.844   1.098   5.183
 7543SOL    HW123528   3.845   1.004   5.147
 7543SOL    HW223529   3.771   1.150   5.140
 7544SOL     OW23530   6.536   2.735   4.556
 7544SOL    HW123531   6.555   2.654   4.612
 7544SOL    HW223532   6.454   2.719   4.500
 7545SOL     OW23533   0.849   6.426   6.104
 7545SOL    HW123534   0.762   6.448   6.148
 7545SOL    HW223535   0.884   6.340   6.140
 7546SOL     OW23536   4.794   1.800   1.598
 7546SOL    HW123537   4.702   1.798   1.637
 7546SOL    HW223538   4.790   1.771   1.502
 7547SOL     OW23539   5.223   1.608   0.849
 7547SOL    HW123540   5.311   1.569   0.874
 7547SOL    HW223541   5.226   1.640   0.755
 7548SOL     OW23542   4.501   2.329   6.261
 7548SOL    HW123543   4.430   2.293   6.321
 7548SOL    HW223544   4.580   2.268   6.262
 7549SOL     OW23545   3.249   3.486   6.617
 7549SOL    HW123546   3.217   3.467   6.710
 7549SOL    HW223547   3.349   3.488   6.616
 7550SOL     OW23548   1.777   4.398   3.966
 7550SOL    HW123549   1.875   4.399   3.987
 7550SOL    HW223550   1.746   4.491   3.947
 7551SOL     OW23551   6.017   2.858   5.164
 7551SOL    HW123552   5.973   2.917   5.097
 7551SOL    HW223553   5.957   2.846   5.243
 7552SOL     OW23554   1.459   5.623   4.125
 7552SOL    HW123555   1.431   5.527   4.123
 7552SOL    HW223556   1.492   5.651   4.035
 7553SOL     OW23557   4.233   6.981   5.837
 7553SOL    HW123558   4.297   6.957   5.764
 7553SOL    HW223559   4.144   6.938   5.818
 7554SOL     OW23560   4.982   0.762   6.476
 7554SOL    HW123561   5.068   0.766   6.424
 7554SOL    HW223562   4.968   0.669   6.510
 7555SOL     OW23563   2.762   5.203   6.216
 7555SOL    HW123564   2.845   5.233   6.263
 7555SOL    HW223565   2.760   5.242   6.123
 7556SOL     OW23566   2.638   1.933   0.012
 7556SOL    HW123567   2.648   1.967   0.106
 7556SOL    HW223568   2.609   2.008   6.970
 7557SOL     OW23569   5.427   0.744   6.121
 7557SOL    HW123570   5.473   0.752   6.210
 7557SOL    HW223571   5.333   0.776   6.128
 7558SOL     OW23572   2.100   2.765   4.226
 7558SOL    HW123573   2.142   2.725   4.307
 7558SOL    HW223574   2.028   2.829   4.254
 7559SOL     OW23575   3.976   3.120   5.903
 7559SOL    HW123576   4.020   3.204   5.935
 7559SOL    HW223577   3.994   3.108   5.805
 7560SOL     OW23578   5.209   6.727   0.232
 7560SOL    HW123579   5.178   6.676   0.312
 7560SOL    HW223580   5.134   6.784   0.198
 7561SOL     OW23581   6.682   3.126   5.984
 7561SOL    HW123582   6.588   3.132   5.951
 7561SOL    HW223583   6.722   3.218   5.989
 7562SOL     OW23584   0.568   5.041   5.490
 7562SOL    HW123585   0.591   4.963   5.433
 7562SOL    HW223586   0.618   5.035   5.576
 7563SOL     OW23587   3.182   0.001   1.652
 7563SOL    HW123588   3.129   6.935   1.635
 7563SOL    HW223589   3.131   0.080   1.619
 7564SOL     OW23590   3.728   0.499   4.387
 7564SOL    HW123591   3.806   0.477   4.445
 7564SOL    HW223592   3.655   0.538   4.442
 7565SOL     OW23593   5.581   3.566   6.533
 7565SOL    HW123594   5.628   3.639   6.484
 7565SOL    HW223595   5.483   3.584   6.533
 7566SOL     OW23596   5.730   5.233   2.424
 7566SOL    HW123597   5.688   5.195   2.342
 7566SOL    HW223598   5.824   5.200   2.431
 7567SOL     OW23599   1.650   1.123   5.822
 7567SOL    HW123600   1.599   1.172   5.892
 7567SOL    HW223601   1.726   1.074   5.864
 7568SOL     OW23602   5.655   5.144   2.690
 7568SOL    HW123603   5.576   5.204   2.707
 7568SOL    HW223604   5.692   5.162   2.599
 7569SOL     OW23605   2.828   4.531   5.965
 7569SOL    HW123606   2.891   4.459   5.995
 7569SOL    HW223607   2.811   4.520   5.867
 7570SOL     OW23608   5.169   4.013   4.266
 7570SOL    HW123609   5.241   3.943   4.276
 7570SOL    HW223610   5.086   3.982   4.313
 7571SOL     OW23611   4.871   4.296   3.525
 7571SOL    HW123612   4.831   4.360   3.460
 7571SOL    HW223613   4.797   4.249   3.574
 7572SOL     OW23614   5.021   0.626   2.480
 7572SOL    HW123615   4.934   0.674   2.472
 7572SOL    HW223616   5.010   0.546   2.539
 7573SOL     OW23617   6.645   0.562   5.421
 7573SOL    HW123618   6.554   0.594   5.395
 7573SOL    HW223619   6.702   0.555   5.339
 7574SOL     OW23620   5.583   0.825   5.084
 7574SOL    HW123621   5.533   0.911   5.076
 7574SOL    HW223622   5.680   0.844   5.098
 7575SOL     OW23623   5.431   0.045   6.959
 7575SOL    HW123624   5.392   0.135   6.940
 7575SOL    HW223625   5.370   6.991   6.924
 7576SOL     OW23626   4.937   3.104   0.395
 7576SOL    HW123627   4.886   3.140   0.317
 7576SOL    HW223628   4.961   3.179   0.457
 7577SOL     OW23629   0.440   6.420   6.871
 7577SOL    HW123630   0.402   6.328   6.859
 7577SOL    HW223631   0.435   6.470   6.785
 7578SOL     OW23632   2.852   5.123   2.603
 7578SOL    HW123633   2.877   5.026   2.599
 7578SOL    HW223634   2.756   5.133   2.576
 7579SOL     OW23635   0.331   2.010   1.641
 7579SOL    HW123636   0.416   2.032   1.689
 7579SOL    HW223637   0.315   2.077   1.569
 7580SOL     OW23638   0.818   4.013   3.779
 7580SOL    HW123639   0.723   4.027   3.752
 7580SOL    HW223640   0.860   3.946   3.718
 7581SOL     OW23641   0.831   2.032   0.941
 7581SOL    HW123642   0.896   1.988   0.880
 7581SOL    HW223643   0.822   2.129   0.915
 7582SOL     OW23644   4.317   1.570   3.802
 7582SOL    HW123645   4.399   1.618   3.835
 7582SOL    HW223646   4.235   1.613   3.840
 7583SOL     OW23647   5.076   2.995   1.988
 7583SOL    HW123648   5.086   3.088   1.952
 7583SOL    HW223649   5.025   2.939   1.923
 7584SOL     OW23650   1.793   0.315   3.009
 7584SOL    HW123651   1.892   0.311   2.992
 7584SOL    HW223652   1.769   0.406   3.044
 7585SOL     OW23653   1.789   2.875   5.925
 7585SOL    HW123654   1.724   2.879   6.001
 7585SOL    HW223655   1.859   2.946   5.936
 7586SOL     OW23656   1.866   6.516   3.653
 7586SOL    HW123657   1.810   6.514   3.570
 7586SOL    HW223658   1.884   6.611   3.679
 7587SOL     OW23659   2.389   1.318   6.860
 7587SOL    HW123660   2.374   1.402   6.809
 7587SOL    HW223661   2.372   1.239   6.801
 7588SOL     OW23662   2.278   2.574   3.288
 7588SOL    HW123663   2.375   2.550   3.299
 7588SOL    HW223664   2.224   2.520   3.353
 7589SOL     OW23665   0.742   1.022   2.731
 7589SOL    HW123666   0.739   0.923   2.735
 7589SOL    HW223667   0.745   1.052   2.636
 7590SOL     OW23668   4.773   1.810   6.903
 7590SOL    HW123669   4.684   1.852   6.920
 7590SOL    HW223670   4.843   1.882   6.898
 7591SOL     OW23671   5.012   4.603   0.511
 7591SOL    HW123672   5.075   4.633   0.440
 7591SOL    HW223673   5.061   4.592   0.597
 7592SOL     OW23674   6.277   5.634   4.544
 7592SOL    HW123675   6.349   5.566   4.558
 7592SOL    HW223676   6.307   5.722   4.580
 7593SOL     OW23677   6.785   2.994   6.859
 7593SOL    HW123678   6.689   3.009   6.832
 7593SOL    HW223679   6.806   2.897   6.850
 7594SOL     OW23680   2.044   4.761   1.779
 7594SOL    HW123681   2.018   4.857   1.767
 7594SOL    HW223682   2.061   4.743   1.875
 7595SOL     OW23683   5.994   3.411   5.930
 7595SOL    HW123684   6.060   3.363   5.872
 7595SOL    HW223685   6.002   3.378   6.024
 7596SOL     OW23686   3.356   6.720   4.187
 7596SOL    HW123687   3.360   6.635   4.135
 7596SOL    HW223688   3.323   6.794   4.127
 7597SOL     OW23689   2.239   6.124   3.163
 7597SOL    HW123690   2.175   6.192   3.199
 7597SOL    HW223691   2.237   6.126   3.063
 7598SOL     OW23692   6.571   0.681   3.373
 7598SOL    HW123693   6.488   0.630   3.349
 7598SOL    HW223694   6.651   0.630   3.342
 7599SOL     OW23695   5.319   2.324   1.717
 7599SOL    HW123696   5.241   2.275   1.677
 7599SOL    HW223697   5.286   2.387   1.788
 7600SOL     OW23698   0.795   0.880   3.881
 7600SOL    HW123699   0.801   0.931   3.967
 7600SOL    HW223700   0.887   0.853   3.852
 7601SOL     OW23701   2.550   4.656   2.086
 7601SOL    HW123702   2.624   4.621   2.029
 7601SOL    HW223703   2.565   4.754   2.103
 7602SOL     OW23704   1.188   3.134   6.923
 7602SOL    HW123705   1.225   3.192   6.996
 7602SOL    HW223706   1.090   3.149   6.914
 7603SOL     OW23707   2.257   6.469   6.478
 7603SOL    HW123708   2.183   6.530   6.449
 7603SOL    HW223709   2.328   6.468   6.407
 7604SOL     OW23710   0.862   2.779   4.828
 7604SOL    HW123711   0.911   2.754   4.912
 7604SOL    HW223712   0.764   2.765   4.841
 7605SOL     OW23713   0.990   0.739   0.735
 7605SOL    HW123714   1.005   0.653   0.687
 7605SOL    HW223715   1.052   0.809   0.698
 7606SOL     OW23716   5.531   3.179   4.434
 7606SOL    HW123717   5.469   3.145   4.505
 7606SOL    HW223718   5.547   3.106   4.367
 7607SOL     OW23719   4.436   5.300   0.549
 7607SOL    HW123720   4.394   5.367   0.610
 7607SOL    HW223721   4.371   5.274   0.478
 7608SOL     OW23722   4.886   3.085   1.092
 7608SOL    HW123723   4.895   2.987   1.071
 7608SOL    HW223724   4.790   3.110   1.091
 7609SOL     OW23725   1.825   3.303   4.528
 7609SOL    HW123726   1.867   3.241   4.595
 7609SOL    HW223727   1.847   3.273   4.436
 7610SOL     OW23728   3.980   4.577   5.759
 7610SOL    HW123729   4.068   4.536   5.781
 7610SOL    HW223730   3.940   4.531   5.679
 7611SOL     OW23731   5.131   4.551   1.212
 7611SOL    HW123732   5.219   4.516   1.244
 7611SOL    HW223733   5.063   4.478   1.214
 7612SOL     OW23734   4.871   2.927   2.875
 7612SOL    HW123735   4.831   2.837   2.894
 7612SOL    HW223736   4.948   2.943   2.937
 7613SOL     OW23737   0.383   1.715   1.122
 7613SOL    HW123738   0.401   1.623   1.088
 7613SOL    HW223739   0.293   1.745   1.090
 7614SOL     OW23740   5.315   2.890   1.242
 7614SOL    HW123741   5.388   2.958   1.252
 7614SOL    HW223742   5.260   2.912   1.162
 7615SOL     OW23743   4.241   3.935   6.560
 7615SOL    HW123744   4.148   3.948   6.528
 7615SOL    HW223745   4.241   3.877   6.641
 7616SOL     OW23746   6.597   6.679   4.530
 7616SOL    HW123747   6.549   6.765   4.545
 7616SOL    HW223748   6.549   6.626   4.460
 7617SOL     OW23749   4.195   6.324   3.154
 7617SOL    HW123750   4.159   6.379   3.078
 7617SOL    HW223751   4.223   6.384   3.228
 7618SOL     OW23752   0.957   2.818   6.474
 7618SOL    HW123753   1.035   2.783   6.526
 7618SOL    HW223754   0.989   2.848   6.384
 7619SOL     OW23755   0.087   3.049   4.707
 7619SOL    HW123756   0.167   3.072   4.651
 7619SOL    HW223757   0.011   3.111   4.683
 7620SOL     OW23758   4.003   5.728   1.883
 7620SOL    HW123759   4.009   5.649   1.822
 7620SOL    HW223760   4.085   5.734   1.939
 7621SOL     OW23761   0.028   0.927   0.984
 7621SOL    HW123762   0.034   1.019   1.021
 7621SOL    HW223763   7.004   0.930   0.893
 7622SOL     OW23764   4.914   4.536   6.647
 7622SOL    HW123765   4.911   4.441   6.617
 7622SOL    HW223766   4.861   4.593   6.584
 7623SOL     OW23767   4.329   4.714   0.499
 7623SOL    HW123768   4.371   4.651   0.564
 7623SOL    HW223769   4.291   4.663   0.422
 7624SOL     OW23770   6.550   3.621   4.030
 7624SOL    HW123771   6.527   3.661   4.119
 7624SOL    HW223772   6.624   3.555   4.041
 7625SOL     OW23773   5.700   0.995   6.956
 7625SOL    HW123774   5.639   1.067   6.989
 7625SOL    HW223775   5.704   0.921   0.006
 7626SOL     OW23776   6.286   0.528   5.945
 7626SOL    HW123777   6.379   0.549   5.913
 7626SOL    HW223778   6.223   0.528   5.868
 7627SOL     OW23779   3.195   2.578   0.485
 7627SOL    HW123780   3.182   2.541   0.577
 7627SOL    HW223781   3.217   2.503   0.422
 7628SOL     OW23782   3.637   2.871   1.742
 7628SOL    HW123783   3.608   2.967   1.747
 7628SOL    HW223784   3.691   2.858   1.658
 7629SOL     OW23785   0.149   3.958   3.350
 7629SOL    HW123786   0.053   3.935   3.362
 7629SOL    HW223787   0.203   3.910   3.420
 7630SOL     OW23788   1.009   0.962   0.014
 7630SOL    HW123789   0.930   0.913   0.052
 7630SOL    HW223790   1.050   1.020   0.084
 7631SOL     OW23791   0.722   1.544   5.187
 7631SOL    HW123792   0.783   1.620   5.210
 7631SOL    HW223793   0.633   1.580   5.160
 7632SOL     OW23794   4.364   4.620   0.776
 7632SOL    HW123795   4.316   4.598   0.862
 7632SOL    HW223796   4.431   4.548   0.756
 7633SOL     OW23797   5.468   1.121   1.761
 7633SOL    HW123798   5.403   1.086   1.829
 7633SOL    HW223799   5.560   1.092   1.785
 7634SOL     OW23800   2.249   1.114   1.362
 7634SOL    HW123801   2.332   1.061   1.377
 7634SOL    HW223802   2.253   1.156   1.271
 7635SOL     OW23803   3.244   5.016   4.772
 7635SOL    HW123804   3.145   5.002   4.765
 7635SOL    HW223805   3.287   4.995   4.684
 7636SOL     OW23806   1.629   3.248   4.081
 7636SOL    HW123807   1.636   3.319   4.150
 7636SOL    HW223808   1.722   3.220   4.053
 7637SOL     OW23809   2.719   5.867   2.776
 7637SOL    HW123810   2.659   5.789   2.796
 7637SOL    HW223811   2.739   5.869   2.678
 7638SOL     OW23812   1.555   5.561   2.571
 7638SOL    HW123813   1.461   5.568   2.536
 7638SOL    HW223814   1.612   5.514   2.504
 7639SOL     OW23815   6.896   1.110   0.560
 7639SOL    HW123816   6.850   1.072   0.480
 7639SOL    HW223817   6.891   1.210   0.557
 7640SOL     OW23818   2.691   2.821   6.532
 7640SOL    HW123819   2.740   2.883   6.594
 7640SOL    HW223820   2.622   2.771   6.583
 7641SOL     OW23821   0.068   3.068   2.815
 7641SOL    HW123822   0.040   3.163   2.827
 7641SOL    HW223823   0.012   3.025   2.744
 7642SOL     OW23824   4.535   0.901   2.138
 7642SOL    HW123825   4.466   0.865   2.201
 7642SOL    HW223826   4.560   0.993   2.165
 7643SOL     OW23827   5.063   1.525   2.766
 7643SOL    HW123828   5.137   1.567   2.819
 7643SOL    HW223829   5.083   1.429   2.751
 7644SOL     OW23830   4.887   2.780   1.911
 7644SOL    HW123831   4.876   2.682   1.924
 7644SOL    HW223832   4.804   2.827   1.943
 7645SOL     OW23833   4.771   3.419   5.899
 7645SOL    HW123834   4.784   3.353   5.826
 7645SOL    HW223835   4.696   3.480   5.876
 7646SOL     OW23836   0.590   2.837   3.914
 7646SOL    HW123837   0.545   2.924   3.891
 7646SOL    HW223838   0.674   2.855   3.966
 7647SOL     OW23839   6.959   2.370   4.661
 7647SOL    HW123840   6.921   2.404   4.575
 7647SOL    HW223841   0.028   2.418   4.680
 7648SOL     OW23842   1.797   1.832   2.246
 7648SOL    HW123843   1.698   1.817   2.243
 7648SOL    HW223844   1.841   1.774   2.177
 7649SOL     OW23845   1.504   0.450   4.082
 7649SOL    HW123846   1.454   0.375   4.125
 7649SOL    HW223847   1.599   0.424   4.068
 7650SOL     OW23848   5.917   0.683   1.003
 7650SOL    HW123849   5.884   0.768   0.962
 7650SOL    HW223850   6.015   0.689   1.018
 7651SOL     OW23851   2.133   0.015   4.701
 7651SOL    HW123852   2.167   6.993   4.616
 7651SOL    HW223853   2.118   0.113   4.690
 7652SOL     OW23854   5.422   2.193   4.832
 7652SOL    HW123855   5.403   2.124   4.763
 7652SOL    HW223856   5.514   2.180   4.868
 7653SOL     OW23857   1.139   1.589   0.610
 7653SOL    HW123858   1.133   1.660   0.680
 7653SOL    HW223859   1.092   1.620   0.527
 7654SOL     OW23860   4.979   3.354   3.989
 7654SOL    HW123861   5.045   3.428   3.992
 7654SOL    HW223862   4.976   3.309   4.079
 7655SOL     OW23863   3.980   0.121   3.736
 7655SOL    HW123864   4.061   0.176   3.715
 7655SOL    HW223865   3.963   0.123   3.835
 7656SOL     OW23866   3.937   3.682   6.441
 7656SOL    HW123867   3.850   3.691   6.392
 7656SOL    HW223868   3.973   3.773   6.461
 7657SOL     OW23869   2.338   2.179   3.474
 7657SOL    HW123870   2.367   2.101   3.529
 7657SOL    HW223871   2.391   2.182   3.389
 7658SOL     OW23872   2.366   0.297   1.024
 7658SOL    HW123873   2.399   0.203   1.026
 7658SOL    HW223874   2.298   0.311   1.096
 7659SOL     OW23875   4.352   4.628   0.193
 7659SOL    HW123876   4.451   4.626   0.209
 7659SOL    HW223877   4.325   4.548   0.139
 7660SOL     OW23878   0.004   5.532   4.286
 7660SOL    HW123879   6.968   5.610   4.319
 7660SOL    HW223880   6.979   5.447   4.318
 7661SOL     OW23881   5.567   2.367   5.114
 7661SOL    HW123882   5.579   2.406   5.022
 7661SOL    HW223883   5.655   2.366   5.162
 7662SOL     OW23884   1.338   2.250   3.755
 7662SOL    HW123885   1.280   2.290   3.826
 7662SOL    HW223886   1.301   2.275   3.665
 7663SOL     OW23887   5.784   4.711   6.160
 7663SOL    HW123888   5.710   4.704   6.227
 7663SOL    HW223889   5.782   4.803   6.119
 7664SOL     OW23890   4.283   1.148   2.192
 7664SOL    HW123891   4.207   1.106   2.242
 7664SOL    HW223892   4.351   1.183   2.257
 7665SOL     OW23893   5.866   0.800   5.238
 7665SOL    HW123894   5.838   0.716   5.285
 7665SOL    HW223895   5.908   0.776   5.150
 7666SOL     OW23896   0.751   4.812   3.171
 7666SOL    HW123897   0.658   4.835   3.143
 7666SOL    HW223898   0.812   4.816   3.092
 7667SOL     OW23899   4.395   0.629   2.671
 7667SOL    HW123900   4.342   0.706   2.635
 7667SOL    HW223901   4.479   0.618   2.618
 7668SOL     OW23902   2.557   4.723   0.884
 7668SOL    HW123903   2.609   4.803   0.913
 7668SOL    HW223904   2.538   4.665   0.963
 7669SOL     OW23905   4.539   1.216   5.384
 7669SOL    HW123906   4.591   1.131   5.384
 7669SOL    HW223907   4.500   1.231   5.475
 7670SOL     OW23908   0.828   5.354   0.576
 7670SOL    HW123909   0.904   5.327   0.635
 7670SOL    HW223910   0.861   5.361   0.482
 7671SOL     OW23911   3.886   1.067   2.262
 7671SOL    HW123912   3.899   1.029   2.171
 7671SOL    HW223913   3.875   1.166   2.257
 7672SOL     OW23914   0.260   6.086   3.242
 7672SOL    HW123915   0.185   6.063   3.305
 7672SOL    HW223916   0.343   6.038   3.271
 7673SOL     OW23917   1.632   5.394   2.368
 7673SOL    HW123918   1.711   5.373   2.310
 7673SOL    HW223919   1.558   5.330   2.348
 7674SOL     OW23920   5.061   0.789   4.117
 7674SOL    HW123921   5.093   0.801   4.211
 7674SOL    HW223922   4.965   0.818   4.111
 7675SOL     OW23923   5.709   6.812   3.142
 7675SOL    HW123924   5.742   6.718   3.132
 7675SOL    HW223925   5.691   6.851   3.052
 7676SOL     OW23926   3.168   2.444   6.242
 7676SOL    HW123927   3.089   2.414   6.295
 7676SOL    HW223928   3.238   2.481   6.304
 7677SOL     OW23929   0.543   4.285   1.235
 7677SOL    HW123930   0.466   4.264   1.175
 7677SOL    HW223931   0.559   4.207   1.296
 7678SOL     OW23932   2.346   2.436   5.328
 7678SOL    HW123933   2.436   2.410   5.293
 7678SOL    HW223934   2.284   2.454   5.251
 7679SOL     OW23935   2.613   5.578   5.361
 7679SOL    HW123936   2.575   5.494   5.399
 7679SOL    HW223937   2.710   5.566   5.341
 7680SOL     OW23938   1.823   0.375   0.915
 7680SOL    HW123939   1.840   0.382   0.817
 7680SOL    HW223940   1.745   0.315   0.932
 7681SOL     OW23941   2.574   1.105   0.512
 7681SOL    HW123942   2.592   1.098   0.610
 7681SOL    HW223943   2.478   1.085   0.493
 7682SOL     OW23944   4.566   0.625   2.123
 7682SOL    HW123945   4.478   0.578   2.133
 7682SOL    HW223946   4.550   0.722   2.103
 7683SOL     OW23947   0.149   1.409   4.603
 7683SOL    HW123948   0.149   1.387   4.506
 7683SOL    HW223949   0.237   1.383   4.643
 7684SOL     OW23950   4.191   1.648   1.182
 7684SOL    HW123951   4.131   1.593   1.124
 7684SOL    HW223952   4.228   1.591   1.255
 7685SOL     OW23953   3.079   1.401   6.092
 7685SOL    HW123954   3.022   1.409   6.010
 7685SOL    HW223955   3.171   1.436   6.073
 7686SOL     OW23956   6.444   6.609   3.469
 7686SOL    HW123957   6.376   6.536   3.472
 7686SOL    HW223958   6.453   6.642   3.375
 7687SOL     OW23959   5.292   5.232   4.630
 7687SOL    HW123960   5.335   5.160   4.684
 7687SOL    HW223961   5.224   5.280   4.685
 7688SOL     OW23962   0.119   6.165   5.499
 7688SOL    HW123963   0.181   6.086   5.501
 7688SOL    HW223964   0.025   6.134   5.504
 7689SOL     OW23965   5.417   6.036   2.870
 7689SOL    HW123966   5.363   5.953   2.879
 7689SOL    HW223967   5.478   6.044   2.949
 7690SOL     OW23968   4.940   5.427   0.885
 7690SOL    HW123969   5.038   5.412   0.897
 7690SOL    HW223970   4.893   5.409   0.972
 7691SOL     OW23971   6.004   4.213   2.971
 7691SOL    HW123972   6.081   4.188   2.912
 7691SOL    HW223973   5.918   4.205   2.920
 7692SOL     OW23974   0.898   5.856   1.896
 7692SOL    HW123975   0.975   5.904   1.853
 7692SOL    HW223976   0.911   5.854   1.995
 7693SOL     OW23977   2.813   0.584   0.938
 7693SOL    HW123978   2.772   0.630   0.859
 7693SOL    HW223979   2.754   0.508   0.966
 7694SOL     OW23980   5.774   2.714   3.548
 7694SOL    HW123981   5.823   2.773   3.484
 7694SOL    HW223982   5.723   2.644   3.498
 7695SOL     OW23983   5.799   1.174   1.596
 7695SOL    HW123984   5.792   1.078   1.622
 7695SOL    HW223985   5.777   1.231   1.675
 7696SOL     OW23986   6.574   2.030   5.660
 7696SOL    HW123987   6.607   2.009   5.752
 7696SOL    HW223988   6.579   1.947   5.603
 7697SOL     OW23989   2.244   0.813   3.037
 7697SOL    HW123990   2.262   0.717   3.057
 7697SOL    HW223991   2.330   0.861   3.022
 7698SOL     OW23992   5.786   0.853   4.457
 7698SOL    HW123993   5.744   0.764   4.473
 7698SOL    HW223994   5.866   0.864   4.517
 7699SOL     OW23995   2.217   5.410   6.118
 7699SOL    HW123996   2.247   5.454   6.202
 7699SOL    HW223997   2.255   5.317   6.113
 7700SOL     OW23998   4.552   5.890   3.561
 7700SOL    HW123999   4.515   5.983   3.557
 7700SOL    HW224000   4.651   5.895   3.573
 7701SOL     OW24001   0.344   2.659   6.885
 7701SOL    HW124002   0.389   2.691   6.968
 7701SOL    HW224003   0.412   2.622   6.822
 7702SOL     OW24004   4.528   5.533   5.029
 7702SOL    HW124005   4.526   5.529   5.129
 7702SOL    HW224006   4.436   5.550   4.994
 7703SOL     OW24007   5.839   6.331   6.658
 7703SOL    HW124008   5.890   6.336   6.744
 7703SOL    HW224009   5.856   6.243   6.613
 7704SOL     OW24010   6.252   0.791   3.118
 7704SOL    HW124011   6.158   0.766   3.093
 7704SOL    HW224012   6.316   0.732   3.069
 7705SOL     OW24013   2.251   6.042   1.108
 7705SOL    HW124014   2.153   6.044   1.085
 7705SOL    HW224015   2.302   6.087   1.035
 7706SOL     OW24016   3.591   3.158   4.291
 7706SOL    HW124017   3.566   3.087   4.356
 7706SOL    HW224018   3.545   3.141   4.204
 7707SOL     OW24019   0.318   4.588   6.196
 7707SOL    HW124020   0.296   4.521   6.267
 7707SOL    HW224021   0.414   4.617   6.205
 7708SOL     OW24022   1.462   6.311   4.742
 7708SOL    HW124023   1.404   6.303   4.661
 7708SOL    HW224024   1.550   6.266   4.726
 7709SOL     OW24025   6.922   4.883   1.679
 7709SOL    HW124026   6.993   4.825   1.640
 7709SOL    HW224027   6.837   4.831   1.686
 7710SOL     OW24028   1.940   2.279   0.721
 7710SOL    HW124029   2.021   2.320   0.679
 7710SOL    HW224030   1.915   2.195   0.672
 7711SOL     OW24031   5.212   6.039   5.317
 7711SOL    HW124032   5.252   6.117   5.269
 7711SOL    HW224033   5.189   6.066   5.410
 7712SOL     OW24034   6.433   5.338   0.668
 7712SOL    HW124035   6.484   5.420   0.640
 7712SOL    HW224036   6.494   5.276   0.717
 7713SOL     OW24037   1.718   3.343   0.288
 7713SOL    HW124038   1.807   3.389   0.291
 7713SOL    HW224039   1.716   3.271   0.358
 7714SOL     OW24040   0.064   5.637   5.526
 7714SOL    HW124041   0.047   5.673   5.434
 7714SOL    HW224042   0.039   5.706   5.594
 7715SOL     OW24043   3.170   2.804   6.390
 7715SOL    HW124044   3.083   2.755   6.399
 7715SOL    HW224045   3.195   2.811   6.294
 7716SOL     OW24046   6.591   4.577   0.447
 7716SOL    HW124047   6.566   4.499   0.390
 7716SOL    HW224048   6.517   4.644   0.447
 7717SOL     OW24049   1.456   2.059   5.557
 7717SOL    HW124050   1.509   1.975   5.569
 7717SOL    HW224051   1.492   2.110   5.479
 7718SOL     OW24052   6.461   3.729   3.140
 7718SOL    HW124053   6.450   3.720   3.239
 7718SOL    HW224054   6.519   3.808   3.119
 7719SOL     OW24055   1.242   3.682   4.471
 7719SOL    HW124056   1.277   3.588   4.478
 7719SOL    HW224057   1.215   3.714   4.562
 7720SOL     OW24058   0.063   2.378   5.964
 7720SOL    HW124059   7.001   2.330   5.926
 7720SOL    HW224060   0.127   2.311   6.002
 7721SOL     OW24061   0.985   5.994   2.192
 7721SOL    HW124062   0.890   5.996   2.223
 7721SOL    HW224063   0.994   6.049   2.109
 7722SOL     OW24064   1.720   4.442   3.468
 7722SOL    HW124065   1.672   4.470   3.551
 7722SOL    HW224066   1.674   4.362   3.428
 7723SOL     OW24067   4.004   3.475   6.657
 7723SOL    HW124068   4.061   3.543   6.703
 7723SOL    HW224069   3.963   3.515   6.576
 7724SOL     OW24070   3.173   4.600   0.483
 7724SOL    HW124071   3.139   4.536   0.415
 7724SOL    HW224072   3.183   4.553   0.571
 7725SOL     OW24073   6.405   1.893   2.884
 7725SOL    HW124074   6.333   1.825   2.866
 7725SOL    HW224075   6.412   1.909   2.982
 7726SOL     OW24076   1.758   4.203   6.733
 7726SOL    HW124077   1.737   4.228   6.638
 7726SOL    HW224078   1.736   4.107   6.747
 7727SOL     OW24079   6.417   2.824   2.137
 7727SOL    HW124080   6.506   2.782   2.156
 7727SOL    HW224081   6.345   2.769   2.180
 7728SOL     OW24082   2.180   3.014   4.890
 7728SOL    HW124083   2.270   2.988   4.926
 7728SOL    HW224084   2.175   2.988   4.793
 7729SOL     OW24085   5.588   1.275   2.085
 7729SOL    HW124086   5.637   1.347   2.133
 7729SOL    HW224087   5.571   1.199   2.147
 7730SOL     OW24088   0.019   4.929   6.336
 7730SOL    HW124089   0.102   4.971   6.298
 7730SOL    HW224090   0.025   4.926   6.435
 7731SOL     OW24091   6.078   6.922   0.321
 7731SOL    HW124092   6.121   6.858   0.384
 7731SOL    HW224093   6.102   6.898   0.227
 7732SOL     OW24094   3.926   0.447   0.333
 7732SOL    HW124095   3.854   0.479   0.271
 7732SOL    HW224096   3.903   0.356   0.365
 7733SOL     OW24097   6.041   5.837   1.971
 7733SOL    HW124098   5.941   5.835   1.984
 7733SOL    HW224099   6.082   5.760   2.018
 7734SOL     OW24100   1.580   4.790   4.676
 7734SOL    HW124101   1.579   4.858   4.749
 7734SOL    HW224102   1.556   4.835   4.589
 7735SOL     OW24103   5.733   5.645   6.363
 7735SOL    HW124104   5.776   5.560   6.395
 7735SOL    HW224105   5.642   5.624   6.327
 7736SOL     OW24106   2.447   3.048   6.828
 7736SOL    HW124107   2.504   2.967   6.825
 7736SOL    HW224108   2.439   3.087   6.736
 7737SOL     OW24109   3.563   0.168   1.769
 7737SOL    HW124110   3.540   0.151   1.865
 7737SOL    HW224111   3.610   0.255   1.760
 7738SOL     OW24112   2.766   5.692   0.630
 7738SOL    HW124113   2.848   5.676   0.574
 7738SOL    HW224114   2.687   5.650   0.586
 7739SOL     OW24115   1.268   1.985   1.930
 7739SOL    HW124116   1.175   1.998   1.894
 7739SOL    HW224117   1.295   2.067   1.982
 7740SOL     OW24118   1.993   1.231   2.954
 7740SOL    HW124119   2.055   1.308   2.943
 7740SOL    HW224120   1.922   1.236   2.884
 7741SOL     OW24121   0.559   4.123   4.964
 7741SOL    HW124122   0.472   4.075   4.955
 7741SOL    HW224123   0.614   4.080   5.035
 7742SOL     OW24124   4.333   2.069   4.061
 7742SOL    HW124125   4.430   2.046   4.061
 7742SOL    HW224126   4.279   1.990   4.089
 7743SOL     OW24127   4.670   1.696   6.624
 7743SOL    HW124128   4.710   1.759   6.690
 7743SOL    HW224129   4.629   1.618   6.673
 7744SOL     OW24130   1.063   6.300   3.757
 7744SOL    HW124131   1.043   6.373   3.822
 7744SOL    HW224132   1.009   6.315   3.674
 7745SOL     OW24133   3.111   0.001   0.726
 7745SOL    HW124134   3.033   6.967   0.762
 7745SOL    HW224135   3.098   0.099   0.743
 7746SOL     OW24136   1.016   0.274   0.521
 7746SOL    HW124137   1.039   0.216   0.599
 7746SOL    HW224138   0.920   0.264   0.498
 7747SOL     OW24139   6.871   6.121   1.191
 7747SOL    HW124140   6.957   6.093   1.149
 7747SOL    HW224141   6.855   6.218   1.172
 7748SOL     OW24142   3.620   4.133   3.652
 7748SOL    HW124143   3.566   4.154   3.571
 7748SOL    HW224144   3.562   4.141   3.733
 7749SOL     OW24145   3.441   3.607   3.616
 7749SOL    HW124146   3.464   3.589   3.712
 7749SOL    HW224147   3.463   3.702   3.594
 7750SOL     OW24148   6.167   5.771   0.089
 7750SOL    HW124149   6.136   5.849   0.035
 7750SOL    HW224150   6.256   5.793   0.129
 7751SOL     OW24151   0.893   2.314   3.118
 7751SOL    HW124152   0.959   2.244   3.092
 7751SOL    HW224153   0.823   2.322   3.047
 7752SOL     OW24154   5.172   5.889   5.068
 7752SOL    HW124155   5.158   5.943   5.151
 7752SOL    HW224156   5.269   5.867   5.059
 7753SOL     OW24157   2.211   0.372   4.035
 7753SOL    HW124158   2.169   0.421   3.958
 7753SOL    HW224159   2.208   0.430   4.117
 7754SOL     OW24160   5.456   6.403   2.000
 7754SOL    HW124161   5.540   6.454   2.016
 7754SOL    HW224162   5.409   6.387   2.087
 7755SOL     OW24163   1.449   1.681   5.971
 7755SOL    HW124164   1.545   1.659   5.953
 7755SOL    HW224165   1.391   1.628   5.908
 7756SOL     OW24166   3.166   4.860   2.773
 7756SOL    HW124167   3.246   4.857   2.834
 7756SOL    HW224168   3.196   4.847   2.679
 7757SOL     OW24169   4.947   5.450   4.167
 7757SOL    HW124170   4.945   5.546   4.195
 7757SOL    HW224171   5.020   5.402   4.215
 7758SOL     OW24172   1.595   2.133   6.621
 7758SOL    HW124173   1.592   2.231   6.599
 7758SOL    HW224174   1.686   2.110   6.656
 7759SOL     OW24175   1.355   1.997   4.919
 7759SOL    HW124176   1.299   2.051   4.856
 7759SOL    HW224177   1.316   2.002   5.011
 7760SOL     OW24178   5.890   3.347   2.806
 7760SOL    HW124179   5.960   3.370   2.738
 7760SOL    HW224180   5.804   3.324   2.758
 7761SOL     OW24181   1.293   0.090   6.475
 7761SOL    HW124182   1.323   0.176   6.435
 7761SOL    HW224183   1.197   0.074   6.452
 7762SOL     OW24184   4.197   0.874   4.054
 7762SOL    HW124185   4.143   0.954   4.079
 7762SOL    HW224186   4.142   0.792   4.067
 7763SOL     OW24187   0.868   1.220   0.959
 7763SOL    HW124188   0.869   1.176   0.870
 7763SOL    HW224189   0.783   1.272   0.970
 7764SOL     OW24190   3.583   2.881   2.981
 7764SOL    HW124191   3.523   2.960   2.988
 7764SOL    HW224192   3.585   2.848   2.887
 7765SOL     OW24193   5.685   2.693   4.330
 7765SOL    HW124194   5.723   2.612   4.284
 7765SOL    HW224195   5.752   2.729   4.394
 7766SOL     OW24196   5.382   2.018   0.231
 7766SOL    HW124197   5.383   1.918   0.223
 7766SOL    HW224198   5.290   2.049   0.254
 7767SOL     OW24199   4.174   6.493   3.740
 7767SOL    HW124200   4.103   6.498   3.671
 7767SOL    HW224201   4.234   6.573   3.732
 7768SOL     OW24202   4.202   5.366   2.428
 7768SOL    HW124203   4.160   5.449   2.465
 7768SOL    HW224204   4.140   5.289   2.441
 7769SOL     OW24205   5.015   2.372   2.926
 7769SOL    HW124206   4.948   2.300   2.905
 7769SOL    HW224207   4.980   2.460   2.893
 7770SOL     OW24208   0.884   3.759   2.634
 7770SOL    HW124209   0.805   3.748   2.694
 7770SOL    HW224210   0.885   3.687   2.565
 7771SOL     OW24211   2.784   2.261   4.993
 7771SOL    HW124212   2.821   2.283   5.084
 7771SOL    HW224213   2.731   2.339   4.960
 7772SOL     OW24214   5.358   0.865   3.089
 7772SOL    HW124215   5.404   0.813   3.016
 7772SOL    HW224216   5.392   0.959   3.090
 7773SOL     OW24217   3.549   5.233   5.182
 7773SOL    HW124218   3.546   5.255   5.280
 7773SOL    HW224219   3.612   5.157   5.167
 7774SOL     OW24220   6.142   2.654   6.517
 7774SOL    HW124221   6.048   2.671   6.546
 7774SOL    HW224222   6.167   2.560   6.539
 7775SOL     OW24223   4.011   6.946   2.868
 7775SOL    HW124224   3.967   0.001   2.814
 7775SOL    HW224225   3.988   6.957   2.964
 7776SOL     OW24226   3.555   4.422   6.634
 7776SOL    HW124227   3.504   4.336   6.637
 7776SOL    HW224228   3.526   4.475   6.554
 7777SOL     OW24229   1.302   0.606   5.206
 7777SOL    HW124230   1.343   0.632   5.119
 7777SOL    HW224231   1.272   0.689   5.255
 7778SOL     OW24232   4.986   5.697   0.404
 7778SOL    HW124233   5.010   5.616   0.457
 7778SOL    HW224234   4.890   5.721   0.420
 7779SOL     OW24235   2.772   2.898   1.157
 7779SOL    HW124236   2.810   2.865   1.071
 7779SOL    HW224237   2.841   2.891   1.229
 7780SOL     OW24238   1.029   5.164   5.418
 7780SOL    HW124239   1.009   5.259   5.395
 7780SOL    HW224240   1.074   5.120   5.339
 7781SOL     OW24241   1.344   5.055   6.962
 7781SOL    HW124242   1.338   5.146   7.003
 7781SOL    HW224243   1.429   5.048   6.909
 7782SOL     OW24244   0.835   4.662   5.615
 7782SOL    HW124245   0.874   4.729   5.552
 7782SOL    HW224246   0.871   4.677   5.707
 7783SOL     OW24247   1.855   5.809   5.231
 7783SOL    HW124248   1.798   5.843   5.156
 7783SOL    HW224249   1.918   5.740   5.196
 7784SOL     OW24250   2.995   2.755   0.509
 7784SOL    HW124251   3.032   2.848   0.513
 7784SOL    HW224252   3.069   2.691   0.485
 7785SOL     OW24253   1.639   6.727   4.117
 7785SOL    HW124254   1.738   6.722   4.125
 7785SOL    HW224255   1.615   6.774   4.032
 7786SOL     OW24256   2.968   5.754   6.801
 7786SOL    HW124257   2.929   5.788   6.715
 7786SOL    HW224258   2.906   5.775   6.876
 7787SOL     OW24259   2.716   2.980   5.832
 7787SOL    HW124260   2.791   2.914   5.820
 7787SOL    HW224261   2.704   3.000   5.929
 7788SOL     OW24262   1.955   6.206   2.345
 7788SOL    HW124263   1.907   6.143   2.284
 7788SOL    HW224264   2.038   6.239   2.301
 7789SOL     OW24265   3.252   6.854   0.215
 7789SOL    HW124266   3.223   6.759   0.199
 7789SOL    HW224267   3.201   6.892   0.292
 7790SOL     OW24268   5.584   5.534   2.792
 7790SOL    HW124269   5.587   5.608   2.859
 7790SOL    HW224270   5.586   5.446   2.840
 7791SOL     OW24271   2.494   6.557   3.743
 7791SOL    HW124272   2.512   6.575   3.646
 7791SOL    HW224273   2.580   6.564   3.794
 7792SOL     OW24274   2.043   5.168   5.569
 7792SOL    HW124275   2.107   5.126   5.633
 7792SOL    HW224276   1.949   5.148   5.597
 7793SOL     OW24277   3.050   0.547   6.892
 7793SOL    HW124278   2.974   0.603   6.926
 7793SOL    HW224279   3.072   0.476   6.959
 7794SOL     OW24280   5.810   5.142   3.711
 7794SOL    HW124281   5.828   5.045   3.702
 7794SOL    HW224282   5.895   5.191   3.726
 7795SOL     OW24283   2.321   3.877   5.606
 7795SOL    HW124284   2.253   3.878   5.679
 7795SOL    HW224285   2.281   3.918   5.523
 7796SOL     OW24286   3.278   3.763   2.929
 7796SOL    HW124287   3.294   3.679   2.877
 7796SOL    HW224288   3.187   3.760   2.970
 7797SOL     OW24289   1.362   6.546   3.275
 7797SOL    HW124290   1.369   6.562   3.373
 7797SOL    HW224291   1.447   6.574   3.230
 7798SOL     OW24292   1.733   4.900   6.264
 7798SOL    HW124293   1.679   4.954   6.200
 7798SOL    HW224294   1.675   4.831   6.307
 7799SOL     OW24295   0.826   6.258   2.294
 7799SOL    HW124296   0.818   6.265   2.394
 7799SOL    HW224297   0.794   6.168   2.265
 7800SOL     OW24298   1.254   5.248   0.644
 7800SOL    HW124299   1.266   5.318   0.715
 7800SOL    HW224300   1.341   5.202   0.627
 7801SOL     OW24301   1.501   2.241   1.894
 7801SOL    HW124302   1.478   2.237   1.991
 7801SOL    HW224303   1.562   2.166   1.871
 7802SOL     OW24304   5.997   2.001   1.104
 7802SOL    HW124305   5.912   2.051   1.122
 7802SOL    HW224306   6.031   2.025   1.013
 7803SOL     OW24307   4.081   2.121   6.161
 7803SOL    HW124308   4.036   2.057   6.099
 7803SOL    HW224309   4.151   2.074   6.214
 7804SOL     OW24310   5.017   1.329   4.237
 7804SOL    HW124311   4.955   1.274   4.182
 7804SOL    HW224312   4.968   1.366   4.316
 7805SOL     OW24313   5.465   1.568   0.946
 7805SOL    HW124314   5.502   1.515   1.022
 7805SOL    HW224315   5.535   1.581   0.876
 7806SOL     OW24316   5.800   2.347   6.001
 7806SOL    HW124317   5.703   2.353   5.978
 7806SOL    HW224318   5.813   2.377   6.096
 7807SOL     OW24319   0.436   4.242   5.398
 7807SOL    HW124320   0.382   4.325   5.414
 7807SOL    HW224321   0.528   4.256   5.433
 7808SOL     OW24322   6.901   2.876   4.437
 7808SOL    HW124323   6.874   2.877   4.533
 7808SOL    HW224324   6.838   2.818   4.385
 7809SOL     OW24325   2.435   5.989   4.603
 7809SOL    HW124326   2.413   5.959   4.695
 7809SOL    HW224327   2.421   6.088   4.596
 7810SOL     OW24328   3.562   0.382   4.804
 7810SOL    HW124329   3.653   0.365   4.843
 7810SOL    HW224330   3.551   0.327   4.721
 7811SOL     OW24331   0.716   5.075   3.259
 7811SOL    HW124332   0.725   4.977   3.240
 7811SOL    HW224333   0.770   5.099   3.340
 7812SOL     OW24334   1.519   2.020   3.307
 7812SOL    HW124335   1.485   2.114   3.319
 7812SOL    HW224336   1.548   2.008   3.212
 7813SOL     OW24337   3.588   2.890   6.682
 7813SOL    HW124338   3.607   2.972   6.736
 7813SOL    HW224339   3.670   2.832   6.678
 7814SOL     OW24340   6.494   3.025   3.802
 7814SOL    HW124341   6.440   2.958   3.853
 7814SOL    HW224342   6.568   2.978   3.754
 7815SOL     OW24343   5.103   0.143   6.212
 7815SOL    HW124344   5.100   0.203   6.293
 7815SOL    HW224345   5.010   0.123   6.183
 7816SOL     OW24346   1.596   2.392   6.517
 7816SOL    HW124347   1.541   2.394   6.434
 7816SOL    HW224348   1.680   2.444   6.503
 7817SOL     OW24349   5.525   4.275   3.585
 7817SOL    HW124350   5.522   4.375   3.577
 7817SOL    HW224351   5.500   4.233   3.498
 7818SOL     OW24352   4.769   0.692   3.153
 7818SOL    HW124353   4.757   0.744   3.068
 7818SOL    HW224354   4.852   0.722   3.199
 7819SOL     OW24355   6.690   3.230   1.949
 7819SOL    HW124356   6.624   3.252   2.020
 7819SOL    HW224357   6.770   3.289   1.958
 7820SOL     OW24358   1.101   2.178   4.584
 7820SOL    HW124359   1.083   2.170   4.486
 7820SOL    HW224360   1.200   2.185   4.599
 7821SOL     OW24361   5.096   6.076   1.556
 7821SOL    HW124362   5.058   6.068   1.463
 7821SOL    HW224363   5.079   5.991   1.606
 7822SOL     OW24364   0.759   1.135   5.857
 7822SOL    HW124365   0.741   1.069   5.929
 7822SOL    HW224366   0.822   1.205   5.890
 7823SOL     OW24367   2.653   3.960   5.338
 7823SOL    HW124368   2.636   3.900   5.417
 7823SOL    HW224369   2.566   3.983   5.295
 7824SOL     OW24370   5.989   1.192   4.118
 7824SOL    HW124371   5.987   1.247   4.202
 7824SOL    HW224372   6.067   1.128   4.122
 7825SOL     OW24373   1.252   2.976   1.199
 7825SOL    HW124374   1.214   2.996   1.108
 7825SOL    HW224375   1.237   2.879   1.220
 7826SOL     OW24376   6.440   1.418   1.251
 7826SOL    HW124377   6.342   1.427   1.235
 7826SOL    HW224378   6.487   1.500   1.218
 7827SOL     OW24379   1.892   5.701   1.439
 7827SOL    HW124380   1.856   5.711   1.531
 7827SOL    HW224381   1.977   5.752   1.430
 7828SOL     OW24382   0.327   4.613   6.963
 7828SOL    HW124383   0.290   4.673   0.016
 7828SOL    HW224384   0.354   4.667   6.883
 7829SOL     OW24385   2.092   3.406   1.380
 7829SOL    HW124386   2.031   3.468   1.330
 7829SOL    HW224387   2.105   3.439   1.473
 7830SOL     OW24388   2.536   4.621   5.107
 7830SOL    HW124389   2.624   4.619   5.060
 7830SOL    HW224390   2.479   4.693   5.068
 7831SOL     OW24391   1.764   6.598   1.854
 7831SOL    HW124392   1.823   6.608   1.774
 7831SOL    HW224393   1.820   6.574   1.934
 7832SOL     OW24394   5.830   0.943   3.529
 7832SOL    HW124395   5.853   0.879   3.456
 7832SOL    HW224396   5.767   0.899   3.594
 7833SOL     OW24397   0.688   0.826   5.535
 7833SOL    HW124398   0.743   0.886   5.594
 7833SOL    HW224399   0.658   0.877   5.455
 7834SOL     OW24400   6.864   1.318   3.627
 7834SOL    HW124401   6.831   1.358   3.713
 7834SOL    HW224402   6.812   1.356   3.550
 7835SOL     OW24403   3.538   2.280   5.314
 7835SOL    HW124404   3.447   2.253   5.284
 7835SOL    HW224405   3.603   2.270   5.239
 7836SOL     OW24406   3.253   2.886   4.876
 7836SOL    HW124407   3.195   2.831   4.936
 7836SOL    HW224408   3.301   2.826   4.811
 7837SOL     OW24409   4.682   4.963   6.832
 7837SOL    HW124410   4.642   4.894   6.892
 7837SOL    HW224411   4.736   5.028   6.886
 7838SOL     OW24412   4.253   6.756   1.214
 7838SOL    HW124413   4.283   6.817   1.141
 7838SOL    HW224414   4.329   6.696   1.240
 7839SOL     OW24415   5.619   4.532   5.105
 7839SOL    HW124416   5.647   4.474   5.181
 7839SOL    HW224417   5.526   4.564   5.120
 7840SOL     OW24418   6.540   3.107   4.195
 7840SOL    HW124419   6.451   3.060   4.202
 7840SOL    HW224420   6.576   3.123   4.287
 7841SOL     OW24421   3.782   1.772   6.196
 7841SOL    HW124422   3.705   1.760   6.260
 7841SOL    HW224423   3.816   1.682   6.169
 7842SOL     OW24424   2.858   2.155   2.835
 7842SOL    HW124425   2.799   2.075   2.846
 7842SOL    HW224426   2.808   2.228   2.788
 7843SOL     OW24427   0.883   5.982   3.392
 7843SOL    HW124428   0.822   6.058   3.371
 7843SOL    HW224429   0.977   6.014   3.394
 7844SOL     OW24430   3.128   0.934   3.214
 7844SOL    HW124431   3.180   0.904   3.293
 7844SOL    HW224432   3.178   1.006   3.166
 7845SOL     OW24433   5.439   1.938   2.808
 7845SOL    HW124434   5.427   1.917   2.711
 7845SOL    HW224435   5.416   2.034   2.825
 7846SOL     OW24436   0.532   2.241   0.587
 7846SOL    HW124437   0.606   2.202   0.532
 7846SOL    HW224438   0.447   2.190   0.569
 7847SOL     OW24439   6.538   1.443   3.240
 7847SOL    HW124440   6.554   1.429   3.143
 7847SOL    HW224441   6.519   1.540   3.257
 7848SOL     OW24442   3.376   4.768   0.499
 7848SOL    HW124443   3.332   4.782   0.587
 7848SOL    HW224444   3.310   4.731   0.434
 7849SOL     OW24445   6.250   4.467   4.627
 7849SOL    HW124446   6.311   4.475   4.705
 7849SOL    HW224447   6.279   4.529   4.554
 7850SOL     OW24448   0.307   1.374   4.264
 7850SOL    HW124449   0.386   1.386   4.203
 7850SOL    HW224450   0.249   1.456   4.258
 7851SOL     OW24451   6.527   1.654   1.148
 7851SOL    HW124452   6.588   1.712   1.202
 7851SOL    HW224453   6.497   1.703   1.066
 7852SOL     OW24454   3.628   1.786   6.429
 7852SOL    HW124455   3.529   1.793   6.417
 7852SOL    HW224456   3.660   1.861   6.487
 7853SOL     OW24457   4.995   2.282   1.794
 7853SOL    HW124458   4.996   2.189   1.831
 7853SOL    HW224459   5.054   2.341   1.849
 7854SOL     OW24460   3.512   3.368   6.108
 7854SOL    HW124461   3.540   3.281   6.068
 7854SOL    HW224462   3.581   3.397   6.175
 7855SOL     OW24463   4.429   6.720   4.331
 7855SOL    HW124464   4.382   6.666   4.400
 7855SOL    HW224465   4.527   6.720   4.350
 7856SOL     OW24466   6.291   5.915   5.126
 7856SOL    HW124467   6.325   5.822   5.138
 7856SOL    HW224468   6.194   5.913   5.104
 7857SOL     OW24469   4.614   3.106   0.357
 7857SOL    HW124470   4.543   3.051   0.311
 7857SOL    HW224471   4.606   3.094   0.456
 7858SOL     OW24472   6.292   6.376   4.084
 7858SOL    HW124473   6.388   6.367   4.057
 7858SOL    HW224474   6.275   6.322   4.167
 7859SOL     OW24475   4.251   2.858   6.202
 7859SOL    HW124476   4.344   2.891   6.188
 7859SOL    HW224477   4.218   2.885   6.292
 7860SOL     OW24478   4.251   1.013   3.798
 7860SOL    HW124479   4.231   1.091   3.859
 7860SOL    HW224480   4.254   0.929   3.852
 7861SOL     OW24481   3.546   4.848   1.657
 7861SOL    HW124482   3.568   4.770   1.716
 7861SOL    HW224483   3.459   4.830   1.611
 7862SOL     OW24484   2.350   4.843   1.669
 7862SOL    HW124485   2.299   4.805   1.591
 7862SOL    HW224486   2.324   4.938   1.682
 7863SOL     OW24487   6.769   3.954   4.313
 7863SOL    HW124488   6.836   3.879   4.316
 7863SOL    HW224489   6.747   3.975   4.218
 7864SOL     OW24490   0.705   5.435   5.791
 7864SOL    HW124491   0.798   5.437   5.826
 7864SOL    HW224492   0.646   5.491   5.851
 7865SOL     OW24493   6.744   5.902   4.194
 7865SOL    HW124494   6.667   5.966   4.194
 7865SOL    HW224495   6.710   5.809   4.179
 7866SOL     OW24496   0.612   1.155   5.567
 7866SOL    HW124497   0.635   1.244   5.526
 7866SOL    HW224498   0.652   1.149   5.658
 7867SOL     OW24499   6.118   6.148   3.459
 7867SOL    HW124500   6.184   6.218   3.433
 7867SOL    HW224501   6.043   6.147   3.392
 7868SOL     OW24502   4.555   6.298   1.819
 7868SOL    HW124503   4.462   6.264   1.830
 7868SOL    HW224504   4.592   6.325   1.908
 7869SOL     OW24505   5.155   4.300   6.587
 7869SOL    HW124506   5.064   4.261   6.599
 7869SOL    HW224507   5.224   4.239   6.626
 7870SOL     OW24508   5.383   6.173   4.106
 7870SOL    HW124509   5.286   6.192   4.125
 7870SOL    HW224510   5.438   6.251   4.134
 7871SOL     OW24511   4.643   2.072   1.687
 7871SOL    HW124512   4.548   2.054   1.662
 7871SOL    HW224513   4.702   2.060   1.606
 7872SOL     OW24514   1.879   3.499   3.263
 7872SOL    HW124515   1.918   3.450   3.185
 7872SOL    HW224516   1.952   3.548   3.311
 7873SOL     OW24517   5.822   6.661   6.538
 7873SOL    HW124518   5.751   6.727   6.562
 7873SOL    HW224519   5.911   6.697   6.565
 7874SOL     OW24520   5.093   2.332   0.522
 7874SOL    HW124521   5.182   2.290   0.540
 7874SOL    HW224522   5.029   2.263   0.490
 7875SOL     OW24523   4.645   2.701   6.866
 7875SOL    HW124524   4.656   2.774   6.934
 7875SOL    HW224525   4.611   2.618   6.911
 7876SOL     OW24526   1.376   6.585   3.558
 7876SOL    HW124527   1.405   6.575   3.653
 7876SOL    HW224528   1.276   6.595   3.555
 7877SOL     OW24529   0.656   1.520   3.019
 7877SOL    HW124530   0.689   1.592   3.080
 7877SOL    HW224531   0.654   1.553   2.925
 7878SOL     OW24532   4.932   4.460   4.781
 7878SOL    HW124533   4.908   4.382   4.840
 7878SOL    HW224534   5.031   4.462   4.767
 7879SOL     OW24535   3.777   5.344   3.433
 7879SOL    HW124536   3.782   5.435   3.393
 7879SOL    HW224537   3.812   5.276   3.369
 7880SOL     OW24538   1.950   3.868   2.039
 7880SOL    HW124539   2.003   3.889   2.121
 7880SOL    HW224540   1.914   3.953   2.001
 7881SOL     OW24541   5.741   5.029   5.208
 7881SOL    HW124542   5.723   4.940   5.168
 7881SOL    HW224543   5.707   5.101   5.147
 7882SOL     OW24544   1.457   3.706   2.156
 7882SOL    HW124545   1.490   3.642   2.225
 7882SOL    HW224546   1.530   3.769   2.131
 7883SOL     OW24547   1.057   0.758   0.328
 7883SOL    HW124548   1.097   0.843   0.295
 7883SOL    HW224549   1.129   0.699   0.364
 7884SOL     OW24550   1.963   4.197   4.320
 7884SOL    HW124551   1.867   4.220   4.310
 7884SOL    HW224552   1.974   4.130   4.394
 7885SOL     OW24553   6.573   5.388   1.169
 7885SOL    HW124554   6.521   5.473   1.178
 7885SOL    HW224555   6.668   5.403   1.195
 7886SOL     OW24556   3.796   5.494   0.156
 7886SOL    HW124557   3.772   5.591   0.146
 7886SOL    HW224558   3.876   5.485   0.214
 7887SOL     OW24559   3.202   2.549   5.801
 7887SOL    HW124560   3.256   2.570   5.883
 7887SOL    HW224561   3.243   2.594   5.722
 7888SOL     OW24562   6.293   0.288   5.558
 7888SOL    HW124563   6.198   0.276   5.586
 7888SOL    HW224564   6.321   0.383   5.574
 7889SOL     OW24565   1.631   3.893   2.111
 7889SOL    HW124566   1.641   3.946   2.196
 7889SOL    HW224567   1.717   3.897   2.060
 7890SOL     OW24568   1.948   3.013   2.971
 7890SOL    HW124569   2.019   3.082   2.990
 7890SOL    HW224570   1.988   2.938   2.918
 7891SOL     OW24571   1.955   3.163   3.624
 7891SOL    HW124572   2.028   3.095   3.619
 7891SOL    HW224573   1.884   3.131   3.687
 7892SOL     OW24574   2.429   1.560   3.856
 7892SOL    HW124575   2.450   1.593   3.947
 7892SOL    HW224576   2.509   1.513   3.818
 7893SOL     OW24577   6.847   6.705   2.848
 7893SOL    HW124578   6.865   6.710   2.750
 7893SOL    HW224579   6.782   6.631   2.867
 7894SOL     OW24580   3.239   0.768   0.978
 7894SOL    HW124581   3.226   0.699   1.048
 7894SOL    HW224582   3.266   0.855   1.021
 7895SOL     OW24583   6.099   0.826   5.599
 7895SOL    HW124584   6.148   0.872   5.525
 7895SOL    HW224585   6.042   0.892   5.648
 7896SOL     OW24586   4.796   3.673   6.883
 7896SOL    HW124587   4.756   3.635   6.800
 7896SOL    HW224588   4.887   3.709   6.863
 7897SOL     OW24589   2.616   4.148   0.079
 7897SOL    HW124590   2.591   4.218   0.013
 7897SOL    HW224591   2.541   4.082   0.089
 7898SOL     OW24592   5.222   1.634   3.384
 7898SOL    HW124593   5.200   1.688   3.465
 7898SOL    HW224594   5.269   1.550   3.411
 7899SOL     OW24595   6.098   1.107   1.302
 7899SOL    HW124596   6.039   1.030   1.278
 7899SOL    HW224597   6.121   1.101   1.399
 7900SOL     OW24598   1.501   5.689   1.457
 7900SOL    HW124599   1.456   5.735   1.381
 7900SOL    HW224600   1.462   5.721   1.544
 7901SOL     OW24601   5.045   1.256   6.432
 7901SOL    HW124602   4.965   1.204   6.461
 7901SOL    HW224603   5.127   1.199   6.440
 7902SOL     OW24604   5.462   5.705   1.519
 7902SOL    HW124605   5.419   5.761   1.590
 7902SOL    HW224606   5.562   5.715   1.524
 7903SOL     OW24607   5.754   1.483   0.386
 7903SOL    HW124608   5.770   1.478   0.287
 7903SOL    HW224609   5.841   1.500   0.433
 7904SOL     OW24610   5.689   6.731   3.391
 7904SOL    HW124611   5.660   6.638   3.368
 7904SOL    HW224612   5.707   6.782   3.307
 7905SOL     OW24613   4.598   2.368   0.928
 7905SOL    HW124614   4.555   2.354   0.839
 7905SOL    HW224615   4.697   2.377   0.917
 7906SOL     OW24616   0.124   5.314   0.309
 7906SOL    HW124617   0.207   5.369   0.303
 7906SOL    HW224618   0.120   5.250   0.232
 7907SOL     OW24619   5.855   2.272   3.366
 7907SOL    HW124620   5.804   2.187   3.355
 7907SOL    HW224621   5.900   2.273   3.456
 7908SOL     OW24622   0.629   1.733   4.827
 7908SOL    HW124623   0.623   1.648   4.774
 7908SOL    HW224624   0.552   1.793   4.802
 7909SOL     OW24625   5.450   3.540   5.101
 7909SOL    HW124626   5.415   3.614   5.043
 7909SOL    HW224627   5.388   3.527   5.178
 7910SOL     OW24628   2.882   3.348   5.958
 7910SOL    HW124629   2.949   3.305   5.899
 7910SOL    HW224630   2.846   3.430   5.914
 7911SOL     OW24631   1.433   3.107   6.238
 7911SOL    HW124632   1.339   3.108   6.205
 7911SOL    HW224633   1.436   3.071   6.332
 7912SOL     OW24634   0.009   4.908   0.263
 7912SOL    HW124635   6.948   4.854   0.293
 7912SOL    HW224636   6.997   4.973   0.193
 7913SOL     OW24637   1.287   5.271   1.146
 7913SOL    HW124638   1.379   5.305   1.128
 7913SOL    HW224639   1.279   5.177   1.112
 7914SOL     OW24640   6.987   4.613   5.960
 7914SOL    HW124641   0.046   4.665   5.998
 7914SOL    HW224642   7.001   4.515   5.974
 7915SOL     OW24643   4.825   2.823   2.290
 7915SOL    HW124644   4.756   2.772   2.237
 7915SOL    HW224645   4.837   2.913   2.249
 7916SOL     OW24646   6.995   3.748   5.351
 7916SOL    HW124647   6.936   3.825   5.376
 7916SOL    HW224648   6.978   3.672   5.413
 7917SOL     OW24649   3.252   3.814   3.322
 7917SOL    HW124650   3.291   3.833   3.412
 7917SOL    HW224651   3.325   3.794   3.257
 7918SOL     OW24652   0.187   1.769   6.984
 7918SOL    HW124653   0.135   1.707   6.925
 7918SOL    HW224654   0.193   1.730   0.059
 7919SOL     OW24655   1.458   4.946   3.124
 7919SOL    HW124656   1.362   4.975   3.122
 7919SOL    HW224657   1.470   4.876   3.193
 7920SOL     OW24658   0.719   5.286   1.279
 7920SOL    HW124659   0.663   5.206   1.260
 7920SOL    HW224660   0.765   5.316   1.195
 7921SOL     OW24661   4.476   6.248   0.781
 7921SOL    HW124662   4.472   6.306   0.700
 7921SOL    HW224663   4.567   6.253   0.822
 7922SOL     OW24664   6.531   5.809   0.357
 7922SOL    HW124665   6.547   5.890   0.300
 7922SOL    HW224666   6.481   5.740   0.305
 7923SOL     OW24667   3.071   0.602   2.035
 7923SOL    HW124668   2.997   0.638   1.979
 7923SOL    HW224669   3.118   0.529   1.985
 7924SOL     OW24670   4.386   6.436   2.858
 7924SOL    HW124671   4.345   6.523   2.831
 7924SOL    HW224672   4.418   6.442   2.952
 7925SOL     OW24673   0.600   1.981   6.120
 7925SOL    HW124674   0.567   2.057   6.177
 7925SOL    HW224675   0.535   1.963   6.047
 7926SOL     OW24676   5.154   1.379   5.272
 7926SOL    HW124677   5.202   1.404   5.356
 7926SOL    HW224678   5.126   1.462   5.224
 7927SOL     OW24679   4.169   5.507   4.591
 7927SOL    HW124680   4.171   5.449   4.509
 7927SOL    HW224681   4.074   5.522   4.619
 7928SOL     OW24682   1.670   2.696   4.411
 7928SOL    HW124683   1.650   2.683   4.509
 7928SOL    HW224684   1.683   2.607   4.368
 7929SOL     OW24685   3.720   4.247   5.518
 7929SOL    HW124686   3.719   4.195   5.604
 7929SOL    HW224687   3.675   4.194   5.447
 7930SOL     OW24688   4.723   5.667   3.954
 7930SOL    HW124689   4.797   5.721   3.996
 7930SOL    HW224690   4.739   5.570   3.970
 7931SOL     OW24691   1.509   1.541   6.426
 7931SOL    HW124692   1.487   1.580   6.515
 7931SOL    HW224693   1.510   1.441   6.433
 7932SOL     OW24694   3.112   6.128   6.445
 7932SOL    HW124695   3.155   6.144   6.356
 7932SOL    HW224696   3.170   6.167   6.517
 7933SOL     OW24697   0.109   6.321   6.970
 7933SOL    HW124698   0.033   6.256   6.969
 7933SOL    HW224699   0.186   6.284   6.918
 7934SOL     OW24700   2.157   4.814   6.834
 7934SOL    HW124701   2.184   4.721   6.862
 7934SOL    HW224702   2.065   4.833   6.867
 7935SOL     OW24703   5.474   6.093   0.267
 7935SOL    HW124704   5.426   6.067   0.351
 7935SOL    HW224705   5.559   6.140   0.290
 7936SOL     OW24706   3.779   4.843   3.038
 7936SOL    HW124707   3.776   4.822   2.940
 7936SOL    HW224708   3.873   4.838   3.071
 7937SOL     OW24709   6.214   6.826   3.656
 7937SOL    HW124710   6.176   6.762   3.723
 7937SOL    HW224711   6.311   6.806   3.643
 7938SOL     OW24712   6.206   5.253   5.084
 7938SOL    HW124713   6.238   5.187   5.153
 7938SOL    HW224714   6.116   5.225   5.051
 7939SOL     OW24715   0.840   2.578   5.526
 7939SOL    HW124716   0.869   2.669   5.554
 7939SOL    HW224717   0.747   2.583   5.489
 7940SOL     OW24718   1.528   3.894   2.627
 7940SOL    HW124719   1.593   3.901   2.552
 7940SOL    HW224720   1.458   3.827   2.605
 7941SOL     OW24721   6.919   6.715   0.842
 7941SOL    HW124722   6.957   6.740   0.931
 7941SOL    HW224723   6.950   6.780   0.772
 7942SOL     OW24724   6.457   5.682   2.992
 7942SOL    HW124725   6.457   5.781   3.010
 7942SOL    HW224726   6.542   5.642   3.026
 7943SOL     OW24727   5.884   2.425   0.184
 7943SOL    HW124728   5.867   2.473   0.270
 7943SOL    HW224729   5.832   2.470   0.111
 7944SOL     OW24730   0.644   3.382   1.409
 7944SOL    HW124731   0.589   3.445   1.353
 7944SOL    HW224732   0.615   3.288   1.391
 7945SOL     OW24733   5.282   6.131   2.370
 7945SOL    HW124734   5.245   6.041   2.350
 7945SOL    HW224735   5.231   6.171   2.447
 7946SOL     OW24736   2.476   2.014   5.746
 7946SOL    HW124737   2.559   1.959   5.750
 7946SOL    HW224738   2.486   2.095   5.805
 7947SOL     OW24739   3.800   2.655   6.352
 7947SOL    HW124740   3.702   2.674   6.359
 7947SOL    HW224741   3.839   2.710   6.279
 7948SOL     OW24742   0.763   6.148   0.987
 7948SOL    HW124743   0.675   6.102   1.000
 7948SOL    HW224744   0.829   6.111   1.053
 7949SOL     OW24745   4.583   4.597   4.140
 7949SOL    HW124746   4.657   4.588   4.207
 7949SOL    HW224747   4.496   4.609   4.188
 7950SOL     OW24748   5.199   5.353   4.251
 7950SOL    HW124749   5.177   5.271   4.303
 7950SOL    HW224750   5.289   5.344   4.209
 7951SOL     OW24751   1.578   3.666   1.368
 7951SOL    HW124752   1.613   3.627   1.453
 7951SOL    HW224753   1.481   3.643   1.359
 7952SOL     OW24754   0.826   3.425   6.784
 7952SOL    HW124755   0.792   3.433   6.691
 7952SOL    HW224756   0.837   3.517   6.824
 7953SOL     OW24757   2.126   2.763   3.489
 7953SOL    HW124758   2.029   2.740   3.499
 7953SOL    HW224759   2.170   2.694   3.432
 7954SOL     OW24760   4.479   4.592   5.310
 7954SOL    HW124761   4.539   4.572   5.387
 7954SOL    HW224762   4.417   4.667   5.335
 7955SOL     OW24763   1.338   6.648   6.329
 7955SOL    HW124764   1.254   6.630   6.278
 7955SOL    HW224765   1.389   6.562   6.340
 7956SOL     OW24766   2.834   6.169   2.792
 7956SOL    HW124767   2.880   6.218   2.867
 7956SOL    HW224768   2.872   6.078   2.783
 7957SOL     OW24769   1.975   1.204   0.322
 7957SOL    HW124770   1.990   1.220   0.420
 7957SOL    HW224771   1.988   1.289   0.272
 7958SOL     OW24772   3.104   5.374   4.125
 7958SOL    HW124773   3.016   5.381   4.078
 7958SOL    HW224774   3.138   5.280   4.119
 7959SOL     OW24775   4.236   5.737   1.315
 7959SOL    HW124776   4.317   5.788   1.343
 7959SOL    HW224777   4.251   5.698   1.224
 7960SOL     OW24778   3.580   1.652   0.793
 7960SOL    HW124779   3.535   1.623   0.709
 7960SOL    HW224780   3.514   1.649   0.868
 7961SOL     OW24781   1.069   6.385   0.438
 7961SOL    HW124782   1.068   6.311   0.371
 7961SOL    HW224783   1.118   6.356   0.520
 7962SOL     OW24784   1.727   6.971   6.964
 7962SOL    HW124785   1.732   6.875   6.936
 7962SOL    HW224786   1.649   6.983   0.009
 7963SOL     OW24787   6.807   0.703   3.591
 7963SOL    HW124788   6.822   0.762   3.671
 7963SOL    HW224789   6.823   0.608   3.616
 7964SOL     OW24790   6.757   5.249   3.165
 7964SOL    HW124791   6.828   5.252   3.095
 7964SOL    HW224792   6.670   5.280   3.126
 7965SOL     OW24793   3.348   3.148   6.776
 7965SOL    HW124794   3.292   3.096   6.842
 7965SOL    HW224795   3.289   3.181   6.703
 7966SOL     OW24796   0.175   3.078   5.633
 7966SOL    HW124797   0.265   3.117   5.614
 7966SOL    HW224798   0.134   3.045   5.548
 7967SOL     OW24799   2.737   6.415   4.191
 7967SOL    HW124800   2.828   6.452   4.209
 7967SOL    HW224801   2.677   6.437   4.268
 7968SOL     OW24802   1.998   2.389   3.742
 7968SOL    HW124803   1.914   2.400   3.689
 7968SOL    HW224804   1.985   2.317   3.810
 7969SOL     OW24805   4.416   0.173   2.341
 7969SOL    HW124806   4.483   0.213   2.404
 7969SOL    HW224807   4.374   0.246   2.287
 7970SOL     OW24808   0.199   3.498   2.968
 7970SOL    HW124809   0.178   3.521   3.064
 7970SOL    HW224810   0.252   3.414   2.965
 7971SOL     OW24811   3.942   1.333   0.695
 7971SOL    HW124812   3.891   1.384   0.765
 7971SOL    HW224813   3.969   1.395   0.622
 7972SOL     OW24814   0.822   3.945   1.744
 7972SOL    HW124815   0.880   3.960   1.824
 7972SOL    HW224816   0.863   3.991   1.665
 7973SOL     OW24817   4.961   4.291   3.110
 7973SOL    HW124818   4.896   4.215   3.107
 7973SOL    HW224819   5.044   4.265   3.061
 7974SOL     OW24820   5.515   0.609   4.927
 7974SOL    HW124821   5.549   0.683   4.985
 7974SOL    HW224822   5.441   0.644   4.869
 7975SOL     OW24823   6.095   0.508   2.736
 7975SOL    HW124824   6.075   0.555   2.650
 7975SOL    HW224825   6.178   0.547   2.777
 7976SOL     OW24826   0.751   0.706   6.215
 7976SOL    HW124827   0.764   0.662   6.304
 7976SOL    HW224828   0.789   0.798   6.217
 7977SOL     OW24829   4.664   5.225   1.974
 7977SOL    HW124830   4.665   5.323   1.991
 7977SOL    HW224831   4.575   5.198   1.937
 7978SOL     OW24832   5.640   3.272   6.134
 7978SOL    HW124833   5.572   3.287   6.206
 7978SOL    HW224834   5.603   3.302   6.046
 7979SOL     OW24835   3.788   0.542   5.462
 7979SOL    HW124836   3.838   0.625   5.487
 7979SOL    HW224837   3.742   0.505   5.543
 7980SOL     OW24838   2.488   5.896   0.173
 7980SOL    HW124839   2.469   5.799   0.161
 7980SOL    HW224840   2.451   5.947   0.095
 7981SOL     OW24841   0.558   6.005   2.531
 7981SOL    HW124842   0.472   6.056   2.531
 7981SOL    HW224843   0.558   5.939   2.606
 7982SOL     OW24844   6.993   1.940   6.952
 7982SOL    HW124845   0.025   2.026   6.944
 7982SOL    HW224846   0.040   1.864   6.947
 7983SOL     OW24847   5.803   1.940   2.449
 7983SOL    HW124848   5.729   1.991   2.493
 7983SOL    HW224849   5.886   1.948   2.504
 7984SOL     OW24850   1.342   1.843   1.588
 7984SOL    HW124851   1.433   1.810   1.563
 7984SOL    HW224852   1.347   1.939   1.616
 7985SOL     OW24853   2.321   6.649   3.454
 7985SOL    HW124854   2.416   6.635   3.481
 7985SOL    HW224855   2.317   6.699   3.368
 7986SOL     OW24856   2.965   0.506   6.625
 7986SOL    HW124857   2.871   0.471   6.624
 7986SOL    HW224858   2.997   0.515   6.720
 7987SOL     OW24859   1.022   3.667   6.584
 7987SOL    HW124860   0.978   3.667   6.674
 7987SOL    HW224861   0.997   3.583   6.535
 7988SOL     OW24862   1.548   1.696   4.221
 7988SOL    HW124863   1.611   1.626   4.186
 7988SOL    HW224864   1.469   1.702   4.160
 7989SOL     OW24865   3.211   2.528   5.344
 7989SOL    HW124866   3.305   2.501   5.360
 7989SOL    HW224867   3.168   2.464   5.280
 7990SOL     OW24868   6.108   3.847   3.780
 7990SOL    HW124869   6.082   3.866   3.875
 7990SOL    HW224870   6.025   3.826   3.727
 7991SOL     OW24871   6.390   0.821   4.871
 7991SOL    HW124872   6.335   0.743   4.840
 7991SOL    HW224873   6.455   0.846   4.799
 7992SOL     OW24874   1.468   6.694   1.217
 7992SOL    HW124875   1.539   6.759   1.245
 7992SOL    HW224876   1.401   6.740   1.160
 7993SOL     OW24877   1.772   6.021   6.854
 7993SOL    HW124878   1.693   6.060   6.806
 7993SOL    HW224879   1.766   5.922   6.852
 7994SOL     OW24880   4.926   0.309   3.116
 7994SOL    HW124881   4.827   0.290   3.113
 7994SOL    HW224882   4.972   0.238   3.170
 7995SOL     OW24883   4.141   5.355   3.736
 7995SOL    HW124884   4.080   5.368   3.814
 7995SOL    HW224885   4.211   5.288   3.759
 7996SOL     OW24886   3.067   6.912   5.084
 7996SOL    HW124887   3.063   6.821   5.041
 7996SOL    HW224888   3.154   6.955   5.061
 7997SOL     OW24889   6.887   1.385   0.621
 7997SOL    HW124890   6.847   1.476   0.631
 7997SOL    HW224891   6.890   1.340   0.710
 7998SOL     OW24892   3.908   5.208   1.197
 7998SOL    HW124893   3.866   5.125   1.162
 7998SOL    HW224894   3.922   5.273   1.122
 7999SOL     OW24895   1.552   0.223   6.079
 7999SOL    HW124896   1.637   0.174   6.097
 7999SOL    HW224897   1.499   0.230   6.163
 8000SOL     OW24898   5.248   0.910   0.169
 8000SOL    HW124899   5.168   0.853   0.188
 8000SOL    HW224900   5.325   0.851   0.142
 8001SOL     OW24901   3.708   5.876   1.166
 8001SOL    HW124902   3.652   5.833   1.095
 8001SOL    HW224903   3.664   5.866   1.255
 8002SOL     OW24904   0.956   2.793   5.193
 8002SOL    HW124905   0.864   2.801   5.233
 8002SOL    HW224906   0.997   2.706   5.220
 8003SOL     OW24907   2.299   4.706   2.560
 8003SOL    HW124908   2.297   4.788   2.617
 8003SOL    HW224909   2.393   4.683   2.537
 8004SOL     OW24910   1.424   3.615   3.658
 8004SOL    HW124911   1.498   3.680   3.675
 8004SOL    HW224912   1.426   3.543   3.728
 8005SOL     OW24913   3.236   1.476   2.040
 8005SOL    HW124914   3.154   1.497   2.094
 8005SOL    HW224915   3.303   1.429   2.098
 8006SOL     OW24916   2.879   6.718   0.379
 8006SOL    HW124917   2.899   6.663   0.460
 8006SOL    HW224918   2.872   6.658   0.300
 8007SOL     OW24919   1.148   0.180   4.642
 8007SOL    HW124920   1.218   0.200   4.711
 8007SOL    HW224921   1.186   0.194   4.551
 8008SOL     OW24922   4.405   6.409   6.203
 8008SOL    HW124923   4.336   6.388   6.135
 8008SOL    HW224924   4.403   6.507   6.225
 8009SOL     OW24925   6.333   0.514   2.864
 8009SOL    HW124926   6.342   0.473   2.955
 8009SOL    HW224927   6.379   0.603   2.863
 8010SOL     OW24928   1.209   1.491   0.231
 8010SOL    HW124929   1.305   1.512   0.217
 8010SOL    HW224930   1.200   1.407   0.285
 8011SOL     OW24931   2.713   2.728   0.687
 8011SOL    HW124932   2.668   2.667   0.753
 8011SOL    HW224933   2.770   2.673   0.626
 8012SOL     OW24934   2.589   6.205   1.617
 8012SOL    HW124935   2.617   6.117   1.654
 8012SOL    HW224936   2.563   6.195   1.521
 8013SOL     OW24937   0.666   5.096   4.357
 8013SOL    HW124938   0.680   4.997   4.363
 8013SOL    HW224939   0.736   5.142   4.412
 8014SOL     OW24940   0.513   5.913   4.971
 8014SOL    HW124941   0.510   5.909   4.871
 8014SOL    HW224942   0.601   5.877   5.003
 8015SOL     OW24943   3.258   1.558   0.066
 8015SOL    HW124944   3.274   1.490   7.012
 8015SOL    HW224945   3.301   1.527   0.151
 8016SOL     OW24946   4.552   0.449   6.632
 8016SOL    HW124947   4.641   0.423   6.594
 8016SOL    HW224948   4.489   0.470   6.557
 8017SOL     OW24949   6.796   5.779   6.845
 8017SOL    HW124950   6.869   5.847   6.846
 8017SOL    HW224951   6.764   5.761   6.938
 8018SOL     OW24952   3.565   2.512   6.091
 8018SOL    HW124953   3.602   2.421   6.078
 8018SOL    HW224954   3.538   2.524   6.187
 8019SOL     OW24955   2.187   3.634   6.823
 8019SOL    HW124956   2.188   3.580   6.907
 8019SOL    HW224957   2.152   3.577   6.748
 8020SOL     OW24958   6.361   5.862   0.814
 8020SOL    HW124959   6.429   5.795   0.844
 8020SOL    HW224960   6.385   5.896   0.723
 8021SOL     OW24961   0.847   2.151   1.411
 8021SOL    HW124962   0.919   2.120   1.473
 8021SOL    HW224963   0.844   2.091   1.332
 8022SOL     OW24964   4.279   0.386   2.740
 8022SOL    HW124965   4.291   0.388   2.839
 8022SOL    HW224966   4.331   0.461   2.699
 8023SOL     OW24967   5.822   5.543   3.111
 8023SOL    HW124968   5.842   5.618   3.175
 8023SOL    HW224969   5.733   5.503   3.136
 8024SOL     OW24970   3.567   5.260   6.746
 8024SOL    HW124971   3.621   5.279   6.827
 8024SOL    HW224972   3.469   5.266   6.768
 8025SOL     OW24973   2.426   6.084   6.615
 8025SOL    HW124974   2.468   6.162   6.569
 8025SOL    HW224975   2.374   6.116   6.694
 8026SOL     OW24976   0.561   4.987   6.661
 8026SOL    HW124977   0.551   4.896   6.701
 8026SOL    HW224978   0.484   5.004   6.599
 8027SOL     OW24979   3.946   1.740   5.353
 8027SOL    HW124980   3.908   1.648   5.360
 8027SOL    HW224981   4.026   1.739   5.294
 8028SOL     OW24982   3.307   5.412   5.370
 8028SOL    HW124983   3.299   5.385   5.274
 8028SOL    HW224984   3.397   5.387   5.405
 8029SOL     OW24985   5.336   3.759   0.120
 8029SOL    HW124986   5.289   3.709   0.192
 8029SOL    HW224987   5.299   3.852   0.115
 8030SOL     OW24988   4.534   4.199   0.134
 8030SOL    HW124989   4.617   4.252   0.145
 8030SOL    HW224990   4.500   4.208   0.041
 8031SOL     OW24991   4.467   5.712   2.521
 8031SOL    HW124992   4.430   5.798   2.486
 8031SOL    HW224993   4.564   5.704   2.496
 8032SOL     OW24994   5.867   4.664   5.869
 8032SOL    HW124995   5.796   4.702   5.809
 8032SOL    HW224996   5.830   4.653   5.961
 8033SOL     OW24997   5.206   3.784   6.814
 8033SOL    HW124998   5.168   3.875   6.833
 8033SOL    HW224999   5.173   3.720   6.883
 8034SOL     OW25000   6.373   1.269   4.963
 8034SOL    HW125001   6.296   1.311   5.012
 8034SOL    HW225002   6.404   1.188   5.013
 8035SOL     OW25003   4.565   0.598   5.358
 8035SOL    HW125004   4.528   0.615   5.267
 8035SOL    HW225005   4.507   0.644   5.426
 8036SOL     OW25006   0.515   3.763   2.412
 8036SOL    HW125007   0.549   3.849   2.451
 8036SOL    HW225008   0.452   3.782   2.338
 8037SOL     OW25009   1.705   3.618   1.792
 8037SOL    HW125010   1.798   3.627   1.826
 8037SOL    HW225011   1.686   3.690   1.725
 8038SOL     OW25012   4.743   0.829   2.786
 8038SOL    HW125013   4.748   0.879   2.872
 8038SOL    HW225014   4.649   0.795   2.773
 8039SOL     OW25015   1.102   7.003   3.875
 8039SOL    HW125016   1.070   0.006   3.782
 8039SOL    HW225017   1.026   7.014   3.939
 8040SOL     OW25018   1.240   6.039   0.994
 8040SOL    HW125019   1.186   6.123   0.991
 8040SOL    HW225020   1.297   6.038   1.076
 8041SOL     OW25021   2.909   2.077   2.123
 8041SOL    HW125022   2.964   2.089   2.206
 8041SOL    HW225023   2.862   2.163   2.103
 8042SOL     OW25024   3.997   3.035   3.264
 8042SOL    HW125025   4.064   3.088   3.317
 8042SOL    HW225026   3.944   2.977   3.325
 8043SOL     OW25027   3.528   6.588   1.526
 8043SOL    HW125028   3.531   6.639   1.440
 8043SOL    HW225029   3.453   6.622   1.582
 8044SOL     OW25030   3.625   3.470   0.433
 8044SOL    HW125031   3.664   3.454   0.343
 8044SOL    HW225032   3.695   3.456   0.503
 8045SOL     OW25033   5.451   0.434   1.471
 8045SOL    HW125034   5.547   0.459   1.456
 8045SOL    HW225035   5.443   0.335   1.477
 8046SOL     OW25036   6.623   4.689   0.034
 8046SOL    HW125037   6.612   4.762   0.102
 8046SOL    HW225038   6.545   4.690   6.988
 8047SOL     OW25039   3.869   4.987   4.819
 8047SOL    HW125040   3.848   4.899   4.776
 8047SOL    HW225041   3.946   4.977   4.882
 8048SOL     OW25042   5.453   0.583   5.699
 8048SOL    HW125043   5.382   0.571   5.768
 8048SOL    HW225044   5.412   0.616   5.614
 8049SOL     OW25045   1.956   0.160   1.311
 8049SOL    HW125046   1.929   0.147   1.215
 8049SOL    HW225047   1.875   0.178   1.366
 8050SOL     OW25048   1.130   4.392   2.084
 8050SOL    HW125049   1.225   4.383   2.115
 8050SOL    HW225050   1.069   4.390   2.164
 8051SOL     OW25051   4.955   6.260   3.653
 8051SOL    HW125052   5.030   6.282   3.715
 8051SOL    HW225053   4.908   6.344   3.626
 8052SOL     OW25054   3.929   1.733   2.041
 8052SOL    HW125055   3.982   1.817   2.034
 8052SOL    HW225056   3.843   1.744   1.992
 8053SOL     OW25057   3.711   4.067   3.025
 8053SOL    HW125058   3.724   4.052   3.123
 8053SOL    HW225059   3.614   4.066   3.003
 8054SOL     OW25060   5.224   6.908   4.621
 8054SOL    HW125061   5.230   6.818   4.578
 8054SOL    HW225062   5.296   6.968   4.583
 8055SOL     OW25063   0.320   0.900   6.075
 8055SOL    HW125064   0.389   0.828   6.066
 8055SOL    HW225065   0.231   0.865   6.046
 8056SOL     OW25066   4.477   1.547   4.114
 8056SOL    HW125067   4.466   1.451   4.087
 8056SOL    HW225068   4.402   1.572   4.176
 8057SOL     OW25069   2.746   2.312   3.106
 8057SOL    HW125070   2.789   2.293   3.018
 8057SOL    HW225071   2.788   2.256   3.177
 8058SOL     OW25072   4.371   0.378   3.045
 8058SOL    HW125073   4.467   0.399   3.065
 8058SOL    HW225074   4.313   0.420   3.115
 8059SOL     OW25075   4.532   2.505   4.409
 8059SOL    HW125076   4.493   2.417   4.382
 8059SOL    HW225077   4.479   2.544   4.484
 8060SOL     OW25078   0.608   1.505   4.643
 8060SOL    HW125079   0.646   1.510   4.551
 8060SOL    HW225080   0.539   1.432   4.647
 8061SOL     OW25081   6.579   6.856   1.266
 8061SOL    HW125082   6.578   6.938   1.208
 8061SOL    HW225083   6.533   6.781   1.219
 8062SOL     OW25084   2.879   5.092   4.264
 8062SOL    HW125085   2.782   5.073   4.247
 8062SOL    HW225086   2.908   5.044   4.348
 8063SOL     OW25087   1.956   2.765   0.714
 8063SOL    HW125088   1.894   2.707   0.767
 8063SOL    HW225089   2.042   2.776   0.763
 8064SOL     OW25090   6.788   5.088   1.496
 8064SOL    HW125091   6.844   5.016   1.537
 8064SOL    HW225092   6.815   5.177   1.533
 8065SOL     OW25093   4.618   6.427   3.746
 8065SOL    HW125094   4.618   6.409   3.845
 8065SOL    HW225095   4.595   6.522   3.730
 8066SOL     OW25096   0.736   1.661   6.143
 8066SOL    HW125097   0.759   1.574   6.100
 8066SOL    HW225098   0.651   1.651   6.195
 8067SOL     OW25099   4.858   3.279   1.651
 8067SOL    HW125100   4.858   3.183   1.676
 8067SOL    HW225101   4.871   3.288   1.552
 8068SOL     OW25102   5.785   4.176   6.860
 8068SOL    HW125103   5.790   4.275   6.851
 8068SOL    HW225104   5.876   4.138   6.874
 8069SOL     OW25105   1.981   6.133   1.059
 8069SOL    HW125106   1.894   6.123   1.108
 8069SOL    HW225107   1.967   6.185   0.975
 8070SOL     OW25108   2.661   3.569   0.297
 8070SOL    HW125109   2.720   3.526   0.365
 8070SOL    HW225110   2.570   3.583   0.336
 8071SOL     OW25111   3.210   6.259   5.001
 8071SOL    HW125112   3.230   6.351   5.036
 8071SOL    HW225113   3.264   6.242   4.919
 8072SOL     OW25114   3.546   0.424   0.019
 8072SOL    HW125115   3.511   0.404   6.945
 8072SOL    HW225116   3.478   0.476   0.070
 8073SOL     OW25117   4.190   6.319   6.064
 8073SOL    HW125118   4.142   6.395   6.020
 8073SOL    HW225119   4.179   6.237   6.009
 8074SOL     OW25120   3.197   2.948   6.871
 8074SOL    HW125121   3.142   2.937   6.789
 8074SOL    HW225122   3.137   2.960   6.950
 8075SOL     OW25123   6.691   1.110   1.068
 8075SOL    HW125124   6.619   1.075   1.128
 8075SOL    HW225125   6.726   1.196   1.104
 8076SOL     OW25126   5.031   2.491   5.834
 8076SOL    HW125127   5.107   2.426   5.837
 8076SOL    HW225128   4.951   2.447   5.793
 8077SOL     OW25129   1.452   5.976   1.800
 8077SOL    HW125130   1.438   5.922   1.883
 8077SOL    HW225131   1.503   6.059   1.823
 8078SOL     OW25132   6.110   1.290   6.907
 8078SOL    HW125133   6.033   1.348   6.932
 8078SOL    HW225134   6.177   1.344   6.855
 8079SOL     OW25135   5.648   1.372   3.536
 8079SOL    HW125136   5.625   1.276   3.520
 8079SOL    HW225137   5.741   1.390   3.504
 8080SOL     OW25138   0.575   4.169   6.817
 8080SOL    HW125139   0.526   4.216   6.891
 8080SOL    HW225140   0.649   4.228   6.784
 8081SOL     OW25141   4.696   0.340   5.018
 8081SOL    HW125142   4.664   0.282   5.093
 8081SOL    HW225143   4.790   0.370   5.036
 8082SOL     OW25144   5.952   1.021   2.029
 8082SOL    HW125145   5.997   1.048   2.114
 8082SOL    HW225146   5.854   1.007   2.046
 8083SOL     OW25147   5.376   3.341   2.193
 8083SOL    HW125148   5.389   3.440   2.189
 8083SOL    HW225149   5.334   3.316   2.280
 8084SOL     OW25150   5.358   6.938   1.117
 8084SOL    HW125151   5.274   6.968   1.071
 8084SOL    HW225152   5.403   7.016   1.159
 8085SOL     OW25153   6.151   0.146   2.403
 8085SOL    HW125154   6.196   0.070   2.450
 8085SOL    HW225155   6.189   0.232   2.438
 8086SOL     OW25156   4.785   0.836   4.104
 8086SOL    HW125157   4.804   0.745   4.140
 8086SOL    HW225158   4.686   0.848   4.097
 8087SOL     OW25159   2.975   1.601   1.299
 8087SOL    HW125160   3.000   1.520   1.245
 8087SOL    HW225161   2.898   1.578   1.359
 8088SOL     OW25162   5.551   1.850   1.761
 8088SOL    HW125163   5.525   1.849   1.858
 8088SOL    HW225164   5.547   1.944   1.727
 8089SOL     OW25165   5.415   2.847   0.688
 8089SOL    HW125166   5.349   2.921   0.700
 8089SOL    HW225167   5.382   2.765   0.734
 8090SOL     OW25168   4.246   2.619   6.624
 8090SOL    HW125169   4.334   2.654   6.591
 8090SOL    HW225170   4.172   2.649   6.564
 8091SOL     OW25171   2.633   3.973   6.836
 8091SOL    HW125172   2.664   4.067   6.847
 8091SOL    HW225173   2.596   3.959   6.744
 8092SOL     OW25174   0.975   2.061   5.010
 8092SOL    HW125175   0.898   2.014   5.053
 8092SOL    HW225176   0.953   2.158   4.999
 8093SOL     OW25177   4.841   5.926   1.966
 8093SOL    HW125178   4.841   5.959   1.872
 8093SOL    HW225179   4.761   5.963   2.014
 8094SOL     OW25180   2.011   3.844   4.268
 8094SOL    HW125181   2.050   3.866   4.358
 8094SOL    HW225182   2.079   3.861   4.197
 8095SOL     OW25183   5.316   4.227   4.355
 8095SOL    HW125184   5.265   4.159   4.302
 8095SOL    HW225185   5.368   4.180   4.427
 8096SOL     OW25186   2.919   5.582   3.826
 8096SOL    HW125187   2.903   5.504   3.887
 8096SOL    HW225188   2.888   5.666   3.870
 8097SOL     OW25189   4.866   0.107   3.463
 8097SOL    HW125190   4.821   0.195   3.452
 8097SOL    HW225191   4.934   0.095   3.391
 8098SOL     OW25192   1.903   6.798   4.441
 8098SOL    HW125193   1.940   6.832   4.354
 8098SOL    HW225194   1.894   6.699   4.438
 8099SOL     OW25195   5.874   0.616   3.850
 8099SOL    HW125196   5.829   0.705   3.861
 8099SOL    HW225197   5.909   0.585   3.938
 8100SOL     OW25198   0.452   6.713   6.868
 8100SOL    HW125199   0.401   6.643   6.917
 8100SOL    HW225200   0.392   6.759   6.803
 8101SOL     OW25201   2.203   0.328   4.394
 8101SOL    HW125202   2.225   0.420   4.360
 8101SOL    HW225203   2.285   0.271   4.391
 8102SOL     OW25204   1.144   4.627   5.242
 8102SOL    HW125205   1.051   4.660   5.227
 8102SOL    HW225206   1.182   4.672   5.323
 8103SOL     OW25207   4.515   0.863   0.325
 8103SOL    HW125208   4.541   0.960   0.322
 8103SOL    HW225209   4.499   0.830   0.232
 8104SOL     OW25210   2.876   6.492   6.152
 8104SOL    HW125211   2.945   6.552   6.192
 8104SOL    HW225212   2.831   6.541   6.077
 8105SOL     OW25213   1.590   2.272   3.083
 8105SOL    HW125214   1.623   2.186   3.045
 8105SOL    HW225215   1.495   2.262   3.112
 8106SOL     OW25216   2.446   5.836   3.679
 8106SOL    HW125217   2.476   5.742   3.694
 8106SOL    HW225218   2.521   5.899   3.701
 8107SOL     OW25219   1.320   5.687   5.400
 8107SOL    HW125220   1.377   5.769   5.410
 8107SOL    HW225221   1.357   5.630   5.326
 8108SOL     OW25222   5.393   2.621   5.452
 8108SOL    HW125223   5.487   2.614   5.486
 8108SOL    HW225224   5.357   2.712   5.472
 8109SOL     OW25225   1.306   3.983   4.063
 8109SOL    HW125226   1.218   4.017   4.095
 8109SOL    HW225227   1.345   3.922   4.133
 8110SOL     OW25228   3.691   6.966   0.932
 8110SOL    HW125229   3.614   6.989   0.991
 8110SOL    HW225230   3.675   7.003   0.841
 8111SOL     OW25231   3.935   0.551   5.866
 8111SOL    HW125232   4.007   0.621   5.855
 8111SOL    HW225233   3.920   0.534   5.963
 8112SOL     OW25234   1.655   1.364   4.894
 8112SOL    HW125235   1.561   1.372   4.860
 8112SOL    HW225236   1.658   1.392   4.989
 8113SOL     OW25237   2.586   3.445   0.061
 8113SOL    HW125238   2.607   3.484   0.150
 8113SOL    HW225239   2.559   3.518   7.015
 8114SOL     OW25240   1.816   2.975   2.060
 8114SOL    HW125241   1.857   2.885   2.069
 8114SOL    HW225242   1.772   2.983   1.971
 8115SOL     OW25243   4.173   1.582   1.923
 8115SOL    HW125244   4.149   1.538   1.837
 8115SOL    HW225245   4.116   1.664   1.936
 8116SOL     OW25246   4.839   0.187   4.285
 8116SOL    HW125247   4.912   0.142   4.337
 8116SOL    HW225248   4.774   0.229   4.349
 8117SOL     OW25249   2.155   0.939   4.707
 8117SOL    HW125250   2.255   0.932   4.705
 8117SOL    HW225251   2.119   0.935   4.614
 8118SOL     OW25252   6.146   3.679   5.612
 8118SOL    HW125253   6.089   3.733   5.550
 8118SOL    HW225254   6.137   3.582   5.590
 8119SOL     OW25255   6.627   5.493   5.329
 8119SOL    HW125256   6.583   5.404   5.334
 8119SOL    HW225257   6.570   5.561   5.376
 8120SOL     OW25258   3.816   5.019   6.266
 8120SOL    HW125259   3.743   4.951   6.276
 8120SOL    HW225260   3.783   5.108   6.296
 8121SOL     OW25261   0.148   5.246   2.818
 8121SOL    HW125262   0.169   5.150   2.802
 8121SOL    HW225263   0.215   5.303   2.770
 8122SOL     OW25264   0.722   5.677   2.487
 8122SOL    HW125265   0.777   5.606   2.442
 8122SOL    HW225266   0.717   5.657   2.585
 8123SOL     OW25267   0.062   6.832   0.051
 8123SOL    HW125268   0.050   6.878   0.140
 8123SOL    HW225269   0.072   6.901   6.996
 8124SOL     OW25270   0.493   6.126   1.010
 8124SOL    HW125271   0.448   6.103   0.924
 8124SOL    HW225272   0.429   6.116   1.086
 8125SOL     OW25273   0.747   6.240   2.817
 8125SOL    HW125274   0.693   6.230   2.900
 8125SOL    HW225275   0.813   6.164   2.811
 8126SOL     OW25276   6.225   3.728   2.307
 8126SOL    HW125277   6.145   3.774   2.343
 8126SOL    HW225278   6.306   3.753   2.361
 8127SOL     OW25279   2.357   6.167   0.854
 8127SOL    HW125280   2.276   6.161   0.796
 8127SOL    HW225281   2.403   6.078   0.856
 8128SOL     OW25282   2.845   2.843   0.896
 8128SOL    HW125283   2.901   2.923   0.875
 8128SOL    HW225284   2.794   2.816   0.814
 8129SOL     OW25285   4.499   1.402   5.955
 8129SOL    HW125286   4.569   1.401   5.884
 8129SOL    HW225287   4.518   1.475   6.020
 8130SOL     OW25288   0.611   4.675   6.259
 8130SOL    HW125289   0.660   4.591   6.233
 8130SOL    HW225290   0.640   4.703   6.350
 8131SOL     OW25291   2.348   0.695   0.508
 8131SOL    HW125292   2.404   0.613   0.517
 8131SOL    HW225293   2.380   0.764   0.573
 8132SOL     OW25294   5.552   6.296   6.233
 8132SOL    HW125295   5.623   6.357   6.269
 8132SOL    HW225296   5.463   6.342   6.238
 8133SOL     OW25297   3.376   4.968   1.923
 8133SOL    HW125298   3.444   4.895   1.912
 8133SOL    HW225299   3.285   4.932   1.905
 8134SOL     OW25300   1.562   1.248   4.459
 8134SOL    HW125301   1.497   1.240   4.383
 8134SOL    HW225302   1.599   1.158   4.481
 8135SOL     OW25303   2.304   5.530   1.661
 8135SOL    HW125304   2.243   5.547   1.738
 8135SOL    HW225305   2.318   5.432   1.651
 8136SOL     OW25306   4.755   4.764   2.696
 8136SOL    HW125307   4.672   4.719   2.664
 8136SOL    HW225308   4.733   4.854   2.734
 8137SOL     OW25309   2.190   1.395   4.519
 8137SOL    HW125310   2.246   1.358   4.594
 8137SOL    HW225311   2.133   1.469   4.554
 8138SOL     OW25312   5.717   2.348   0.765
 8138SOL    HW125313   5.655   2.275   0.735
 8138SOL    HW225314   5.768   2.382   0.686
 8139SOL     OW25315   1.859   2.728   3.530
 8139SOL    HW125316   1.802   2.650   3.555
 8139SOL    HW225317   1.810   2.786   3.466
 8140SOL     OW25318   3.608   0.018   0.683
 8140SOL    HW125319   3.510   0.032   0.674
 8140SOL    HW225320   3.651   0.024   0.593
 8141SOL     OW25321   4.738   6.947   5.495
 8141SOL    HW125322   4.823   7.000   5.500
 8141SOL    HW225323   4.758   6.851   5.515
 8142SOL     OW25324   1.866   5.125   0.740
 8142SOL    HW125325   1.807   5.047   0.761
 8142SOL    HW225326   1.961   5.102   0.763
 8143SOL     OW25327   4.943   5.224   0.697
 8143SOL    HW125328   4.859   5.178   0.668
 8143SOL    HW225329   4.922   5.294   0.764
 8144SOL     OW25330   0.865   6.124   5.573
 8144SOL    HW125331   0.876   6.111   5.672
 8144SOL    HW225332   0.871   6.222   5.551
 8145SOL     OW25333   4.779   4.971   0.829
 8145SOL    HW125334   4.876   4.946   0.832
 8145SOL    HW225335   4.765   5.054   0.883
 8146SOL     OW25336   5.848   6.861   5.839
 8146SOL    HW125337   5.823   6.795   5.768
 8146SOL    HW225338   5.874   6.812   5.923
 8147SOL     OW25339   6.833   0.480   0.734
 8147SOL    HW125340   6.827   0.449   0.638
 8147SOL    HW225341   6.749   0.529   0.758
 8148SOL     OW25342   4.426   4.541   6.689
 8148SOL    HW125343   4.429   4.531   6.589
 8148SOL    HW225344   4.330   4.546   6.719
 8149SOL     OW25345   2.069   6.593   3.276
 8149SOL    HW125346   2.160   6.553   3.269
 8149SOL    HW225347   2.005   6.524   3.313
 8150SOL     OW25348   1.144   4.080   1.128
 8150SOL    HW125349   1.175   4.016   1.057
 8150SOL    HW225350   1.196   4.165   1.121
 8151SOL     OW25351   5.847   5.318   3.987
 8151SOL    HW125352   5.749   5.296   3.987
 8151SOL    HW225353   5.867   5.381   3.912
 8152SOL     OW25354   5.517   2.883   3.609
 8152SOL    HW125355   5.479   2.961   3.659
 8152SOL    HW225356   5.614   2.899   3.591
 8153SOL     OW25357   0.811   1.297   3.102
 8153SOL    HW125358   0.806   1.212   3.050
 8153SOL    HW225359   0.750   1.365   3.061
 8154SOL     OW25360   3.612   0.097   2.750
 8154SOL    HW125361   3.695   0.134   2.710
 8154SOL    HW225362   3.536   0.160   2.734
 8155SOL     OW25363   1.399   3.904   2.360
 8155SOL    HW125364   1.393   3.852   2.275
 8155SOL    HW225365   1.308   3.935   2.387
 8156SOL     OW25366   4.980   6.112   1.319
 8156SOL    HW125367   4.959   6.198   1.363
 8156SOL    HW225368   4.898   6.055   1.315
 8157SOL     OW25369   6.480   4.224   6.113
 8157SOL    HW125370   6.564   4.195   6.158
 8157SOL    HW225371   6.422   4.273   6.178
 8158SOL     OW25372   5.067   4.850   6.934
 8158SOL    HW125373   5.037   4.945   6.929
 8158SOL    HW225374   5.148   4.844   6.992
 8159SOL     OW25375   3.712   5.862   5.398
 8159SOL    HW125376   3.747   5.838   5.308
 8159SOL    HW225377   3.789   5.887   5.458
 8160SOL     OW25378   4.725   0.022   3.847
 8160SOL    HW125379   4.805   6.989   3.881
 8160SOL    HW225380   4.690   0.081   3.920
 8161SOL     OW25381   6.102   3.823   6.468
 8161SOL    HW125382   6.190   3.839   6.513
 8161SOL    HW225383   6.059   3.741   6.506
 8162SOL     OW25384   6.487   5.178   6.741
 8162SOL    HW125385   6.435   5.117   6.800
 8162SOL    HW225386   6.578   5.193   6.779
 8163SOL     OW25387   2.311   4.781   5.365
 8163SOL    HW125388   2.306   4.815   5.459
 8163SOL    HW225389   2.312   4.681   5.366
 8164SOL     OW25390   4.437   1.359   0.153
 8164SOL    HW125391   4.528   1.333   0.123
 8164SOL    HW225392   4.436   1.455   0.179
 8165SOL     OW25393   6.682   3.657   6.229
 8165SOL    HW125394   6.738   3.612   6.299
 8165SOL    HW225395   6.698   3.756   6.233
 8166SOL     OW25396   1.998   0.690   3.323
 8166SOL    HW125397   1.945   0.623   3.375
 8166SOL    HW225398   2.050   0.642   3.251
 8167SOL     OW25399   0.283   0.834   3.059
 8167SOL    HW125400   0.193   0.844   3.017
 8167SOL    HW225401   0.279   0.865   3.154
 8168SOL     OW25402   2.717   6.925   1.451
 8168SOL    HW125403   2.686   6.831   1.456
 8168SOL    HW225404   2.804   6.935   1.500
 8169SOL     OW25405   3.987   2.013   0.357
 8169SOL    HW125406   3.932   2.089   0.323
 8169SOL    HW225407   4.077   2.046   0.384
 8170SOL     OW25408   6.672   4.737   0.970
 8170SOL    HW125409   6.597   4.722   1.034
 8170SOL    HW225410   6.726   4.816   1.001
 8171SOL     OW25411   2.187   1.663   0.061
 8171SOL    HW125412   2.213   1.566   0.052
 8171SOL    HW225413   2.151   1.695   6.990
 8172SOL     OW25414   0.085   2.072   1.709
 8172SOL    HW125415   0.072   2.163   1.747
 8172SOL    HW225416   0.178   2.062   1.674
 8173SOL     OW25417   5.577   1.710   2.110
 8173SOL    HW125418   5.493   1.664   2.083
 8173SOL    HW225419   5.558   1.773   2.184
 8174SOL     OW25420   0.586   6.775   2.551
 8174SOL    HW125421   0.629   6.704   2.606
 8174SOL    HW225422   0.540   6.841   2.611
 8175SOL     OW25423   0.443   2.670   4.543
 8175SOL    HW125424   0.383   2.589   4.545
 8175SOL    HW225425   0.406   2.740   4.604
 8176SOL     OW25426   2.535   4.481   1.706
 8176SOL    HW125427   2.475   4.534   1.766
 8176SOL    HW225428   2.499   4.388   1.697
 8177SOL     OW25429   4.794   0.870   3.797
 8177SOL    HW125430   4.810   0.880   3.895
 8177SOL    HW225431   4.696   0.860   3.780
 8178SOL     OW25432   3.557   6.622   0.757
 8178SOL    HW125433   3.474   6.596   0.807
 8178SOL    HW225434   3.532   6.658   0.667
 8179SOL     OW25435   5.525   1.035   4.778
 8179SOL    HW125436   5.436   1.052   4.735
 8179SOL    HW225437   5.591   1.104   4.746
 8180SOL     OW25438   5.952   0.674   6.935
 8180SOL    HW125439   5.996   0.705   6.850
 8180SOL    HW225440   5.974   0.579   6.952
 8181SOL     OW25441   1.645   1.047   0.628
 8181SOL    HW125442   1.708   0.983   0.673
 8181SOL    HW225443   1.636   1.022   0.532
 8182SOL     OW25444   3.381   3.106   5.121
 8182SOL    HW125445   3.407   3.062   5.036
 8182SOL    HW225446   3.385   3.205   5.110
 8183SOL     OW25447   6.268   2.202   4.624
 8183SOL    HW125448   6.205   2.266   4.669
 8183SOL    HW225449   6.330   2.253   4.565
 8184SOL     OW25450   0.399   7.011   0.510
 8184SOL    HW125451   0.382   0.090   0.531
 8184SOL    HW225452   0.494   6.989   0.531
 8185SOL     OW25453   2.190   0.287   0.536
 8185SOL    HW125454   2.273   0.322   0.493
 8185SOL    HW225455   2.213   0.208   0.594
 8186SOL     OW25456   2.621   4.799   5.742
 8186SOL    HW125457   2.582   4.711   5.711
 8186SOL    HW225458   2.720   4.799   5.727
 8187SOL     OW25459   2.208   0.906   4.978
 8187SOL    HW125460   2.137   0.840   5.003
 8187SOL    HW225461   2.198   0.932   4.882
 8188SOL     OW25462   4.866   2.992   3.620
 8188SOL    HW125463   4.781   2.942   3.638
 8188SOL    HW225464   4.857   3.045   3.536
 8189SOL     OW25465   5.361   5.224   2.653
 8189SOL    HW125466   5.354   5.125   2.643
 8189SOL    HW225467   5.313   5.253   2.736
 8190SOL     OW25468   4.847   4.183   4.091
 8190SOL    HW125469   4.804   4.244   4.024
 8190SOL    HW225470   4.786   4.173   4.170
 8191SOL     OW25471   3.911   5.376   2.356
 8191SOL    HW125472   3.961   5.437   2.416
 8191SOL    HW225473   3.816   5.405   2.350
 8192SOL     OW25474   1.979   5.706   2.824
 8192SOL    HW125475   1.944   5.613   2.834
 8192SOL    HW225476   1.979   5.750   2.914
 8193SOL     OW25477   5.975   5.533   5.398
 8193SOL    HW125478   5.941   5.621   5.365
 8193SOL    HW225479   5.936   5.515   5.489
 8194SOL     OW25480   4.583   0.923   1.091
 8194SOL    HW125481   4.540   0.995   1.145
 8194SOL    HW225482   4.519   0.847   1.078
 8195SOL     OW25483   6.694   0.644   3.071
 8195SOL    HW125484   6.669   0.584   2.995
 8195SOL    HW225485   6.732   0.590   3.146
 8196SOL     OW25486   4.514   6.185   0.106
 8196SOL    HW125487   4.496   6.131   0.024
 8196SOL    HW225488   4.435   6.242   0.126
 8197SOL     OW25489   3.839   1.117   0.515
 8197SOL    HW125490   3.821   1.019   0.517
 8197SOL    HW225491   3.909   1.139   0.584
 8198SOL     OW25492   3.637   6.712   2.522
 8198SOL    HW125493   3.588   6.650   2.461
 8198SOL    HW225494   3.607   6.806   2.506
 8199SOL     OW25495   5.777   3.596   5.385
 8199SOL    HW125496   5.710   3.532   5.348
 8199SOL    HW225497   5.835   3.549   5.452
 8200SOL     OW25498   5.705   4.315   1.590
 8200SOL    HW125499   5.676   4.357   1.676
 8200SOL    HW225500   5.627   4.269   1.547
 8201SOL     OW25501   6.220   1.035   5.433
 8201SOL    HW125502   6.191   1.057   5.340
 8201SOL    HW225503   6.280   1.107   5.467
 8202SOL     OW25504   0.507   5.311   3.903
 8202SOL    HW125505   0.448   5.290   3.825
 8202SOL    HW225506   0.467   5.387   3.956
 8203SOL     OW25507   3.142   2.119   6.724
 8203SOL    HW125508   3.049   2.111   6.759
 8203SOL    HW225509   3.206   2.087   6.794
 8204SOL     OW25510   3.828   4.442   6.956
 8204SOL    HW125511   3.874   4.524   6.922
 8204SOL    HW225512   3.735   4.465   6.985
 8205SOL     OW25513   0.159   4.474   0.238
 8205SOL    HW125514   0.135   4.394   0.184
 8205SOL    HW225515   0.258   4.490   0.232
 8206SOL     OW25516   4.571   2.115   0.005
 8206SOL    HW125517   4.665   2.150   0.015
 8206SOL    HW225518   4.507   2.191   0.003
 8207SOL     OW25519   3.209   3.396   4.201
 8207SOL    HW125520   3.186   3.304   4.169
 8207SOL    HW225521   3.299   3.394   4.245
 8208SOL     OW25522   0.901   0.843   1.164
 8208SOL    HW125523   0.953   0.796   1.093
 8208SOL    HW225524   0.927   0.940   1.165
 8209SOL     OW25525   0.085   0.907   4.492
 8209SOL    HW125526   7.013   0.939   4.461
 8209SOL    HW225527   0.156   0.970   4.461
 8210SOL     OW25528   2.284   1.909   0.655
 8210SOL    HW125529   2.189   1.928   0.678
 8210SOL    HW225530   2.342   1.983   0.690
 8211SOL     OW25531   3.929   4.409   1.429
 8211SOL    HW125532   3.839   4.398   1.386
 8211SOL    HW225533   3.998   4.422   1.358
 8212SOL     OW25534   1.340   2.570   2.863
 8212SOL    HW125535   1.404   2.530   2.929
 8212SOL    HW225536   1.366   2.543   2.771
 8213SOL     OW25537   6.850   4.508   1.260
 8213SOL    HW125538   6.900   4.529   1.344
 8213SOL    HW225539   6.752   4.522   1.276
 8214SOL     OW25540   6.065   4.993   3.879
 8214SOL    HW125541   6.122   4.934   3.937
 8214SOL    HW225542   6.115   5.077   3.857
 8215SOL     OW25543   3.524   6.040   5.754
 8215SOL    HW125544   3.497   6.105   5.825
 8215SOL    HW225545   3.548   5.952   5.796
 8216SOL     OW25546   5.881   5.401   4.256
 8216SOL    HW125547   5.870   5.378   4.160
 8216SOL    HW225548   5.836   5.488   4.275
 8217SOL     OW25549   1.548   4.820   0.252
 8217SOL    HW125550   1.606   4.818   0.333
 8217SOL    HW225551   1.602   4.800   0.170
 8218SOL     OW25552   0.026   6.957   6.165
 8218SOL    HW125553   0.111   6.972   6.115
 8218SOL    HW225554   6.971   6.932   6.100
 8219SOL     OW25555   4.235   2.320   0.727
 8219SOL    HW125556   4.270   2.323   0.820
 8219SOL    HW225557   4.142   2.284   0.727
 8220SOL     OW25558   3.650   2.866   3.278
 8220SOL    HW125559   3.737   2.898   3.315
 8220SOL    HW225560   3.662   2.838   3.183
 8221SOL     OW25561   5.517   6.387   4.224
 8221SOL    HW125562   5.590   6.437   4.178
 8221SOL    HW225563   5.531   6.390   4.322
 8222SOL     OW25564   5.339   1.283   1.958
 8222SOL    HW125565   5.434   1.296   1.985
 8222SOL    HW225566   5.298   1.211   2.013
 8223SOL     OW25567   1.144   4.640   5.892
 8223SOL    HW125568   1.091   4.705   5.838
 8223SOL    HW225569   1.232   4.680   5.916
 8224SOL     OW25570   6.381   0.873   2.887
 8224SOL    HW125571   6.467   0.888   2.935
 8224SOL    HW225572   6.308   0.925   2.933
 8225SOL     OW25573   3.336   0.980   0.070
 8225SOL    HW125574   3.407   0.910   0.068
 8225SOL    HW225575   3.328   1.016   0.163
 8226SOL     OW25576   4.332   0.110   1.767
 8226SOL    HW125577   4.401   0.071   1.827
 8226SOL    HW225578   4.335   0.063   1.678
 8227SOL     OW25579   6.340   1.909   3.162
 8227SOL    HW125580   6.367   1.986   3.220
 8227SOL    HW225581   6.261   1.863   3.203
 8228SOL     OW25582   6.749   2.258   5.615
 8228SOL    HW125583   6.753   2.340   5.559
 8228SOL    HW225584   6.678   2.196   5.580
 8229SOL     OW25585   4.083   3.250   0.834
 8229SOL    HW125586   4.168   3.216   0.794
 8229SOL    HW225587   4.012   3.253   0.764
 8230SOL     OW25588   4.081   0.548   5.091
 8230SOL    HW125589   4.171   0.578   5.123
 8230SOL    HW225590   4.057   0.597   5.008
 8231SOL     OW25591   4.111   5.283   0.628
 8231SOL    HW125592   4.067   5.212   0.573
 8231SOL    HW225593   4.153   5.242   0.708
 8232SOL     OW25594   4.677   1.474   1.786
 8232SOL    HW125595   4.770   1.509   1.779
 8232SOL    HW225596   4.679   1.378   1.814
 8233SOL     OW25597   1.466   6.320   6.626
 8233SOL    HW125598   1.549   6.346   6.676
 8233SOL    HW225599   1.440   6.226   6.652
 8234SOL     OW25600   3.070   4.692   6.570
 8234SOL    HW125601   3.006   4.615   6.570
 8234SOL    HW225602   3.130   4.685   6.649
 8235SOL     OW25603   0.881   3.682   6.853
 8235SOL    HW125604   0.905   3.678   6.949
 8235SOL    HW225605   0.823   3.762   6.836
 8236SOL     OW25606   0.363   4.684   0.553
 8236SOL    HW125607   0.314   4.742   0.488
 8236SOL    HW225608   0.367   4.730   0.642
 8237SOL     OW25609   4.130   6.717   4.248
 8237SOL    HW125610   4.168   6.640   4.301
 8237SOL    HW225611   4.206   6.768   4.207
 8238SOL     OW25612   0.890   5.153   6.775
 8238SOL    HW125613   0.870   5.091   6.698
 8238SOL    HW225614   0.807   5.201   6.801
 8239SOL     OW25615   5.945   1.022   5.780
 8239SOL    HW125616   5.856   0.976   5.779
 8239SOL    HW225617   5.964   1.055   5.873
 8240SOL     OW25618   3.612   4.154   2.165
 8240SOL    HW125619   3.659   4.116   2.244
 8240SOL    HW225620   3.639   4.249   2.152
 8241SOL     OW25621   4.054   0.348   6.771
 8241SOL    HW125622   4.140   0.298   6.774
 8241SOL    HW225623   3.979   0.288   6.797
 8242SOL     OW25624   0.352   4.936   5.962
 8242SOL    HW125625   0.400   5.022   5.944
 8242SOL    HW225626   0.361   4.876   5.882
 8243SOL     OW25627   0.931   2.761   0.696
 8243SOL    HW125628   0.878   2.827   0.749
 8243SOL    HW225629   0.883   2.740   0.611
 8244SOL     OW25630   0.424   0.251   4.695
 8244SOL    HW125631   0.516   0.213   4.692
 8244SOL    HW225632   0.399   0.283   4.603
 8245SOL     OW25633   4.029   1.866   3.065
 8245SOL    HW125634   3.996   1.934   3.000
 8245SOL    HW225635   3.954   1.837   3.124
 8246SOL     OW25636   0.966   2.622   5.808
 8246SOL    HW125637   0.962   2.685   5.886
 8246SOL    HW225638   0.910   2.660   5.733
 8247SOL     OW25639   1.350   6.671   2.696
 8247SOL    HW125640   1.330   6.630   2.785
 8247SOL    HW225641   1.435   6.722   2.701
 8248SOL     OW25642   6.106   5.061   4.678
 8248SOL    HW125643   6.144   5.153   4.690
 8248SOL    HW225644   6.094   5.018   4.767
 8249SOL     OW25645   1.787   2.856   4.939
 8249SOL    HW125646   1.835   2.783   4.890
 8249SOL    HW225647   1.852   2.911   4.990
 8250SOL     OW25648   3.207   3.768   1.711
 8250SOL    HW125649   3.240   3.802   1.623
 8250SOL    HW225650   3.279   3.715   1.754
 8251SOL     OW25651   5.574   3.566   3.898
 8251SOL    HW125652   5.672   3.583   3.913
 8251SOL    HW225653   5.534   3.531   3.983
 8252SOL     OW25654   2.827   1.660   5.587
 8252SOL    HW125655   2.770   1.689   5.510
 8252SOL    HW225656   2.862   1.568   5.569
 8253SOL     OW25657   4.266   4.824   5.297
 8253SOL    HW125658   4.168   4.808   5.295
 8253SOL    HW225659   4.284   4.921   5.315
 8254SOL     OW25660   4.718   4.578   5.129
 8254SOL    HW125661   4.682   4.640   5.199
 8254SOL    HW225662   4.806   4.612   5.097
 8255SOL     OW25663   2.255   7.003   5.115
 8255SOL    HW125664   2.309   6.948   5.051
 8255SOL    HW225665   2.260   0.082   5.088
 8256SOL     OW25666   6.529   6.694   2.260
 8256SOL    HW125667   6.553   6.783   2.222
 8256SOL    HW225668   6.492   6.636   2.187
 8257SOL     OW25669   6.128   3.573   3.373
 8257SOL    HW125670   6.093   3.489   3.414
 8257SOL    HW225671   6.098   3.578   3.278
 8258SOL     OW25672   5.590   2.095   0.402
 8258SOL    HW125673   5.526   2.068   0.330
 8258SOL    HW225674   5.541   2.151   0.470
 8259SOL     OW25675   3.969   1.985   3.582
 8259SOL    HW125676   3.983   2.084   3.572
 8259SOL    HW225677   4.035   1.949   3.648
 8260SOL     OW25678   2.962   6.421   1.429
 8260SOL    HW125679   2.967   6.336   1.377
 8260SOL    HW225680   2.872   6.427   1.473
 8261SOL     OW25681   5.687   0.478   2.045
 8261SOL    HW125682   5.603   0.442   2.084
 8261SOL    HW225683   5.766   0.438   2.092
 8262SOL     OW25684   0.344   2.989   0.004
 8262SOL    HW125685   0.332   3.059   0.074
 8262SOL    HW225686   0.365   3.032   6.934
 8263SOL     OW25687   1.269   2.368   6.913
 8263SOL    HW125688   1.352   2.370   6.856
 8263SOL    HW225689   1.267   2.450   6.970
 8264SOL     OW25690   3.000   6.256   3.002
 8264SOL    HW125691   3.094   6.248   3.036
 8264SOL    HW225692   2.941   6.286   3.077
 8265SOL     OW25693   0.272   6.998   0.902
 8265SOL    HW125694   0.217   0.015   0.979
 8265SOL    HW225695   0.360   0.028   0.901
 8266SOL     OW25696   2.287   1.169   3.064
 8266SOL    HW125697   2.305   1.268   3.063
 8266SOL    HW225698   2.197   1.151   3.024
 8267SOL     OW25699   1.207   2.966   1.680
 8267SOL    HW125700   1.254   2.886   1.641
 8267SOL    HW225701   1.266   3.011   1.746
 8268SOL     OW25702   2.072   6.193   5.944
 8268SOL    HW125703   2.124   6.170   6.026
 8268SOL    HW225704   2.134   6.196   5.865
 8269SOL     OW25705   4.089   1.940   2.021
 8269SOL    HW125706   4.073   2.038   2.009
 8269SOL    HW225707   4.163   1.926   2.086
 8270SOL     OW25708   2.855   6.913   5.372
 8270SOL    HW125709   2.920   6.946   5.441
 8270SOL    HW225710   2.875   6.818   5.350
 8271SOL     OW25711   0.389   0.571   3.067
 8271SOL    HW125712   0.355   0.512   2.994
 8271SOL    HW225713   0.365   0.666   3.047
 8272SOL     OW25714   5.182   1.926   2.296
 8272SOL    HW125715   5.222   1.927   2.205
 8272SOL    HW225716   5.213   2.007   2.347
 8273SOL     OW25717   3.043   0.971   0.248
 8273SOL    HW125718   2.949   0.956   0.279
 8273SOL    HW225719   3.082   0.884   0.217
 8274SOL     OW25720   5.362   5.082   4.020
 8274SOL    HW125721   5.380   5.154   4.086
 8274SOL    HW225722   5.283   5.028   4.050
 8275SOL     OW25723   5.260   1.442   5.498
 8275SOL    HW125724   5.338   1.497   5.527
 8275SOL    HW225725   5.264   1.352   5.543
 8276SOL     OW25726   0.634   2.211   3.579
 8276SOL    HW125727   0.721   2.227   3.533
 8276SOL    HW225728   0.625   2.114   3.602
 8277SOL     OW25729   0.240   6.578   0.020
 8277SOL    HW125730   0.231   6.491   6.988
 8277SOL    HW225731   0.151   6.623   0.026
 8278SOL     OW25732   2.806   2.314   5.558
 8278SOL    HW125733   2.801   2.414   5.564
 8278SOL    HW225734   2.812   2.287   5.462
 8279SOL     OW25735   1.633   6.682   4.723
 8279SOL    HW125736   1.692   6.761   4.741
 8279SOL    HW225737   1.689   6.601   4.707
 8280SOL     OW25738   2.354   4.099   0.982
 8280SOL    HW125739   2.433   4.144   1.024
 8280SOL    HW225740   2.375   4.079   0.886
 8281SOL     OW25741   3.132   4.589   1.705
 8281SOL    HW125742   3.168   4.557   1.618
 8281SOL    HW225743   3.061   4.526   1.737
 8282SOL     OW25744   4.499   3.464   0.045
 8282SOL    HW125745   4.548   3.423   0.122
 8282SOL    HW225746   4.564   3.479   6.987
 8283SOL     OW25747   1.514   5.416   5.998
 8283SOL    HW125748   1.500   5.351   5.924
 8283SOL    HW225749   1.597   5.392   6.048
 8284SOL     OW25750   0.964   3.957   1.309
 8284SOL    HW125751   1.027   3.938   1.384
 8284SOL    HW225752   1.009   4.014   1.240
 8285SOL     OW25753   3.303   4.114   4.347
 8285SOL    HW125754   3.272   4.130   4.441
 8285SOL    HW225755   3.287   4.018   4.323
 8286SOL     OW25756   5.770   2.426   6.255
 8286SOL    HW125757   5.706   2.453   6.326
 8286SOL    HW225758   5.851   2.485   6.258
 8287SOL     OW25759   1.681   5.259   4.069
 8287SOL    HW125760   1.694   5.160   4.060
 8287SOL    HW225761   1.767   5.305   4.051
 8288SOL     OW25762   3.392   2.072   1.480
 8288SOL    HW125763   3.299   2.083   1.517
 8288SOL    HW225764   3.448   2.020   1.546
 8289SOL     OW25765   0.572   5.428   0.907
 8289SOL    HW125766   0.522   5.460   0.988
 8289SOL    HW225767   0.550   5.332   0.890
 8290SOL     OW25768   6.065   1.386   1.518
 8290SOL    HW125769   6.057   1.466   1.577
 8290SOL    HW225770   5.998   1.391   1.444
 8291SOL     OW25771   5.125   6.381   5.407
 8291SOL    HW125772   5.042   6.325   5.409
 8291SOL    HW225773   5.107   6.465   5.357
 8292SOL     OW25774   2.699   6.477   6.786
 8292SOL    HW125775   2.652   6.561   6.810
 8292SOL    HW225776   2.794   6.481   6.816
 8293SOL     OW25777   3.304   5.858   0.328
 8293SOL    HW125778   3.314   5.950   0.289
 8293SOL    HW225779   3.282   5.794   0.254
 8294SOL     OW25780   5.334   4.063   5.180
 8294SOL    HW125781   5.261   4.003   5.149
 8294SOL    HW225782   5.410   4.009   5.215
 8295SOL     OW25783   5.329   5.097   1.828
 8295SOL    HW125784   5.395   5.172   1.830
 8295SOL    HW225785   5.335   5.051   1.739
 8296SOL     OW25786   1.355   4.979   6.418
 8296SOL    HW125787   1.359   4.984   6.318
 8296SOL    HW225788   1.362   5.071   6.456
 8297SOL     OW25789   6.531   2.751   2.487
 8297SOL    HW125790   6.585   2.741   2.403
 8297SOL    HW225791   6.459   2.818   2.473
 8298SOL     OW25792   6.801   1.327   1.204
 8298SOL    HW125793   6.879   1.271   1.230
 8298SOL    HW225794   6.792   1.404   1.267
 8299SOL     OW25795   6.612   2.978   1.397
 8299SOL    HW125796   6.516   2.952   1.385
 8299SOL    HW225797   6.654   2.918   1.465
 8300SOL     OW25798   0.178   5.702   4.930
 8300SOL    HW125799   0.220   5.756   5.003
 8300SOL    HW225800   0.221   5.725   4.843
 8301SOL     OW25801   3.960   1.613   1.384
 8301SOL    HW125802   4.022   1.675   1.335
 8301SOL    HW225803   3.866   1.646   1.374
 8302SOL     OW25804   5.844   6.775   6.921
 8302SOL    HW125805   5.830   6.791   0.001
 8302SOL    HW225806   5.775   6.711   6.888
 8303SOL     OW25807   6.511   0.571   3.925
 8303SOL    HW125808   6.537   0.629   3.848
 8303SOL    HW225809   6.417   0.541   3.914
 8304SOL     OW25810   0.295   3.715   0.559
 8304SOL    HW125811   0.353   3.708   0.478
 8304SOL    HW225812   0.212   3.661   0.545
 8305SOL     OW25813   4.777   5.002   4.393
 8305SOL    HW125814   4.834   4.922   4.373
 8305SOL    HW225815   4.807   5.044   4.479
 8306SOL     OW25816   6.874   2.596   6.331
 8306SOL    HW125817   6.914   2.687   6.334
 8306SOL    HW225818   6.774   2.604   6.339
 8307SOL     OW25819   3.787   5.394   1.678
 8307SOL    HW125820   3.710   5.407   1.740
 8307SOL    HW225821   3.774   5.452   1.597
 8308SOL     OW25822   3.714   5.583   1.454
 8308SOL    HW125823   3.629   5.634   1.441
 8308SOL    HW225824   3.792   5.638   1.424
 8309SOL     OW25825   6.899   4.951   3.893
 8309SOL    HW125826   6.886   4.928   3.797
 8309SOL    HW225827   6.976   5.014   3.902
 8310SOL     OW25828   7.001   4.863   0.683
 8310SOL    HW125829   0.059   4.878   0.619
 8310SOL    HW225830   6.920   4.833   0.634
 8311SOL     OW25831   0.766   1.488   4.372
 8311SOL    HW125832   0.842   1.461   4.433
 8311SOL    HW225833   0.781   1.449   4.281
 8312SOL     OW25834   5.072   0.339   6.875
 8312SOL    HW125835   4.976   0.316   6.860
 8312SOL    HW225836   5.089   0.434   6.846
 8313SOL     OW25837   5.190   0.461   1.438
 8313SOL    HW125838   5.287   0.474   1.458
 8313SOL    HW225839   5.180   0.425   1.345
 8314SOL     OW25840   4.757   0.683   0.215
 8314SOL    HW125841   4.768   0.668   0.117
 8314SOL    HW225842   4.661   0.669   0.240
 8315SOL     OW25843   4.241   2.803   1.355
 8315SOL    HW125844   4.239   2.894   1.396
 8315SOL    HW225845   4.329   2.789   1.309
 8316SOL     OW25846   0.588   2.484   2.120
 8316SOL    HW125847   0.607   2.525   2.210
 8316SOL    HW225848   0.668   2.432   2.089
 8317SOL     OW25849   1.862   2.915   2.558
 8317SOL    HW125850   1.844   3.006   2.596
 8317SOL    HW225851   1.857   2.919   2.459
 8318SOL     OW25852   4.583   1.252   4.708
 8318SOL    HW125853   4.568   1.161   4.746
 8318SOL    HW225854   4.576   1.249   4.608
 8319SOL     OW25855   2.095   2.013   6.949
 8319SOL    HW125856   2.007   1.969   6.966
 8319SOL    HW225857   2.140   1.968   6.872
 8320SOL     OW25858   3.178   3.347   1.517
 8320SOL    HW125859   3.140   3.361   1.426
 8320SOL    HW225860   3.159   3.428   1.574
 8321SOL     OW25861   6.836   0.641   6.875
 8321SOL    HW125862   6.768   0.707   6.843
 8321SOL    HW225863   6.928   0.672   6.850
 8322SOL     OW25864   6.613   6.827   0.836
 8322SOL    HW125865   6.667   6.774   0.902
 8322SOL    HW225866   6.647   6.921   0.835
 8323SOL     OW25867   5.380   5.790   2.460
 8323SOL    HW125868   5.410   5.871   2.510
 8323SOL    HW225869   5.409   5.708   2.510
 8324SOL     OW25870   5.423   6.633   1.384
 8324SOL    HW125871   5.376   6.715   1.417
 8324SOL    HW225872   5.365   6.586   1.318
 8325SOL     OW25873   2.905   3.915   5.636
 8325SOL    HW125874   2.832   3.950   5.695
 8325SOL    HW225875   2.926   3.820   5.662
 8326SOL     OW25876   5.099   3.731   5.582
 8326SOL    HW125877   5.190   3.733   5.541
 8326SOL    HW225878   5.090   3.649   5.638
 8327SOL     OW25879   6.457   1.279   6.421
 8327SOL    HW125880   6.417   1.211   6.483
 8327SOL    HW225881   6.548   1.249   6.393
 8328SOL     OW25882   2.841   5.853   5.590
 8328SOL    HW125883   2.775   5.797   5.640
 8328SOL    HW225884   2.793   5.926   5.542
 8329SOL     OW25885   0.621   3.076   6.111
 8329SOL    HW125886   0.542   3.110   6.059
 8329SOL    HW225887   0.702   3.129   6.087
 8330SOL     OW25888   3.126   1.202   0.657
 8330SOL    HW125889   3.165   1.276   0.603
 8330SOL    HW225890   3.040   1.231   0.698
 8331SOL     OW25891   3.402   1.206   1.715
 8331SOL    HW125892   3.491   1.211   1.759
 8331SOL    HW225893   3.347   1.286   1.741
 8332SOL     OW25894   5.187   5.513   2.749
 8332SOL    HW125895   5.116   5.461   2.701
 8332SOL    HW225896   5.277   5.476   2.727
 8333SOL     OW25897   0.358   6.605   6.167
 8333SOL    HW125898   0.296   6.601   6.088
 8333SOL    HW225899   0.326   6.541   6.237
 8334SOL     OW25900   3.725   1.691   3.705
 8334SOL    HW125901   3.799   1.744   3.665
 8334SOL    HW225902   3.650   1.682   3.639
 8335SOL     OW25903   5.981   6.357   6.870
 8335SOL    HW125904   6.075   6.345   6.839
 8335SOL    HW225905   5.973   6.329   6.966
 8336SOL     OW25906   6.762   5.741   3.305
 8336SOL    HW125907   6.769   5.723   3.207
 8336SOL    HW225908   6.679   5.794   3.323
 8337SOL     OW25909   1.785   6.394   2.460
 8337SOL    HW125910   1.839   6.325   2.411
 8337SOL    HW225911   1.793   6.379   2.558
 8338SOL     OW25912   2.871   5.229   1.716
 8338SOL    HW125913   2.940   5.158   1.701
 8338SOL    HW225914   2.916   5.318   1.724
 8339SOL     OW25915   5.699   0.487   1.349
 8339SOL    HW125916   5.622   0.527   1.299
 8339SOL    HW225917   5.764   0.447   1.284
 8340SOL     OW25918   5.099   2.734   1.732
 8340SOL    HW125919   5.052   2.746   1.645
 8340SOL    HW225920   5.034   2.747   1.807
 8341SOL     OW25921   2.324   6.333   0.240
 8341SOL    HW125922   2.241   6.295   0.199
 8341SOL    HW225923   2.317   6.432   0.244
 8342SOL     OW25924   4.574   6.676   1.925
 8342SOL    HW125925   4.550   6.731   1.845
 8342SOL    HW225926   4.654   6.716   1.970
 8343SOL     OW25927   1.417   5.301   5.390
 8343SOL    HW125928   1.376   5.315   5.300
 8343SOL    HW225929   1.350   5.257   5.450
 8344SOL     OW25930   4.739   6.560   5.203
 8344SOL    HW125931   4.654   6.549   5.150
 8344SOL    HW225932   4.787   6.642   5.170
 8345SOL     OW25933   4.515   1.231   3.300
 8345SOL    HW125934   4.511   1.240   3.200
 8345SOL    HW225935   4.581   1.160   3.324
 8346SOL     OW25936   3.298   4.665   0.863
 8346SOL    HW125937   3.376   4.695   0.918
 8346SOL    HW225938   3.248   4.746   0.830
 8347SOL     OW25939   3.461   5.623   4.703
 8347SOL    HW125940   3.506   5.543   4.743
 8347SOL    HW225941   3.388   5.593   4.642
 8348SOL     OW25942   2.277   0.418   2.331
 8348SOL    HW125943   2.203   0.353   2.347
 8348SOL    HW225944   2.252   0.479   2.256
 8349SOL     OW25945   5.966   6.687   1.772
 8349SOL    HW125946   5.913   6.739   1.840
 8349SOL    HW225947   5.948   6.724   1.681
 8350SOL     OW25948   4.587   0.226   5.253
 8350SOL    HW125949   4.640   0.226   5.338
 8350SOL    HW225950   4.502   0.276   5.268
 8351SOL     OW25951   5.126   4.618   4.556
 8351SOL    HW125952   5.226   4.625   4.559
 8351SOL    HW225953   5.087   4.651   4.641
 8352SOL     OW25954   0.357   6.738   3.078
 8352SOL    HW125955   0.303   6.749   2.995
 8352SOL    HW225956   0.393   6.828   3.106
 8353SOL     OW25957   6.989   3.593   1.391
 8353SOL    HW125958   6.971   3.495   1.383
 8353SOL    HW225959   6.912   3.644   1.354
 8354SOL     OW25960   4.076   6.986   6.641
 8354SOL    HW125961   3.986   7.016   6.672
 8354SOL    HW225962   4.120   6.931   6.713
 8355SOL     OW25963   2.859   0.763   6.981
 8355SOL    HW125964   2.938   0.825   6.980
 8355SOL    HW225965   2.789   0.799   6.919
 8356SOL     OW25966   1.608   6.236   1.154
 8356SOL    HW125967   1.608   6.261   1.251
 8356SOL    HW225968   1.515   6.219   1.123
 8357SOL     OW25969   3.888   0.064   4.959
 8357SOL    HW125970   3.836   0.035   5.039
 8357SOL    HW225971   3.909   7.001   4.903
 8358SOL     OW25972   1.021   4.166   5.861
 8358SOL    HW125973   1.069   4.252   5.847
 8358SOL    HW225974   1.080   4.090   5.834
 8359SOL     OW25975   2.948   0.848   5.142
 8359SOL    HW125976   2.895   0.774   5.101
 8359SOL    HW225977   3.039   0.851   5.102
 8360SOL     OW25978   3.300   6.011   1.616
 8360SOL    HW125979   3.393   6.039   1.592
 8360SOL    HW225980   3.235   6.065   1.563
 8361SOL     OW25981   3.026   0.005   2.564
 8361SOL    HW125982   3.041   0.083   2.503
 8361SOL    HW225983   2.934   0.011   2.604
 8362SOL     OW25984   3.181   2.297   0.646
 8362SOL    HW125985   3.214   2.376   0.699
 8362SOL    HW225986   3.139   2.231   0.709
 8363SOL     OW25987   0.701   2.886   6.534
 8363SOL    HW125988   0.790   2.881   6.490
 8363SOL    HW225989   0.635   2.829   6.485
 8364SOL     OW25990   0.924   3.435   2.819
 8364SOL    HW125991   0.962   3.451   2.910
 8364SOL    HW225992   0.824   3.430   2.824
 8365SOL     OW25993   2.234   4.038   1.862
 8365SOL    HW125994   2.264   3.959   1.914
 8365SOL    HW225995   2.271   4.121   1.904
 8366SOL     OW25996   2.587   5.708   2.043
 8366SOL    HW125997   2.602   5.803   2.072
 8366SOL    HW225998   2.571   5.705   1.945
 8367SOL     OW25999   3.845   6.280   3.652
 8367SOL    HW126000   3.753   6.289   3.612
 8367SOL    HW226001   3.844   6.315   3.745
 8368SOL     OW26002   2.335   6.738   6.975
 8368SOL    HW126003   2.260   6.706   0.016
 8368SOL    HW226004   2.343   6.838   6.983
 8369SOL     OW26005   2.077   6.810   6.739
 8369SOL    HW126006   2.026   6.880   6.789
 8369SOL    HW226007   2.074   6.724   6.790
 8370SOL     OW26008   2.644   1.762   5.405
 8370SOL    HW126009   2.604   1.688   5.351
 8370SOL    HW226010   2.634   1.848   5.356
 8371SOL     OW26011   2.168   4.045   1.176
 8371SOL    HW126012   2.215   4.033   1.089
 8371SOL    HW226013   2.176   4.140   1.206
 8372SOL     OW26014   0.684   5.138   2.370
 8372SOL    HW126015   0.649   5.231   2.373
 8372SOL    HW226016   0.620   5.076   2.416
 8373SOL     OW26017   1.500   0.263   3.644
 8373SOL    HW126018   1.405   0.268   3.676
 8373SOL    HW226019   1.531   0.168   3.649
 8374SOL     OW26020   6.880   1.323   5.480
 8374SOL    HW126021   6.925   1.412   5.477
 8374SOL    HW226022   6.943   1.252   5.448
 8375SOL     OW26023   4.081   6.676   5.113
 8375SOL    HW126024   4.154   6.720   5.163
 8375SOL    HW226025   4.110   6.660   5.018
 8376SOL     OW26026   1.794   0.410   4.116
 8376SOL    HW126027   1.835   0.501   4.119
 8376SOL    HW226028   1.835   0.358   4.041
 8377SOL     OW26029   5.341   6.148   1.522
 8377SOL    HW126030   5.256   6.107   1.556
 8377SOL    HW226031   5.419   6.091   1.550
 8378SOL     OW26032   4.169   4.794   2.567
 8378SOL    HW126033   4.266   4.772   2.569
 8378SOL    HW226034   4.141   4.828   2.657
 8379SOL     OW26035   5.766   2.154   1.078
 8379SOL    HW126036   5.799   2.201   0.997
 8379SOL    HW226037   5.688   2.205   1.116
 8380SOL     OW26038   7.003   0.736   2.268
 8380SOL    HW126039   7.013   0.782   2.356
 8380SOL    HW226040   0.038   0.651   2.268
 8381SOL     OW26041   0.097   3.014   4.976
 8381SOL    HW126042   0.006   3.032   5.015
 8381SOL    HW226043   0.093   3.019   4.877
 8382SOL     OW26044   2.727   0.930   2.486
 8382SOL    HW126045   2.766   0.998   2.547
 8382SOL    HW226046   2.703   0.974   2.399
 8383SOL     OW26047   2.163   0.329   6.074
 8383SOL    HW126048   2.209   0.321   6.162
 8383SOL    HW226049   2.196   0.410   6.026
 8384SOL     OW26050   6.969   0.714   0.662
 8384SOL    HW126051   6.924   0.786   0.716
 8384SOL    HW226052   6.928   0.626   0.685
 8385SOL     OW26053   6.681   1.809   1.304
 8385SOL    HW126054   6.777   1.804   1.329
 8385SOL    HW226055   6.633   1.871   1.367
 8386SOL     OW26056   1.380   4.731   1.888
 8386SOL    HW126057   1.325   4.653   1.858
 8386SOL    HW226058   1.358   4.810   1.831
 8387SOL     OW26059   2.119   0.938   2.103
 8387SOL    HW126060   2.072   0.893   2.179
 8387SOL    HW226061   2.076   0.911   2.016
 8388SOL     OW26062   2.357   6.353   0.499
 8388SOL    HW126063   2.350   6.336   0.401
 8388SOL    HW226064   2.444   6.398   0.520
 8389SOL     OW26065   6.602   2.928   3.068
 8389SOL    HW126066   6.510   2.954   3.096
 8389SOL    HW226067   6.628   2.978   2.985
 8390SOL     OW26068   3.782   1.406   5.920
 8390SOL    HW126069   3.725   1.448   5.850
 8390SOL    HW226070   3.803   1.473   5.991
 8391SOL     OW26071   6.578   5.171   0.818
 8391SOL    HW126072   6.658   5.113   0.832
 8391SOL    HW226073   6.533   5.188   0.906
 8392SOL     OW26074   6.421   3.546   4.604
 8392SOL    HW126075   6.392   3.457   4.637
 8392SOL    HW226076   6.356   3.580   4.536
 8393SOL     OW26077   0.070   0.203   3.018
 8393SOL    HW126078   0.049   0.112   2.984
 8393SOL    HW226079   7.010   0.264   3.001
 8394SOL     OW26080   6.479   2.401   0.763
 8394SOL    HW126081   6.408   2.445   0.818
 8394SOL    HW226082   6.437   2.331   0.705
 8395SOL     OW26083   3.090   6.776   5.596
 8395SOL    HW126084   3.098   6.820   5.507
 8395SOL    HW226085   2.997   6.743   5.610
 8396SOL     OW26086   4.823   5.276   3.505
 8396SOL    HW126087   4.901   5.248   3.450
 8396SOL    HW226088   4.816   5.216   3.585
 8397SOL     OW26089   1.368   0.800   2.616
 8397SOL    HW126090   1.348   0.706   2.643
 8397SOL    HW226091   1.457   0.804   2.570
 8398SOL     OW26092   3.851   2.246   6.194
 8398SOL    HW126093   3.944   2.210   6.188
 8398SOL    HW226094   3.853   2.335   6.240
 8399SOL     OW26095   5.703   6.993   6.664
 8399SOL    HW126096   5.770   0.018   6.603
 8399SOL    HW226097   5.747   6.968   6.750
 8400SOL     OW26098   1.901   0.659   4.154
 8400SOL    HW126099   1.857   0.707   4.230
 8400SOL    HW226100   1.998   0.682   4.153
 8401SOL     OW26101   2.741   1.238   5.355
 8401SOL    HW126102   2.651   1.195   5.362
 8401SOL    HW226103   2.811   1.167   5.350
 8402SOL     OW26104   5.005   1.780   6.542
 8402SOL    HW126105   5.105   1.785   6.543
 8402SOL    HW226106   4.976   1.703   6.486
 8403SOL     OW26107   6.955   3.410   4.241
 8403SOL    HW126108   6.973   3.332   4.181
 8403SOL    HW226109   7.014   3.487   4.215
 8404SOL     OW26110   4.006   6.532   5.997
 8404SOL    HW126111   3.978   6.620   6.035
 8404SOL    HW226112   4.020   6.542   5.898
 8405SOL     OW26113   2.057   1.183   5.632
 8405SOL    HW126114   2.144   1.231   5.618
 8405SOL    HW226115   2.000   1.234   5.695
 8406SOL     OW26116   4.119   0.562   0.467
 8406SOL    HW126117   4.065   0.498   0.412
 8406SOL    HW226118   4.207   0.578   0.423
 8407SOL     OW26119   3.574   6.434   3.004
 8407SOL    HW126120   3.543   6.340   2.988
 8407SOL    HW226121   3.539   6.466   3.092
 8408SOL     OW26122   5.370   4.486   1.319
 8408SOL    HW126123   5.336   4.436   1.398
 8408SOL    HW226124   5.411   4.422   1.254
 8409SOL     OW26125   4.840   1.618   3.151
 8409SOL    HW126126   4.932   1.597   3.186
 8409SOL    HW226127   4.772   1.567   3.203
 8410SOL     OW26128   5.966   0.930   1.767
 8410SOL    HW126129   5.946   0.967   1.858
 8410SOL    HW226130   5.883   0.890   1.728
 8411SOL     OW26131   0.843   5.535   0.120
 8411SOL    HW126132   0.904   5.519   0.043
 8411SOL    HW226133   0.764   5.588   0.090
 8412SOL     OW26134   3.319   2.475   1.057
 8412SOL    HW126135   3.371   2.394   1.086
 8412SOL    HW226136   3.320   2.543   1.130
 8413SOL     OW26137   5.095   5.675   6.782
 8413SOL    HW126138   5.079   5.592   6.836
 8413SOL    HW226139   5.190   5.677   6.751
 8414SOL     OW26140   3.425   6.817   3.672
 8414SOL    HW126141   3.492   6.820   3.598
 8414SOL    HW226142   3.390   6.724   3.680
 8415SOL     OW26143   0.949   5.686   4.554
 8415SOL    HW126144   0.889   5.663   4.630
 8415SOL    HW226145   1.024   5.743   4.587
 8416SOL     OW26146   6.463   2.131   3.251
 8416SOL    HW126147   6.553   2.139   3.294
 8416SOL    HW226148   6.402   2.201   3.287
 8417SOL     OW26149   0.780   3.203   5.754
 8417SOL    HW126150   0.863   3.179   5.805
 8417SOL    HW226151   0.797   3.285   5.699
 8418SOL     OW26152   6.180   5.604   1.338
 8418SOL    HW126153   6.147   5.693   1.309
 8418SOL    HW226154   6.119   5.566   1.408
 8419SOL     OW26155   5.689   0.270   1.853
 8419SOL    HW126156   5.690   0.370   1.854
 8419SOL    HW226157   5.741   0.237   1.775
 8420SOL     OW26158   4.081   0.456   0.965
 8420SOL    HW126159   4.150   0.441   1.037
 8420SOL    HW226160   4.113   0.529   0.905
 8421SOL     OW26161   3.401   5.293   0.112
 8421SOL    HW126162   3.348   5.340   0.182
 8421SOL    HW226163   3.473   5.354   0.078
 8422SOL     OW26164   4.175   1.441   2.164
 8422SOL    HW126165   4.120   1.358   2.165
 8422SOL    HW226166   4.168   1.484   2.074
 8423SOL     OW26167   3.317   4.669   5.664
 8423SOL    HW126168   3.265   4.730   5.604
 8423SOL    HW226169   3.314   4.704   5.758
 8424SOL     OW26170   1.509   2.166   2.622
 8424SOL    HW126171   1.568   2.089   2.599
 8424SOL    HW226172   1.557   2.252   2.602
 8425SOL     OW26173   4.315   4.193   6.103
 8425SOL    HW126174   4.414   4.206   6.102
 8425SOL    HW226175   4.286   4.169   6.196
 8426SOL     OW26176   3.868   3.316   2.801
 8426SOL    HW126177   3.786   3.271   2.765
 8426SOL    HW226178   3.895   3.272   2.887
 8427SOL     OW26179   3.758   3.917   3.658
 8427SOL    HW126180   3.712   3.894   3.744
 8427SOL    HW226181   3.739   4.013   3.635
 8428SOL     OW26182   0.619   5.965   1.264
 8428SOL    HW126183   0.519   5.971   1.276
 8428SOL    HW226184   0.649   5.871   1.279
 8429SOL     OW26185   1.556   5.554   5.577
 8429SOL    HW126186   1.489   5.484   5.551
 8429SOL    HW226187   1.541   5.636   5.521
 8430SOL     OW26188   3.658   5.154   4.021
 8430SOL    HW126189   3.601   5.233   4.045
 8430SOL    HW226190   3.600   5.075   4.001
 8431SOL     OW26191   3.860   3.396   0.638
 8431SOL    HW126192   3.932   3.400   0.568
 8431SOL    HW226193   3.818   3.306   0.637
 8432SOL     OW26194   6.004   5.838   5.102
 8432SOL    HW126195   5.954   5.803   5.181
 8432SOL    HW226196   5.972   5.792   5.019
 8433SOL     OW26197   4.354   2.978   0.237
 8433SOL    HW126198   4.349   3.064   0.186
 8433SOL    HW226199   4.309   2.989   0.326
 8434SOL     OW26200   2.647   0.612   4.692
 8434SOL    HW126201   2.736   0.572   4.668
 8434SOL    HW226202   2.661   0.695   4.746
 8435SOL     OW26203   6.035   0.444   2.010
 8435SOL    HW126204   5.982   0.508   1.954
 8435SOL    HW226205   6.061   0.365   1.955
 8436SOL     OW26206   3.168   6.538   3.163
 8436SOL    HW126207   3.106   6.467   3.196
 8436SOL    HW226208   3.157   6.548   3.064
 8437SOL     OW26209   2.214   1.363   3.894
 8437SOL    HW126210   2.149   1.439   3.897
 8437SOL    HW226211   2.304   1.395   3.925
 8438SOL     OW26212   2.003   4.238   3.057
 8438SOL    HW126213   2.082   4.244   3.117
 8438SOL    HW226214   2.005   4.151   3.008
 8439SOL     OW26215   6.229   4.832   2.805
 8439SOL    HW126216   6.265   4.739   2.806
 8439SOL    HW226217   6.242   4.872   2.714
 8440SOL     OW26218   2.727   1.636   3.457
 8440SOL    HW126219   2.809   1.652   3.401
 8440SOL    HW226220   2.693   1.722   3.492
 8441SOL     OW26221   5.445   6.939   0.232
 8441SOL    HW126222   5.431   6.860   0.173
 8441SOL    HW226223   5.526   6.989   0.202
 8442SOL     OW26224   3.691   2.198   5.576
 8442SOL    HW126225   3.630   2.147   5.515
 8442SOL    HW226226   3.750   2.258   5.523
 8443SOL     OW26227   2.456   4.878   3.668
 8443SOL    HW126228   2.458   4.916   3.761
 8443SOL    HW226229   2.379   4.917   3.618
 8444SOL     OW26230   2.999   6.528   4.248
 8444SOL    HW126231   3.017   6.617   4.207
 8444SOL    HW226232   3.006   6.535   4.347
 8445SOL     OW26233   2.815   0.732   1.168
 8445SOL    HW126234   2.864   0.691   1.092
 8445SOL    HW226235   2.723   0.693   1.174
 8446SOL     OW26236   5.442   5.414   5.944
 8446SOL    HW126237   5.399   5.439   5.857
 8446SOL    HW226238   5.495   5.492   5.978
 8447SOL     OW26239   4.403   1.598   2.181
 8447SOL    HW126240   4.311   1.570   2.156
 8447SOL    HW226241   4.469   1.540   2.132
 8448SOL     OW26242   3.930   6.000   3.887
 8448SOL    HW126243   3.855   6.065   3.897
 8448SOL    HW226244   3.924   5.932   3.960
 8449SOL     OW26245   0.185   3.677   3.651
 8449SOL    HW126246   0.245   3.682   3.731
 8449SOL    HW226247   0.237   3.643   3.573
 8450SOL     OW26248   0.926   0.696   1.380
 8450SOL    HW126249   0.908   0.754   1.300
 8450SOL    HW226250   0.848   0.635   1.394
 8451SOL     OW26251   3.422   1.769   7.016
 8451SOL    HW126252   3.337   1.726   0.027
 8451SOL    HW226253   3.416   1.796   6.920
 8452SOL     OW26254   6.170   2.935   3.750
 8452SOL    HW126255   6.079   2.922   3.712
 8452SOL    HW226256   6.164   2.955   3.848
 8453SOL     OW26257   0.215   4.873   0.047
 8453SOL    HW126258   0.150   4.870   0.123
 8453SOL    HW226259   0.281   4.946   0.063
 8454SOL     OW26260   0.129   5.648   1.357
 8454SOL    HW126261   0.119   5.566   1.413
 8454SOL    HW226262   0.093   5.727   1.406
 8455SOL     OW26263   0.269   1.812   1.960
 8455SOL    HW126264   0.277   1.839   1.864
 8455SOL    HW226265   0.340   1.860   2.013
 8456SOL     OW26266   4.719   6.300   3.368
 8456SOL    HW126267   4.785   6.282   3.295
 8456SOL    HW226268   4.626   6.291   3.331
 8457SOL     OW26269   0.246   6.566   4.342
 8457SOL    HW126270   0.214   6.613   4.260
 8457SOL    HW226271   0.189   6.592   4.420
 8458SOL     OW26272   2.827   0.787   0.481
 8458SOL    HW126273   2.838   0.887   0.485
 8458SOL    HW226274   2.810   0.759   0.386
 8459SOL     OW26275   2.844   5.631   2.061
 8459SOL    HW126276   2.897   5.656   2.142
 8459SOL    HW226277   2.747   5.648   2.077
 8460SOL     OW26278   4.582   4.273   5.218
 8460SOL    HW126279   4.664   4.283   5.275
 8460SOL    HW226280   4.604   4.219   5.137
 8461SOL     OW26281   0.707   3.349   4.657
 8461SOL    HW126282   0.792   3.388   4.621
 8461SOL    HW226283   0.661   3.418   4.713
 8462SOL     OW26284   1.939   2.634   6.666
 8462SOL    HW126285   1.990   2.625   6.752
 8462SOL    HW226286   1.975   2.712   6.614
 8463SOL     OW26287   0.089   0.362   1.771
 8463SOL    HW126288   0.015   0.427   1.755
 8463SOL    HW226289   0.108   0.356   1.869
 8464SOL     OW26290   5.588   4.172   4.483
 8464SOL    HW126291   5.580   4.159   4.582
 8464SOL    HW226292   5.642   4.254   4.465
 8465SOL     OW26293   0.884   3.299   0.679
 8465SOL    HW126294   0.908   3.376   0.737
 8465SOL    HW226295   0.967   3.255   0.645
 8466SOL     OW26296   0.615   6.808   4.590
 8466SOL    HW126297   0.531   6.760   4.615
 8466SOL    HW226298   0.677   6.745   4.544
 8467SOL     OW26299   3.275   6.241   0.592
 8467SOL    HW126300   3.239   6.292   0.671
 8467SOL    HW226301   3.374   6.254   0.586
 8468SOL     OW26302   3.303   1.725   0.365
 8468SOL    HW126303   3.303   1.825   0.367
 8468SOL    HW226304   3.290   1.694   0.271
 8469SOL     OW26305   3.878   2.503   6.872
 8469SOL    HW126306   3.899   2.571   6.942
 8469SOL    HW226307   3.865   2.413   6.916
 8470SOL     OW26308   1.293   3.545   0.422
 8470SOL    HW126309   1.384   3.532   0.383
 8470SOL    HW226310   1.224   3.516   0.356
 8471SOL     OW26311   2.880   1.623   2.582
 8471SOL    HW126312   2.822   1.686   2.531
 8471SOL    HW226313   2.861   1.632   2.679
 8472SOL     OW26314   0.483   0.446   4.398
 8472SOL    HW126315   0.479   0.414   4.303
 8472SOL    HW226316   0.562   0.405   4.443
 8473SOL     OW26317   6.004   4.852   6.609
 8473SOL    HW126318   6.081   4.859   6.545
 8473SOL    HW226319   6.027   4.899   6.694
 8474SOL     OW26320   3.417   3.192   1.999
 8474SOL    HW126321   3.418   3.152   2.091
 8474SOL    HW226322   3.328   3.233   1.982
 8475SOL     OW26323   0.457   1.597   3.390
 8475SOL    HW126324   0.470   1.696   3.393
 8475SOL    HW226325   0.545   1.552   3.375
 8476SOL     OW26326   6.454   1.165   1.355
 8476SOL    HW126327   6.444   1.252   1.306
 8476SOL    HW226328   6.458   1.183   1.453
 8477SOL     OW26329   4.237   6.834   2.576
 8477SOL    HW126330   4.291   6.882   2.645
 8477SOL    HW226331   4.166   6.780   2.620
 8478SOL     OW26332   1.137   0.783   6.219
 8478SOL    HW126333   1.219   0.840   6.211
 8478SOL    HW226334   1.076   0.800   6.141
 8479SOL     OW26335   6.203   2.566   0.996
 8479SOL    HW126336   6.252   2.644   0.956
 8479SOL    HW226337   6.129   2.539   0.935
 8480SOL     OW26338   3.536   0.766   0.077
 8480SOL    HW126339   3.558   0.746   6.999
 8480SOL    HW226340   3.620   0.763   0.132
 8481SOL     OW26341   4.610   1.976   3.940
 8481SOL    HW126342   4.611   1.918   3.859
 8481SOL    HW226343   4.630   1.920   4.021
 8482SOL     OW26344   3.321   6.881   3.236
 8482SOL    HW126345   3.413   6.851   3.211
 8482SOL    HW226346   3.290   6.832   3.317
 8483SOL     OW26347   4.122   5.367   2.102
 8483SOL    HW126348   4.126   5.270   2.076
 8483SOL    HW226349   4.095   5.375   2.198
 8484SOL     OW26350   0.705   5.576   3.144
 8484SOL    HW126351   0.691   5.480   3.120
 8484SOL    HW226352   0.629   5.630   3.109
 8485SOL     OW26353   3.020   3.780   6.808
 8485SOL    HW126354   2.927   3.764   6.773
 8485SOL    HW226355   3.082   3.798   6.731
 8486SOL     OW26356   4.880   1.304   2.599
 8486SOL    HW126357   4.958   1.299   2.662
 8486SOL    HW226358   4.844   1.397   2.598
 8487SOL     OW26359   5.626   0.580   0.179
 8487SOL    HW126360   5.650   0.500   0.124
 8487SOL    HW226361   5.601   0.551   0.271
 8488SOL     OW26362   5.734   4.775   5.109
 8488SOL    HW126363   5.812   4.758   5.169
 8488SOL    HW226364   5.693   4.687   5.082
 8489SOL     OW26365   6.021   0.462   1.488
 8489SOL    HW126366   6.108   0.417   1.470
 8489SOL    HW226367   5.947   0.412   1.443
 8490SOL     OW26368   3.909   6.631   4.114
 8490SOL    HW126369   3.859   6.716   4.131
 8490SOL    HW226370   4.003   6.641   4.148
 8491SOL     OW26371   2.059   0.188   1.623
 8491SOL    HW126372   1.982   0.251   1.614
 8491SOL    HW226373   2.025   0.094   1.623
 8492SOL     OW26374   4.036   4.329   0.062
 8492SOL    HW126375   4.111   4.391   0.040
 8492SOL    HW226376   3.951   4.363   0.021
 8493SOL     OW26377   2.683   2.300   6.208
 8493SOL    HW126378   2.703   2.371   6.141
 8493SOL    HW226379   2.665   2.214   6.161
 8494SOL     OW26380   2.627   4.826   0.517
 8494SOL    HW126381   2.716   4.788   0.544
 8494SOL    HW226382   2.638   4.923   0.495
 8495SOL     OW26383   6.659   3.992   0.401
 8495SOL    HW126384   6.629   4.021   0.310
 8495SOL    HW226385   6.636   4.063   0.468
 8496SOL     OW26386   0.451   2.370   1.610
 8496SOL    HW126387   0.549   2.350   1.623
 8496SOL    HW226388   0.438   2.469   1.613
 8497SOL     OW26389   6.327   0.415   4.230
 8497SOL    HW126390   6.268   0.351   4.182
 8497SOL    HW226391   6.329   0.502   4.181
 8498SOL     OW26392   0.221   6.062   2.767
 8498SOL    HW126393   0.138   6.016   2.799
 8498SOL    HW226394   0.221   6.064   2.667
 8499SOL     OW26395   2.663   5.503   6.938
 8499SOL    HW126396   2.641   5.409   6.913
 8499SOL    HW226397   2.578   5.554   6.952
 8500SOL     OW26398   1.884   0.295   6.042
 8500SOL    HW126399   1.981   0.303   6.018
 8500SOL    HW226400   1.863   0.200   6.063
 8501SOL     OW26401   0.704   3.058   0.612
 8501SOL    HW126402   0.689   3.153   0.585
 8501SOL    HW226403   0.776   3.018   0.557
 8502SOL     OW26404   1.945   5.220   1.410
 8502SOL    HW126405   1.976   5.297   1.355
 8502SOL    HW226406   1.855   5.240   1.448
 8503SOL     OW26407   1.114   6.142   3.362
 8503SOL    HW126408   1.104   6.226   3.310
 8503SOL    HW226409   1.209   6.132   3.391
 8504SOL     OW26410   1.795   5.798   3.836
 8504SOL    HW126411   1.810   5.699   3.834
 8504SOL    HW226412   1.853   5.839   3.906
 8505SOL     OW26413   4.804   3.974   3.887
 8505SOL    HW126414   4.877   4.034   3.921
 8505SOL    HW226415   4.780   3.908   3.958
 8506SOL     OW26416   6.207   1.392   0.298
 8506SOL    HW126417   6.243   1.318   0.241
 8506SOL    HW226418   6.282   1.450   0.329
 8507SOL     OW26419   3.075   1.282   5.632
 8507SOL    HW126420   3.146   1.329   5.684
 8507SOL    HW226421   3.115   1.207   5.580
 8508SOL     OW26422   6.975   2.559   5.022
 8508SOL    HW126423   0.026   2.537   4.952
 8508SOL    HW226424   0.004   2.595   5.103
 8509SOL     OW26425   5.250   1.475   3.729
 8509SOL    HW126426   5.307   1.422   3.666
 8509SOL    HW226427   5.261   1.439   3.822
 8510SOL     OW26428   5.283   4.590   2.991
 8510SOL    HW126429   5.318   4.526   3.060
 8510SOL    HW226430   5.358   4.623   2.935
 8511SOL     OW26431   5.787   3.710   1.901
 8511SOL    HW126432   5.774   3.612   1.909
 8511SOL    HW226433   5.882   3.733   1.923
 8512SOL     OW26434   3.004   2.483   1.097
 8512SOL    HW126435   2.997   2.398   1.045
 8512SOL    HW226436   3.075   2.475   1.166
 8513SOL     OW26437   4.891   3.859   1.186
 8513SOL    HW126438   4.806   3.888   1.230
 8513SOL    HW226439   4.952   3.818   1.254
 8514SOL     OW26440   2.837   2.028   3.935
 8514SOL    HW126441   2.860   2.024   3.838
 8514SOL    HW226442   2.864   1.943   3.979
 8515SOL     OW26443   5.858   1.401   6.641
 8515SOL    HW126444   5.818   1.311   6.651
 8515SOL    HW226445   5.953   1.393   6.611
 8516SOL     OW26446   6.771   2.115   1.127
 8516SOL    HW126447   6.697   2.076   1.073
 8516SOL    HW226448   6.737   2.140   1.217
 8517SOL     OW26449   1.512   3.361   6.308
 8517SOL    HW126450   1.515   3.310   6.222
 8517SOL    HW226451   1.500   3.297   6.384
 8518SOL     OW26452   4.868   4.390   6.191
 8518SOL    HW126453   4.938   4.323   6.214
 8518SOL    HW226454   4.806   4.403   6.269
 8519SOL     OW26455   1.647   4.901   1.097
 8519SOL    HW126456   1.597   4.876   1.180
 8519SOL    HW226457   1.687   4.819   1.056
 8520SOL     OW26458   3.653   3.140   6.759
 8520SOL    HW126459   3.732   3.201   6.761
 8520SOL    HW226460   3.569   3.194   6.757
 8521SOL     OW26461   2.223   4.608   5.667
 8521SOL    HW126462   2.209   4.604   5.568
 8521SOL    HW226463   2.321   4.611   5.686
 8522SOL     OW26464   1.827   6.612   1.237
 8522SOL    HW126465   1.909   6.649   1.280
 8522SOL    HW226466   1.747   6.666   1.266
 8523SOL     OW26467   2.002   6.542   0.123
 8523SOL    HW126468   2.048   6.602   0.189
 8523SOL    HW226469   1.913   6.514   0.159
 8524SOL     OW26470   0.699   2.838   5.348
 8524SOL    HW126471   0.640   2.889   5.410
 8524SOL    HW226472   0.645   2.768   5.301
 8525SOL     OW26473   6.410   4.246   1.846
 8525SOL    HW126474   6.508   4.237   1.831
 8525SOL    HW226475   6.392   4.331   1.896
 8526SOL     OW26476   3.913   6.049   0.155
 8526SOL    HW126477   3.993   5.993   0.139
 8526SOL    HW226478   3.831   6.002   0.121
 8527SOL     OW26479   3.050   0.942   6.947
 8527SOL    HW126480   3.065   1.028   6.899
 8527SOL    HW226481   3.093   0.946   0.020
 8528SOL     OW26482   4.305   0.943   6.710
 8528SOL    HW126483   4.312   0.855   6.663
 8528SOL    HW226484   4.231   0.997   6.670
 8529SOL     OW26485   1.328   0.081   0.639
 8529SOL    HW126486   1.396   0.056   0.708
 8529SOL    HW226487   1.246   0.117   0.684
 8530SOL     OW26488   4.187   4.115   5.497
 8530SOL    HW126489   4.108   4.137   5.439
 8530SOL    HW226490   4.266   4.168   5.466
 8531SOL     OW26491   6.820   4.715   2.276
 8531SOL    HW126492   6.752   4.737   2.346
 8531SOL    HW226493   6.909   4.699   2.320
 8532SOL     OW26494   4.548   5.256   4.503
 8532SOL    HW126495   4.621   5.200   4.463
 8532SOL    HW226496   4.459   5.217   4.479
 8533SOL     OW26497   1.924   6.176   0.242
 8533SOL    HW126498   1.961   6.101   0.298
 8533SOL    HW226499   1.988   6.196   0.168
 8534SOL     OW26500   6.073   2.453   4.359
 8534SOL    HW126501   6.169   2.461   4.333
 8534SOL    HW226502   6.045   2.357   4.355
 8535SOL     OW26503   6.739   1.140   3.174
 8535SOL    HW126504   6.764   1.228   3.215
 8535SOL    HW226505   6.766   1.066   3.235
 8536SOL     OW26506   6.982   1.928   4.994
 8536SOL    HW126507   6.975   1.991   4.917
 8536SOL    HW226508   0.061   1.916   5.020
 8537SOL     OW26509   5.671   0.705   2.898
 8537SOL    HW126510   5.713   0.615   2.910
 8537SOL    HW226511   5.699   0.764   2.974
 8538SOL     OW26512   1.357   0.965   0.377
 8538SOL    HW126513   1.380   0.995   0.469
 8538SOL    HW226514   1.435   0.915   0.338
 8539SOL     OW26515   6.267   0.817   2.658
 8539SOL    HW126516   6.197   0.886   2.636
 8539SOL    HW226517   6.304   0.837   2.749
 8540SOL     OW26518   5.463   0.451   6.113
 8540SOL    HW126519   5.420   0.539   6.136
 8540SOL    HW226520   5.396   0.393   6.067
 8541SOL     OW26521   2.688   1.880   3.600
 8541SOL    HW126522   2.590   1.897   3.607
 8541SOL    HW226523   2.738   1.962   3.627
 8542SOL     OW26524   4.405   4.450   6.423
 8542SOL    HW126525   4.348   4.370   6.406
 8542SOL    HW226526   4.392   4.516   6.349
 8543SOL     OW26527   2.645   1.514   1.350
 8543SOL    HW126528   2.731   1.487   1.393
 8543SOL    HW226529   2.569   1.495   1.412
 8544SOL     OW26530   5.186   3.639   3.703
 8544SOL    HW126531   5.102   3.645   3.649
 8544SOL    HW226532   5.221   3.546   3.701
 8545SOL     OW26533   4.248   0.121   5.248
 8545SOL    HW126534   4.221   0.118   5.344
 8545SOL    HW226535   4.170   0.150   5.193
 8546SOL     OW26536   5.810   1.786   4.413
 8546SOL    HW126537   5.870   1.761   4.337
 8546SOL    HW226538   5.845   1.868   4.458
 8547SOL     OW26539   1.326   6.627   5.930
 8547SOL    HW126540   1.300   6.599   5.837
 8547SOL    HW226541   1.319   6.549   5.991
 8548SOL     OW26542   6.126   2.801   6.073
 8548SOL    HW126543   6.084   2.891   6.084
 8548SOL    HW226544   6.225   2.811   6.061
 8549SOL     OW26545   1.256   2.988   3.867
 8549SOL    HW126546   1.267   2.889   3.873
 8549SOL    HW226547   1.223   3.012   3.775
 8550SOL     OW26548   1.892   4.679   0.463
 8550SOL    HW126549   1.886   4.625   0.547
 8550SOL    HW226550   1.969   4.744   0.471
 8551SOL     OW26551   3.689   4.133   5.813
 8551SOL    HW126552   3.615   4.109   5.751
 8551SOL    HW226553   3.711   4.055   5.871
 8552SOL     OW26554   2.167   6.823   3.612
 8552SOL    HW126555   2.221   6.757   3.559
 8552SOL    HW226556   2.228   6.880   3.666
 8553SOL     OW26557   5.171   4.550   6.528
 8553SOL    HW126558   5.095   4.615   6.532
 8553SOL    HW226559   5.137   4.458   6.547
 8554SOL     OW26560   0.728   4.755   0.325
 8554SOL    HW126561   0.691   4.799   0.243
 8554SOL    HW226562   0.700   4.806   0.406
 8555SOL     OW26563   1.219   0.260   2.112
 8555SOL    HW126564   1.143   0.245   2.175
 8555SOL    HW226565   1.230   0.359   2.097
 8556SOL     OW26566   0.449   6.807   5.022
 8556SOL    HW126567   0.525   6.872   5.019
 8556SOL    HW226568   0.484   6.715   5.037
 8557SOL     OW26569   5.752   0.405   2.589
 8557SOL    HW126570   5.792   0.323   2.549
 8557SOL    HW226571   5.818   0.449   2.649
 8558SOL     OW26572   2.784   5.775   3.369
 8558SOL    HW126573   2.840   5.730   3.439
 8558SOL    HW226574   2.794   5.727   3.282
 8559SOL     OW26575   6.703   0.457   2.034
 8559SOL    HW126576   6.622   0.487   2.084
 8559SOL    HW226577   6.720   0.360   2.053
 8560SOL     OW26578   0.286   5.865   2.109
 8560SOL    HW126579   0.242   5.775   2.113
 8560SOL    HW226580   0.216   5.935   2.094
 8561SOL     OW26581   3.742   0.191   2.384
 8561SOL    HW126582   3.690   0.118   2.428
 8561SOL    HW226583   3.702   0.213   2.295
 8562SOL     OW26584   4.478   6.307   4.945
 8562SOL    HW126585   4.394   6.340   4.989
 8562SOL    HW226586   4.497   6.214   4.974
 8563SOL     OW26587   2.592   4.655   0.306
 8563SOL    HW126588   2.515   4.687   0.251
 8563SOL    HW226589   2.587   4.694   0.398
 8564SOL     OW26590   2.925   1.163   4.028
 8564SOL    HW126591   2.870   1.229   3.977
 8564SOL    HW226592   3.006   1.139   3.975
 8565SOL     OW26593   4.468   5.899   1.333
 8565SOL    HW126594   4.541   5.899   1.402
 8565SOL    HW226595   4.508   5.898   1.242
 8566SOL     OW26596   1.095   0.549   1.219
 8566SOL    HW126597   1.052   0.616   1.279
 8566SOL    HW226598   1.027   0.512   1.156
 8567SOL     OW26599   6.571   1.324   2.496
 8567SOL    HW126600   6.484   1.275   2.510
 8567SOL    HW226601   6.554   1.409   2.445
 8568SOL     OW26602   5.532   1.223   6.071
 8568SOL    HW126603   5.530   1.259   5.978
 8568SOL    HW226604   5.449   1.169   6.087
 8569SOL     OW26605   4.987   1.582   5.520
 8569SOL    HW126606   4.902   1.539   5.490
 8569SOL    HW226607   5.064   1.537   5.474
 8570SOL     OW26608   1.159   2.394   5.124
 8570SOL    HW126609   1.244   2.344   5.143
 8570SOL    HW226610   1.107   2.345   5.053
 8571SOL     OW26611   1.122   5.110   5.830
 8571SOL    HW126612   1.095   5.205   5.815
 8571SOL    HW226613   1.110   5.087   5.927
 8572SOL     OW26614   3.411   5.121   6.248
 8572SOL    HW126615   3.367   5.184   6.185
 8572SOL    HW226616   3.364   5.124   6.337
 8573SOL     OW26617   3.361   6.809   6.274
 8573SOL    HW126618   3.302   6.890   6.272
 8573SOL    HW226619   3.364   6.772   6.367
 8574SOL     OW26620   0.062   6.191   6.016
 8574SOL    HW126621   0.085   6.095   6.001
 8574SOL    HW226622   7.015   6.221   5.945
 8575SOL     OW26623   3.248   2.743   5.604
 8575SOL    HW126624   3.330   2.796   5.626
 8575SOL    HW226625   3.173   2.806   5.582
 8576SOL     OW26626   1.459   5.802   0.193
 8576SOL    HW126627   1.469   5.901   0.196
 8576SOL    HW226628   1.546   5.758   0.215
 8577SOL     OW26629   0.195   5.669   4.474
 8577SOL    HW126630   0.276   5.612   4.486
 8577SOL    HW226631   0.146   5.639   4.391
 8578SOL     OW26632   5.458   0.554   4.338
 8578SOL    HW126633   5.546   0.512   4.359
 8578SOL    HW226634   5.473   0.650   4.311
 8579SOL     OW26635   1.293   0.077   3.441
 8579SOL    HW126636   1.371   0.136   3.458
 8579SOL    HW226637   1.244   0.107   3.359
 8580SOL     OW26638   2.111   6.887   2.404
 8580SOL    HW126639   2.032   6.826   2.409
 8580SOL    HW226640   2.177   6.861   2.475
 8581SOL     OW26641   3.184   3.082   1.667
 8581SOL    HW126642   3.193   3.181   1.659
 8581SOL    HW226643   3.160   3.058   1.761
 8582SOL     OW26644   4.104   4.692   2.320
 8582SOL    HW126645   4.093   4.593   2.330
 8582SOL    HW226646   4.105   4.734   2.411
 8583SOL     OW26647   5.601   0.621   5.287
 8583SOL    HW126648   5.524   0.561   5.309
 8583SOL    HW226649   5.590   0.657   5.194
 8584SOL     OW26650   0.115   3.641   5.777
 8584SOL    HW126651   0.022   3.633   5.740
 8584SOL    HW226652   0.166   3.709   5.724
 8585SOL     OW26653   0.504   6.172   5.677
 8585SOL    HW126654   0.558   6.255   5.665
 8585SOL    HW226655   0.446   6.158   5.596
 8586SOL     OW26656   2.981   0.352   3.531
 8586SOL    HW126657   2.929   0.402   3.462
 8586SOL    HW226658   2.921   0.284   3.575
 8587SOL     OW26659   1.900   6.911   3.017
 8587SOL    HW126660   1.809   6.951   3.014
 8587SOL    HW226661   1.895   6.815   2.989
 8588SOL     OW26662   2.508   0.677   0.124
 8588SOL    HW126663   2.532   0.640   0.035
 8588SOL    HW226664   2.450   0.613   0.174
 8589SOL     OW26665   5.066   2.855   4.097
 8589SOL    HW126666   5.063   2.909   4.013
 8589SOL    HW226667   4.976   2.855   4.140
 8590SOL     OW26668   6.615   6.542   4.002
 8590SOL    HW126669   6.661   6.631   4.000
 8590SOL    HW226670   6.602   6.509   3.908
 8591SOL     OW26671   0.997   4.620   6.429
 8591SOL    HW126672   0.963   4.563   6.503
 8591SOL    HW226673   0.998   4.568   6.343
 8592SOL     OW26674   0.081   3.692   6.920
 8592SOL    HW126675   0.049   3.786   6.911
 8592SOL    HW226676   0.046   3.653   7.005
 8593SOL     OW26677   1.565   0.495   1.983
 8593SOL    HW126678   1.573   0.456   2.074
 8593SOL    HW226679   1.495   0.566   1.983
 8594SOL     OW26680   4.021   3.250   5.009
 8594SOL    HW126681   3.928   3.264   4.975
 8594SOL    HW226682   4.080   3.323   4.975
 8595SOL     OW26683   1.882   1.974   3.299
 8595SOL    HW126684   1.891   2.004   3.394
 8595SOL    HW226685   1.973   1.959   3.261
 8596SOL     OW26686   6.309   5.265   3.412
 8596SOL    HW126687   6.296   5.166   3.416
 8596SOL    HW226688   6.375   5.294   3.482
 8597SOL     OW26689   4.646   1.337   1.141
 8597SOL    HW126690   4.740   1.305   1.153
 8597SOL    HW226691   4.595   1.271   1.086
 8598SOL     OW26692   0.044   5.743   1.106
 8598SOL    HW126693   6.985   5.686   1.076
 8598SOL    HW226694   0.095   5.696   1.178
 8599SOL     OW26695   1.072   2.562   3.724
 8599SOL    HW126696   1.065   2.538   3.821
 8599SOL    HW226697   0.980   2.567   3.684
 8600SOL     OW26698   5.287   5.086   6.180
 8600SOL    HW126699   5.249   5.061   6.270
 8600SOL    HW226700   5.290   5.185   6.171
 8601SOL     OW26701   1.187   0.848   5.352
 8601SOL    HW126702   1.114   0.797   5.396
 8601SOL    HW226703   1.167   0.859   5.254
 8602SOL     OW26704   2.974   5.660   3.548
 8602SOL    HW126705   3.062   5.621   3.519
 8602SOL    HW226706   2.951   5.626   3.639
 8603SOL     OW26707   3.712   5.548   0.558
 8603SOL    HW126708   3.639   5.480   0.551
 8603SOL    HW226709   3.685   5.620   0.623
 8604SOL     OW26710   0.302   3.294   3.622
 8604SOL    HW126711   0.209   3.257   3.620
 8604SOL    HW226712   0.312   3.355   3.701
 8605SOL     OW26713   3.087   4.872   4.361
 8605SOL    HW126714   3.113   4.791   4.309
 8605SOL    HW226715   3.000   4.856   4.408
 8606SOL     OW26716   1.989   4.816   6.170
 8606SOL    HW126717   1.894   4.834   6.192
 8606SOL    HW226718   1.994   4.744   6.100
 8607SOL     OW26719   3.655   6.050   0.641
 8607SOL    HW126720   3.559   6.051   0.668
 8607SOL    HW226721   3.701   5.971   0.683
 8608SOL     OW26722   4.416   5.159   3.079
 8608SOL    HW126723   4.349   5.200   3.141
 8608SOL    HW226724   4.508   5.183   3.110
 8609SOL     OW26725   5.346   0.889   3.355
 8609SOL    HW126726   5.357   0.873   3.257
 8609SOL    HW226727   5.296   0.814   3.396
 8610SOL     OW26728   1.162   1.352   2.657
 8610SOL    HW126729   1.123   1.400   2.578
 8610SOL    HW226730   1.261   1.364   2.659
 8611SOL     OW26731   2.006   1.805   4.152
 8611SOL    HW126732   2.042   1.876   4.091
 8611SOL    HW226733   2.069   1.727   4.153
 8612SOL     OW26734   3.197   3.057   0.312
 8612SOL    HW126735   3.201   2.977   0.252
 8612SOL    HW226736   3.186   3.026   0.407
 8613SOL     OW26737   2.317   2.059   1.554
 8613SOL    HW126738   2.219   2.062   1.575
 8613SOL    HW226739   2.352   1.968   1.575
 8614SOL     OW26740   0.665   3.414   2.795
 8614SOL    HW126741   0.625   3.452   2.711
 8614SOL    HW226742   0.619   3.328   2.817
 8615SOL     OW26743   4.992   2.000   5.506
 8615SOL    HW126744   4.998   2.048   5.594
 8615SOL    HW226745   5.083   1.990   5.467
 8616SOL     OW26746   2.363   5.174   1.396
 8616SOL    HW126747   2.455   5.150   1.427
 8616SOL    HW226748   2.312   5.090   1.375
 8617SOL     OW26749   6.739   0.845   6.718
 8617SOL    HW126750   6.650   0.814   6.684
 8617SOL    HW226751   6.740   0.945   6.723
 8618SOL     OW26752   6.167   6.605   1.315
 8618SOL    HW126753   6.183   6.606   1.216
 8618SOL    HW226754   6.166   6.510   1.347
 8619SOL     OW26755   3.424   5.084   2.189
 8619SOL    HW126756   3.337   5.131   2.199
 8619SOL    HW226757   3.422   5.028   2.106
 8620SOL     OW26758   0.857   6.976   3.309
 8620SOL    HW126759   0.859   0.052   3.274
 8620SOL    HW226760   0.784   6.968   3.378
 8621SOL     OW26761   6.100   1.464   2.818
 8621SOL    HW126762   6.025   1.452   2.884
 8621SOL    HW226763   6.090   1.397   2.744
 8622SOL     OW26764   4.802   3.972   0.254
 8622SOL    HW126765   4.828   4.065   0.227
 8622SOL    HW226766   4.705   3.958   0.234
 8623SOL     OW26767   0.937   3.918   3.143
 8623SOL    HW126768   0.980   3.842   3.095
 8623SOL    HW226769   0.842   3.896   3.163
 8624SOL     OW26770   1.657   3.664   3.992
 8624SOL    HW126771   1.580   3.687   4.051
 8624SOL    HW226772   1.645   3.572   3.956
 8625SOL     OW26773   4.957   6.765   5.136
 8625SOL    HW126774   5.036   6.714   5.171
 8625SOL    HW226775   4.956   6.856   5.177
 8626SOL     OW26776   3.803   2.974   4.897
 8626SOL    HW126777   3.872   3.044   4.919
 8626SOL    HW226778   3.848   2.884   4.892
 8627SOL     OW26779   0.216   0.753   3.766
 8627SOL    HW126780   0.218   0.843   3.721
 8627SOL    HW226781   0.171   0.687   3.705
 8628SOL     OW26782   5.863   6.966   1.531
 8628SOL    HW126783   5.888   6.871   1.512
 8628SOL    HW226784   5.808   7.002   1.455
 8629SOL     OW26785   1.236   4.760   5.489
 8629SOL    HW126786   1.160   4.822   5.509
 8629SOL    HW226787   1.318   4.791   5.538
 8630SOL     OW26788   5.747   4.407   4.452
 8630SOL    HW126789   5.835   4.442   4.486
 8630SOL    HW226790   5.673   4.462   4.491
 8631SOL     OW26791   3.129   5.729   6.178
 8631SOL    HW126792   3.123   5.652   6.242
 8631SOL    HW226793   3.195   5.707   6.106
 8632SOL     OW26794   3.252   6.915   4.055
 8632SOL    HW126795   3.201   6.972   4.120
 8632SOL    HW226796   3.310   6.972   3.998
 8633SOL     OW26797   5.126   1.795   4.749
 8633SOL    HW126798   5.074   1.740   4.815
 8633SOL    HW226799   5.220   1.762   4.745
 8634SOL     OW26800   5.658   3.190   0.421
 8634SOL    HW126801   5.690   3.134   0.345
 8634SOL    HW226802   5.559   3.197   0.419
 8635SOL     OW26803   6.143   4.460   6.485
 8635SOL    HW126804   6.110   4.442   6.392
 8635SOL    HW226805   6.064   4.468   6.546
 8636SOL     OW26806   5.104   5.881   0.666
 8636SOL    HW126807   5.061   5.899   0.578
 8636SOL    HW226808   5.052   5.809   0.714
 8637SOL     OW26809   2.057   1.366   0.135
 8637SOL    HW126810   2.154   1.344   0.128
 8637SOL    HW226811   2.015   1.361   0.044
 8638SOL     OW26812   2.813   3.058   6.617
 8638SOL    HW126813   2.859   3.110   6.545
 8638SOL    HW226814   2.783   3.120   6.689
 8639SOL     OW26815   5.542   2.128   1.708
 8639SOL    HW126816   5.598   2.146   1.627
 8639SOL    HW226817   5.458   2.181   1.702
 8640SOL     OW26818   4.397   3.863   0.762
 8640SOL    HW126819   4.436   3.792   0.703
 8640SOL    HW226820   4.329   3.915   0.711
 8641SOL     OW26821   6.455   4.959   4.070
 8641SOL    HW126822   6.486   4.973   4.164
 8641SOL    HW226823   6.372   4.904   4.069
 8642SOL     OW26824   3.436   1.244   2.562
 8642SOL    HW126825   3.495   1.254   2.642
 8642SOL    HW226826   3.363   1.180   2.582
 8643SOL     OW26827   3.725   0.378   6.753
 8643SOL    HW126828   3.777   0.462   6.738
 8643SOL    HW226829   3.788   0.301   6.765
 8644SOL     OW26830   4.669   2.411   5.452
 8644SOL    HW126831   4.574   2.430   5.428
 8644SOL    HW226832   4.730   2.454   5.385
 8645SOL     OW26833   4.615   4.249   1.307
 8645SOL    HW126834   4.603   4.264   1.405
 8645SOL    HW226835   4.639   4.336   1.263
 8646SOL     OW26836   6.575   1.530   1.696
 8646SOL    HW126837   6.489   1.508   1.652
 8646SOL    HW226838   6.590   1.629   1.694
 8647SOL     OW26839   2.554   5.441   5.772
 8647SOL    HW126840   2.532   5.343   5.771
 8647SOL    HW226841   2.491   5.488   5.834
 8648SOL     OW26842   6.263   0.783   3.699
 8648SOL    HW126843   6.361   0.771   3.716
 8648SOL    HW226844   6.219   0.693   3.692
 8649SOL     OW26845   5.551   4.345   0.007
 8649SOL    HW126846   5.528   4.264   6.970
 8649SOL    HW226847   5.608   4.318   0.085
 8650SOL     OW26848   1.921   4.246   6.156
 8650SOL    HW126849   1.850   4.177   6.168
 8650SOL    HW226850   2.008   4.202   6.138
 8651SOL     OW26851   3.572   1.129   0.668
 8651SOL    HW126852   3.509   1.057   0.638
 8651SOL    HW226853   3.650   1.133   0.605
 8652SOL     OW26854   1.192   3.752   3.558
 8652SOL    HW126855   1.204   3.731   3.461
 8652SOL    HW226856   1.247   3.690   3.613
 8653SOL     OW26857   5.864   1.083   6.407
 8653SOL    HW126858   5.956   1.058   6.439
 8653SOL    HW226859   5.868   1.173   6.364
 8654SOL     OW26860   1.060   5.596   1.213
 8654SOL    HW126861   1.156   5.606   1.188
 8654SOL    HW226862   1.046   5.627   1.307
 8655SOL     OW26863   6.173   1.149   3.793
 8655SOL    HW126864   6.113   1.189   3.723
 8655SOL    HW226865   6.134   1.063   3.825
 8656SOL     OW26866   6.313   0.994   0.612
 8656SOL    HW126867   6.256   0.990   0.530
 8656SOL    HW226868   6.255   0.991   0.693
 8657SOL     OW26869   4.816   4.889   0.124
 8657SOL    HW126870   4.838   4.828   0.201
 8657SOL    HW226871   4.767   4.837   0.054
 8658SOL     OW26872   3.951   6.637   0.179
 8658SOL    HW126873   3.861   6.678   0.166
 8658SOL    HW226874   3.992   6.618   0.089
 8659SOL     OW26875   4.535   1.708   3.499
 8659SOL    HW126876   4.468   1.781   3.495
 8659SOL    HW226877   4.549   1.670   3.407
 8660SOL     OW26878   5.688   3.844   0.830
 8660SOL    HW126879   5.674   3.892   0.743
 8660SOL    HW226880   5.776   3.871   0.869
 8661SOL     OW26881   5.727   4.103   1.141
 8661SOL    HW126882   5.748   4.013   1.179
 8661SOL    HW226883   5.779   4.116   1.056
 8662SOL     OW26884   4.635   5.838   1.564
 8662SOL    HW126885   4.728   5.865   1.539
 8662SOL    HW226886   4.601   5.898   1.636
 8663SOL     OW26887   2.679   5.964   1.090
 8663SOL    HW126888   2.587   5.934   1.117
 8663SOL    HW226889   2.747   5.919   1.148
 8664SOL     OW26890   2.864   5.838   1.220
 8664SOL    HW126891   2.943   5.832   1.281
 8664SOL    HW226892   2.867   5.761   1.155
 8665SOL     OW26893   5.348   6.100   4.892
 8665SOL    HW126894   5.357   6.001   4.900
 8665SOL    HW226895   5.298   6.135   4.971
 8666SOL     OW26896   4.738   2.022   4.671
 8666SOL    HW126897   4.668   1.954   4.696
 8666SOL    HW226898   4.816   1.975   4.629
 8667SOL     OW26899   4.895   2.692   3.079
 8667SOL    HW126900   4.900   2.601   3.121
 8667SOL    HW226901   4.902   2.683   2.979
 8668SOL     OW26902   6.014   3.467   3.067
 8668SOL    HW126903   5.943   3.518   3.115
 8668SOL    HW226904   5.975   3.421   2.987
 8669SOL     OW26905   2.121   6.280   0.079
 8669SOL    HW126906   2.113   6.229   7.010
 8669SOL    HW226907   2.089   6.374   0.064
 8670SOL     OW26908   3.578   4.774   5.616
 8670SOL    HW126909   3.497   4.770   5.674
 8670SOL    HW226910   3.571   4.706   5.543
 8671SOL     OW26911   5.731   2.016   3.444
 8671SOL    HW126912   5.650   2.074   3.455
 8671SOL    HW226913   5.760   1.981   3.534
 8672SOL     OW26914   1.878   5.147   3.844
 8672SOL    HW126915   1.797   5.155   3.785
 8672SOL    HW226916   1.940   5.223   3.826
 8673SOL     OW26917   6.635   2.058   6.529
 8673SOL    HW126918   6.734   2.050   6.539
 8673SOL    HW226919   6.612   2.152   6.501
 8674SOL     OW26920   5.718   6.062   2.182
 8674SOL    HW126921   5.667   6.062   2.097
 8674SOL    HW226922   5.739   6.156   2.209
 8675SOL     OW26923   3.556   1.910   4.818
 8675SOL    HW126924   3.517   1.965   4.745
 8675SOL    HW226925   3.651   1.936   4.833
 8676SOL     OW26926   3.986   0.339   2.826
 8676SOL    HW126927   4.015   0.338   2.921
 8676SOL    HW226928   4.064   0.356   2.767
 8677SOL     OW26929   2.769   6.382   5.727
 8677SOL    HW126930   2.720   6.299   5.756
 8677SOL    HW226931   2.717   6.427   5.654
 8678SOL     OW26932   0.013   0.255   1.512
 8678SOL    HW126933   0.071   0.293   1.441
 8678SOL    HW226934   0.042   0.289   1.601
 8679SOL     OW26935   6.358   2.656   4.167
 8679SOL    HW126936   6.342   2.559   4.184
 8679SOL    HW226937   6.380   2.702   4.253
 8680SOL     OW26938   1.006   4.242   1.890
 8680SOL    HW126939   1.051   4.300   1.958
 8680SOL    HW226940   0.990   4.295   1.807
 8681SOL     OW26941   4.890   5.366   6.686
 8681SOL    HW126942   4.906   5.451   6.637
 8681SOL    HW226943   4.830   5.383   6.764
 8682SOL     OW26944   5.035   6.787   1.750
 8682SOL    HW126945   4.939   6.767   1.768
 8682SOL    HW226946   5.088   6.703   1.756
 8683SOL     OW26947   1.656   2.378   2.514
 8683SOL    HW126948   1.690   2.313   2.446
 8683SOL    HW226949   1.730   2.404   2.576
 8684SOL     OW26950   0.618   2.687   4.882
 8684SOL    HW126951   0.622   2.588   4.873
 8684SOL    HW226952   0.545   2.724   4.824
 8685SOL     OW26953   0.689   2.157   5.193
 8685SOL    HW126954   0.782   2.160   5.230
 8685SOL    HW226955   0.681   2.079   5.131
 8686SOL     OW26956   0.048   1.194   0.838
 8686SOL    HW126957   0.057   1.148   0.749
 8686SOL    HW226958   0.136   1.192   0.885
 8687SOL     OW26959   3.717   5.581   2.669
 8687SOL    HW126960   3.680   5.489   2.680
 8687SOL    HW226961   3.817   5.579   2.677
 8688SOL     OW26962   2.834   6.194   6.754
 8688SOL    HW126963   2.760   6.197   6.822
 8688SOL    HW226964   2.921   6.214   6.800
 8689SOL     OW26965   3.193   4.493   1.466
 8689SOL    HW126966   3.276   4.451   1.431
 8689SOL    HW226967   3.121   4.425   1.474
 8690SOL     OW26968   1.758   2.889   3.121
 8690SOL    HW126969   1.832   2.938   3.075
 8690SOL    HW226970   1.757   2.914   3.218
 8691SOL     OW26971   3.523   2.027   6.697
 8691SOL    HW126972   3.553   2.054   6.606
 8691SOL    HW226973   3.599   2.037   6.762
 8692SOL     OW26974   2.289   1.436   3.322
 8692SOL    HW126975   2.387   1.420   3.311
 8692SOL    HW226976   2.269   1.454   3.419
 8693SOL     OW26977   6.501   1.424   6.936
 8693SOL    HW126978   6.568   1.480   6.985
 8693SOL    HW226979   6.538   1.332   6.923
 8694SOL     OW26980   3.635   1.214   5.022
 8694SOL    HW126981   3.588   1.130   4.993
 8694SOL    HW226982   3.568   1.281   5.053
 8695SOL     OW26983   4.118   2.694   5.745
 8695SOL    HW126984   4.130   2.595   5.752
 8695SOL    HW226985   4.081   2.729   5.832
 8696SOL     OW26986   2.065   5.991   0.472
 8696SOL    HW126987   2.101   5.925   0.537
 8696SOL    HW226988   2.127   5.998   0.394
 8697SOL     OW26989   6.608   2.829   0.081
 8697SOL    HW126990   6.682   2.764   0.095
 8697SOL    HW226991   6.638   2.921   0.108
 8698SOL     OW26992   5.879   5.385   4.753
 8698SOL    HW126993   5.946   5.410   4.684
 8698SOL    HW226994   5.918   5.398   4.844
 8699SOL     OW26995   2.406   2.329   4.953
 8699SOL    HW126996   2.477   2.297   5.016
 8699SOL    HW226997   2.344   2.390   5.002
 8700SOL     OW26998   0.946   0.457   4.402
 8700SOL    HW126999   0.877   0.384   4.407
 8700SOL    HW227000   1.037   0.418   4.415
 8701SOL     OW27001   1.816   0.550   0.195
 8701SOL    HW127002   1.892   0.490   0.169
 8701SOL    HW227003   1.824   0.637   0.146
 8702SOL     OW27004   5.486   4.464   0.345
 8702SOL    HW127005   5.584   4.459   0.365
 8702SOL    HW227006   5.462   4.559   0.322
 8703SOL     OW27007   3.226   5.673   1.095
 8703SOL    HW127008   3.276   5.754   1.065
 8703SOL    HW227009   3.162   5.698   1.167
 8704SOL     OW27010   6.884   3.670   2.798
 8704SOL    HW127011   6.970   3.718   2.778
 8704SOL    HW227012   6.833   3.658   2.713
 8705SOL     OW27013   5.090   0.653   0.461
 8705SOL    HW127014   5.171   0.704   0.488
 8705SOL    HW227015   5.118   0.569   0.413
 8706SOL     OW27016   4.376   2.135   6.038
 8706SOL    HW127017   4.374   2.207   6.108
 8706SOL    HW227018   4.465   2.089   6.040
 8707SOL     OW27019   6.212   2.283   6.933
 8707SOL    HW127020   6.253   2.191   6.930
 8707SOL    HW227021   6.184   2.309   6.840
 8708SOL     OW27022   4.245   1.835   2.189
 8708SOL    HW127023   4.172   1.792   2.242
 8708SOL    HW227024   4.329   1.780   2.195
 8709SOL     OW27025   6.735   5.735   0.104
 8709SOL    HW127026   6.782   5.647   0.110
 8709SOL    HW227027   6.665   5.741   0.175
 8710SOL     OW27028   2.206   2.741   3.753
 8710SOL    HW127029   2.163   2.785   3.832
 8710SOL    HW227030   2.148   2.751   3.673
 8711SOL     OW27031   1.458   5.926   2.959
 8711SOL    HW127032   1.555   5.952   2.955
 8711SOL    HW227033   1.405   6.001   2.999
 8712SOL     OW27034   4.290   2.197   4.950
 8712SOL    HW127035   4.340   2.208   4.864
 8712SOL    HW227036   4.263   2.287   4.984
 8713SOL     OW27037   0.783   3.910   4.040
 8713SOL    HW127038   0.710   3.958   4.089
 8713SOL    HW227039   0.792   3.948   3.948
 8714SOL     OW27040   1.461   0.653   6.545
 8714SOL    HW127041   1.393   0.724   6.524
 8714SOL    HW227042   1.553   0.688   6.524
 8715SOL     OW27043   4.938   0.841   0.866
 8715SOL    HW127044   4.875   0.917   0.882
 8715SOL    HW227045   4.927   0.807   0.772
 8716SOL     OW27046   0.699   0.170   1.077
 8716SOL    HW127047   0.762   0.156   1.154
 8716SOL    HW227048   0.605   0.166   1.110
 8717SOL     OW27049   3.593   3.286   3.677
 8717SOL    HW127050   3.632   3.361   3.729
 8717SOL    HW227051   3.595   3.308   3.579
 8718SOL     OW27052   0.581   4.118   4.560
 8718SOL    HW127053   0.608   4.030   4.521
 8718SOL    HW227054   0.635   4.137   4.642
 8719SOL     OW27055   2.490   0.212   6.330
 8719SOL    HW127056   2.447   0.122   6.322
 8719SOL    HW227057   2.580   0.210   6.285
 8720SOL     OW27058   6.244   5.360   5.620
 8720SOL    HW127059   6.148   5.332   5.626
 8720SOL    HW227060   6.276   5.346   5.526
 8721SOL     OW27061   6.727   2.534   2.807
 8721SOL    HW127062   6.656   2.472   2.774
 8721SOL    HW227063   6.733   2.529   2.906
 8722SOL     OW27064   3.861   1.525   6.169
 8722SOL    HW127065   3.959   1.539   6.180
 8722SOL    HW227066   3.827   1.465   6.242
 8723SOL     OW27067   4.848   5.646   1.631
 8723SOL    HW127068   4.756   5.631   1.595
 8723SOL    HW227069   4.893   5.719   1.578
 8724SOL     OW27070   5.713   0.122   6.140
 8724SOL    HW127071   5.771   0.141   6.219
 8724SOL    HW227072   5.724   0.196   6.073
 8725SOL     OW27073   1.980   0.023   6.876
 8725SOL    HW127074   1.883   0.003   6.895
 8725SOL    HW227075   2.000   0.117   6.901
 8726SOL     OW27076   6.256   0.015   1.970
 8726SOL    HW127077   6.279   0.023   1.873
 8726SOL    HW227078   6.297   6.949   2.007
 8727SOL     OW27079   0.397   6.177   2.243
 8727SOL    HW127080   0.455   6.236   2.300
 8727SOL    HW227081   0.413   6.198   2.147
 8728SOL     OW27082   4.070   0.579   4.512
 8728SOL    HW127083   3.976   0.583   4.546
 8728SOL    HW227084   4.131   0.552   4.586
 8729SOL     OW27085   4.844   6.132   4.096
 8729SOL    HW127086   4.814   6.087   4.011
 8729SOL    HW227087   4.800   6.087   4.174
 8730SOL     OW27088   6.437   4.232   2.439
 8730SOL    HW127089   6.404   4.150   2.486
 8730SOL    HW227090   6.405   4.230   2.344
 8731SOL     OW27091   1.953   2.757   2.781
 8731SOL    HW127092   1.903   2.801   2.705
 8731SOL    HW227093   2.026   2.700   2.744
 8732SOL     OW27094   5.633   4.402   1.836
 8732SOL    HW127095   5.714   4.458   1.818
 8732SOL    HW227096   5.594   4.428   1.924
 8733SOL     OW27097   2.079   5.309   1.661
 8733SOL    HW127098   2.001   5.364   1.689
 8733SOL    HW227099   2.075   5.293   1.563
 8734SOL     OW27100   1.331   4.355   2.318
 8734SOL    HW127101   1.394   4.314   2.252
 8734SOL    HW227102   1.320   4.294   2.396
 8735SOL     OW27103   1.342   1.777   0.220
 8735SOL    HW127104   1.405   1.754   0.145
 8735SOL    HW227105   1.284   1.853   0.191
 8736SOL     OW27106   0.745   6.081   5.842
 8736SOL    HW127107   0.704   6.023   5.773
 8736SOL    HW227108   0.680   6.152   5.871
 8737SOL     OW27109   2.632   6.216   6.032
 8737SOL    HW127110   2.716   6.176   6.068
 8737SOL    HW227111   2.646   6.314   6.017
 8738SOL     OW27112   2.025   5.544   4.279
 8738SOL    HW127113   2.016   5.482   4.357
 8738SOL    HW227114   2.060   5.632   4.311
 8739SOL     OW27115   5.757   5.434   6.134
 8739SOL    HW127116   5.664   5.465   6.117
 8739SOL    HW227117   5.757   5.336   6.151
 8740SOL     OW27118   4.991   0.974   5.297
 8740SOL    HW127119   5.015   0.965   5.200
 8740SOL    HW227120   5.071   1.006   5.348
 8741SOL     OW27121   2.865   1.387   1.448
 8741SOL    HW127122   2.916   1.374   1.533
 8741SOL    HW227123   2.898   1.322   1.380
 8742SOL     OW27124   5.879   6.422   1.671
 8742SOL    HW127125   5.911   6.352   1.735
 8742SOL    HW227126   5.915   6.511   1.698
 8743SOL     OW27127   1.694   0.518   2.288
 8743SOL    HW127128   1.763   0.481   2.351
 8743SOL    HW227129   1.732   0.598   2.241
 8744SOL     OW27130   3.906   2.826   6.158
 8744SOL    HW127131   3.985   2.842   6.100
 8744SOL    HW227132   3.823   2.825   6.102
 8745SOL     OW27133   6.082   3.066   6.058
 8745SOL    HW127134   6.011   3.114   6.006
 8745SOL    HW227135   6.137   3.132   6.108
 8746SOL     OW27136   5.088   3.625   5.022
 8746SOL    HW127137   5.117   3.709   5.066
 8746SOL    HW227138   4.991   3.631   5.000
 8747SOL     OW27139   0.052   2.219   2.718
 8747SOL    HW127140   0.142   2.235   2.757
 8747SOL    HW227141   0.002   2.306   2.713
 8748SOL     OW27142   0.023   1.553   5.500
 8748SOL    HW127143   0.050   1.512   5.413
 8748SOL    HW227144   6.989   1.638   5.482
 8749SOL     OW27145   2.572   0.204   6.586
 8749SOL    HW127146   2.595   0.294   6.622
 8749SOL    HW227147   2.555   0.210   6.487
 8750SOL     OW27148   2.948   3.648   5.659
 8750SOL    HW127149   3.029   3.644   5.718
 8750SOL    HW227150   2.966   3.598   5.574
 8751SOL     OW27151   6.308   0.091   2.717
 8751SOL    HW127152   6.307   0.183   2.678
 8751SOL    HW227153   6.286   0.024   2.645
 8752SOL     OW27154   2.366   4.805   0.178
 8752SOL    HW127155   2.316   4.794   0.265
 8752SOL    HW227156   2.333   4.887   0.131
 8753SOL     OW27157   4.999   1.567   5.148
 8753SOL    HW127158   5.041   1.658   5.155
 8753SOL    HW227159   4.901   1.577   5.133
 8754SOL     OW27160   1.192   2.243   4.860
 8754SOL    HW127161   1.127   2.187   4.809
 8754SOL    HW227162   1.197   2.334   4.818
 8755SOL     OW27163   2.469   0.968   0.112
 8755SOL    HW127164   2.498   0.877   0.141
 8755SOL    HW227165   2.511   0.990   0.024
 8756SOL     OW27166   2.177   3.001   3.590
 8756SOL    HW127167   2.161   2.937   3.516
 8756SOL    HW227168   2.169   2.953   3.678
 8757SOL     OW27169   4.759   6.304   5.567
 8757SOL    HW127170   4.802   6.326   5.654
 8757SOL    HW227171   4.662   6.327   5.571
 8758SOL     OW27172   4.413   6.846   2.140
 8758SOL    HW127173   4.426   6.747   2.141
 8758SOL    HW227174   4.402   6.879   2.234
 8759SOL     OW27175   3.646   2.240   0.410
 8759SOL    HW127176   3.738   2.224   0.376
 8759SOL    HW227177   3.582   2.246   0.333
 8760SOL     OW27178   1.610   1.700   5.119
 8760SOL    HW127179   1.644   1.766   5.053
 8760SOL    HW227180   1.530   1.737   5.166
 8761SOL     OW27181   4.651   1.821   2.300
 8761SOL    HW127182   4.597   1.764   2.361
 8761SOL    HW227183   4.747   1.817   2.325
 8762SOL     OW27184   0.639   4.201   1.774
 8762SOL    HW127185   0.663   4.119   1.826
 8762SOL    HW227186   0.677   4.194   1.681
 8763SOL     OW27187   6.068   6.179   5.994
 8763SOL    HW127188   6.060   6.265   5.944
 8763SOL    HW227189   6.005   6.179   6.072
 8764SOL     OW27190   4.762   0.861   4.399
 8764SOL    HW127191   4.769   0.780   4.341
 8764SOL    HW227192   4.854   0.899   4.415
 8765SOL     OW27193   6.349   6.221   5.572
 8765SOL    HW127194   6.279   6.286   5.542
 8765SOL    HW227195   6.375   6.162   5.496
 8766SOL     OW27196   4.493   4.494   3.451
 8766SOL    HW127197   4.522   4.455   3.538
 8766SOL    HW227198   4.480   4.593   3.462
 8767SOL     OW27199   3.946   6.982   3.134
 8767SOL    HW127200   4.010   6.944   3.201
 8767SOL    HW227201   3.854   6.983   3.173
 8768SOL     OW27202   1.149   2.976   0.884
 8768SOL    HW127203   1.052   2.959   0.866
 8768SOL    HW227204   1.205   2.909   0.835
 8769SOL     OW27205   1.466   6.801   4.308
 8769SOL    HW127206   1.396   6.812   4.238
 8769SOL    HW227207   1.554   6.780   4.265
 8770SOL     OW27208   5.508   3.714   1.983
 8770SOL    HW127209   5.488   3.672   2.071
 8770SOL    HW227210   5.607   3.710   1.966
 8771SOL     OW27211   0.618   0.361   6.308
 8771SOL    HW127212   0.665   0.446   6.283
 8771SOL    HW227213   0.538   0.383   6.363
 8772SOL     OW27214   5.050   6.140   6.583
 8772SOL    HW127215   5.139   6.093   6.591
 8772SOL    HW227216   4.977   6.075   6.601
 8773SOL     OW27217   4.472   2.309   3.894
 8773SOL    HW127218   4.468   2.263   3.982
 8773SOL    HW227219   4.492   2.243   3.822
 8774SOL     OW27220   1.863   1.613   0.105
 8774SOL    HW127221   1.956   1.578   0.107
 8774SOL    HW227222   1.808   1.567   0.175
 8775SOL     OW27223   6.545   0.370   4.933
 8775SOL    HW127224   6.450   0.391   4.912
 8775SOL    HW227225   6.598   0.368   4.848
 8776SOL     OW27226   3.587   3.512   4.824
 8776SOL    HW127227   3.619   3.607   4.822
 8776SOL    HW227228   3.557   3.485   4.732
 8777SOL     OW27229   0.017   3.935   1.206
 8777SOL    HW127230   6.995   4.015   1.251
 8777SOL    HW227231   0.114   3.951   1.188
 8778SOL     OW27232   6.092   1.978   4.668
 8778SOL    HW127233   6.158   2.052   4.657
 8778SOL    HW227234   6.014   1.994   4.607
 8779SOL     OW27235   3.162   5.182   2.215
 8779SOL    HW127236   3.161   5.246   2.138
 8779SOL    HW227237   3.104   5.104   2.194
 8780SOL     OW27238   1.047   5.395   3.141
 8780SOL    HW127239   1.010   5.393   3.048
 8780SOL    HW227240   1.070   5.489   3.166
 8781SOL     OW27241   6.315   1.920   3.491
 8781SOL    HW127242   6.324   1.826   3.523
 8781SOL    HW227243   6.226   1.931   3.446
 8782SOL     OW27244   5.128   6.743   2.088
 8782SOL    HW127245   5.196   6.813   2.106
 8782SOL    HW227246   5.036   6.783   2.094
 8783SOL     OW27247   6.413   3.705   3.400
 8783SOL    HW127248   6.329   3.720   3.453
 8783SOL    HW227249   6.492   3.713   3.461
 8784SOL     OW27250   5.808   4.183   6.569
 8784SOL    HW127251   5.722   4.234   6.575
 8784SOL    HW227252   5.792   4.089   6.600
 8785SOL     OW27253   6.801   3.591   6.478
 8785SOL    HW127254   6.855   3.530   6.535
 8785SOL    HW227255   6.761   3.663   6.534
 8786SOL     OW27256   2.315   6.698   0.670
 8786SOL    HW127257   2.342   6.710   0.766
 8786SOL    HW227258   2.385   6.645   0.622
 8787SOL     OW27259   2.245   2.832   1.931
 8787SOL    HW127260   2.240   2.733   1.918
 8787SOL    HW227261   2.271   2.876   1.845
 8788SOL     OW27262   0.195   2.438   5.699
 8788SOL    HW127263   0.276   2.495   5.690
 8788SOL    HW227264   0.163   2.440   5.794
 8789SOL     OW27265   6.508   0.125   5.609
 8789SOL    HW127266   6.413   0.156   5.599
 8789SOL    HW227267   6.510   0.025   5.613
 8790SOL     OW27268   0.097   0.633   6.821
 8790SOL    HW127269   0.151   0.689   6.758
 8790SOL    HW227270   0.087   0.541   6.782
 8791SOL     OW27271   5.773   6.906   4.781
 8791SOL    HW127272   5.752   6.808   4.778
 8791SOL    HW227273   5.774   6.936   4.876
 8792SOL     OW27274   3.289   6.227   3.558
 8792SOL    HW127275   3.271   6.220   3.460
 8792SOL    HW227276   3.258   6.144   3.604
 8793SOL     OW27277   0.938   5.111   3.796
 8793SOL    HW127278   0.879   5.177   3.843
 8793SOL    HW227279   1.014   5.160   3.753
 8794SOL     OW27280   4.120   6.906   1.731
 8794SOL    HW127281   4.168   6.835   1.678
 8794SOL    HW227282   4.155   6.905   1.825
 8795SOL     OW27283   1.177   6.849   5.104
 8795SOL    HW127284   1.198   6.779   5.173
 8795SOL    HW227285   1.082   6.841   5.076
 8796SOL     OW27286   4.239   1.304   4.517
 8796SOL    HW127287   4.258   1.307   4.616
 8796SOL    HW227288   4.294   1.232   4.475
 8797SOL     OW27289   0.863   0.260   5.084
 8797SOL    HW127290   0.838   0.346   5.128
 8797SOL    HW227291   0.892   0.194   5.154
 8798SOL     OW27292   4.794   4.962   5.588
 8798SOL    HW127293   4.849   4.880   5.605
 8798SOL    HW227294   4.728   4.943   5.515
 8799SOL     OW27295   1.975   4.340   3.673
 8799SOL    HW127296   1.888   4.294   3.689
 8799SOL    HW227297   2.025   4.294   3.600
 8800SOL     OW27298   6.133   4.480   5.359
 8800SOL    HW127299   6.137   4.537   5.441
 8800SOL    HW227300   6.061   4.515   5.298
 8801SOL     OW27301   0.816   1.503   4.890
 8801SOL    HW127302   0.894   1.532   4.946
 8801SOL    HW227303   0.731   1.539   4.929
 8802SOL     OW27304   1.661   0.168   0.995
 8802SOL    HW127305   1.753   0.132   0.984
 8802SOL    HW227306   1.640   0.176   1.093
 8803SOL     OW27307   0.169   5.270   6.230
 8803SOL    HW127308   0.077   5.305   6.242
 8803SOL    HW227309   0.232   5.345   6.213
 8804SOL     OW27310   3.616   0.676   2.237
 8804SOL    HW127311   3.683   0.736   2.281
 8804SOL    HW227312   3.532   0.727   2.221
 8805SOL     OW27313   2.745   0.067   4.436
 8805SOL    HW127314   2.678   0.061   4.362
 8805SOL    HW227315   2.832   0.028   4.406
 8806SOL     OW27316   2.300   4.923   1.985
 8806SOL    HW127317   2.282   5.010   1.939
 8806SOL    HW227318   2.214   4.875   2.001
 8807SOL     OW27319   5.382   0.036   6.369
 8807SOL    HW127320   5.290   0.001   6.386
 8807SOL    HW227321   5.417   7.013   6.284
 8808SOL     OW27322   5.478   2.336   0.478
 8808SOL    HW127323   5.466   2.279   0.559
 8808SOL    HW227324   5.417   2.416   0.485
 8809SOL     OW27325   4.772   4.945   3.332
 8809SOL    HW127326   4.723   4.876   3.279
 8809SOL    HW227327   4.707   5.001   3.383
 8810SOL     OW27328   5.760   0.632   6.385
 8810SOL    HW127329   5.700   0.552   6.390
 8810SOL    HW227330   5.807   0.644   6.472
 8811SOL     OW27331   2.703   1.342   3.874
 8811SOL    HW127332   2.708   1.334   3.774
 8811SOL    HW227333   2.708   1.439   3.899
 8812SOL     OW27334   2.093   6.966   1.394
 8812SOL    HW127335   2.176   7.006   1.432
 8812SOL    HW227336   2.030   0.023   1.367
 8813SOL     OW27337   1.538   4.487   1.620
 8813SOL    HW127338   1.618   4.439   1.584
 8813SOL    HW227339   1.552   4.508   1.717
 8814SOL     OW27340   5.665   0.552   0.922
 8814SOL    HW127341   5.660   0.579   0.826
 8814SOL    HW227342   5.731   0.610   0.970
 8815SOL     OW27343   6.650   6.133   0.885
 8815SOL    HW127344   6.588   6.113   0.961
 8815SOL    HW227345   6.738   6.089   0.902
 8816SOL     OW27346   1.638   0.935   0.375
 8816SOL    HW127347   1.677   0.844   0.387
 8816SOL    HW227348   1.694   0.987   0.310
 8817SOL     OW27349   0.795   6.218   5.246
 8817SOL    HW127350   0.750   6.273   5.317
 8817SOL    HW227351   0.817   6.128   5.282
 8818SOL     OW27352   0.681   3.707   4.399
 8818SOL    HW127353   0.702   3.683   4.304
 8818SOL    HW227354   0.613   3.642   4.435
 8819SOL     OW27355   5.053   4.858   4.752
 8819SOL    HW127356   5.147   4.885   4.731
 8819SOL    HW227357   5.045   4.836   4.849
 8820SOL     OW27358   2.176   1.122   5.203
 8820SOL    HW127359   2.134   1.058   5.266
 8820SOL    HW227360   2.212   1.072   5.124
 8821SOL     OW27361   2.873   6.300   0.222
 8821SOL    HW127362   2.779   6.271   0.208
 8821SOL    HW227363   2.897   6.290   0.319
 8822SOL     OW27364   0.681   0.179   4.778
 8822SOL    HW127365   0.671   0.158   4.875
 8822SOL    HW227366   0.772   0.151   4.747
 8823SOL     OW27367   2.237   0.838   1.169
 8823SOL    HW127368   2.327   0.880   1.158
 8823SOL    HW227369   2.178   0.866   1.093
 8824SOL     OW27370   0.985   3.555   1.293
 8824SOL    HW127371   0.924   3.627   1.328
 8824SOL    HW227372   0.951   3.466   1.322
 8825SOL     OW27373   1.726   0.561   3.063
 8825SOL    HW127374   1.655   0.604   3.007
 8825SOL    HW227375   1.765   0.629   3.125
 8826SOL     OW27376   6.549   3.137   0.719
 8826SOL    HW127377   6.598   3.055   0.751
 8826SOL    HW227378   6.525   3.125   0.623
 8827SOL     OW27379   3.561   1.014   3.323
 8827SOL    HW127380   3.557   0.915   3.312
 8827SOL    HW227381   3.473   1.048   3.358
 8828SOL     OW27382   4.280   5.331   5.108
 8828SOL    HW127383   4.278   5.234   5.083
 8828SOL    HW227384   4.288   5.387   5.025
 8829SOL     OW27385   6.681   2.079   0.587
 8829SOL    HW127386   6.614   2.009   0.562
 8829SOL    HW227387   6.688   2.084   0.687
 8830SOL     OW27388   0.212   1.558   2.000
 8830SOL    HW127389   0.146   1.581   2.071
 8830SOL    HW227390   0.260   1.641   1.970
 8831SOL     OW27391   5.355   1.085   4.048
 8831SOL    HW127392   5.291   1.031   3.993
 8831SOL    HW227393   5.317   1.098   4.140
 8832SOL     OW27394   0.003   5.945   2.865
 8832SOL    HW127395   6.959   5.974   2.939
 8832SOL    HW227396   0.030   5.850   2.879
 8833SOL     OW27397   2.607   6.128   5.773
 8833SOL    HW127398   2.607   6.131   5.873
 8833SOL    HW227399   2.578   6.037   5.743
 8834SOL     OW27400   5.346   3.491   4.565
 8834SOL    HW127401   5.289   3.562   4.524
 8834SOL    HW227402   5.290   3.411   4.588
 8835SOL     OW27403   5.867   1.023   6.148
 8835SOL    HW127404   5.936   1.082   6.105
 8835SOL    HW227405   5.867   1.039   6.247
 8836SOL     OW27406   4.296   2.213   6.988
 8836SOL    HW127407   4.267   2.117   6.991
 8836SOL    HW227408   4.245   2.261   6.917
 8837SOL     OW27409   0.002   6.311   3.343
 8837SOL    HW127410   6.957   6.273   3.273
 8837SOL    HW227411   0.089   6.333   3.301
 8838SOL     OW27412   2.508   4.521   2.917
 8838SOL    HW127413   2.451   4.439   2.921
 8838SOL    HW227414   2.487   4.579   2.996
 8839SOL     OW27415   5.245   5.257   2.974
 8839SOL    HW127416   5.339   5.288   2.962
 8839SOL    HW227417   5.244   5.171   3.025
 8840SOL     OW27418   6.852   1.978   1.656
 8840SOL    HW127419   6.943   2.014   1.674
 8840SOL    HW227420   6.787   2.019   1.720
 8841SOL     OW27421   0.674   0.482   5.480
 8841SOL    HW127422   0.609   0.435   5.419
 8841SOL    HW227423   0.624   0.529   5.552
 8842SOL     OW27424   3.369   2.830   2.018
 8842SOL    HW127425   3.468   2.824   2.032
 8842SOL    HW227426   3.346   2.798   1.927
 8843SOL     OW27427   1.950   3.450   5.532
 8843SOL    HW127428   1.892   3.419   5.456
 8843SOL    HW227429   2.035   3.488   5.496
 8844SOL     OW27430   6.047   2.267   6.643
 8844SOL    HW127431   6.014   2.341   6.702
 8844SOL    HW227432   6.096   2.306   6.565
 8845SOL     OW27433   4.067   3.583   0.082
 8845SOL    HW127434   4.014   3.620   0.159
 8845SOL    HW227435   4.149   3.537   0.117
 8846SOL     OW27436   3.201   5.838   3.809
 8846SOL    HW127437   3.292   5.876   3.829
 8846SOL    HW227438   3.210   5.741   3.786
 8847SOL     OW27439   2.848   1.590   2.849
 8847SOL    HW127440   2.790   1.524   2.898
 8847SOL    HW227441   2.939   1.551   2.837
 8848SOL     OW27442   2.406   0.758   1.906
 8848SOL    HW127443   2.366   0.850   1.906
 8848SOL    HW227444   2.355   0.700   1.843
 8849SOL     OW27445   3.693   6.044   2.812
 8849SOL    HW127446   3.766   6.112   2.801
 8849SOL    HW227447   3.708   5.968   2.749
 8850SOL     OW27448   1.458   2.483   0.246
 8850SOL    HW127449   1.461   2.553   0.175
 8850SOL    HW227450   1.363   2.457   0.263
 8851SOL     OW27451   1.250   4.216   2.941
 8851SOL    HW127452   1.324   4.247   2.880
 8851SOL    HW227453   1.282   4.137   2.994
 8852SOL     OW27454   0.365   2.069   4.891
 8852SOL    HW127455   0.309   2.004   4.840
 8852SOL    HW227456   0.455   2.077   4.848
 8853SOL     OW27457   2.708   0.716   1.690
 8853SOL    HW127458   2.716   0.680   1.783
 8853SOL    HW227459   2.780   0.676   1.634
 8854SOL     OW27460   2.151   2.533   5.486
 8854SOL    HW127461   2.224   2.495   5.429
 8854SOL    HW227462   2.071   2.554   5.430
 8855SOL     OW27463   6.410   4.959   1.186
 8855SOL    HW127464   6.442   4.871   1.151
 8855SOL    HW227465   6.489   5.016   1.211
 8856SOL     OW27466   0.985   6.518   6.423
 8856SOL    HW127467   0.993   6.616   6.408
 8856SOL    HW227468   1.075   6.478   6.436
 8857SOL     OW27469   6.220   1.656   4.308
 8857SOL    HW127470   6.230   1.756   4.302
 8857SOL    HW227471   6.299   1.613   4.263
 8858SOL     OW27472   6.980   3.825   4.553
 8858SOL    HW127473   6.931   3.795   4.471
 8858SOL    HW227474   0.020   3.904   4.531
 8859SOL     OW27475   0.997   1.612   4.207
 8859SOL    HW127476   1.029   1.706   4.195
 8859SOL    HW227477   1.030   1.576   4.294
 8860SOL     OW27478   6.941   2.315   1.480
 8860SOL    HW127479   7.002   2.335   1.403
 8860SOL    HW227480   6.870   2.251   1.450
 8861SOL     OW27481   3.882   1.017   5.888
 8861SOL    HW127482   3.932   1.085   5.835
 8861SOL    HW227483   3.906   1.027   5.985
 8862SOL     OW27484   5.713   6.739   3.774
 8862SOL    HW127485   5.630   6.768   3.727
 8862SOL    HW227486   5.749   6.657   3.730
 8863SOL     OW27487   2.984   4.801   3.604
 8863SOL    HW127488   2.990   4.847   3.693
 8863SOL    HW227489   2.955   4.706   3.618
 8864SOL     OW27490   3.616   4.624   6.264
 8864SOL    HW127491   3.549   4.600   6.333
 8864SOL    HW227492   3.610   4.722   6.244
 8865SOL     OW27493   2.926   0.878   4.663
 8865SOL    HW127494   2.953   0.782   4.661
 8865SOL    HW227495   2.994   0.930   4.714
 8866SOL     OW27496   5.636   6.855   2.892
 8866SOL    HW127497   5.684   6.939   2.869
 8866SOL    HW227498   5.625   6.798   2.810
 8867SOL     OW27499   5.785   4.692   3.742
 8867SOL    HW127500   5.833   4.762   3.690
 8867SOL    HW227501   5.820   4.689   3.835
 8868SOL     OW27502   7.009   2.992   2.235
 8868SOL    HW127503   0.069   2.983   2.173
 8868SOL    HW227504   0.019   3.046   2.315
 8869SOL     OW27505   4.281   6.089   5.292
 8869SOL    HW127506   4.317   6.032   5.218
 8869SOL    HW227507   4.188   6.061   5.314
 8870SOL     OW27508   2.118   6.649   2.043
 8870SOL    HW127509   2.053   6.726   2.044
 8870SOL    HW227510   2.186   6.662   2.115
 8871SOL     OW27511   2.115   0.345   3.410
 8871SOL    HW127512   2.025   0.326   3.371
 8871SOL    HW227513   2.118   0.310   3.503
 8872SOL     OW27514   1.313   4.875   5.879
 8872SOL    HW127515   1.288   4.971   5.892
 8872SOL    HW227516   1.401   4.870   5.830
 8873SOL     OW27517   2.175   0.075   2.239
 8873SOL    HW127518   2.144   0.161   2.279
 8873SOL    HW227519   2.141   7.016   2.294
 8874SOL     OW27520   2.262   5.739   2.460
 8874SOL    HW127521   2.326   5.672   2.498
 8874SOL    HW227522   2.205   5.695   2.390
 8875SOL     OW27523   6.721   3.516   4.537
 8875SOL    HW127524   6.636   3.480   4.575
 8875SOL    HW227525   6.710   3.613   4.516
 8876SOL     OW27526   2.661   0.847   5.974
 8876SOL    HW127527   2.696   0.850   5.880
 8876SOL    HW227528   2.720   0.788   6.030
 8877SOL     OW27529   2.092   2.516   3.987
 8877SOL    HW127530   2.001   2.532   4.025
 8877SOL    HW227531   2.085   2.503   3.889
 8878SOL     OW27532   3.526   5.082   1.392
 8878SOL    HW127533   3.521   5.098   1.491
 8878SOL    HW227534   3.546   5.168   1.345
 8879SOL     OW27535   4.879   4.963   2.239
 8879SOL    HW127536   4.871   4.886   2.302
 8879SOL    HW227537   4.956   5.020   2.267
 8880SOL     OW27538   3.903   6.646   4.766
 8880SOL    HW127539   3.993   6.643   4.809
 8880SOL    HW227540   3.913   6.651   4.667
 8881SOL     OW27541   5.509   5.723   4.387
 8881SOL    HW127542   5.456   5.805   4.361
 8881SOL    HW227543   5.460   5.641   4.357
 8882SOL     OW27544   4.869   1.204   1.331
 8882SOL    HW127545   4.845   1.248   1.417
 8882SOL    HW227546   4.931   1.127   1.349
 8883SOL     OW27547   1.977   6.452   6.255
 8883SOL    HW127548   1.877   6.443   6.252
 8883SOL    HW227549   2.003   6.500   6.339
 8884SOL     OW27550   5.707   3.498   5.831
 8884SOL    HW127551   5.801   3.475   5.855
 8884SOL    HW227552   5.685   3.590   5.866
 8885SOL     OW27553   4.533   4.860   0.786
 8885SOL    HW127554   4.522   4.761   0.792
 8885SOL    HW227555   4.629   4.884   0.794
 8886SOL     OW27556   3.262   5.787   5.618
 8886SOL    HW127557   3.309   5.794   5.530
 8886SOL    HW227558   3.194   5.713   5.614
 8887SOL     OW27559   4.276   0.867   0.699
 8887SOL    HW127560   4.347   0.905   0.758
 8887SOL    HW227561   4.256   0.930   0.624
 8888SOL     OW27562   2.142   1.959   5.103
 8888SOL    HW127563   2.117   2.043   5.056
 8888SOL    HW227564   2.231   1.927   5.071
 8889SOL     OW27565   6.642   6.631   7.002
 8889SOL    HW127566   6.712   6.676   6.947
 8889SOL    HW227567   6.633   6.679   0.072
 8890SOL     OW27568   0.487   5.822   5.741
 8890SOL    HW127569   0.506   5.869   5.828
 8890SOL    HW227570   0.560   5.843   5.676
 8891SOL     OW27571   3.630   3.938   0.480
 8891SOL    HW127572   3.609   3.847   0.513
 8891SOL    HW227573   3.545   3.989   0.464
 8892SOL     OW27574   3.524   4.872   3.153
 8892SOL    HW127575   3.619   4.866   3.122
 8892SOL    HW227576   3.522   4.876   3.253
 8893SOL     OW27577   0.847   5.277   4.794
 8893SOL    HW127578   0.750   5.255   4.794
 8893SOL    HW227579   0.890   5.238   4.712
 8894SOL     OW27580   3.383   2.255   6.787
 8894SOL    HW127581   3.284   2.247   6.797
 8894SOL    HW227582   3.419   2.172   6.743
 8895SOL     OW27583   6.720   2.109   1.438
 8895SOL    HW127584   6.630   2.151   1.452
 8895SOL    HW227585   6.745   2.057   1.519
 8896SOL     OW27586   1.995   3.146   4.700
 8896SOL    HW127587   2.014   3.176   4.793
 8896SOL    HW227588   2.048   3.063   4.680
 8897SOL     OW27589   2.365   2.228   3.849
 8897SOL    HW127590   2.311   2.261   3.927
 8897SOL    HW227591   2.436   2.295   3.826
 8898SOL     OW27592   5.345   3.214   1.957
 8898SOL    HW127593   5.362   3.255   2.047
 8898SOL    HW227594   5.248   3.221   1.935
 8899SOL     OW27595   1.754   4.471   0.099
 8899SOL    HW127596   1.726   4.565   0.078
 8899SOL    HW227597   1.733   4.412   0.021
 8900SOL     OW27598   5.081   3.054   3.042
 8900SOL    HW127599   5.146   3.110   2.990
 8900SOL    HW227600   4.993   3.102   3.047
 8901SOL     OW27601   0.779   1.303   4.144
 8901SOL    HW127602   0.856   1.248   4.110
 8901SOL    HW227603   0.694   1.270   4.103
 8902SOL     OW27604   1.209   5.641   0.036
 8902SOL    HW127605   1.296   5.655   7.006
 8902SOL    HW227606   1.187   5.721   0.091
 8903SOL     OW27607   0.460   2.196   4.297
 8903SOL    HW127608   0.487   2.247   4.216
 8903SOL    HW227609   0.439   2.261   4.371
 8904SOL     OW27610   0.422   1.106   4.562
 8904SOL    HW127611   0.425   1.007   4.579
 8904SOL    HW227612   0.506   1.135   4.516
 8905SOL     OW27613   2.094   3.316   2.524
 8905SOL    HW127614   2.021   3.365   2.476
 8905SOL    HW227615   2.139   3.253   2.461
 8906SOL     OW27616   0.930   6.385   1.494
 8906SOL    HW127617   0.947   6.443   1.414
 8906SOL    HW227618   0.895   6.297   1.464
 8907SOL     OW27619   3.469   2.846   5.840
 8907SOL    HW127620   3.497   2.865   5.746
 8907SOL    HW227621   3.412   2.921   5.874
 8908SOL     OW27622   2.017   5.863   0.195
 8908SOL    HW127623   2.100   5.908   0.231
 8908SOL    HW227624   1.958   5.838   0.272
 8909SOL     OW27625   2.972   1.108   6.040
 8909SOL    HW127626   3.029   1.188   6.022
 8909SOL    HW227627   3.024   1.025   6.025
 8910SOL     OW27628   0.457   2.829   5.148
 8910SOL    HW127629   0.462   2.881   5.063
 8910SOL    HW227630   0.540   2.774   5.159
 8911SOL     OW27631   4.953   3.452   4.786
 8911SOL    HW127632   4.906   3.502   4.859
 8911SOL    HW227633   5.047   3.487   4.777
 8912SOL     OW27634   2.388   3.050   6.132
 8912SOL    HW127635   2.342   3.067   6.219
 8912SOL    HW227636   2.328   3.077   6.057
 8913SOL     OW27637   4.213   5.484   6.555
 8913SOL    HW127638   4.173   5.572   6.530
 8913SOL    HW227639   4.141   5.414   6.557
 8914SOL     OW27640   4.798   0.227   4.644
 8914SOL    HW127641   4.826   0.153   4.706
 8914SOL    HW227642   4.871   0.294   4.637
 8915SOL     OW27643   1.488   2.075   3.940
 8915SOL    HW127644   1.444   2.089   3.851
 8915SOL    HW227645   1.418   2.061   4.010
 8916SOL     OW27646   6.870   2.744   6.883
 8916SOL    HW127647   6.958   2.769   6.843
 8916SOL    HW227648   6.872   2.647   6.909
 8917SOL     OW27649   5.858   2.594   0.909
 8917SOL    HW127650   5.883   2.671   0.968
 8917SOL    HW227651   5.794   2.534   0.957
 8918SOL     OW27652   1.137   4.839   0.707
 8918SOL    HW127653   1.134   4.934   0.739
 8918SOL    HW227654   1.066   4.786   0.753
 8919SOL     OW27655   5.186   4.403   6.889
 8919SOL    HW127656   5.197   4.374   6.794
 8919SOL    HW227657   5.127   4.337   6.937
 8920SOL     OW27658   0.142   2.169   0.020
 8920SOL    HW127659   0.218   2.107   0.040
 8920SOL    HW227660   0.177   2.256   7.004
 8921SOL     OW27661   2.061   3.092   2.679
 8921SOL    HW127662   2.074   3.006   2.630
 8921SOL    HW227663   2.077   3.168   2.617
 8922SOL     OW27664   3.822   5.765   2.194
 8922SOL    HW127665   3.803   5.686   2.136
 8922SOL    HW227666   3.911   5.753   2.238
 8923SOL     OW27667   1.555   1.042   6.642
 8923SOL    HW127668   1.612   0.972   6.685
 8923SOL    HW227669   1.538   1.017   6.546
 8924SOL     OW27670   4.009   5.462   5.204
 8924SOL    HW127671   3.994   5.369   5.171
 8924SOL    HW227672   4.010   5.463   5.304
 8925SOL     OW27673   0.466   0.996   2.399
 8925SOL    HW127674   0.424   1.049   2.473
 8925SOL    HW227675   0.563   0.982   2.420
 8926SOL     OW27676   6.972   3.161   5.775
 8926SOL    HW127677   0.043   3.143   5.731
 8926SOL    HW227678   6.987   3.178   5.872
 8927SOL     OW27679   6.243   1.057   4.197
 8927SOL    HW127680   6.297   1.137   4.171
 8927SOL    HW227681   6.253   0.986   4.127
 8928SOL     OW27682   1.358   0.410   6.004
 8928SOL    HW127683   1.403   0.491   6.043
 8928SOL    HW227684   1.424   0.336   5.996
 8929SOL     OW27685   5.600   2.028   5.167
 8929SOL    HW127686   5.622   1.932   5.153
 8929SOL    HW227687   5.502   2.039   5.183
 8930SOL     OW27688   1.032   2.817   3.578
 8930SOL    HW127689   0.951   2.815   3.519
 8930SOL    HW227690   1.044   2.726   3.619
 8931SOL     OW27691   3.008   3.759   1.130
 8931SOL    HW127692   2.991   3.853   1.100
 8931SOL    HW227693   2.954   3.695   1.076
 8932SOL     OW27694   6.222   2.294   2.272
 8932SOL    HW127695   6.128   2.262   2.259
 8932SOL    HW227696   6.278   2.218   2.306
 8933SOL     OW27697   2.656   2.683   6.128
 8933SOL    HW127698   2.573   2.681   6.184
 8933SOL    HW227699   2.671   2.777   6.096
 8934SOL     OW27700   2.781   5.384   4.605
 8934SOL    HW127701   2.820   5.319   4.670
 8934SOL    HW227702   2.831   5.378   4.519
 8935SOL     OW27703   0.609   4.392   0.143
 8935SOL    HW127704   0.551   4.466   0.177
 8935SOL    HW227705   0.648   4.341   0.219
 8936SOL     OW27706   1.584   4.117   1.794
 8936SOL    HW127707   1.526   4.197   1.807
 8936SOL    HW227708   1.620   4.116   1.701
 8937SOL     OW27709   0.464   0.531   5.872
 8937SOL    HW127710   0.474   0.568   5.780
 8937SOL    HW227711   0.476   0.432   5.869
 8938SOL     OW27712   0.215   5.764   0.892
 8938SOL    HW127713   0.140   5.764   0.959
 8938SOL    HW227714   0.177   5.744   0.802
 8939SOL     OW27715   4.819   2.992   3.963
 8939SOL    HW127716   4.779   2.967   4.051
 8939SOL    HW227717   4.797   2.922   3.895
 8940SOL     OW27718   0.362   1.334   2.595
 8940SOL    HW127719   0.397   1.244   2.621
 8940SOL    HW227720   0.305   1.325   2.513
 8941SOL     OW27721   6.370   2.564   5.257
 8941SOL    HW127722   6.279   2.551   5.218
 8941SOL    HW227723   6.438   2.570   5.183
 8942SOL     OW27724   6.696   4.602   5.111
 8942SOL    HW127725   6.664   4.683   5.161
 8942SOL    HW227726   6.796   4.596   5.120
 8943SOL     OW27727   3.731   4.243   6.228
 8943SOL    HW127728   3.731   4.276   6.133
 8943SOL    HW227729   3.799   4.293   6.281
 8944SOL     OW27730   5.270   4.833   5.195
 8944SOL    HW127731   5.208   4.833   5.274
 8944SOL    HW227732   5.305   4.740   5.180
 8945SOL     OW27733   0.748   0.562   3.110
 8945SOL    HW127734   0.737   0.595   3.016
 8945SOL    HW227735   0.693   0.619   3.172
 8946SOL     OW27736   3.035   1.205   5.127
 8946SOL    HW127737   3.066   1.299   5.112
 8946SOL    HW227738   2.935   1.202   5.119
 8947SOL     OW27739   1.928   3.438   5.125
 8947SOL    HW127740   1.896   3.528   5.097
 8947SOL    HW227741   2.008   3.449   5.184
 8948SOL     OW27742   6.480   6.556   4.264
 8948SOL    HW127743   6.538   6.492   4.314
 8948SOL    HW227744   6.505   6.555   4.167
 8949SOL     OW27745   2.485   0.033   1.010
 8949SOL    HW127746   2.578   0.044   0.975
 8949SOL    HW227747   2.488   0.003   1.105
 8950SOL     OW27748   4.564   3.827   6.571
 8950SOL    HW127749   4.647   3.816   6.516
 8950SOL    HW227750   4.561   3.920   6.608
 8951SOL     OW27751   0.404   2.008   5.173
 8951SOL    HW127752   0.428   1.911   5.170
 8951SOL    HW227753   0.400   2.045   5.081
 8952SOL     OW27754   1.398   6.891   2.452
 8952SOL    HW127755   1.311   6.852   2.480
 8952SOL    HW227756   1.473   6.836   2.490
 8953SOL     OW27757   1.543   4.440   6.722
 8953SOL    HW127758   1.491   4.523   6.742
 8953SOL    HW227759   1.621   4.463   6.664
 8954SOL     OW27760   0.902   0.135   5.981
 8954SOL    HW127761   0.891   0.176   6.072
 8954SOL    HW227762   0.990   0.162   5.943
 8955SOL     OW27763   0.307   5.074   2.350
 8955SOL    HW127764   0.219   5.027   2.362
 8955SOL    HW227765   0.381   5.013   2.380
 8956SOL     OW27766   0.974   1.884   6.416
 8956SOL    HW127767   1.058   1.938   6.420
 8956SOL    HW227768   0.994   1.792   6.384
 8957SOL     OW27769   2.921   4.032   1.669
 8957SOL    HW127770   2.973   4.002   1.749
 8957SOL    HW227771   2.862   4.109   1.695
 8958SOL     OW27772   0.127   0.403   4.789
 8958SOL    HW127773   0.167   0.405   4.697
 8958SOL    HW227774   0.178   0.465   4.848
 8959SOL     OW27775   1.611   4.956   1.719
 8959SOL    HW127776   1.670   5.036   1.731
 8959SOL    HW227777   1.655   4.891   1.657
 8960SOL     OW27778   4.453   5.418   2.798
 8960SOL    HW127779   4.529   5.355   2.814
 8960SOL    HW227780   4.400   5.429   2.882
 8961SOL     OW27781   2.528   1.910   4.764
 8961SOL    HW127782   2.529   1.903   4.664
 8961SOL    HW227783   2.594   1.979   4.793
 8962SOL     OW27784   6.700   6.471   2.030
 8962SOL    HW127785   6.785   6.427   2.001
 8962SOL    HW227786   6.700   6.566   2.001
 8963SOL     OW27787   5.034   6.503   4.190
 8963SOL    HW127788   5.054   6.573   4.122
 8963SOL    HW227789   5.111   6.497   4.255
 8964SOL     OW27790   4.806   3.794   3.145
 8964SOL    HW127791   4.728   3.732   3.131
 8964SOL    HW227792   4.827   3.799   3.243
 8965SOL     OW27793   2.196   4.713   0.637
 8965SOL    HW127794   2.172   4.628   0.590
 8965SOL    HW227795   2.277   4.753   0.594
 8966SOL     OW27796   6.912   4.019   5.893
 8966SOL    HW127797   6.979   4.044   5.823
 8966SOL    HW227798   6.847   3.953   5.856
 8967SOL     OW27799   3.477   0.140   2.052
 8967SOL    HW127800   3.377   0.134   2.055
 8967SOL    HW227801   3.510   0.188   2.133
 8968SOL     OW27802   5.010   4.966   3.174
 8968SOL    HW127803   4.943   4.999   3.241
 8968SOL    HW227804   5.075   4.906   3.220
 8969SOL     OW27805   6.930   1.089   4.349
 8969SOL    HW127806   6.921   1.060   4.253
 8969SOL    HW227807   0.006   1.120   4.365
 8970SOL     OW27808   2.802   3.301   6.996
 8970SOL    HW127809   2.721   3.355   0.004
 8970SOL    HW227810   2.777   3.204   6.993
 8971SOL     OW27811   5.104   5.059   2.348
 8971SOL    HW127812   5.164   5.138   2.363
 8971SOL    HW227813   5.160   4.977   2.336
 8972SOL     OW27814   4.607   4.324   6.743
 8972SOL    HW127815   4.557   4.406   6.718
 8972SOL    HW227816   4.622   4.268   6.662
 8973SOL     OW27817   1.227   3.456   2.332
 8973SOL    HW127818   1.318   3.496   2.348
 8973SOL    HW227819   1.180   3.445   2.419
 8974SOL     OW27820   1.899   4.456   5.867
 8974SOL    HW127821   1.907   4.528   5.799
 8974SOL    HW227822   1.854   4.376   5.827
 8975SOL     OW27823   2.093   0.106   6.602
 8975SOL    HW127824   2.047   0.054   6.674
 8975SOL    HW227825   2.184   0.132   6.633
 8976SOL     OW27826   0.218   4.805   4.917
 8976SOL    HW127827   0.269   4.858   4.985
 8976SOL    HW227828   0.251   4.830   4.825
 8977SOL     OW27829   5.851   2.106   0.033
 8977SOL    HW127830   5.775   2.084   6.988
 8977SOL    HW227831   5.937   2.104   6.999
 8978SOL     OW27832   5.625   7.015   5.765
 8978SOL    HW127833   5.701   6.962   5.804
 8978SOL    HW227834   5.652   0.033   5.675
 8979SOL     OW27835   0.986   3.115   4.535
 8979SOL    HW127836   0.966   3.027   4.578
 8979SOL    HW227837   0.900   3.164   4.517
 8980SOL     OW27838   2.343   2.967   5.579
 8980SOL    HW127839   2.420   3.028   5.558
 8980SOL    HW227840   2.330   2.902   5.504
 8981SOL     OW27841   4.341   1.844   5.555
 8981SOL    HW127842   4.272   1.772   5.553
 8981SOL    HW227843   4.431   1.803   5.571
 8982SOL     OW27844   1.543   2.329   0.788
 8982SOL    HW127845   1.605   2.252   0.772
 8982SOL    HW227846   1.465   2.323   0.725
 8983SOL     OW27847   1.608   6.635   0.101
 8983SOL    HW127848   1.652   6.654   0.013
 8983SOL    HW227849   1.517   6.676   0.103
 8984SOL     OW27850   0.214   0.378   4.512
 8984SOL    HW127851   0.142   0.318   4.546
 8984SOL    HW227852   0.225   0.366   4.413
 8985SOL     OW27853   2.378   3.564   0.380
 8985SOL    HW127854   2.421   3.566   0.471
 8985SOL    HW227855   2.282   3.592   0.388
 8986SOL     OW27856   5.066   5.313   2.498
 8986SOL    HW127857   5.144   5.323   2.437
 8986SOL    HW227858   5.030   5.220   2.491
 8987SOL     OW27859   4.550   6.957   1.315
 8987SOL    HW127860   4.476   6.996   1.370
 8987SOL    HW227861   4.575   6.867   1.351
 8988SOL     OW27862   1.479   4.017   5.051
 8988SOL    HW127863   1.528   4.088   5.101
 8988SOL    HW227864   1.416   3.971   5.113
 8989SOL     OW27865   4.994   3.903   0.725
 8989SOL    HW127866   4.921   3.880   0.661
 8989SOL    HW227867   5.083   3.880   0.684
 8990SOL     OW27868   1.466   6.043   3.966
 8990SOL    HW127869   1.444   5.955   3.925
 8990SOL    HW227870   1.565   6.054   3.971
 8991SOL     OW27871   1.901   2.348   5.993
 8991SOL    HW127872   1.857   2.364   6.081
 8991SOL    HW227873   1.885   2.426   5.933
 8992SOL     OW27874   5.233   1.302   6.979
 8992SOL    HW127875   5.330   1.286   6.998
 8992SOL    HW227876   5.186   1.215   6.966
 8993SOL     OW27877   5.581   2.331   2.226
 8993SOL    HW127878   5.603   2.314   2.130
 8993SOL    HW227879   5.488   2.368   2.233
 8994SOL     OW27880   1.282   4.474   4.850
 8994SOL    HW127881   1.285   4.409   4.773
 8994SOL    HW227882   1.314   4.429   4.933
 8995SOL     OW27883   1.339   2.837   0.366
 8995SOL    HW127884   1.305   2.893   0.291
 8995SOL    HW227885   1.267   2.825   0.435
 8996SOL     OW27886   6.005   5.404   0.391
 8996SOL    HW127887   6.096   5.367   0.414
 8996SOL    HW227888   5.984   5.479   0.453
 8997SOL     OW27889   5.146   1.549   6.145
 8997SOL    HW127890   5.172   1.485   6.072
 8997SOL    HW227891   5.224   1.563   6.206
 8998SOL     OW27892   5.883   3.618   3.844
 8998SOL    HW127893   5.892   3.660   3.754
 8998SOL    HW227894   5.894   3.519   3.835
 8999SOL     OW27895   4.534   5.872   6.487
 8999SOL    HW127896   4.466   5.802   6.467
 8999SOL    HW227897   4.626   5.835   6.475
 9000SOL     OW27898   1.507   3.953   1.348
 9000SOL    HW127899   1.452   3.995   1.275
 9000SOL    HW227900   1.498   3.853   1.343
 9001SOL     OW27901   1.253   5.351   2.318
 9001SOL    HW127902   1.315   5.272   2.315
 9001SOL    HW227903   1.302   5.433   2.288
 9002SOL     OW27904   0.725   4.856   5.304
 9002SOL    HW127905   0.770   4.769   5.326
 9002SOL    HW227906   0.687   4.851   5.212
 9003SOL     OW27907   5.534   3.212   1.687
 9003SOL    HW127908   5.519   3.162   1.772
 9003SOL    HW227909   5.630   3.241   1.682
 9004SOL     OW27910   3.907   6.476   1.417
 9004SOL    HW127911   3.934   6.553   1.359
 9004SOL    HW227912   3.989   6.435   1.459
 9005SOL     OW27913   5.701   2.495   4.549
 9005SOL    HW127914   5.737   2.513   4.457
 9005SOL    HW227915   5.759   2.540   4.617
 9006SOL     OW27916   2.476   5.450   1.318
 9006SOL    HW127917   2.437   5.464   1.227
 9006SOL    HW227918   2.459   5.356   1.347
 9007SOL     OW27919   3.112   1.173   3.560
 9007SOL    HW127920   3.064   1.108   3.619
 9007SOL    HW227921   3.051   1.250   3.540
 9008SOL     OW27922   1.349   5.774   3.852
 9008SOL    HW127923   1.353   5.818   3.762
 9008SOL    HW227924   1.255   5.773   3.885
 9009SOL     OW27925   3.146   6.455   0.816
 9009SOL    HW127926   3.166   6.552   0.805
 9009SOL    HW227927   3.046   6.442   0.817
 9010SOL     OW27928   1.537   6.458   4.139
 9010SOL    HW127929   1.519   6.426   4.046
 9010SOL    HW227930   1.564   6.555   4.136
 9011SOL     OW27931   4.994   1.808   2.070
 9011SOL    HW127932   4.897   1.808   2.047
 9011SOL    HW227933   5.008   1.852   2.159
 9012SOL     OW27934   2.136   4.013   0.398
 9012SOL    HW127935   2.070   3.942   0.377
 9012SOL    HW227936   2.225   3.972   0.417
 9013SOL     OW27937   0.292   6.481   5.311
 9013SOL    HW127938   0.261   6.571   5.343
 9013SOL    HW227939   0.362   6.493   5.240
 9014SOL     OW27940   6.559   2.037   0.074
 9014SOL    HW127941   6.501   2.055   0.154
 9014SOL    HW227942   6.569   1.938   0.062
 9015SOL     OW27943   4.353   1.916   1.884
 9015SOL    HW127944   4.281   1.915   1.954
 9015SOL    HW227945   4.370   1.822   1.854
 9016SOL     OW27946   0.323   6.551   6.602
 9016SOL    HW127947   0.271   6.634   6.586
 9016SOL    HW227948   0.417   6.563   6.572
 9017SOL     OW27949   4.255   2.104   3.801
 9017SOL    HW127950   4.270   2.188   3.748
 9017SOL    HW227951   4.290   2.116   3.893
 9018SOL     OW27952   3.509   3.001   6.939
 9018SOL    HW127953   3.492   2.907   6.911
 9018SOL    HW227954   3.479   3.063   6.867
 9019SOL     OW27955   1.317   5.549   2.132
 9019SOL    HW127956   1.306   5.498   2.046
 9019SOL    HW227957   1.390   5.616   2.121
 9020SOL     OW27958   0.135   3.510   0.497
 9020SOL    HW127959   0.169   3.435   0.553
 9020SOL    HW227960   0.041   3.489   0.468
 9021SOL     OW27961   6.615   6.943   3.473
 9021SOL    HW127962   6.656   6.956   3.563
 9021SOL    HW227963   6.538   6.879   3.480
 9022SOL     OW27964   3.331   1.396   6.882
 9022SOL    HW127965   3.318   1.297   6.887
 9022SOL    HW227966   3.366   1.420   6.792
 9023SOL     OW27967   3.354   2.894   2.355
 9023SOL    HW127968   3.308   2.845   2.282
 9023SOL    HW227969   3.390   2.981   2.320
 9024SOL     OW27970   0.768   4.113   4.761
 9024SOL    HW127971   0.791   4.209   4.741
 9024SOL    HW227972   0.712   4.109   4.844
 9025SOL     OW27973   0.883   5.283   0.856
 9025SOL    HW127974   0.807   5.347   0.867
 9025SOL    HW227975   0.964   5.320   0.901
 9026SOL     OW27976   3.776   2.842   0.508
 9026SOL    HW127977   3.702   2.775   0.493
 9026SOL    HW227978   3.836   2.808   0.580
 9027SOL     OW27979   1.544   2.508   3.007
 9027SOL    HW127980   1.623   2.566   2.991
 9027SOL    HW227981   1.571   2.426   3.057
 9028SOL     OW27982   2.969   3.470   5.453
 9028SOL    HW127983   3.052   3.510   5.415
 9028SOL    HW227984   2.920   3.420   5.381
 9029SOL     OW27985   3.977   6.945   4.720
 9029SOL    HW127986   3.925   6.868   4.680
 9029SOL    HW227987   4.074   6.921   4.723
 9030SOL     OW27988   3.055   1.505   3.613
 9030SOL    HW127989   3.040   1.603   3.595
 9030SOL    HW227990   3.015   1.481   3.702
 9031SOL     OW27991   3.930   6.388   4.407
 9031SOL    HW127992   3.937   6.291   4.432
 9031SOL    HW227993   3.883   6.396   4.319
 9032SOL     OW27994   3.831   3.579   0.860
 9032SOL    HW127995   3.865   3.501   0.914
 9032SOL    HW227996   3.796   3.545   0.773
 9033SOL     OW27997   0.199   3.927   2.934
 9033SOL    HW127998   0.271   3.905   2.999
 9033SOL    HW227999   0.240   3.944   2.844
 9034SOL     OW28000   3.074   6.665   4.971
 9034SOL    HW128001   3.107   6.610   5.047
 9034SOL    HW228002   3.039   6.606   4.899
 9035SOL     OW28003   2.033   4.851   6.580
 9035SOL    HW128004   2.056   4.781   6.512
 9035SOL    HW228005   2.094   4.841   6.659
 9036SOL     OW28006   1.958   1.785   5.756
 9036SOL    HW128007   1.988   1.850   5.826
 9036SOL    HW228008   2.038   1.744   5.712
 9037SOL     OW28009   1.197   3.785   4.737
 9037SOL    HW128010   1.099   3.805   4.735
 9037SOL    HW228011   1.245   3.857   4.786
 9038SOL     OW28012   3.887   1.033   6.175
 9038SOL    HW128013   3.833   0.968   6.229
 9038SOL    HW228014   3.867   1.126   6.205
 9039SOL     OW28015   2.108   5.648   5.394
 9039SOL    HW128016   2.169   5.603   5.460
 9039SOL    HW228017   2.013   5.621   5.413
 9040SOL     OW28018   3.578   2.105   2.782
 9040SOL    HW128019   3.596   2.077   2.688
 9040SOL    HW228020   3.664   2.117   2.831
 9041SOL     OW28021   1.032   2.102   1.802
 9041SOL    HW128022   1.056   2.189   1.846
 9041SOL    HW228023   1.023   2.116   1.703
 9042SOL     OW28024   3.693   6.690   5.477
 9042SOL    HW128025   3.786   6.720   5.498
 9042SOL    HW228026   3.682   6.685   5.378
 9043SOL     OW28027   0.960   0.372   0.136
 9043SOL    HW128028   1.045   0.372   0.190
 9043SOL    HW228029   0.981   0.343   0.043
 9044SOL     OW28030   6.218   0.363   0.406
 9044SOL    HW128031   6.154   0.432   0.371
 9044SOL    HW228032   6.175   0.312   0.480
 9045SOL     OW28033   2.516   2.133   2.611
 9045SOL    HW128034   2.537   2.061   2.677
 9045SOL    HW228035   2.458   2.202   2.655
 9046SOL     OW28036   3.391   3.573   2.724
 9046SOL    HW128037   3.384   3.477   2.694
 9046SOL    HW228038   3.480   3.588   2.766
 9047SOL     OW28039   2.081   4.202   5.048
 9047SOL    HW128040   2.038   4.234   4.963
 9047SOL    HW228041   2.163   4.149   5.026
 9048SOL     OW28042   5.517   3.329   5.874
 9048SOL    HW128043   5.596   3.383   5.847
 9048SOL    HW228044   5.433   3.381   5.858
 9049SOL     OW28045   3.544   6.611   6.124
 9049SOL    HW128046   3.492   6.694   6.142
 9049SOL    HW228047   3.521   6.576   6.033
 9050SOL     OW28048   0.858   2.974   0.849
 9050SOL    HW128049   0.801   2.975   0.931
 9050SOL    HW228050   0.802   3.001   0.770
 9051SOL     OW28051   3.778   0.414   1.056
 9051SOL    HW128052   3.877   0.416   1.039
 9051SOL    HW228053   3.734   0.487   1.004
 9052SOL     OW28054   2.873   2.270   4.325
 9052SOL    HW128055   2.774   2.275   4.308
 9052SOL    HW228056   2.915   2.358   4.300
 9053SOL     OW28057   2.054   0.999   2.521
 9053SOL    HW128058   2.004   0.931   2.468
 9053SOL    HW228059   2.097   0.954   2.600
 9054SOL     OW28060   2.892   6.184   3.893
 9054SOL    HW128061   2.814   6.171   3.955
 9054SOL    HW228062   2.926   6.095   3.864
 9055SOL     OW28063   6.260   2.781   4.413
 9055SOL    HW128064   6.236   2.845   4.340
 9055SOL    HW228065   6.268   2.831   4.499
 9056SOL     OW28066   0.736   2.675   1.899
 9056SOL    HW128067   0.692   2.763   1.919
 9056SOL    HW228068   0.697   2.604   1.956
 9057SOL     OW28069   4.821   3.574   6.166
 9057SOL    HW128070   4.758   3.517   6.112
 9057SOL    HW228071   4.913   3.535   6.162
 9058SOL     OW28072   2.190   1.075   1.765
 9058SOL    HW128073   2.131   1.154   1.745
 9058SOL    HW228074   2.272   1.106   1.814
 9059SOL     OW28075   1.230   1.520   3.568
 9059SOL    HW128076   1.326   1.514   3.594
 9059SOL    HW228077   1.204   1.435   3.521
 9060SOL     OW28078   6.045   2.949   4.089
 9060SOL    HW128079   6.074   2.868   4.039
 9060SOL    HW228080   5.963   2.987   4.048
 9061SOL     OW28081   2.145   5.283   1.941
 9061SOL    HW128082   2.115   5.350   1.873
 9061SOL    HW228083   2.245   5.279   1.942
 9062SOL     OW28084   1.903   6.484   2.087
 9062SOL    HW128085   1.874   6.505   2.181
 9062SOL    HW228086   1.989   6.531   2.068
 9063SOL     OW28087   3.492   0.500   3.733
 9063SOL    HW128088   3.496   0.515   3.831
 9063SOL    HW228089   3.538   0.575   3.685
 9064SOL     OW28090   6.081   2.533   5.515
 9064SOL    HW128091   6.164   2.523   5.570
 9064SOL    HW228092   6.022   2.453   5.530
 9065SOL     OW28093   3.996   0.507   6.459
 9065SOL    HW128094   4.013   0.437   6.528
 9065SOL    HW228095   4.062   0.581   6.470
 9066SOL     OW28096   4.990   6.616   0.953
 9066SOL    HW128097   4.980   6.545   0.883
 9066SOL    HW228098   4.990   6.706   0.910
 9067SOL     OW28099   0.914   0.347   4.700
 9067SOL    HW128100   0.931   0.394   4.787
 9067SOL    HW228101   0.975   0.268   4.692
 9068SOL     OW28102   2.232   6.574   4.658
 9068SOL    HW128103   2.148   6.598   4.705
 9068SOL    HW228104   2.246   6.474   4.662
 9069SOL     OW28105   1.380   3.202   1.790
 9069SOL    HW128106   1.291   3.204   1.834
 9069SOL    HW228107   1.376   3.253   1.703
 9070SOL     OW28108   1.208   3.243   4.995
 9070SOL    HW128109   1.262   3.189   5.060
 9070SOL    HW228110   1.238   3.222   4.902
 9071SOL     OW28111   6.131   6.568   1.968
 9071SOL    HW128112   6.084   6.626   2.034
 9071SOL    HW228113   6.096   6.588   1.876
 9072SOL     OW28114   6.890   1.902   1.014
 9072SOL    HW128115   6.854   1.984   1.058
 9072SOL    HW228116   6.969   1.869   1.065
 9073SOL     OW28117   2.681   0.086   2.564
 9073SOL    HW128118   2.747   0.120   2.631
 9073SOL    HW228119   2.710   7.013   2.532
 9074SOL     OW28120   1.303   1.355   1.850
 9074SOL    HW128121   1.288   1.454   1.852
 9074SOL    HW228122   1.363   1.332   1.773
 9075SOL     OW28123   6.933   1.099   1.983
 9075SOL    HW128124   6.877   1.135   1.908
 9075SOL    HW228125   6.979   1.174   2.030
 9076SOL     OW28126   0.363   2.780   5.433
 9076SOL    HW128127   0.264   2.770   5.446
 9076SOL    HW228128   0.382   2.797   5.336
 9077SOL     OW28129   4.899   0.458   0.336
 9077SOL    HW128130   4.867   0.535   0.282
 9077SOL    HW228131   4.827   0.389   0.341
 9078SOL     OW28132   3.833   3.503   5.065
 9078SOL    HW128133   3.794   3.518   5.156
 9078SOL    HW228134   3.794   3.421   5.025
 9079SOL     OW28135   2.519   0.543   4.443
 9079SOL    HW128136   2.535   0.564   4.539
 9079SOL    HW228137   2.605   0.517   4.399
 9080SOL     OW28138   4.618   2.383   5.910
 9080SOL    HW128139   4.656   2.306   5.960
 9080SOL    HW228140   4.558   2.435   5.970
 9081SOL     OW28141   4.002   0.270   2.373
 9081SOL    HW128142   3.904   0.249   2.378
 9081SOL    HW228143   4.055   0.190   2.403
 9082SOL     OW28144   2.117   0.349   5.275
 9082SOL    HW128145   2.034   0.301   5.245
 9082SOL    HW228146   2.161   0.390   5.195
 9083SOL     OW28147   3.613   5.197   6.070
 9083SOL    HW128148   3.586   5.184   5.975
 9083SOL    HW228149   3.540   5.165   6.130
 9084SOL     OW28150   3.463   3.828   3.141
 9084SOL    HW128151   3.440   3.895   3.070
 9084SOL    HW228152   3.440   3.736   3.108
 9085SOL     OW28153   2.439   0.625   1.586
 9085SOL    HW128154   2.536   0.644   1.604
 9085SOL    HW228155   2.388   0.711   1.582
 9086SOL     OW28156   0.675   4.559   6.718
 9086SOL    HW128157   0.608   4.492   6.688
 9086SOL    HW228158   0.660   4.580   6.815
 9087SOL     OW28159   4.889   2.476   1.402
 9087SOL    HW128160   4.863   2.477   1.499
 9087SOL    HW228161   4.907   2.382   1.373
 9088SOL     OW28162   0.093   6.822   1.566
 9088SOL    HW128163   0.037   6.753   1.521
 9088SOL    HW228164   0.102   6.800   1.663
 9089SOL     OW28165   5.363   5.826   5.385
 9089SOL    HW128166   5.305   5.748   5.361
 9089SOL    HW228167   5.313   5.911   5.369
 9090SOL     OW28168   6.160   1.370   5.083
 9090SOL    HW128169   6.099   1.350   5.159
 9090SOL    HW228170   6.106   1.386   5.000
 9091SOL     OW28171   2.704   4.179   0.400
 9091SOL    HW128172   2.615   4.221   0.381
 9091SOL    HW228173   2.754   4.167   0.314
 9092SOL     OW28174   6.735   0.845   0.097
 9092SOL    HW128175   6.655   0.786   0.083
 9092SOL    HW228176   6.806   0.821   0.030
 9093SOL     OW28177   1.496   5.896   5.540
 9093SOL    HW128178   1.545   5.886   5.453
 9093SOL    HW228179   1.537   5.970   5.593
 9094SOL     OW28180   6.125   4.805   3.055
 9094SOL    HW128181   6.135   4.821   2.957
 9094SOL    HW228182   6.215   4.798   3.098
 9095SOL     OW28183   5.056   4.834   6.353
 9095SOL    HW128184   5.096   4.925   6.337
 9095SOL    HW228185   5.031   4.825   6.449
 9096SOL     OW28186   6.529   4.857   2.544
 9096SOL    HW128187   6.590   4.795   2.592
 9096SOL    HW228188   6.491   4.924   2.609
 9097SOL     OW28189   2.014   1.966   0.813
 9097SOL    HW128190   1.992   2.057   0.849
 9097SOL    HW228191   1.938   1.904   0.831
 9098SOL     OW28192   3.060   1.900   4.692
 9098SOL    HW128193   3.092   1.978   4.746
 9098SOL    HW228194   3.024   1.829   4.754
 9099SOL     OW28195   2.591   3.124   5.618
 9099SOL    HW128196   2.650   3.082   5.687
 9099SOL    HW228197   2.639   3.131   5.531
 9100SOL     OW28198   0.432   3.559   3.154
 9100SOL    HW128199   0.391   3.559   3.245
 9100SOL    HW228200   0.527   3.531   3.161
 9101SOL     OW28201   2.640   1.856   1.946
 9101SOL    HW128202   2.547   1.826   1.967
 9101SOL    HW228203   2.642   1.955   1.937
 9102SOL     OW28204   2.797   6.588   1.807
 9102SOL    HW128205   2.731   6.663   1.812
 9102SOL    HW228206   2.881   6.620   1.762
 9103SOL     OW28207   5.700   1.821   6.993
 9103SOL    HW128208   5.635   1.748   6.972
 9103SOL    HW228209   5.685   1.853   0.069
 9104SOL     OW28210   6.971   6.636   1.380
 9104SOL    HW128211   0.029   6.583   1.340
 9104SOL    HW228212   6.918   6.678   1.307
 9105SOL     OW28213   0.846   0.213   5.507
 9105SOL    HW128214   0.775   0.282   5.494
 9105SOL    HW228215   0.817   0.148   5.577
 9106SOL     OW28216   6.347   2.765   0.913
 9106SOL    HW128217   6.397   2.839   0.958
 9106SOL    HW228218   6.367   2.766   0.815
 9107SOL     OW28219   1.927   0.624   6.885
 9107SOL    HW128220   1.847   0.568   6.910
 9107SOL    HW228221   1.944   0.615   6.787
 9108SOL     OW28222   4.860   4.235   5.301
 9108SOL    HW128223   4.938   4.182   5.334
 9108SOL    HW228224   4.864   4.328   5.338
 9109SOL     OW28225   4.964   3.545   2.794
 9109SOL    HW128226   4.960   3.625   2.734
 9109SOL    HW228227   4.949   3.463   2.739
 9110SOL     OW28228   1.465   5.389   4.585
 9110SOL    HW128229   1.404   5.468   4.572
 9110SOL    HW228230   1.538   5.392   4.517
 9111SOL     OW28231   4.534   2.642   6.592
 9111SOL    HW128232   4.532   2.741   6.606
 9111SOL    HW228233   4.611   2.603   6.642
 9112SOL     OW28234   1.485   4.696   2.668
 9112SOL    HW128235   1.436   4.645   2.597
 9112SOL    HW228236   1.451   4.790   2.671
 9113SOL     OW28237   5.187   2.138   2.899
 9113SOL    HW128238   5.275   2.167   2.861
 9113SOL    HW228239   5.126   2.218   2.906
 9114SOL     OW28240   0.521   5.660   3.890
 9114SOL    HW128241   0.614   5.625   3.901
 9114SOL    HW228242   0.524   5.751   3.849
 9115SOL     OW28243   5.689   5.679   5.093
 9115SOL    HW128244   5.774   5.634   5.066
 9115SOL    HW228245   5.653   5.635   5.175
 9116SOL     OW28246   0.329   0.206   3.122
 9116SOL    HW128247   0.354   0.110   3.133
 9116SOL    HW228248   0.233   0.213   3.095
 9117SOL     OW28249   3.904   2.418   6.396
 9117SOL    HW128250   3.853   2.503   6.385
 9117SOL    HW228251   3.999   2.432   6.365
 9118SOL     OW28252   6.548   3.355   0.156
 9118SOL    HW128253   6.478   3.284   0.150
 9118SOL    HW228254   6.638   3.315   0.136
 9119SOL     OW28255   4.244   1.271   1.347
 9119SOL    HW128256   4.256   1.218   1.431
 9119SOL    HW228257   4.272   1.366   1.363
 9120SOL     OW28258   6.495   3.046   5.402
 9120SOL    HW128259   6.528   2.955   5.425
 9120SOL    HW228260   6.396   3.043   5.388
 9121SOL     OW28261   3.720   6.593   5.775
 9121SOL    HW128262   3.722   6.627   5.681
 9121SOL    HW228263   3.756   6.662   5.837
 9122SOL     OW28264   2.345   4.255   2.000
 9122SOL    HW128265   2.287   4.337   1.993
 9122SOL    HW228266   2.427   4.277   2.052
 9123SOL     OW28267   1.649   0.314   4.322
 9123SOL    HW128268   1.699   0.358   4.247
 9123SOL    HW228269   1.648   0.215   4.307
 9124SOL     OW28270   3.740   5.530   2.094
 9124SOL    HW128271   3.721   5.444   2.141
 9124SOL    HW228272   3.807   5.515   2.022
 9125SOL     OW28273   4.039   4.281   1.013
 9125SOL    HW128274   3.963   4.242   1.064
 9125SOL    HW228275   4.006   4.359   0.959
 9126SOL     OW28276   4.823   4.021   0.913
 9126SOL    HW128277   4.871   4.035   0.999
 9126SOL    HW228278   4.889   4.001   0.840
 9127SOL     OW28279   6.631   2.809   5.415
 9127SOL    HW128280   6.662   2.800   5.321
 9127SOL    HW228281   6.573   2.731   5.438
 9128SOL     OW28282   6.126   2.443   4.657
 9128SOL    HW128283   6.090   2.444   4.564
 9128SOL    HW228284   6.145   2.536   4.686
 9129SOL     OW28285   0.290   1.807   0.453
 9129SOL    HW128286   0.349   1.821   0.532
 9129SOL    HW228287   0.309   1.879   0.385
 9130SOL     OW28288   0.752   4.164   6.109
 9130SOL    HW128289   0.660   4.192   6.139
 9130SOL    HW228290   0.756   4.167   6.010
 9131SOL     OW28291   5.437   3.585   6.957
 9131SOL    HW128292   5.375   3.507   6.957
 9131SOL    HW228293   5.407   3.652   0.008
 9132SOL     OW28294   0.952   4.355   4.203
 9132SOL    HW128295   0.946   4.446   4.162
 9132SOL    HW228296   1.028   4.305   4.162
 9133SOL     OW28297   3.370   1.044   1.073
 9133SOL    HW128298   3.308   1.094   1.012
 9133SOL    HW228299   3.460   1.037   1.031
 9134SOL     OW28300   3.962   5.721   1.366
 9134SOL    HW128301   3.922   5.765   1.285
 9134SOL    HW228302   4.062   5.718   1.357
 9135SOL     OW28303   1.585   6.200   1.864
 9135SOL    HW128304   1.640   6.198   1.947
 9135SOL    HW228305   1.562   6.294   1.840
 9136SOL     OW28306   4.123   5.903   5.737
 9136SOL    HW128307   4.208   5.870   5.695
 9136SOL    HW228308   4.105   5.851   5.820
 9137SOL     OW28309   4.301   0.232   5.847
 9137SOL    HW128310   4.271   0.137   5.836
 9137SOL    HW228311   4.363   0.238   5.926
 9138SOL     OW28312   2.163   3.254   0.325
 9138SOL    HW128313   2.261   3.241   0.313
 9138SOL    HW228314   2.145   3.295   0.415
 9139SOL     OW28315   0.964   1.251   1.535
 9139SOL    HW128316   0.867   1.243   1.508
 9139SOL    HW228317   1.019   1.270   1.453
 9140SOL     OW28318   0.493   4.918   2.492
 9140SOL    HW128319   0.551   4.873   2.559
 9140SOL    HW228320   0.491   4.864   2.408
 9141SOL     OW28321   0.010   5.961   6.583
 9141SOL    HW128322   0.001   5.985   6.680
 9141SOL    HW228323   0.107   5.950   6.561
 9142SOL     OW28324   7.011   2.760   2.901
 9142SOL    HW128325   6.986   2.832   2.836
 9142SOL    HW228326   6.953   2.766   2.981
 9143SOL     OW28327   0.725   4.021   1.190
 9143SOL    HW128328   0.819   3.996   1.217
 9143SOL    HW228329   0.728   4.102   1.131
 9144SOL     OW28330   2.731   4.798   4.744
 9144SOL    HW128331   2.749   4.700   4.749
 9144SOL    HW228332   2.701   4.831   4.833
 9145SOL     OW28333   1.454   6.759   6.547
 9145SOL    HW128334   1.464   6.858   6.531
 9145SOL    HW228335   1.418   6.716   6.465
 9146SOL     OW28336   5.429   2.815   3.004
 9146SOL    HW128337   5.345   2.784   2.959
 9146SOL    HW228338   5.424   2.795   3.102
 9147SOL     OW28339   6.374   1.013   5.092
 9147SOL    HW128340   6.277   0.994   5.108
 9147SOL    HW228341   6.405   0.965   5.010
 9148SOL     OW28342   5.780   0.083   2.053
 9148SOL    HW128343   5.724   0.135   1.989
 9148SOL    HW228344   5.872   0.121   2.057
 9149SOL     OW28345   5.595   3.117   2.196
 9149SOL    HW128346   5.614   3.083   2.288
 9149SOL    HW228347   5.530   3.193   2.201
 9150SOL     OW28348   3.187   4.193   0.731
 9150SOL    HW128349   3.165   4.282   0.692
 9150SOL    HW228350   3.286   4.187   0.747
 9151SOL     OW28351   2.272   4.145   3.719
 9151SOL    HW128352   2.223   4.192   3.645
 9151SOL    HW228353   2.231   4.055   3.733
 9152SOL     OW28354   2.044   4.443   4.079
 9152SOL    HW128355   2.055   4.446   4.179
 9152SOL    HW228356   2.134   4.429   4.037
 9153SOL     OW28357   0.634   3.698   6.484
 9153SOL    HW128358   0.648   3.601   6.466
 9153SOL    HW228359   0.609   3.711   6.580
 9154SOL     OW28360   4.726   5.129   3.108
 9154SOL    HW128361   4.745   5.052   3.168
 9154SOL    HW228362   4.796   5.199   3.120
 9155SOL     OW28363   1.293   4.563   3.052
 9155SOL    HW128364   1.383   4.528   3.077
 9155SOL    HW228365   1.281   4.555   2.953
 9156SOL     OW28366   6.677   2.617   0.803
 9156SOL    HW128367   6.668   2.585   0.898
 9156SOL    HW228368   6.597   2.586   0.751
 9157SOL     OW28369   3.321   3.992   6.299
 9157SOL    HW128370   3.343   4.086   6.322
 9157SOL    HW228371   3.366   3.967   6.213
 9158SOL     OW28372   6.642   4.800   4.330
 9158SOL    HW128373   6.641   4.747   4.245
 9158SOL    HW228374   6.638   4.738   4.408
 9159SOL     OW28375   2.199   6.867   3.158
 9159SOL    HW128376   2.142   6.786   3.170
 9159SOL    HW228377   2.166   6.940   3.218
 9160SOL     OW28378   0.309   4.952   6.495
 9160SOL    HW128379   0.215   4.962   6.527
 9160SOL    HW228380   0.312   4.970   6.396
 9161SOL     OW28381   5.790   5.069   3.148
 9161SOL    HW128382   5.703   5.113   3.172
 9161SOL    HW228383   5.793   5.056   3.048
 9162SOL     OW28384   3.833   1.017   3.294
 9162SOL    HW128385   3.735   1.004   3.302
 9162SOL    HW228386   3.859   1.102   3.340
 9163SOL     OW28387   6.860   2.616   1.807
 9163SOL    HW128388   6.870   2.536   1.867
 9163SOL    HW228389   6.853   2.585   1.712
 9164SOL     OW28390   2.099   0.708   0.094
 9164SOL    HW128391   2.028   0.685   0.028
 9164SOL    HW228392   2.099   0.806   0.112
 9165SOL     OW28393   5.261   2.317   5.794
 9165SOL    HW128394   5.350   2.353   5.764
 9165SOL    HW228395   5.207   2.290   5.715
 9166SOL     OW28396   4.139   5.749   0.925
 9166SOL    HW128397   4.100   5.832   0.884
 9166SOL    HW228398   4.234   5.740   0.896
 9167SOL     OW28399   1.238   2.027   6.453
 9167SOL    HW128400   1.265   2.063   6.542
 9167SOL    HW228401   1.317   2.025   6.392
 9168SOL     OW28402   6.466   5.562   6.153
 9168SOL    HW128403   6.508   5.481   6.112
 9168SOL    HW228404   6.455   5.548   6.251
 9169SOL     OW28405   6.922   6.463   6.359
 9169SOL    HW128406   6.862   6.446   6.438
 9169SOL    HW228407   6.968   6.378   6.334
 9170SOL     OW28408   2.072   1.599   6.528
 9170SOL    HW128409   2.123   1.621   6.445
 9170SOL    HW228410   2.000   1.667   6.542
 9171SOL     OW28411   2.471   5.143   1.016
 9171SOL    HW128412   2.523   5.058   1.024
 9171SOL    HW228413   2.486   5.183   0.926
 9172SOL     OW28414   4.557   1.516   4.853
 9172SOL    HW128415   4.630   1.526   4.920
 9172SOL    HW228416   4.565   1.427   4.808
 9173SOL     OW28417   6.939   3.137   4.357
 9173SOL    HW128418   6.910   3.193   4.434
 9173SOL    HW228419   6.920   3.041   4.376
 9174SOL     OW28420   0.526   5.900   6.844
 9174SOL    HW128421   0.444   5.859   6.884
 9174SOL    HW228422   0.607   5.861   6.887
 9175SOL     OW28423   1.434   6.281   0.466
 9175SOL    HW128424   1.355   6.226   0.438
 9175SOL    HW228425   1.501   6.222   0.511
 9176SOL     OW28426   2.210   0.522   2.580
 9176SOL    HW128427   2.254   0.479   2.501
 9176SOL    HW228428   2.244   0.481   2.664
 9177SOL     OW28429   1.752   3.056   3.775
 9177SOL    HW128430   1.691   3.120   3.729
 9177SOL    HW228431   1.698   2.984   3.820
 9178SOL     OW28432   2.432   5.698   6.681
 9178SOL    HW128433   2.428   5.598   6.683
 9178SOL    HW228434   2.454   5.728   6.589
 9179SOL     OW28435   3.432   6.053   4.593
 9179SOL    HW128436   3.420   5.980   4.661
 9179SOL    HW228437   3.342   6.089   4.567
 9180SOL     OW28438   6.150   1.931   4.316
 9180SOL    HW128439   6.072   1.955   4.257
 9180SOL    HW228440   6.217   2.005   4.314
 9181SOL     OW28441   4.765   2.756   3.748
 9181SOL    HW128442   4.848   2.726   3.796
 9181SOL    HW228443   4.689   2.697   3.775
 9182SOL     OW28444   2.517   1.339   2.535
 9182SOL    HW128445   2.473   1.414   2.485
 9182SOL    HW228446   2.462   1.256   2.525
 9183SOL     OW28447   4.674   3.348   6.868
 9183SOL    HW128448   4.685   3.414   6.793
 9183SOL    HW228449   4.759   3.298   6.881
 9184SOL     OW28450   3.128   2.087   0.840
 9184SOL    HW128451   3.215   2.078   0.888
 9184SOL    HW228452   3.107   2.002   0.792
 9185SOL     OW28453   0.305   7.007   6.063
 9185SOL    HW128454   0.302   7.006   5.963
 9185SOL    HW228455   0.387   6.960   6.094
 9186SOL     OW28456   4.886   0.419   5.976
 9186SOL    HW128457   4.978   0.457   5.989
 9186SOL    HW228458   4.829   0.486   5.929
 9187SOL     OW28459   4.503   1.859   6.960
 9187SOL    HW128460   4.449   1.823   0.019
 9187SOL    HW228461   4.520   1.956   6.974
 9188SOL     OW28462   1.510   0.869   1.392
 9188SOL    HW128463   1.421   0.914   1.405
 9188SOL    HW228464   1.529   0.860   1.294
 9189SOL     OW28465   3.311   1.161   3.343
 9189SOL    HW128466   3.283   1.169   3.247
 9189SOL    HW228467   3.230   1.146   3.400
 9190SOL     OW28468   6.008   3.955   5.453
 9190SOL    HW128469   5.973   3.944   5.546
 9190SOL    HW228470   6.048   4.046   5.443
 9191SOL     OW28471   5.036   6.688   6.958
 9191SOL    HW128472   5.027   6.591   6.934
 9191SOL    HW228473   5.000   6.703   0.033
 9192SOL     OW28474   5.918   3.923   5.708
 9192SOL    HW128475   5.847   3.857   5.683
 9192SOL    HW228476   5.974   3.887   5.782
 9193SOL     OW28477   3.163   3.607   3.649
 9193SOL    HW128478   3.258   3.589   3.621
 9193SOL    HW228479   3.156   3.601   3.749
 9194SOL     OW28480   3.598   6.126   2.312
 9194SOL    HW128481   3.536   6.129   2.234
 9194SOL    HW228482   3.544   6.122   2.397
 9195SOL     OW28483   1.516   2.896   3.841
 9195SOL    HW128484   1.562   2.866   3.925
 9195SOL    HW228485   1.437   2.952   3.865
 9196SOL     OW28486   4.222   6.950   4.065
 9196SOL    HW128487   4.133   6.905   4.059
 9196SOL    HW228488   4.265   6.950   3.975
 9197SOL     OW28489   2.846   3.479   0.481
 9197SOL    HW128490   2.814   3.469   0.576
 9197SOL    HW228491   2.904   3.559   0.474
 9198SOL     OW28492   5.883   4.386   5.858
 9198SOL    HW128493   5.912   4.351   5.946
 9198SOL    HW228494   5.896   4.485   5.855
 9199SOL     OW28495   0.963   3.436   6.474
 9199SOL    HW128496   0.884   3.411   6.418
 9199SOL    HW228497   1.013   3.354   6.500
 9200SOL     OW28498   1.032   6.156   0.257
 9200SOL    HW128499   1.025   6.098   0.177
 9200SOL    HW228500   0.941   6.184   0.287
 9201SOL     OW28501   0.560   4.082   1.419
 9201SOL    HW128502   0.506   4.038   1.491
 9201SOL    HW228503   0.591   4.014   1.354
 9202SOL     OW28504   2.472   5.491   4.720
 9202SOL    HW128505   2.554   5.434   4.710
 9202SOL    HW228506   2.396   5.434   4.751
 9203SOL     OW28507   5.289   1.879   6.158
 9203SOL    HW128508   5.283   1.793   6.209
 9203SOL    HW228509   5.210   1.887   6.096
 9204SOL     OW28510   5.645   3.957   3.366
 9204SOL    HW128511   5.608   3.915   3.449
 9204SOL    HW228512   5.588   3.931   3.288
 9205SOL     OW28513   5.233   3.337   2.610
 9205SOL    HW128514   5.253   3.344   2.708
 9205SOL    HW228515   5.134   3.343   2.595
 9206SOL     OW28516   2.860   0.093   4.695
 9206SOL    HW128517   2.866   0.023   4.766
 9206SOL    HW228518   2.844   0.048   4.606
 9207SOL     OW28519   3.486   6.263   5.934
 9207SOL    HW128520   3.444   6.346   5.898
 9207SOL    HW228521   3.573   6.286   5.978
 9208SOL     OW28522   4.932   3.290   2.312
 9208SOL    HW128523   4.858   3.235   2.273
 9208SOL    HW228524   4.947   3.371   2.256
 9209SOL     OW28525   3.980   1.281   1.931
 9209SOL    HW128526   3.928   1.335   1.864
 9209SOL    HW228527   3.978   1.185   1.904
 9210SOL     OW28528   2.400   0.344   1.943
 9210SOL    HW128529   2.403   0.245   1.957
 9210SOL    HW228530   2.393   0.390   2.031
 9211SOL     OW28531   5.752   1.614   6.364
 9211SOL    HW128532   5.788   1.702   6.332
 9211SOL    HW228533   5.677   1.585   6.305
 9212SOL     OW28534   4.613   4.386   4.908
 9212SOL    HW128535   4.638   4.452   4.837
 9212SOL    HW228536   4.527   4.342   4.882
 9213SOL     OW28537   5.696   0.009   4.456
 9213SOL    HW128538   5.686   6.936   4.415
 9213SOL    HW228539   5.770   0.007   4.524
 9214SOL     OW28540   1.476   2.388   4.765
 9214SOL    HW128541   1.465   2.452   4.841
 9214SOL    HW228542   1.474   2.437   4.678
 9215SOL     OW28543   0.051   4.496   2.320
 9215SOL    HW128544   7.001   4.514   2.248
 9215SOL    HW228545   0.126   4.442   2.284
 9216SOL     OW28546   2.298   6.416   4.372
 9216SOL    HW128547   2.296   6.399   4.470
 9216SOL    HW228548   2.357   6.494   4.353
 9217SOL     OW28549   5.319   1.059   6.168
 9217SOL    HW128550   5.304   1.118   6.248
 9217SOL    HW228551   5.309   0.964   6.195
 9218SOL     OW28552   4.503   0.185   6.464
 9218SOL    HW128553   4.409   0.152   6.465
 9218SOL    HW228554   4.548   0.161   6.550
 9219SOL     OW28555   4.128   2.944   5.411
 9219SOL    HW128556   4.228   2.946   5.413
 9219SOL    HW228557   4.095   3.015   5.348
 9220SOL     OW28558   2.523   6.179   3.149
 9220SOL    HW128559   2.516   6.158   3.052
 9220SOL    HW228560   2.432   6.171   3.191
 9221SOL     OW28561   2.385   0.776   5.955
 9221SOL    HW128562   2.482   0.795   5.964
 9221SOL    HW228563   2.348   0.829   5.878
 9222SOL     OW28564   2.431   4.615   4.064
 9222SOL    HW128565   2.439   4.608   4.163
 9222SOL    HW228566   2.421   4.524   4.024
 9223SOL     OW28567   0.884   3.303   3.987
 9223SOL    HW128568   0.887   3.393   3.945
 9223SOL    HW228569   0.899   3.312   4.086
 9224SOL     OW28570   0.989   3.549   3.886
 9224SOL    HW128571   1.014   3.634   3.932
 9224SOL    HW228572   1.062   3.482   3.898
 9225SOL     OW28573   3.676   6.755   6.400
 9225SOL    HW128574   3.621   6.838   6.394
 9225SOL    HW228575   3.637   6.693   6.467
 9226SOL     OW28576   1.139   0.071   1.636
 9226SOL    HW128577   1.180   0.044   1.723
 9226SOL    HW228578   1.193   0.144   1.594
 9227SOL     OW28579   1.320   5.622   1.099
 9227SOL    HW128580   1.383   5.547   1.084
 9227SOL    HW228581   1.369   5.709   1.091
 9228SOL     OW28582   2.189   2.658   6.252
 9228SOL    HW128583   2.192   2.561   6.228
 9228SOL    HW228584   2.282   2.691   6.269
 9229SOL     OW28585   1.124   5.215   6.669
 9229SOL    HW128586   1.051   5.173   6.723
 9229SOL    HW228587   1.181   5.271   6.729
 9230SOL     OW28588   4.766   2.325   4.167
 9230SOL    HW128589   4.817   2.286   4.090
 9230SOL    HW228590   4.723   2.411   4.139
 9231SOL     OW28591   0.410   5.186   5.661
 9231SOL    HW128592   0.456   5.129   5.593
 9231SOL    HW228593   0.311   5.178   5.650
 9232SOL     OW28594   1.782   5.191   1.817
 9232SOL    HW128595   1.829   5.271   1.778
 9232SOL    HW228596   1.731   5.219   1.898
 9233SOL     OW28597   0.936   6.619   0.743
 9233SOL    HW128598   0.952   6.675   0.662
 9233SOL    HW228599   1.001   6.543   0.744
 9234SOL     OW28600   2.195   5.003   1.087
 9234SOL    HW128601   2.278   5.050   1.057
 9234SOL    HW228602   2.197   4.993   1.187
 9235SOL     OW28603   2.541   2.533   3.408
 9235SOL    HW128604   2.608   2.461   3.425
 9235SOL    HW228605   2.523   2.583   3.492
 9236SOL     OW28606   1.916   3.331   6.945
 9236SOL    HW128607   1.855   3.319   6.867
 9236SOL    HW228608   1.889   3.268   0.002
 9237SOL     OW28609   6.856   6.019   3.107
 9237SOL    HW128610   6.796   5.971   3.170
 9237SOL    HW228611   6.857   6.117   3.129
 9238SOL     OW28612   2.335   2.755   5.797
 9238SOL    HW128613   2.321   2.835   5.738
 9238SOL    HW228614   2.431   2.750   5.825
 9239SOL     OW28615   6.976   4.486   6.724
 9239SOL    HW128616   6.945   4.546   6.798
 9239SOL    HW228617   6.976   4.536   6.638
 9240SOL     OW28618   5.178   3.401   2.899
 9240SOL    HW128619   5.099   3.462   2.887
 9240SOL    HW228620   5.214   3.411   2.992
 9241SOL     OW28621   0.229   5.839   6.868
 9241SOL    HW128622   0.244   5.884   6.780
 9241SOL    HW228623   0.275   5.750   6.869
 9242SOL     OW28624   1.499   2.501   1.825
 9242SOL    HW128625   1.579   2.501   1.766
 9242SOL    HW228626   1.491   2.414   1.873
 9243SOL     OW28627   1.191   0.066   1.920
 9243SOL    HW128628   1.183   0.105   2.012
 9243SOL    HW228629   1.213   6.986   1.927
 9244SOL     OW28630   2.721   6.645   5.983
 9244SOL    HW128631   2.725   6.594   5.897
 9244SOL    HW228632   2.625   6.657   6.010
 9245SOL     OW28633   1.011   3.896   3.419
 9245SOL    HW128634   1.083   3.850   3.471
 9245SOL    HW228635   1.035   3.896   3.322
 9246SOL     OW28636   6.017   0.461   4.059
 9246SOL    HW128637   6.079   0.524   4.106
 9246SOL    HW228638   6.065   0.376   4.039
 9247SOL     OW28639   3.946   5.392   2.853
 9247SOL    HW128640   3.983   5.469   2.906
 9247SOL    HW228641   3.874   5.347   2.904
 9248SOL     OW28642   2.826   1.235   4.887
 9248SOL    HW128643   2.738   1.274   4.858
 9248SOL    HW228644   2.809   1.155   4.944
 9249SOL     OW28645   3.837   4.619   1.669
 9249SOL    HW128646   3.847   4.523   1.694
 9249SOL    HW228647   3.755   4.657   1.712
 9250SOL     OW28648   6.610   4.082   3.438
 9250SOL    HW128649   6.608   4.096   3.339
 9250SOL    HW228650   6.672   4.148   3.480
 9251SOL     OW28651   3.509   2.862   1.351
 9251SOL    HW128652   3.417   2.878   1.386
 9251SOL    HW228653   3.576   2.904   1.412
 9252SOL     OW28654   4.476   0.511   5.022
 9252SOL    HW128655   4.563   0.479   4.985
 9252SOL    HW228656   4.449   0.451   5.097
 9253SOL     OW28657   5.452   5.080   5.578
 9253SOL    HW128658   5.535   5.104   5.528
 9253SOL    HW228659   5.377   5.138   5.549
 9254SOL     OW28660   5.340   4.282   2.427
 9254SOL    HW128661   5.332   4.258   2.330
 9254SOL    HW228662   5.352   4.199   2.481
 9255SOL     OW28663   5.985   3.609   6.604
 9255SOL    HW128664   6.004   3.635   6.699
 9255SOL    HW228665   5.940   3.520   6.602
 9256SOL     OW28666   2.066   6.929   1.834
 9256SOL    HW128667   1.992   6.907   1.770
 9256SOL    HW228668   2.029   6.935   1.926
 9257SOL     OW28669   6.082   5.845   3.570
 9257SOL    HW128670   6.090   5.854   3.669
 9257SOL    HW228671   6.026   5.920   3.534
 9258SOL     OW28672   3.404   3.312   0.392
 9258SOL    HW128673   3.437   3.218   0.397
 9258SOL    HW228674   3.481   3.375   0.398
 9259SOL     OW28675   1.974   1.519   0.474
 9259SOL    HW128676   2.065   1.484   0.452
 9259SOL    HW228677   1.971   1.544   0.571
 9260SOL     OW28678   6.981   2.920   6.251
 9260SOL    HW128679   6.999   2.894   6.156
 9260SOL    HW228680   6.921   3.000   6.254
 9261SOL     OW28681   4.740   1.287   0.114
 9261SOL    HW128682   4.749   1.284   0.214
 9261SOL    HW228683   4.747   1.381   0.083
 9262SOL     OW28684   0.761   6.884   4.834
 9262SOL    HW128685   0.708   6.840   4.761
 9262SOL    HW228686   0.826   6.948   4.794
 9263SOL     OW28687   2.967   5.602   2.944
 9263SOL    HW128688   3.057   5.645   2.945
 9263SOL    HW228689   2.942   5.581   2.850
 9264SOL     OW28690   5.322   3.533   6.571
 9264SOL    HW128691   5.267   3.555   6.651
 9264SOL    HW228692   5.342   3.435   6.569
 9265SOL     OW28693   3.773   2.216   6.556
 9265SOL    HW128694   3.829   2.181   6.631
 9265SOL    HW228695   3.830   2.266   6.492
 9266SOL     OW28696   0.437   5.760   1.035
 9266SOL    HW128697   0.357   5.739   0.979
 9266SOL    HW228698   0.473   5.850   1.010
 9267SOL     OW28699   0.844   1.832   4.036
 9267SOL    HW128700   0.829   1.733   4.028
 9267SOL    HW228701   0.918   1.859   3.974
 9268SOL     OW28702   1.221   6.498   2.526
 9268SOL    HW128703   1.129   6.527   2.497
 9268SOL    HW228704   1.262   6.570   2.582
 9269SOL     OW28705   4.355   0.464   6.445
 9269SOL    HW128706   4.361   0.365   6.451
 9269SOL    HW228707   4.323   0.490   6.354
 9270SOL     OW28708   3.410   1.166   5.547
 9270SOL    HW128709   3.449   1.185   5.457
 9270SOL    HW228710   3.331   1.105   5.537
 9271SOL     OW28711   0.616   0.010   0.693
 9271SOL    HW128712   0.543   0.077   0.682
 9271SOL    HW228713   0.613   6.989   0.785
 9272SOL     OW28714   0.708   6.696   6.799
 9272SOL    HW128715   0.776   6.723   6.867
 9272SOL    HW228716   0.616   6.714   6.834
 9273SOL     OW28717   5.131   6.031   3.844
 9273SOL    HW128718   5.064   6.000   3.776
 9273SOL    HW228719   5.121   5.977   3.927
 9274SOL     OW28720   0.120   3.111   0.457
 9274SOL    HW128721   0.020   3.106   0.448
 9274SOL    HW228722   0.145   3.192   0.509
 9275SOL     OW28723   0.382   6.371   0.684
 9275SOL    HW128724   0.333   6.312   0.748
 9275SOL    HW228725   0.405   6.457   0.729
 9276SOL     OW28726   2.832   4.694   0.134
 9276SOL    HW128727   2.764   4.689   0.206
 9276SOL    HW228728   2.885   4.609   0.132
 9277SOL     OW28729   4.046   4.819   3.143
 9277SOL    HW128730   4.075   4.733   3.101
 9277SOL    HW228731   4.061   4.814   3.242
 9278SOL     OW28732   7.005   0.771   5.642
 9278SOL    HW128733   0.064   0.795   5.703
 9278SOL    HW228734   0.024   0.730   5.559
 9279SOL     OW28735   3.417   6.297   1.771
 9279SOL    HW128736   3.437   6.296   1.673
 9279SOL    HW228737   3.502   6.316   1.822
 9280SOL     OW28738   2.095   2.058   2.067
 9280SOL    HW128739   2.192   2.066   2.086
 9280SOL    HW228740   2.043   2.079   2.150
 9281SOL     OW28741   3.416   3.838   5.795
 9281SOL    HW128742   3.479   3.773   5.752
 9281SOL    HW228743   3.350   3.870   5.727
 9282SOL     OW28744   4.497   0.899   4.406
 9282SOL    HW128745   4.463   0.806   4.425
 9282SOL    HW228746   4.597   0.898   4.406
 9283SOL     OW28747   5.590   0.429   6.373
 9283SOL    HW128748   5.541   0.415   6.286
 9283SOL    HW228749   5.524   0.430   6.448
 9284SOL     OW28750   2.984   3.830   4.782
 9284SOL    HW128751   2.894   3.830   4.824
 9284SOL    HW228752   3.037   3.752   4.817
 9285SOL     OW28753   5.263   3.484   1.284
 9285SOL    HW128754   5.307   3.409   1.334
 9285SOL    HW228755   5.289   3.478   1.188
 9286SOL     OW28756   5.093   5.508   0.558
 9286SOL    HW128757   5.164   5.467   0.499
 9286SOL    HW228758   5.059   5.439   0.622
 9287SOL     OW28759   2.107   4.320   5.757
 9287SOL    HW128760   2.046   4.243   5.778
 9287SOL    HW228761   2.079   4.400   5.810
 9288SOL     OW28762   4.641   2.657   3.400
 9288SOL    HW128763   4.623   2.598   3.321
 9288SOL    HW228764   4.739   2.655   3.420
 9289SOL     OW28765   4.698   0.678   6.286
 9289SOL    HW128766   4.729   0.702   6.378
 9289SOL    HW228767   4.764   0.711   6.219
 9290SOL     OW28768   6.091   0.530   3.715
 9290SOL    HW128769   6.087   0.456   3.649
 9290SOL    HW228770   5.998   0.556   3.741
 9291SOL     OW28771   1.335   6.375   5.749
 9291SOL    HW128772   1.303   6.281   5.753
 9291SOL    HW228773   1.257   6.437   5.736
 9292SOL     OW28774   1.794   1.042   6.389
 9292SOL    HW128775   1.800   1.142   6.378
 9292SOL    HW228776   1.862   1.012   6.455
 9293SOL     OW28777   4.716   2.504   6.399
 9293SOL    HW128778   4.646   2.544   6.339
 9293SOL    HW228779   4.675   2.483   6.488
 9294SOL     OW28780   5.090   1.391   0.384
 9294SOL    HW128781   5.096   1.375   0.483
 9294SOL    HW228782   5.118   1.309   0.335
 9295SOL     OW28783   0.227   0.826   5.093
 9295SOL    HW128784   0.310   0.881   5.086
 9295SOL    HW228785   0.245   0.733   5.059
 9296SOL     OW28786   2.467   3.573   0.636
 9296SOL    HW128787   2.544   3.590   0.698
 9296SOL    HW228788   2.391   3.533   0.687
 9297SOL     OW28789   0.919   5.736   3.212
 9297SOL    HW128790   0.905   5.819   3.266
 9297SOL    HW228791   0.832   5.690   3.197
 9298SOL     OW28792   1.206   6.845   5.865
 9298SOL    HW128793   1.251   6.765   5.904
 9298SOL    HW228794   1.160   6.896   5.937
 9299SOL     OW28795   2.249   1.314   4.254
 9299SOL    HW128796   2.222   1.350   4.343
 9299SOL    HW228797   2.181   1.248   4.222
 9300SOL     OW28798   0.322   5.846   5.125
 9300SOL    HW128799   0.396   5.881   5.068
 9300SOL    HW228800   0.359   5.785   5.195
 9301SOL     OW28801   0.093   4.083   4.479
 9301SOL    HW128802   0.001   4.107   4.508
 9301SOL    HW228803   0.103   4.101   4.381
 9302SOL     OW28804   2.252   2.660   4.674
 9302SOL    HW128805   2.215   2.568   4.657
 9302SOL    HW228806   2.315   2.658   4.751
 9303SOL     OW28807   3.240   4.665   0.096
 9303SOL    HW128808   3.331   4.693   0.066
 9303SOL    HW228809   3.247   4.585   0.155
 9304SOL     OW28810   4.701   5.213   0.911
 9304SOL    HW128811   4.720   5.193   1.007
 9304SOL    HW228812   4.602   5.217   0.897
 9305SOL     OW28813   3.511   1.531   0.529
 9305SOL    HW128814   3.504   1.432   0.519
 9305SOL    HW228815   3.431   1.574   0.487
 9306SOL     OW28816   6.672   3.810   4.531
 9306SOL    HW128817   6.714   3.843   4.446
 9306SOL    HW228818   6.720   3.851   4.609
 9307SOL     OW28819   1.964   3.939   0.797
 9307SOL    HW128820   2.014   3.994   0.729
 9307SOL    HW228821   1.896   3.883   0.750
 9308SOL     OW28822   1.280   4.827   1.397
 9308SOL    HW128823   1.345   4.751   1.407
 9308SOL    HW228824   1.201   4.795   1.346
 9309SOL     OW28825   4.627   6.655   6.385
 9309SOL    HW128826   4.715   6.659   6.338
 9309SOL    HW228827   4.553   6.664   6.319
 9310SOL     OW28828   5.042   5.557   5.740
 9310SOL    HW128829   4.989   5.510   5.669
 9310SOL    HW228830   5.014   5.653   5.744
 9311SOL     OW28831   4.646   3.968   1.281
 9311SOL    HW128832   4.632   4.066   1.265
 9311SOL    HW228833   4.627   3.948   1.377
 9312SOL     OW28834   1.607   2.368   1.318
 9312SOL    HW128835   1.683   2.431   1.335
 9312SOL    HW228836   1.557   2.398   1.238
 9313SOL     OW28837   1.147   0.778   1.507
 9313SOL    HW128838   1.055   0.751   1.480
 9313SOL    HW228839   1.175   0.726   1.588
 9314SOL     OW28840   5.535   3.590   0.782
 9314SOL    HW128841   5.593   3.672   0.776
 9314SOL    HW228842   5.509   3.576   0.878
 9315SOL     OW28843   6.070   0.777   6.718
 9315SOL    HW128844   6.132   0.831   6.775
 9315SOL    HW228845   6.104   0.775   6.624
 9316SOL     OW28846   5.923   0.132   4.944
 9316SOL    HW128847   5.954   0.085   4.862
 9316SOL    HW228848   5.998   0.136   5.010
 9317SOL     OW28849   3.156   5.423   3.361
 9317SOL    HW128850   3.183   5.327   3.358
 9317SOL    HW228851   3.197   5.467   3.441
 9318SOL     OW28852   4.661   5.677   0.240
 9318SOL    HW128853   4.590   5.615   0.273
 9318SOL    HW228854   4.667   5.756   0.301
 9319SOL     OW28855   2.571   3.297   0.865
 9319SOL    HW128856   2.575   3.198   0.881
 9319SOL    HW228857   2.536   3.342   0.947
 9320SOL     OW28858   4.819   6.952   5.871
 9320SOL    HW128859   4.737   6.900   5.846
 9320SOL    HW228860   4.814   0.027   5.831
 9321SOL     OW28861   1.212   1.995   5.171
 9321SOL    HW128862   1.208   2.000   5.271
 9321SOL    HW228863   1.120   2.003   5.134
 9322SOL     OW28864   6.231   4.735   6.173
 9322SOL    HW128865   6.254   4.828   6.146
 9322SOL    HW228866   6.262   4.671   6.103
 9323SOL     OW28867   2.286   2.669   4.401
 9323SOL    HW128868   2.325   2.582   4.374
 9323SOL    HW228869   2.257   2.664   4.497
 9324SOL     OW28870   1.806   3.778   0.658
 9324SOL    HW128871   1.723   3.801   0.608
 9324SOL    HW228872   1.797   3.687   0.698
 9325SOL     OW28873   1.874   6.385   1.501
 9325SOL    HW128874   1.897   6.315   1.568
 9325SOL    HW228875   1.945   6.385   1.429
 9326SOL     OW28876   3.578   5.303   0.487
 9326SOL    HW128877   3.546   5.220   0.533
 9326SOL    HW228878   3.587   5.285   0.389
 9327SOL     OW28879   4.351   0.095   3.206
 9327SOL    HW128880   4.410   0.118   3.128
 9327SOL    HW228881   4.396   0.122   3.291
 9328SOL     OW28882   2.213   6.974   5.383
 9328SOL    HW128883   2.231   6.986   5.286
 9328SOL    HW228884   2.249   6.886   5.414
 9329SOL     OW28885   0.272   5.902   6.589
 9329SOL    HW128886   0.351   5.960   6.609
 9329SOL    HW228887   0.303   5.810   6.565
 9330SOL     OW28888   0.669   7.001   6.851
 9330SOL    HW128889   0.653   0.070   6.803
 9330SOL    HW228890   0.746   7.012   6.914
 9331SOL     OW28891   1.953   2.625   5.307
 9331SOL    HW128892   1.914   2.717   5.310
 9331SOL    HW228893   1.924   2.579   5.223
 9332SOL     OW28894   4.196   5.610   0.187
 9332SOL    HW128895   4.190   5.631   0.090
 9332SOL    HW228896   4.285   5.571   0.207
 9333SOL     OW28897   3.370   5.995   0.749
 9333SOL    HW128898   3.363   5.902   0.714
 9333SOL    HW228899   3.328   5.999   0.840
 9334SOL     OW28900   5.248   0.452   4.220
 9334SOL    HW128901   5.337   0.466   4.264
 9334SOL    HW228902   5.251   0.486   4.126
 9335SOL     OW28903   1.843   2.090   1.145
 9335SOL    HW128904   1.922   2.100   1.085
 9335SOL    HW228905   1.835   2.172   1.202
 9336SOL     OW28906   5.951   6.976   4.002
 9336SOL    HW128907   5.950   0.041   4.060
 9336SOL    HW228908   6.005   6.994   3.920
 9337SOL     OW28909   4.808   0.283   6.835
 9337SOL    HW128910   4.727   0.264   6.890
 9337SOL    HW228911   4.784   0.274   6.738
 9338SOL     OW28912   0.245   6.030   0.067
 9338SOL    HW128913   0.236   5.954   0.002
 9338SOL    HW228914   0.293   6.106   0.023
 9339SOL     OW28915   5.577   5.355   0.244
 9339SOL    HW128916   5.524   5.327   0.165
 9339SOL    HW228917   5.599   5.453   0.237
 9340SOL     OW28918   3.826   4.832   2.709
 9340SOL    HW128919   3.838   4.931   2.704
 9340SOL    HW228920   3.743   4.807   2.661
 9341SOL     OW28921   6.531   4.510   6.486
 9341SOL    HW128922   6.444   4.525   6.534
 9341SOL    HW228923   6.563   4.597   6.449
 9342SOL     OW28924   2.918   0.352   4.733
 9342SOL    HW128925   2.965   0.345   4.821
 9342SOL    HW228926   2.869   0.267   4.715
 9343SOL     OW28927   4.933   3.771   2.090
 9343SOL    HW128928   4.911   3.843   2.024
 9343SOL    HW228929   4.849   3.723   2.116
 9344SOL     OW28930   5.630   5.325   6.549
 9344SOL    HW128931   5.655   5.375   6.632
 9344SOL    HW228932   5.645   5.227   6.563
 9345SOL     OW28933   6.457   6.202   6.887
 9345SOL    HW128934   6.556   6.209   6.870
 9345SOL    HW228935   6.425   6.111   6.861
 9346SOL     OW28936   4.744   5.614   2.577
 9346SOL    HW128937   4.660   5.568   2.547
 9346SOL    HW228938   4.801   5.549   2.628
 9347SOL     OW28939   3.348   5.706   0.717
 9347SOL    HW128940   3.264   5.720   0.770
 9347SOL    HW228941   3.367   5.608   0.710
 9348SOL     OW28942   2.605   5.432   3.361
 9348SOL    HW128943   2.540   5.484   3.304
 9348SOL    HW228944   2.689   5.417   3.309
 9349SOL     OW28945   6.590   5.306   2.056
 9349SOL    HW128946   6.595   5.368   2.135
 9349SOL    HW228947   6.648   5.341   1.983
 9350SOL     OW28948   6.804   1.395   3.885
 9350SOL    HW128949   6.755   1.377   3.970
 9350SOL    HW228950   6.848   1.485   3.891
 9351SOL     OW28951   2.321   1.037   5.754
 9351SOL    HW128952   2.407   1.088   5.759
 9351SOL    HW228953   2.246   1.094   5.788
 9352SOL     OW28954   1.571   2.741   5.488
 9352SOL    HW128955   1.475   2.736   5.460
 9352SOL    HW228956   1.579   2.717   5.585
 9353SOL     OW28957   1.462   4.207   2.129
 9353SOL    HW128958   1.475   4.111   2.105
 9353SOL    HW228959   1.550   4.246   2.158
 9354SOL     OW28960   6.335   1.757   0.966
 9354SOL    HW128961   6.381   1.719   0.886
 9354SOL    HW228962   6.277   1.686   1.007
 9355SOL     OW28963   6.451   1.108   3.713
 9355SOL    HW128964   6.483   1.195   3.676
 9355SOL    HW228965   6.364   1.122   3.761
 9356SOL     OW28966   4.664   5.105   2.276
 9356SOL    HW128967   4.624   5.132   2.188
 9356SOL    HW228968   4.743   5.047   2.260
 9357SOL     OW28969   2.256   4.226   0.025
 9357SOL    HW128970   2.303   4.146   0.063
 9357SOL    HW228971   2.321   4.301   0.015
 9358SOL     OW28972   5.663   3.458   1.917
 9358SOL    HW128973   5.574   3.483   1.880
 9358SOL    HW228974   5.685   3.363   1.891
 9359SOL     OW28975   0.273   3.369   5.324
 9359SOL    HW128976   0.314   3.448   5.370
 9359SOL    HW228977   0.336   3.291   5.328
 9360SOL     OW28978   1.390   0.036   5.889
 9360SOL    HW128979   1.341   6.968   5.910
 9360SOL    HW228980   1.438   0.067   5.971
 9361SOL     OW28981   2.610   0.247   3.216
 9361SOL    HW128982   2.669   0.167   3.229
 9361SOL    HW228983   2.661   0.329   3.238
 9362SOL     OW28984   1.112   1.038   1.771
 9362SOL    HW128985   1.019   1.037   1.807
 9362SOL    HW228986   1.112   1.005   1.676
 9363SOL     OW28987   3.901   5.427   1.925
 9363SOL    HW128988   3.992   5.400   1.957
 9363SOL    HW228989   3.882   5.381   1.838
 9364SOL     OW28990   3.671   3.284   6.335
 9364SOL    HW128991   3.613   3.216   6.378
 9364SOL    HW228992   3.751   3.239   6.294
 9365SOL     OW28993   2.302   2.221   4.697
 9365SOL    HW128994   2.345   2.193   4.611
 9365SOL    HW228995   2.371   2.225   4.769
 9366SOL     OW28996   3.450   1.761   6.738
 9366SOL    HW128997   3.468   1.856   6.713
 9366SOL    HW228998   3.377   1.725   6.680
 9367SOL     OW28999   6.872   6.117   3.685
 9367SOL    HW129000   6.801   6.147   3.748
 9367SOL    HW229001   6.840   6.037   3.634
 9368SOL     OW29002   3.110   1.432   3.227
 9368SOL    HW129003   3.077   1.416   3.134
 9368SOL    HW229004   3.208   1.411   3.232
 9369SOL     OW29005   0.548   0.738   6.027
 9369SOL    HW129006   0.514   0.674   5.958
 9369SOL    HW229007   0.616   0.692   6.085
 9370SOL     OW29008   5.519   0.308   2.221
 9370SOL    HW129009   5.493   0.296   2.125
 9370SOL    HW229010   5.524   0.218   2.266
 9371SOL     OW29011   2.278   5.132   0.370
 9371SOL    HW129012   2.309   5.149   0.277
 9371SOL    HW229013   2.186   5.170   0.382
 9372SOL     OW29014   5.837   6.115   2.815
 9372SOL    HW129015   5.871   6.089   2.725
 9372SOL    HW229016   5.857   6.042   2.881
 9373SOL     OW29017   4.806   2.042   2.870
 9373SOL    HW129018   4.904   2.032   2.886
 9373SOL    HW229019   4.763   1.952   2.871
 9374SOL     OW29020   6.115   2.920   6.853
 9374SOL    HW129021   6.107   2.821   6.852
 9374SOL    HW229022   6.049   2.958   6.918
 9375SOL     OW29023   6.777   1.718   3.720
 9375SOL    HW129024   6.849   1.704   3.788
 9375SOL    HW229025   6.812   1.776   3.647
 9376SOL     OW29026   2.711   3.832   1.005
 9376SOL    HW129027   2.633   3.794   1.056
 9376SOL    HW229028   2.758   3.900   1.060
 9377SOL     OW29029   1.179   5.491   3.926
 9377SOL    HW129030   1.118   5.469   4.002
 9377SOL    HW229031   1.273   5.492   3.959
 9378SOL     OW29032   1.103   0.296   5.556
 9378SOL    HW129033   1.139   0.340   5.473
 9378SOL    HW229034   1.012   0.260   5.537
 9379SOL     OW29035   4.579   5.184   5.105
 9379SOL    HW129036   4.641   5.250   5.062
 9379SOL    HW229037   4.489   5.226   5.119
 9380SOL     OW29038   5.863   5.017   4.556
 9380SOL    HW129039   5.883   5.006   4.459
 9380SOL    HW229040   5.946   5.002   4.610
 9381SOL     OW29041   2.242   3.139   5.812
 9381SOL    HW129042   2.283   3.076   5.747
 9381SOL    HW229043   2.171   3.193   5.767
 9382SOL     OW29044   3.355   1.500   2.976
 9382SOL    HW129045   3.453   1.483   2.966
 9382SOL    HW229046   3.338   1.598   2.976
 9383SOL     OW29047   2.602   6.235   4.811
 9383SOL    HW129048   2.610   6.312   4.874
 9383SOL    HW229049   2.640   6.153   4.854
 9384SOL     OW29050   3.775   6.285   1.296
 9384SOL    HW129051   3.820   6.360   1.343
 9384SOL    HW229052   3.843   6.231   1.246
 9385SOL     OW29053   4.485   1.317   2.360
 9385SOL    HW129054   4.476   1.413   2.334
 9385SOL    HW229055   4.489   1.309   2.459
 9386SOL     OW29056   2.149   6.090   5.311
 9386SOL    HW129057   2.237   6.107   5.355
 9386SOL    HW229058   2.082   6.062   5.380
 9387SOL     OW29059   3.749   0.538   0.149
 9387SOL    HW129060   3.819   0.600   0.111
 9387SOL    HW229061   3.707   0.486   0.075
 9388SOL     OW29062   1.928   5.402   2.448
 9388SOL    HW129063   1.937   5.496   2.481
 9388SOL    HW229064   1.861   5.353   2.504
 9389SOL     OW29065   1.982   0.009   5.509
 9389SOL    HW129066   2.078   0.012   5.481
 9389SOL    HW229067   1.976   7.001   5.605
 9390SOL     OW29068   4.129   5.798   4.791
 9390SOL    HW129069   4.166   5.786   4.883
 9390SOL    HW229070   4.072   5.719   4.768
 9391SOL     OW29071   2.382   0.566   5.186
 9391SOL    HW129072   2.319   0.590   5.112
 9391SOL    HW229073   2.451   0.503   5.151
 9392SOL     OW29074   6.956   0.225   4.866
 9392SOL    HW129075   6.945   0.219   4.965
 9392SOL    HW229076   0.008   0.294   4.844
 9393SOL     OW29077   3.163   1.044   5.534
 9393SOL    HW129078   3.102   0.971   5.564
 9393SOL    HW229079   3.169   1.044   5.434
 9394SOL     OW29080   6.466   1.883   2.325
 9394SOL    HW129081   6.442   1.789   2.302
 9394SOL    HW229082   6.556   1.886   2.367
 9395SOL     OW29083   2.602   2.570   0.354
 9395SOL    HW129084   2.597   2.601   0.260
 9395SOL    HW229085   2.536   2.620   0.410
 9396SOL     OW29086   0.395   5.590   3.529
 9396SOL    HW129087   0.485   5.606   3.488
 9396SOL    HW229088   0.404   5.533   3.610
 9397SOL     OW29089   2.642   0.367   0.394
 9397SOL    HW129090   2.555   0.339   0.354
 9397SOL    HW229091   2.677   0.294   0.452
 9398SOL     OW29092   1.731   0.203   5.486
 9398SOL    HW129093   1.799   0.211   5.413
 9398SOL    HW229094   1.745   0.117   5.535
 9399SOL     OW29095   0.510   1.337   0.070
 9399SOL    HW129096   0.558   1.424   0.063
 9399SOL    HW229097   0.448   1.326   7.009
 9400SOL     OW29098   5.550   2.773   1.319
 9400SOL    HW129099   5.478   2.807   1.259
 9400SOL    HW229100   5.596   2.696   1.275
 9401SOL     OW29101   3.876   6.693   3.129
 9401SOL    HW129102   3.850   6.613   3.075
 9401SOL    HW229103   3.940   6.749   3.077
 9402SOL     OW29104   0.827   4.984   4.628
 9402SOL    HW129105   0.864   5.025   4.545
 9402SOL    HW229106   0.814   4.886   4.614
 9403SOL     OW29107   5.561   1.432   2.960
 9403SOL    HW129108   5.630   1.491   3.002
 9403SOL    HW229109   5.598   1.391   2.876
 9404SOL     OW29110   0.588   3.548   6.131
 9404SOL    HW129111   0.607   3.633   6.180
 9404SOL    HW229112   0.515   3.563   6.064
 9405SOL     OW29113   0.531   6.353   2.406
 9405SOL    HW129114   0.532   6.446   2.444
 9405SOL    HW229115   0.603   6.299   2.448
 9406SOL     OW29116   0.214   3.044   6.269
 9406SOL    HW129117   0.131   2.990   6.280
 9406SOL    HW229118   0.267   3.042   6.353
 9407SOL     OW29119   2.434   5.311   3.559
 9407SOL    HW129120   2.504   5.382   3.546
 9407SOL    HW229121   2.474   5.221   3.543
 9408SOL     OW29122   3.852   1.985   6.333
 9408SOL    HW129123   3.857   2.060   6.267
 9408SOL    HW229124   3.836   1.899   6.285
 9409SOL     OW29125   6.023   4.569   6.254
 9409SOL    HW129126   5.929   4.599   6.236
 9409SOL    HW229127   6.086   4.623   6.199
 9410SOL     OW29128   3.683   6.408   1.954
 9410SOL    HW129129   3.681   6.502   1.921
 9410SOL    HW229130   3.766   6.393   2.007
 9411SOL     OW29131   3.815   3.788   1.415
 9411SOL    HW129132   3.836   3.885   1.427
 9411SOL    HW229133   3.888   3.733   1.454
 9412SOL     OW29134   0.123   3.209   1.494
 9412SOL    HW129135   0.084   3.210   1.586
 9412SOL    HW229136   0.074   3.274   1.436
 9413SOL     OW29137   4.247   6.515   4.397
 9413SOL    HW129138   4.224   6.480   4.488
 9413SOL    HW229139   4.281   6.441   4.340
 9414SOL     OW29140   3.147   1.143   3.893
 9414SOL    HW129141   3.195   1.218   3.847
 9414SOL    HW229142   3.197   1.058   3.877
 9415SOL     OW29143   2.432   0.202   2.559
 9415SOL    HW129144   2.493   0.145   2.614
 9415SOL    HW229145   2.474   0.291   2.544
 9416SOL     OW29146   0.906   1.549   1.125
 9416SOL    HW129147   0.830   1.590   1.177
 9416SOL    HW229148   0.869   1.481   1.061
 9417SOL     OW29149   3.985   6.862   5.796
 9417SOL    HW129150   3.914   6.910   5.745
 9417SOL    HW229151   3.944   6.816   5.875
 9418SOL     OW29152   3.287   6.784   1.099
 9418SOL    HW129153   3.343   6.867   1.093
 9418SOL    HW229154   3.200   6.799   1.052
 9419SOL     OW29155   3.093   5.125   5.694
 9419SOL    HW129156   3.129   5.129   5.601
 9419SOL    HW229157   3.065   5.216   5.723
 9420SOL     OW29158   6.973   2.166   4.397
 9420SOL    HW129159   0.055   2.150   4.399
 9420SOL    HW229160   6.955   2.264   4.395
 9421SOL     OW29161   2.280   6.539   5.055
 9421SOL    HW129162   2.319   6.467   5.113
 9421SOL    HW229163   2.181   6.530   5.052
 9422SOL     OW29164   4.212   6.056   2.725
 9422SOL    HW129165   4.192   6.055   2.823
 9422SOL    HW229166   4.215   6.151   2.693
 9423SOL     OW29167   4.424   0.769   3.424
 9423SOL    HW129168   4.413   0.812   3.334
 9423SOL    HW229169   4.338   0.725   3.450
 9424SOL     OW29170   4.639   0.928   5.341
 9424SOL    HW129171   4.651   0.943   5.243
 9424SOL    HW229172   4.717   0.876   5.376
 9425SOL     OW29173   0.345   3.938   6.076
 9425SOL    HW129174   0.392   3.905   6.158
 9425SOL    HW229175   0.386   3.896   5.995
 9426SOL     OW29176   2.552   2.025   0.271
 9426SOL    HW129177   2.485   1.955   0.295
 9426SOL    HW229178   2.529   2.110   0.318
 9427SOL     OW29179   3.568   5.360   4.758
 9427SOL    HW129180   3.575   5.351   4.658
 9427SOL    HW229181   3.558   5.269   4.798
 9428SOL     OW29182   5.077   1.124   0.581
 9428SOL    HW129183   5.021   1.067   0.521
 9428SOL    HW229184   5.070   1.091   0.675
 9429SOL     OW29185   1.675   4.582   2.289
 9429SOL    HW129186   1.607   4.513   2.315
 9429SOL    HW229187   1.654   4.616   2.197
 9430SOL     OW29188   0.342   4.853   1.800
 9430SOL    HW129189   0.384   4.903   1.876
 9430SOL    HW229190   0.376   4.891   1.714
 9431SOL     OW29191   5.386   4.161   0.788
 9431SOL    HW129192   5.386   4.061   0.797
 9431SOL    HW229193   5.471   4.198   0.826
 9432SOL     OW29194   5.258   0.394   2.344
 9432SOL    HW129195   5.350   0.360   2.323
 9432SOL    HW229196   5.263   0.492   2.365
 9433SOL     OW29197   3.513   4.916   3.439
 9433SOL    HW129198   3.518   5.015   3.448
 9433SOL    HW229199   3.529   4.873   3.528
 9434SOL     OW29200   5.513   5.354   3.011
 9434SOL    HW129201   5.498   5.436   3.065
 9434SOL    HW229202   5.542   5.279   3.070
 9435SOL     OW29203   0.761   1.942   4.565
 9435SOL    HW129204   0.807   1.893   4.639
 9435SOL    HW229205   0.744   1.879   4.489
 9436SOL     OW29206   1.029   3.971   1.933
 9436SOL    HW129207   1.044   4.069   1.920
 9436SOL    HW229208   1.100   3.935   1.993
 9437SOL     OW29209   1.496   6.326   3.887
 9437SOL    HW129210   1.578   6.346   3.833
 9437SOL    HW229211   1.504   6.235   3.928
 9438SOL     OW29212   1.002   6.814   1.643
 9438SOL    HW129213   0.991   6.876   1.720
 9438SOL    HW229214   0.956   6.727   1.662
 9439SOL     OW29215   0.316   2.562   2.440
 9439SOL    HW129216   0.268   2.603   2.362
 9439SOL    HW229217   0.415   2.564   2.421
 9440SOL     OW29218   4.427   5.998   4.313
 9440SOL    HW129219   4.502   5.933   4.298
 9440SOL    HW229220   4.383   6.019   4.226
 9441SOL     OW29221   1.487   3.422   5.058
 9441SOL    HW129222   1.408   3.454   5.007
 9441SOL    HW229223   1.522   3.496   5.116
 9442SOL     OW29224   5.163   3.335   0.187
 9442SOL    HW129225   5.082   3.281   0.164
 9442SOL    HW229226   5.135   3.425   0.221
 9443SOL     OW29227   2.940   5.840   1.616
 9443SOL    HW129228   3.031   5.802   1.601
 9443SOL    HW229229   2.888   5.781   1.677
 9444SOL     OW29230   1.460   3.784   6.312
 9444SOL    HW129231   1.433   3.840   6.391
 9444SOL    HW229232   1.531   3.719   6.340
 9445SOL     OW29233   5.508   3.670   2.748
 9445SOL    HW129234   5.423   3.712   2.781
 9445SOL    HW229235   5.505   3.571   2.765
 9446SOL     OW29236   6.357   6.742   3.966
 9446SOL    HW129237   6.403   6.662   4.004
 9446SOL    HW229238   6.272   6.714   3.923
 9447SOL     OW29239   6.036   3.173   3.390
 9447SOL    HW129240   6.111   3.181   3.324
 9447SOL    HW229241   5.967   3.111   3.355
 9448SOL     OW29242   6.639   6.845   6.166
 9448SOL    HW129243   6.560   6.889   6.124
 9448SOL    HW229244   6.608   6.765   6.219
 9449SOL     OW29245   6.881   5.774   6.408
 9449SOL    HW129246   6.928   5.740   6.326
 9449SOL    HW229247   6.896   5.873   6.416
 9450SOL     OW29248   3.618   4.995   4.583
 9450SOL    HW129249   3.518   4.991   4.576
 9450SOL    HW229250   3.643   5.023   4.676
 9451SOL     OW29251   3.689   6.066   6.080
 9451SOL    HW129252   3.688   6.052   6.179
 9451SOL    HW229253   3.603   6.034   6.041
 9452SOL     OW29254   0.749   3.641   0.931
 9452SOL    HW129255   0.813   3.578   0.886
 9452SOL    HW229256   0.793   3.730   0.944
 9453SOL     OW29257   2.101   5.315   3.870
 9453SOL    HW129258   2.123   5.218   3.882
 9453SOL    HW229259   2.175   5.359   3.819
 9454SOL     OW29260   2.027   3.488   5.956
 9454SOL    HW129261   1.939   3.526   5.925
 9454SOL    HW229262   2.012   3.433   6.038
 9455SOL     OW29263   3.654   1.629   2.864
 9455SOL    HW129264   3.723   1.667   2.802
 9455SOL    HW229265   3.605   1.703   2.909
 9456SOL     OW29266   0.839   4.089   0.090
 9456SOL    HW129267   0.827   4.167   0.029
 9456SOL    HW229268   0.891   4.018   0.042
 9457SOL     OW29269   2.475   4.100   5.570
 9457SOL    HW129270   2.571   4.091   5.597
 9457SOL    HW229271   2.425   4.017   5.596
 9458SOL     OW29272   1.206   3.169   6.125
 9458SOL    HW129273   1.168   3.261   6.128
 9458SOL    HW229274   1.162   3.117   6.051
 9459SOL     OW29275   5.678   4.878   2.590
 9459SOL    HW129276   5.776   4.871   2.609
 9459SOL    HW229277   5.633   4.929   2.663
 9460SOL     OW29278   6.706   1.358   4.980
 9460SOL    HW129279   6.667   1.447   5.001
 9460SOL    HW229280   6.659   1.287   5.033
 9461SOL     OW29281   6.701   1.806   2.887
 9461SOL    HW129282   6.606   1.814   2.855
 9461SOL    HW229283   6.733   1.712   2.873
 9462SOL     OW29284   2.152   3.772   3.504
 9462SOL    HW129285   2.147   3.832   3.424
 9462SOL    HW229286   2.175   3.825   3.585
 9463SOL     OW29287   0.453   0.741   1.064
 9463SOL    HW129288   0.544   0.781   1.072
 9463SOL    HW229289   0.384   0.813   1.067
 9464SOL     OW29290   5.699   6.298   0.593
 9464SOL    HW129291   5.667   6.351   0.672
 9464SOL    HW229292   5.664   6.205   0.598
 9465SOL     OW29293   0.488   6.398   3.310
 9465SOL    HW129294   0.501   6.496   3.322
 9465SOL    HW229295   0.394   6.380   3.281
 9466SOL     OW29296   3.751   4.199   5.126
 9466SOL    HW129297   3.683   4.260   5.168
 9466SOL    HW229298   3.749   4.211   5.027
 9467SOL     OW29299   1.279   2.563   2.001
 9467SOL    HW129300   1.324   2.541   2.087
 9467SOL    HW229301   1.347   2.567   1.927
 9468SOL     OW29302   5.596   2.607   6.079
 9468SOL    HW129303   5.625   2.553   6.158
 9468SOL    HW229304   5.675   2.650   6.036
 9469SOL     OW29305   5.766   6.083   1.207
 9469SOL    HW129306   5.670   6.067   1.183
 9469SOL    HW229307   5.776   6.080   1.307
 9470SOL     OW29308   4.832   4.153   5.827
 9470SOL    HW129309   4.748   4.171   5.775
 9470SOL    HW229310   4.871   4.065   5.798
 9471SOL     OW29311   6.120   1.149   4.410
 9471SOL    HW129312   6.029   1.109   4.398
 9471SOL    HW229313   6.186   1.101   4.352
 9472SOL     OW29314   5.955   3.006   4.403
 9472SOL    HW129315   5.935   2.964   4.314
 9472SOL    HW229316   5.964   3.105   4.391
 9473SOL     OW29317   2.362   4.927   5.611
 9473SOL    HW129318   2.461   4.937   5.619
 9473SOL    HW229319   2.323   4.906   5.700
 9474SOL     OW29320   6.429   2.507   0.103
 9474SOL    HW129321   6.439   2.513   0.003
 9474SOL    HW229322   6.333   2.515   0.127
 9475SOL     OW29323   3.093   3.669   0.420
 9475SOL    HW129324   3.038   3.689   0.501
 9475SOL    HW229325   3.161   3.741   0.407
 9476SOL     OW29326   3.000   3.339   5.095
 9476SOL    HW129327   3.047   3.251   5.102
 9476SOL    HW229328   2.913   3.335   5.145
 9477SOL     OW29329   0.489   3.182   2.857
 9477SOL    HW129330   0.414   3.178   2.791
 9477SOL    HW229331   0.452   3.164   2.949
 9478SOL     OW29332   4.367   3.239   6.190
 9478SOL    HW129333   4.351   3.236   6.091
 9478SOL    HW229334   4.295   3.292   6.234
 9479SOL     OW29335   5.299   6.426   6.702
 9479SOL    HW129336   5.371   6.404   6.637
 9479SOL    HW229337   5.337   6.482   6.776
 9480SOL     OW29338   4.831   4.238   0.159
 9480SOL    HW129339   4.919   4.249   0.113
 9480SOL    HW229340   4.835   4.279   0.250
 9481SOL     OW29341   5.673   3.472   1.543
 9481SOL    HW129342   5.728   3.391   1.564
 9481SOL    HW229343   5.632   3.461   1.452
 9482SOL     OW29344   6.622   0.895   3.022
 9482SOL    HW129345   6.678   0.812   3.021
 9482SOL    HW229346   6.672   0.968   3.068
 9483SOL     OW29347   1.512   1.909   1.292
 9483SOL    HW129348   1.440   1.850   1.255
 9483SOL    HW229349   1.537   1.876   1.383
 9484SOL     OW29350   4.281   1.509   3.247
 9484SOL    HW129351   4.273   1.487   3.344
 9484SOL    HW229352   4.225   1.445   3.194
 9485SOL     OW29353   0.719   7.011   2.506
 9485SOL    HW129354   0.674   6.924   2.526
 9485SOL    HW229355   0.805   7.016   2.557
 9486SOL     OW29356   2.604   5.004   1.449
 9486SOL    HW129357   2.648   4.928   1.399
 9486SOL    HW229358   2.598   4.980   1.546
 9487SOL     OW29359   3.004   3.376   2.843
 9487SOL    HW129360   3.038   3.462   2.882
 9487SOL    HW229361   2.969   3.318   2.917
 9488SOL     OW29362   2.695   6.439   1.031
 9488SOL    HW129363   2.683   6.449   1.130
 9488SOL    HW229364   2.606   6.432   0.987
 9489SOL     OW29365   3.949   4.067   1.472
 9489SOL    HW129366   3.855   4.082   1.443
 9489SOL    HW229367   3.950   4.007   1.552
 9490SOL     OW29368   6.312   6.097   0.988
 9490SOL    HW129369   6.332   6.028   0.919
 9490SOL    HW229370   6.229   6.147   0.963
 9491SOL     OW29371   6.766   4.259   3.618
 9491SOL    HW129372   6.841   4.296   3.563
 9491SOL    HW229373   6.759   4.309   3.704
 9492SOL     OW29374   3.644   3.183   2.703
 9492SOL    HW129375   3.625   3.090   2.733
 9492SOL    HW229376   3.598   3.199   2.615
 9493SOL     OW29377   4.164   5.270   4.106
 9493SOL    HW129378   4.066   5.253   4.107
 9493SOL    HW229379   4.197   5.265   4.011
 9494SOL     OW29380   4.499   4.260   1.577
 9494SOL    HW129381   4.461   4.251   1.669
 9494SOL    HW229382   4.599   4.251   1.581
 9495SOL     OW29383   5.808   1.588   4.756
 9495SOL    HW129384   5.889   1.605   4.701
 9495SOL    HW229385   5.771   1.676   4.789
 9496SOL     OW29386   5.447   4.887   0.644
 9496SOL    HW129387   5.413   4.825   0.715
 9496SOL    HW229388   5.373   4.947   0.615
 9497SOL     OW29389   5.933   4.641   0.250
 9497SOL    HW129390   5.919   4.610   0.156
 9497SOL    HW229391   6.024   4.681   0.259
 9498SOL     OW29392   5.249   0.148   5.646
 9498SOL    HW129393   5.245   0.063   5.700
 9498SOL    HW229394   5.339   0.190   5.658
 9499SOL     OW29395   2.570   4.254   5.938
 9499SOL    HW129396   2.615   4.323   5.995
 9499SOL    HW229397   2.565   4.168   5.989
 9500SOL     OW29398   4.129   0.398   1.598
 9500SOL    HW129399   4.107   0.322   1.658
 9500SOL    HW229400   4.047   0.425   1.547
 9501SOL     OW29401   3.033   1.385   4.816
 9501SOL    HW129402   3.000   1.419   4.728
 9501SOL    HW229403   2.959   1.337   4.863
 9502SOL     OW29404   0.223   2.046   4.326
 9502SOL    HW129405   0.291   2.116   4.304
 9502SOL    HW229406   0.254   1.957   4.293
 9503SOL     OW29407   0.685   1.609   1.315
 9503SOL    HW129408   0.712   1.610   1.412
 9503SOL    HW229409   0.605   1.667   1.303
 9504SOL     OW29410   0.375   1.562   0.505
 9504SOL    HW129411   0.387   1.529   0.411
 9504SOL    HW229412   0.325   1.648   0.503
 9505SOL     OW29413   5.613   3.971   4.241
 9505SOL    HW129414   5.654   4.028   4.312
 9505SOL    HW229415   5.638   4.006   4.151
 9506SOL     OW29416   0.532   3.734   6.741
 9506SOL    HW129417   0.523   3.791   6.823
 9506SOL    HW229418   0.444   3.693   6.719
 9507SOL     OW29419   1.220   1.236   3.866
 9507SOL    HW129420   1.164   1.298   3.920
 9507SOL    HW229421   1.298   1.286   3.829
 9508SOL     OW29422   5.696   3.304   1.033
 9508SOL    HW129423   5.735   3.214   1.019
 9508SOL    HW229424   5.608   3.310   0.987
 9509SOL     OW29425   0.797   0.394   5.875
 9509SOL    HW129426   0.724   0.339   5.915
 9509SOL    HW229427   0.845   0.443   5.949
 9510SOL     OW29428   0.989   4.642   1.936
 9510SOL    HW129429   0.964   4.646   2.032
 9510SOL    HW229430   0.933   4.573   1.890
 9511SOL     OW29431   0.183   1.376   6.979
 9511SOL    HW129432   0.166   1.467   6.939
 9511SOL    HW229433   0.171   1.306   6.908
 9512SOL     OW29434   5.715   0.974   2.219
 9512SOL    HW129435   5.737   0.897   2.279
 9512SOL    HW229436   5.668   0.940   2.137
 9513SOL     OW29437   1.656   3.114   5.140
 9513SOL    HW129438   1.708   3.031   5.118
 9513SOL    HW229439   1.652   3.173   5.060
 9514SOL     OW29440   2.516   4.648   6.913
 9514SOL    HW129441   2.439   4.590   6.886
 9514SOL    HW229442   2.494   4.695   6.999
 9515SOL     OW29443   1.398   5.697   0.578
 9515SOL    HW129444   1.302   5.691   0.553
 9515SOL    HW229445   1.407   5.747   0.664
 9516SOL     OW29446   5.542   3.886   5.256
 9516SOL    HW129447   5.548   3.834   5.171
 9516SOL    HW229448   5.630   3.885   5.303
 9517SOL     OW29449   1.670   4.730   0.037
 9517SOL    HW129450   1.591   4.743   6.995
 9517SOL    HW229451   1.754   4.741   7.001
 9518SOL     OW29452   1.199   2.002   0.117
 9518SOL    HW129453   1.133   2.069   0.084
 9518SOL    HW229454   1.290   2.024   0.080
 9519SOL     OW29455   4.115   3.317   4.058
 9519SOL    HW129456   4.123   3.416   4.062
 9519SOL    HW229457   4.047   3.286   4.124
 9520SOL     OW29458   0.307   0.764   2.494
 9520SOL    HW129459   0.223   0.818   2.495
 9520SOL    HW229460   0.383   0.820   2.461
 9521SOL     OW29461   3.792   4.148   1.161
 9521SOL    HW129462   3.731   4.085   1.113
 9521SOL    HW229463   3.878   4.101   1.184
 9522SOL     OW29464   4.347   5.973   2.467
 9522SOL    HW129465   4.292   5.988   2.386
 9522SOL    HW229466   4.302   6.013   2.547
 9523SOL     OW29467   2.650   4.954   4.960
 9523SOL    HW129468   2.701   4.956   5.046
 9523SOL    HW229469   2.560   4.912   4.976
 9524SOL     OW29470   1.994   2.526   0.527
 9524SOL    HW129471   1.919   2.474   0.485
 9524SOL    HW229472   1.981   2.528   0.626
 9525SOL     OW29473   1.965   2.126   5.347
 9525SOL    HW129474   1.902   2.052   5.327
 9525SOL    HW229475   1.996   2.120   5.442
 9526SOL     OW29476   6.404   4.158   1.382
 9526SOL    HW129477   6.396   4.114   1.471
 9526SOL    HW229478   6.496   4.195   1.371
 9527SOL     OW29479   2.085   0.687   5.368
 9527SOL    HW129480   2.053   0.600   5.406
 9527SOL    HW229481   2.152   0.727   5.430
 9528SOL     OW29482   6.712   1.862   6.917
 9528SOL    HW129483   6.808   1.886   6.907
 9528SOL    HW229484   6.659   1.907   6.845
 9529SOL     OW29485   6.224   3.529   6.456
 9529SOL    HW129486   6.319   3.533   6.484
 9529SOL    HW229487   6.166   3.512   6.536
 9530SOL     OW29488   1.397   3.197   3.523
 9530SOL    HW129489   1.344   3.229   3.602
 9530SOL    HW229490   1.361   3.109   3.492
 9531SOL     OW29491   5.011   4.255   2.191
 9531SOL    HW129492   4.923   4.217   2.163
 9531SOL    HW229493   5.031   4.227   2.285
 9532SOL     OW29494   0.248   5.285   1.109
 9532SOL    HW129495   0.174   5.301   1.044
 9532SOL    HW229496   0.317   5.357   1.101
 9533SOL     OW29497   0.891   6.023   4.701
 9533SOL    HW129498   0.854   6.064   4.785
 9533SOL    HW229499   0.825   6.035   4.627
 9534SOL     OW29500   6.055   4.222   5.094
 9534SOL    HW129501   6.014   4.163   5.024
 9534SOL    HW229502   6.124   4.171   5.144
 9535SOL     OW29503   2.222   0.513   5.662
 9535SOL    HW129504   2.128   0.484   5.642
 9535SOL    HW229505   2.286   0.447   5.623
 9536SOL     OW29506   3.039   3.736   5.221
 9536SOL    HW129507   2.988   3.814   5.256
 9536SOL    HW229508   3.136   3.748   5.240
 9537SOL     OW29509   2.168   0.794   4.461
 9537SOL    HW129510   2.251   0.789   4.516
 9537SOL    HW229511   2.109   0.716   4.482
 9538SOL     OW29512   5.017   0.927   4.426
 9538SOL    HW129513   5.038   0.830   4.438
 9538SOL    HW229514   4.994   0.967   4.515
 9539SOL     OW29515   3.562   4.050   4.148
 9539SOL    HW129516   3.499   3.973   4.157
 9539SOL    HW229517   3.564   4.102   4.234
 9540SOL     OW29518   5.776   4.691   4.314
 9540SOL    HW129519   5.833   4.636   4.375
 9540SOL    HW229520   5.798   4.788   4.325
 9541SOL     OW29521   2.956   0.446   5.926
 9541SOL    HW129522   3.035   0.409   5.877
 9541SOL    HW229523   2.949   0.403   6.016
 9542SOL     OW29524   5.087   4.539   5.332
 9542SOL    HW129525   5.146   4.463   5.308
 9542SOL    HW229526   5.073   4.598   5.252
 9543SOL     OW29527   3.718   0.903   6.325
 9543SOL    HW129528   3.635   0.932   6.374
 9543SOL    HW229529   3.724   0.804   6.325
 9544SOL     OW29530   5.745   2.967   4.034
 9544SOL    HW129531   5.721   3.043   3.974
 9544SOL    HW229532   5.741   2.882   3.983
 9545SOL     OW29533   5.718   5.519   3.537
 9545SOL    HW129534   5.796   5.527   3.475
 9545SOL    HW229535   5.686   5.424   3.538
 9546SOL     OW29536   3.627   1.904   5.981
 9546SOL    HW129537   3.617   1.994   6.024
 9546SOL    HW229538   3.692   1.849   6.034
 9547SOL     OW29539   2.315   5.480   4.162
 9547SOL    HW129540   2.216   5.484   4.164
 9547SOL    HW229541   2.351   5.497   4.254
 9548SOL     OW29542   6.949   4.602   5.263
 9548SOL    HW129543   0.004   4.670   5.267
 9548SOL    HW229544   6.989   4.511   5.261
 9549SOL     OW29545   3.099   2.168   1.525
 9549SOL    HW129546   3.104   2.160   1.425
 9549SOL    HW229547   3.027   2.109   1.559
 9550SOL     OW29548   0.169   0.574   0.352
 9550SOL    HW129549   0.139   0.481   0.330
 9550SOL    HW229550   0.091   0.626   0.387
 9551SOL     OW29551   5.737   2.884   6.031
 9551SOL    HW129552   5.727   2.858   6.127
 9551SOL    HW229553   5.757   2.982   6.026
 9552SOL     OW29554   2.166   6.157   4.824
 9552SOL    HW129555   2.203   6.064   4.832
 9552SOL    HW229556   2.135   6.189   4.913
 9553SOL     OW29557   5.717   2.513   6.607
 9553SOL    HW129558   5.674   2.526   6.517
 9553SOL    HW229559   5.655   2.461   6.666
 9554SOL     OW29560   2.857   0.116   2.778
 9554SOL    HW129561   2.934   0.167   2.817
 9554SOL    HW229562   2.826   0.048   2.844
 9555SOL     OW29563   0.975   1.635   2.085
 9555SOL    HW129564   0.936   1.630   2.177
 9555SOL    HW229565   1.052   1.699   2.085
 9556SOL     OW29566   1.817   4.335   2.052
 9556SOL    HW129567   1.878   4.260   2.028
 9556SOL    HW229568   1.870   4.410   2.092
 9557SOL     OW29569   6.758   6.247   1.613
 9557SOL    HW129570   6.761   6.327   1.553
 9557SOL    HW229571   6.671   6.245   1.662
 9558SOL     OW29572   6.013   6.016   5.762
 9558SOL    HW129573   5.914   6.020   5.747
 9558SOL    HW229574   6.039   6.087   5.827
 9559SOL     OW29575   0.590   4.502   0.641
 9559SOL    HW129576   0.688   4.521   0.642
 9559SOL    HW229577   0.543   4.576   0.593
 9560SOL     OW29578   2.847   0.941   3.098
 9560SOL    HW129579   2.915   0.908   3.163
 9560SOL    HW229580   2.762   0.962   3.146
 9561SOL     OW29581   1.746   0.628   1.074
 9561SOL    HW129582   1.845   0.626   1.059
 9561SOL    HW229583   1.727   0.602   1.169
 9562SOL     OW29584   2.763   0.373   5.753
 9562SOL    HW129585   2.825   0.393   5.828
 9562SOL    HW229586   2.770   0.444   5.683
 9563SOL     OW29587   6.986   6.373   0.523
 9563SOL    HW129588   6.923   6.352   0.598
 9563SOL    HW229589   6.963   6.318   0.443
 9564SOL     OW29590   2.600   1.130   0.774
 9564SOL    HW129591   2.574   1.218   0.814
 9564SOL    HW229592   2.531   1.061   0.796
 9565SOL     OW29593   4.498   0.960   4.718
 9565SOL    HW129594   4.481   0.934   4.622
 9565SOL    HW229595   4.457   0.891   4.778
 9566SOL     OW29596   2.889   5.332   6.709
 9566SOL    HW129597   2.840   5.419   6.701
 9566SOL    HW229598   2.850   5.279   6.785
 9567SOL     OW29599   4.664   5.120   0.612
 9567SOL    HW129600   4.577   5.169   0.612
 9567SOL    HW229601   4.674   5.069   0.697
 9568SOL     OW29602   4.163   2.401   6.009
 9568SOL    HW129603   4.153   2.302   6.020
 9568SOL    HW229604   4.153   2.425   5.912
 9569SOL     OW29605   6.512   0.955   2.562
 9569SOL    HW129606   6.413   0.944   2.570
 9569SOL    HW229607   6.538   1.047   2.590
 9570SOL     OW29608   0.798   3.352   1.887
 9570SOL    HW129609   0.793   3.378   1.791
 9570SOL    HW229610   0.825   3.431   1.942
 9571SOL     OW29611   3.705   3.653   6.294
 9571SOL    HW129612   3.613   3.685   6.270
 9571SOL    HW229613   3.698   3.582   6.364
 9572SOL     OW29614   2.354   4.577   2.256
 9572SOL    HW129615   2.429   4.582   2.190
 9572SOL    HW229616   2.281   4.638   2.228
 9573SOL     OW29617   1.191   2.435   6.534
 9573SOL    HW129618   1.253   2.502   6.494
 9573SOL    HW229619   1.185   2.355   6.474
 9574SOL     OW29620   3.905   3.500   3.107
 9574SOL    HW129621   3.854   3.436   3.050
 9574SOL    HW229622   3.976   3.450   3.158
 9575SOL     OW29623   0.566   0.708   1.539
 9575SOL    HW129624   0.613   0.680   1.622
 9575SOL    HW229625   0.516   0.793   1.556
 9576SOL     OW29626   1.757   1.575   1.286
 9576SOL    HW129627   1.693   1.509   1.246
 9576SOL    HW229628   1.748   1.663   1.238
 9577SOL     OW29629   1.071   0.275   6.212
 9577SOL    HW129630   1.107   0.368   6.216
 9577SOL    HW229631   1.099   0.232   6.125
 9578SOL     OW29632   0.760   4.137   2.767
 9578SOL    HW129633   0.770   4.077   2.847
 9578SOL    HW229634   0.663   4.148   2.746
 9579SOL     OW29635   1.176   5.028   3.206
 9579SOL    HW129636   1.167   4.934   3.239
 9579SOL    HW229637   1.117   5.088   3.261
 9580SOL     OW29638   4.828   3.384   0.916
 9580SOL    HW129639   4.869   3.449   0.980
 9580SOL    HW229640   4.739   3.355   0.951
 9581SOL     OW29641   0.621   6.420   5.660
 9581SOL    HW129642   0.667   6.393   5.744
 9581SOL    HW229643   0.537   6.470   5.683
 9582SOL     OW29644   4.543   5.201   5.979
 9582SOL    HW129645   4.448   5.172   5.991
 9582SOL    HW229646   4.546   5.281   5.919
 9583SOL     OW29647   3.471   4.377   1.426
 9583SOL    HW129648   3.538   4.413   1.491
 9583SOL    HW229649   3.458   4.279   1.442
 9584SOL     OW29650   0.173   5.478   6.673
 9584SOL    HW129651   0.233   5.530   6.612
 9584SOL    HW229652   0.160   5.386   6.636
 9585SOL     OW29653   6.395   6.887   4.566
 9585SOL    HW129654   6.341   6.878   4.482
 9585SOL    HW229655   6.388   6.980   4.601
 9586SOL     OW29656   5.630   4.787   2.312
 9586SOL    HW129657   5.669   4.828   2.395
 9586SOL    HW229658   5.639   4.688   2.317
 9587SOL     OW29659   0.579   0.369   1.881
 9587SOL    HW129660   0.553   0.287   1.831
 9587SOL    HW229661   0.673   0.359   1.914
 9588SOL     OW29662   6.844   0.637   1.183
 9588SOL    HW129663   6.785   0.692   1.124
 9588SOL    HW229664   6.787   0.569   1.231
 9589SOL     OW29665   2.262   5.044   6.744
 9589SOL    HW129666   2.249   4.958   6.794
 9589SOL    HW229667   2.346   5.040   6.691
 9590SOL     OW29668   6.587   2.738   1.892
 9590SOL    HW129669   6.534   2.798   1.952
 9590SOL    HW229670   6.685   2.750   1.911
 9591SOL     OW29671   3.058   5.887   5.792
 9591SOL    HW129672   2.991   5.862   5.722
 9591SOL    HW229673   3.150   5.881   5.753
 9592SOL     OW29674   3.658   4.569   0.523
 9592SOL    HW129675   3.572   4.620   0.520
 9592SOL    HW229676   3.696   4.572   0.615
 9593SOL     OW29677   0.720   0.952   6.038
 9593SOL    HW129678   0.779   0.872   6.044
 9593SOL    HW229679   0.624   0.923   6.033
 9594SOL     OW29680   1.120   5.155   2.661
 9594SOL    HW129681   1.148   5.100   2.582
 9594SOL    HW229682   1.045   5.217   2.634
 9595SOL     OW29683   0.714   3.095   4.758
 9595SOL    HW129684   0.723   3.185   4.714
 9595SOL    HW229685   0.669   3.032   4.695
 9596SOL     OW29686   0.343   5.493   6.182
 9596SOL    HW129687   0.309   5.588   6.188
 9596SOL    HW229688   0.418   5.489   6.117
 9597SOL     OW29689   0.761   4.232   1.519
 9597SOL    HW129690   0.784   4.290   1.441
 9597SOL    HW229691   0.718   4.147   1.486
 9598SOL     OW29692   1.593   4.194   4.049
 9598SOL    HW129693   1.584   4.100   4.019
 9598SOL    HW229694   1.649   4.245   3.985
 9599SOL     OW29695   3.335   6.974   4.758
 9599SOL    HW129696   3.325   0.026   4.686
 9599SOL    HW229697   3.405   6.908   4.731
 9600SOL     OW29698   2.540   6.689   6.823
 9600SOL    HW129699   2.460   6.708   6.879
 9600SOL    HW229700   2.517   6.703   6.727
 9601SOL     OW29701   4.639   4.012   0.628
 9601SOL    HW129702   4.592   4.022   0.540
 9601SOL    HW229703   4.705   4.086   0.640
 9602SOL     OW29704   6.282   5.019   6.036
 9602SOL    HW129705   6.350   5.038   6.107
 9602SOL    HW229706   6.213   5.091   6.036
 9603SOL     OW29707   3.669   1.602   3.964
 9603SOL    HW129708   3.751   1.630   4.014
 9603SOL    HW229709   3.681   1.623   3.867
 9604SOL     OW29710   4.810   0.391   6.560
 9604SOL    HW129711   4.834   0.296   6.536
 9604SOL    HW229712   4.893   0.446   6.564
 9605SOL     OW29713   0.594   5.309   3.541
 9605SOL    HW129714   0.615   5.392   3.490
 9605SOL    HW229715   0.664   5.240   3.524
 9606SOL     OW29716   1.806   6.354   6.630
 9606SOL    HW129717   1.771   6.334   6.722
 9606SOL    HW229718   1.772   6.443   6.601
 9607SOL     OW29719   1.672   1.725   0.471
 9607SOL    HW129720   1.655   1.822   0.457
 9607SOL    HW229721   1.764   1.702   0.439
 9608SOL     OW29722   6.771   5.197   2.761
 9608SOL    HW129723   6.761   5.102   2.788
 9608SOL    HW229724   6.835   5.243   2.822
 9609SOL     OW29725   2.499   4.358   6.932
 9609SOL    HW129726   2.539   4.449   6.945
 9609SOL    HW229727   2.478   4.345   6.836
 9610SOL     OW29728   1.179   4.550   4.201
 9610SOL    HW129729   1.256   4.493   4.229
 9610SOL    HW229730   1.188   4.576   4.105
 9611SOL     OW29731   0.829   6.211   6.628
 9611SOL    HW129732   0.895   6.174   6.562
 9611SOL    HW229733   0.818   6.309   6.611
 9612SOL     OW29734   0.591   3.874   1.983
 9612SOL    HW129735   0.525   3.815   2.029
 9612SOL    HW229736   0.545   3.927   1.912
 9613SOL     OW29737   5.323   6.528   3.299
 9613SOL    HW129738   5.319   6.628   3.295
 9613SOL    HW229739   5.240   6.490   3.259
 9614SOL     OW29740   2.891   2.028   0.665
 9614SOL    HW129741   2.814   1.981   0.708
 9614SOL    HW229742   2.960   1.961   0.637
 9615SOL     OW29743   1.415   6.894   6.899
 9615SOL    HW129744   1.408   6.795   6.884
 9615SOL    HW229745   1.448   6.911   6.991
 9616SOL     OW29746   4.287   3.653   1.418
 9616SOL    HW129747   4.322   3.705   1.496
 9616SOL    HW229748   4.254   3.717   1.348
 9617SOL     OW29749   2.257   2.828   2.968
 9617SOL    HW129750   2.217   2.867   3.051
 9617SOL    HW229751   2.284   2.902   2.907
 9618SOL     OW29752   3.941   6.703   5.565
 9618SOL    HW129753   3.991   6.748   5.491
 9618SOL    HW229754   3.960   6.749   5.652
 9619SOL     OW29755   1.172   0.340   0.299
 9619SOL    HW129756   1.097   0.326   0.364
 9619SOL    HW229757   1.218   0.253   0.283
 9620SOL     OW29758   4.648   2.107   6.444
 9620SOL    HW129759   4.719   2.039   6.427
 9620SOL    HW229760   4.578   2.069   6.505
 9621SOL     OW29761   1.059   0.978   2.158
 9621SOL    HW129762   1.002   1.031   2.095
 9621SOL    HW229763   1.139   0.942   2.109
 9622SOL     OW29764   6.652   1.176   6.914
 9622SOL    HW129765   6.671   1.180   6.816
 9622SOL    HW229766   6.738   1.177   6.965
 9623SOL     OW29767   2.983   4.375   6.144
 9623SOL    HW129768   3.054   4.432   6.186
 9623SOL    HW229769   3.026   4.300   6.093
 9624SOL     OW29770   0.261   4.742   2.231
 9624SOL    HW129771   0.195   4.814   2.252
 9624SOL    HW229772   0.232   4.694   2.148
 9625SOL     OW29773   5.060   5.385   0.215
 9625SOL    HW129774   5.010   5.310   0.259
 9625SOL    HW229775   5.144   5.403   0.265
 9626SOL     OW29776   2.922   5.836   0.081
 9626SOL    HW129777   2.902   5.857   0.176
 9626SOL    HW229778   3.001   5.889   0.050
 9627SOL     OW29779   6.467   5.942   3.105
 9627SOL    HW129780   6.440   5.931   3.200
 9627SOL    HW229781   6.494   6.037   3.090
 9628SOL     OW29782   5.432   4.736   0.306
 9628SOL    HW129783   5.521   4.767   0.338
 9628SOL    HW229784   5.432   4.729   0.206
 9629SOL     OW29785   0.561   6.841   2.263
 9629SOL    HW129786   0.557   6.758   2.206
 9629SOL    HW229787   0.558   6.815   2.360
 9630SOL     OW29788   6.281   6.074   6.103
 9630SOL    HW129789   6.197   6.104   6.057
 9630SOL    HW229790   6.357   6.133   6.077
 9631SOL     OW29791   6.418   6.892   0.066
 9631SOL    HW129792   6.455   6.840   7.006
 9631SOL    HW229793   6.327   6.859   0.088
 9632SOL     OW29794   2.450   5.585   2.608
 9632SOL    HW129795   2.541   5.624   2.626
 9632SOL    HW229796   2.397   5.585   2.693
 9633SOL     OW29797   5.358   5.280   0.082
 9633SOL    HW129798   5.279   5.306   0.137
 9633SOL    HW229799   5.363   5.180   0.076
 9634SOL     OW29800   0.930   0.079   3.674
 9634SOL    HW129801   0.882   0.097   3.588
 9634SOL    HW229802   0.905   0.148   3.741
 9635SOL     OW29803   1.482   4.905   5.591
 9635SOL    HW129804   1.545   4.908   5.668
 9635SOL    HW229805   1.532   4.881   5.508
 9636SOL     OW29806   3.566   2.081   6.454
 9636SOL    HW129807   3.659   2.118   6.467
 9636SOL    HW229808   3.521   2.131   6.380
 9637SOL     OW29809   3.020   1.742   6.514
 9637SOL    HW129810   3.000   1.760   6.611
 9637SOL    HW229811   2.976   1.812   6.458
 9638SOL     OW29812   6.732   3.171   6.559
 9638SOL    HW129813   6.789   3.156   6.478
 9638SOL    HW229814   6.698   3.084   6.593
 9639SOL     OW29815   4.022   1.767   2.356
 9639SOL    HW129816   3.946   1.740   2.297
 9639SOL    HW229817   4.005   1.859   2.392
 9640SOL     OW29818   2.753   1.849   2.781
 9640SOL    HW129819   2.666   1.825   2.825
 9640SOL    HW229820   2.814   1.770   2.784
 9641SOL     OW29821   5.054   6.040   1.052
 9641SOL    HW129822   4.995   5.960   1.042
 9641SOL    HW229823   5.046   6.075   1.146
 9642SOL     OW29824   3.324   6.304   5.641
 9642SOL    HW129825   3.363   6.364   5.711
 9642SOL    HW229826   3.397   6.266   5.585
 9643SOL     OW29827   5.958   4.960   4.295
 9643SOL    HW129828   5.929   4.998   4.207
 9643SOL    HW229829   6.042   5.006   4.325
 9644SOL     OW29830   0.950   4.904   5.776
 9644SOL    HW129831   0.908   4.892   5.686
 9644SOL    HW229832   1.028   4.967   5.768
 9645SOL     OW29833   3.927   4.883   3.776
 9645SOL    HW129834   3.914   4.885   3.875
 9645SOL    HW229835   3.998   4.817   3.753
 9646SOL     OW29836   2.810   4.832   2.118
 9646SOL    HW129837   2.801   4.748   2.064
 9646SOL    HW229838   2.720   4.870   2.138
 9647SOL     OW29839   6.579   5.337   1.649
 9647SOL    HW129840   6.542   5.244   1.648
 9647SOL    HW229841   6.541   5.388   1.572
 9648SOL     OW29842   3.790   2.285   6.997
 9648SOL    HW129843   3.776   2.194   6.959
 9648SOL    HW229844   3.713   2.344   6.970
 9649SOL     OW29845   2.792   5.588   0.156
 9649SOL    HW129846   2.760   5.554   0.068
 9649SOL    HW229847   2.853   5.666   0.142
 9650SOL     OW29848   5.560   4.959   2.925
 9650SOL    HW129849   5.585   4.866   2.954
 9650SOL    HW229850   5.630   4.993   2.862
 9651SOL     OW29851   0.084   0.501   6.535
 9651SOL    HW129852   0.165   0.542   6.494
 9651SOL    HW229853   0.002   0.547   6.503
 9652SOL     OW29854   2.058   4.905   0.433
 9652SOL    HW129855   2.039   5.002   0.448
 9652SOL    HW229856   2.145   4.880   0.476
 9653SOL     OW29857   4.132   5.168   4.729
 9653SOL    HW129858   4.152   5.130   4.639
 9653SOL    HW229859   4.046   5.220   4.726
 9654SOL     OW29860   4.081   3.269   1.578
 9654SOL    HW129861   4.171   3.299   1.609
 9654SOL    HW229862   4.011   3.307   1.639
 9655SOL     OW29863   0.446   1.632   6.854
 9655SOL    HW129864   0.369   1.631   6.917
 9655SOL    HW229865   0.532   1.634   6.907
 9656SOL     OW29866   3.190   2.505   0.832
 9656SOL    HW129867   3.242   2.485   0.915
 9656SOL    HW229868   3.142   2.592   0.843
 9657SOL     OW29869   6.611   1.976   3.854
 9657SOL    HW129870   6.567   2.019   3.776
 9657SOL    HW229871   6.583   1.880   3.860
 9658SOL     OW29872   6.142   1.439   2.450
 9658SOL    HW129873   6.226   1.491   2.464
 9658SOL    HW229874   6.065   1.488   2.491
 9659SOL     OW29875   0.058   4.296   0.079
 9659SOL    HW129876   0.130   4.250   0.028
 9659SOL    HW229877   6.986   4.262   0.049
 9660SOL     OW29878   0.378   5.826   1.319
 9660SOL    HW129879   0.442   5.766   1.271
 9660SOL    HW229880   0.292   5.777   1.336
 9661SOL     OW29881   3.922   6.418   2.112
 9661SOL    HW129882   3.966   6.466   2.036
 9661SOL    HW229883   3.962   6.327   2.122
 9662SOL     OW29884   4.824   2.942   5.139
 9662SOL    HW129885   4.892   2.889   5.188
 9662SOL    HW229886   4.812   2.904   5.047
 9663SOL     OW29887   1.031   6.459   4.624
 9663SOL    HW129888   1.128   6.460   4.599
 9663SOL    HW229889   1.018   6.505   4.711
 9664SOL     OW29890   6.122   6.376   3.879
 9664SOL    HW129891   6.140   6.296   3.821
 9664SOL    HW229892   6.186   6.378   3.955
 9665SOL     OW29893   5.652   5.976   0.038
 9665SOL    HW129894   5.584   5.996   0.108
 9665SOL    HW229895   5.683   6.062   7.014
 9666SOL     OW29896   5.883   4.431   1.431
 9666SOL    HW129897   5.830   4.357   1.472
 9666SOL    HW229898   5.976   4.429   1.467
 9667SOL     OW29899   3.505   3.653   4.278
 9667SOL    HW129900   3.573   3.641   4.205
 9667SOL    HW229901   3.471   3.564   4.308
 9668SOL     OW29902   6.230   1.711   6.775
 9668SOL    HW129903   6.265   1.804   6.760
 9668SOL    HW229904   6.131   1.714   6.786
 9669SOL     OW29905   1.496   0.065   1.852
 9669SOL    HW129906   1.557   7.003   1.845
 9669SOL    HW229907   1.491   0.095   1.947
 9670SOL     OW29908   5.419   4.886   6.806
 9670SOL    HW129909   5.396   4.804   6.754
 9670SOL    HW229910   5.392   4.967   6.754
 9671SOL     OW29911   6.158   5.438   6.562
 9671SOL    HW129912   6.081   5.382   6.591
 9671SOL    HW229913   6.216   5.386   6.500
 9672SOL     OW29914   1.189   6.219   4.697
 9672SOL    HW129915   1.167   6.272   4.779
 9672SOL    HW229916   1.231   6.279   4.629
 9673SOL     OW29917   5.963   3.832   0.339
 9673SOL    HW129918   5.989   3.826   0.435
 9673SOL    HW229919   6.002   3.755   0.289
 9674SOL     OW29920   2.208   5.766   3.525
 9674SOL    HW129921   2.128   5.734   3.575
 9674SOL    HW229922   2.287   5.768   3.585
 9675SOL     OW29923   5.829   1.749   0.580
 9675SOL    HW129924   5.861   1.755   0.486
 9675SOL    HW229925   5.901   1.778   0.643
 9676SOL     OW29926   1.559   3.659   5.224
 9676SOL    HW129927   1.644   3.701   5.194
 9676SOL    HW229928   1.485   3.726   5.219
 9677SOL     OW29929   1.851   5.570   5.450
 9677SOL    HW129930   1.884   5.492   5.397
 9677SOL    HW229931   1.763   5.548   5.491
 9678SOL     OW29932   3.388   3.310   2.708
 9678SOL    HW129933   3.481   3.276   2.717
 9678SOL    HW229934   3.328   3.262   2.773
 9679SOL     OW29935   1.940   1.237   2.482
 9679SOL    HW129936   1.977   1.144   2.486
 9679SOL    HW229937   2.012   1.299   2.450
 9680SOL     OW29938   5.908   0.748   3.349
 9680SOL    HW129939   6.002   0.780   3.335
 9680SOL    HW229940   5.910   0.651   3.373
 9681SOL     OW29941   3.924   1.485   0.057
 9681SOL    HW129942   3.891   1.551   0.124
 9681SOL    HW229943   3.942   1.531   6.988
 9682SOL     OW29944   5.087   4.962   3.705
 9682SOL    HW129945   5.065   4.901   3.629
 9682SOL    HW229946   5.093   5.056   3.671
 9683SOL     OW29947   2.815   5.472   1.081
 9683SOL    HW129948   2.784   5.540   1.015
 9683SOL    HW229949   2.787   5.500   1.173
 9684SOL     OW29950   0.214   2.236   4.745
 9684SOL    HW129951   0.132   2.178   4.753
 9684SOL    HW229952   0.285   2.201   4.805
 9685SOL     OW29953   1.675   3.715   1.105
 9685SOL    HW129954   1.642   3.709   1.199
 9685SOL    HW229955   1.764   3.760   1.104
 9686SOL     OW29956   6.700   1.737   0.292
 9686SOL    HW129957   6.779   1.776   0.338
 9686SOL    HW229958   6.617   1.758   0.344
 9687SOL     OW29959   2.070   1.151   3.973
 9687SOL    HW129960   2.144   1.213   3.945
 9687SOL    HW229961   2.078   1.066   3.922
 9688SOL     OW29962   6.721   2.062   3.378
 9688SOL    HW129963   6.799   2.075   3.439
 9688SOL    HW229964   6.749   2.009   3.298
 9689SOL     OW29965   1.709   5.686   0.228
 9689SOL    HW129966   1.674   5.634   0.306
 9689SOL    HW229967   1.770   5.758   0.262
 9690SOL     OW29968   5.742   5.958   6.391
 9690SOL    HW129969   5.725   6.021   6.466
 9690SOL    HW229970   5.706   5.867   6.415
 9691SOL     OW29971   3.071   4.932   2.167
 9691SOL    HW129972   3.122   4.893   2.090
 9691SOL    HW229973   2.974   4.908   2.158
 9692SOL     OW29974   3.107   5.422   2.654
 9692SOL    HW129975   3.097   5.365   2.572
 9692SOL    HW229976   3.092   5.367   2.736
 9693SOL     OW29977   6.425   5.906   1.477
 9693SOL    HW129978   6.403   5.993   1.521
 9693SOL    HW229979   6.419   5.916   1.377
 9694SOL     OW29980   2.481   0.600   6.499
 9694SOL    HW129981   2.524   0.667   6.439
 9694SOL    HW229982   2.383   0.594   6.479
 9695SOL     OW29983   6.828   3.838   1.871
 9695SOL    HW129984   6.745   3.785   1.855
 9695SOL    HW229985   6.837   3.908   1.800
 9696SOL     OW29986   5.162   3.230   0.953
 9696SOL    HW129987   5.103   3.163   0.999
 9696SOL    HW229988   5.120   3.320   0.957
 9697SOL     OW29989   0.091   6.275   6.567
 9697SOL    HW129990   0.010   6.333   6.557
 9697SOL    HW229991   0.081   6.193   6.511
 9698SOL     OW29992   5.034   1.886   5.989
 9698SOL    HW129993   5.053   1.813   5.924
 9698SOL    HW229994   5.018   1.972   5.940
 9699SOL     OW29995   0.178   4.504   6.440
 9699SOL    HW129996   0.212   4.515   6.533
 9699SOL    HW229997   0.109   4.574   6.421
 9700SOL     OW29998   4.310   5.101   4.955
 9700SOL    HW129999   4.226   5.109   4.902
 9700SOL    HW230000   4.387   5.085   4.893
 9701SOL     OW30001   3.927   5.213   5.039
 9701SOL    HW130002   3.944   5.249   4.947
 9701SOL    HW230003   3.839   5.247   5.073
 9702SOL     OW30004   5.100   0.618   6.793
 9702SOL    HW130005   5.190   0.658   6.805
 9702SOL    HW230006   5.031   0.677   6.835
 9703SOL     OW30007   4.196   5.078   4.493
 9703SOL    HW130008   4.252   5.081   4.411
 9703SOL    HW230009   4.148   4.990   4.497
 9704SOL     OW30010   2.924   0.803   2.823
 9704SOL    HW130011   2.904   0.811   2.921
 9704SOL    HW230012   2.847   0.758   2.777
 9705SOL     OW30013   4.819   5.493   6.283
 9705SOL    HW130014   4.777   5.571   6.331
 9705SOL    HW230015   4.753   5.418   6.279
 9706SOL     OW30016   0.874   2.302   0.836
 9706SOL    HW130017   0.818   2.349   0.768
 9706SOL    HW230018   0.955   2.263   0.792
 9707SOL     OW30019   6.253   4.368   1.265
 9707SOL    HW130020   6.321   4.296   1.280
 9707SOL    HW230021   6.164   4.327   1.244
 9708SOL     OW30022   1.252   2.191   2.529
 9708SOL    HW130023   1.242   2.281   2.485
 9708SOL    HW230024   1.348   2.177   2.553
 9709SOL     OW30025   5.949   6.010   2.579
 9709SOL    HW130026   6.038   5.966   2.577
 9709SOL    HW230027   5.879   5.945   2.547
 9710SOL     OW30028   0.631   1.654   2.048
 9710SOL    HW130029   0.588   1.743   2.036
 9710SOL    HW230030   0.699   1.640   1.977
 9711SOL     OW30031   2.137   4.061   6.089
 9711SOL    HW130032   2.182   4.139   6.044
 9711SOL    HW230033   2.172   4.052   6.182
 9712SOL     OW30034   6.104   4.732   5.758
 9712SOL    HW130035   6.169   4.734   5.834
 9712SOL    HW230036   6.020   4.686   5.788
 9713SOL     OW30037   1.197   5.004   3.566
 9713SOL    HW130038   1.234   4.924   3.520
 9713SOL    HW230039   1.137   5.054   3.503
 9714SOL     OW30040   2.923   0.954   1.615
 9714SOL    HW130041   2.884   0.879   1.562
 9714SOL    HW230042   3.014   0.977   1.579
 9715SOL     OW30043   5.285   4.294   6.339
 9715SOL    HW130044   5.372   4.345   6.341
 9715SOL    HW230045   5.236   4.310   6.425
 9716SOL     OW30046   4.136   2.467   6.272
 9716SOL    HW130047   4.136   2.431   6.179
 9716SOL    HW230048   4.205   2.539   6.280
 9717SOL     OW30049   5.921   5.433   5.657
 9717SOL    HW130050   5.956   5.364   5.720
 9717SOL    HW230051   5.877   5.507   5.708
 9718SOL     OW30052   5.000   2.721   1.469
 9718SOL    HW130053   4.973   2.641   1.415
 9718SOL    HW230054   4.922   2.781   1.481
 9719SOL     OW30055   0.369   2.105   6.556
 9719SOL    HW130056   0.316   2.190   6.563
 9719SOL    HW230057   0.315   2.030   6.595
 9720SOL     OW30058   6.943   5.487   2.387
 9720SOL    HW130059   6.951   5.417   2.457
 9720SOL    HW230060   7.004   5.465   2.311
 9721SOL     OW30061   0.466   3.090   0.933
 9721SOL    HW130062   0.441   3.074   1.028
 9721SOL    HW230063   0.564   3.103   0.926
 9722SOL     OW30064   0.225   0.072   3.801
 9722SOL    HW130065   0.240   0.108   3.893
 9722SOL    HW230066   0.258   6.995   3.796
 9723SOL     OW30067   2.082   6.130   3.534
 9723SOL    HW130068   2.170   6.169   3.508
 9723SOL    HW230069   2.051   6.171   3.620
 9724SOL     OW30070   1.964   3.444   0.263
 9724SOL    HW130071   2.002   3.516   0.321
 9724SOL    HW230072   2.032   3.372   0.251
 9725SOL     OW30073   3.993   4.364   6.284
 9725SOL    HW130074   3.979   4.440   6.221
 9725SOL    HW230075   4.001   4.399   6.378
 9726SOL     OW30076   5.231   0.553   3.979
 9726SOL    HW130077   5.244   0.535   3.881
 9726SOL    HW230078   5.136   0.578   3.996
 9727SOL     OW30079   0.417   3.609   5.450
 9727SOL    HW130080   0.471   3.537   5.492
 9727SOL    HW230081   0.455   3.630   5.360
 9728SOL     OW30082   0.165   0.401   6.088
 9728SOL    HW130083   0.176   0.486   6.037
 9728SOL    HW230084   0.100   0.342   6.042
 9729SOL     OW30085   0.979   4.391   3.103
 9729SOL    HW130086   1.036   4.422   3.027
 9729SOL    HW230087   0.910   4.327   3.069
 9730SOL     OW30088   0.363   3.261   3.140
 9730SOL    HW130089   0.456   3.267   3.105
 9730SOL    HW230090   0.315   3.185   3.096
 9731SOL     OW30091   4.551   3.803   1.083
 9731SOL    HW130092   4.597   3.874   1.136
 9731SOL    HW230093   4.524   3.728   1.143
 9732SOL     OW30094   5.640   5.785   3.478
 9732SOL    HW130095   5.652   5.691   3.509
 9732SOL    HW230096   5.600   5.840   3.552
 9733SOL     OW30097   5.324   5.115   0.450
 9733SOL    HW130098   5.279   5.092   0.536
 9733SOL    HW230099   5.421   5.090   0.456
 9734SOL     OW30100   5.891   1.435   2.959
 9734SOL    HW130101   5.876   1.349   2.910
 9734SOL    HW230102   5.859   1.426   3.053
 9735SOL     OW30103   1.708   4.525   3.210
 9735SOL    HW130104   1.760   4.493   3.288
 9735SOL    HW230105   1.760   4.509   3.126
 9736SOL     OW30106   5.997   1.925   6.008
 9736SOL    HW130107   5.938   1.985   6.062
 9736SOL    HW230108   6.006   1.837   6.054
 9737SOL     OW30109   6.512   3.114   4.682
 9737SOL    HW130110   6.529   3.075   4.773
 9737SOL    HW230111   6.452   3.193   4.691
 9738SOL     OW30112   2.032   0.287   2.325
 9738SOL    HW130113   1.955   0.292   2.388
 9738SOL    HW230114   2.005   0.324   2.236
 9739SOL     OW30115   6.128   5.542   2.103
 9739SOL    HW130116   6.039   5.509   2.072
 9739SOL    HW230117   6.174   5.470   2.156
 9740SOL     OW30118   6.270   2.242   3.924
 9740SOL    HW130119   6.277   2.213   3.829
 9740SOL    HW230120   6.338   2.312   3.943
 9741SOL     OW30121   5.064   1.903   2.918
 9741SOL    HW130122   5.134   1.833   2.901
 9741SOL    HW230123   5.103   1.993   2.898
 9742SOL     OW30124   3.746   0.327   2.008
 9742SOL    HW130125   3.693   0.379   2.075
 9742SOL    HW230126   3.728   0.363   1.917
 9743SOL     OW30127   1.225   1.462   4.811
 9743SOL    HW130128   1.150   1.438   4.872
 9743SOL    HW230129   1.194   1.528   4.743
 9744SOL     OW30130   0.641   0.667   2.642
 9744SOL    HW130131   0.546   0.638   2.656
 9744SOL    HW230132   0.696   0.588   2.616
 9745SOL     OW30133   6.421   2.850   6.276
 9745SOL    HW130134   6.500   2.870   6.334
 9745SOL    HW230135   6.338   2.880   6.321
 9746SOL     OW30136   6.256   1.253   6.247
 9746SOL    HW130137   6.332   1.233   6.309
 9746SOL    HW230138   6.268   1.343   6.207
 9747SOL     OW30139   1.788   0.286   1.852
 9747SOL    HW130140   1.717   0.345   1.891
 9747SOL    HW230141   1.795   0.303   1.754
 9748SOL     OW30142   1.300   1.026   3.679
 9748SOL    HW130143   1.352   0.970   3.743
 9748SOL    HW230144   1.228   1.075   3.729
 9749SOL     OW30145   1.998   1.741   5.152
 9749SOL    HW130146   1.927   1.786   5.205
 9749SOL    HW230147   2.050   1.809   5.100
 9750SOL     OW30148   5.499   4.671   3.363
 9750SOL    HW130149   5.581   4.708   3.318
 9750SOL    HW230150   5.449   4.746   3.406
 9751SOL     OW30151   1.392   1.134   0.618
 9751SOL    HW130152   1.480   1.106   0.655
 9751SOL    HW230153   1.328   1.151   0.693
 9752SOL     OW30154   5.336   1.763   0.168
 9752SOL    HW130155   5.408   1.701   0.200
 9752SOL    HW230156   5.312   1.740   0.074
 9753SOL     OW30157   6.234   5.420   5.324
 9753SOL    HW130158   6.138   5.445   5.337
 9753SOL    HW230159   6.244   5.368   5.239
 9754SOL     OW30160   0.773   1.351   6.275
 9754SOL    HW130161   0.799   1.263   6.315
 9754SOL    HW230162   0.674   1.364   6.284
 9755SOL     OW30163   3.853   3.759   5.255
 9755SOL    HW130164   3.946   3.779   5.223
 9755SOL    HW230165   3.788   3.815   5.204
 9756SOL     OW30166   6.029   3.373   0.325
 9756SOL    HW130167   5.979   3.405   0.406
 9756SOL    HW230168   5.984   3.408   0.243
 9757SOL     OW30169   5.609   3.462   3.183
 9757SOL    HW130170   5.685   3.520   3.153
 9757SOL    HW230171   5.551   3.512   3.247
 9758SOL     OW30172   2.961   7.009   0.051
 9758SOL    HW130173   2.967   0.014   0.148
 9758SOL    HW230174   2.923   6.917   0.040
 9759SOL     OW30175   2.242   6.996   6.956
 9759SOL    HW130176   2.143   6.999   6.952
 9759SOL    HW230177   2.280   0.028   6.877
 9760SOL     OW30178   4.481   3.202   5.442
 9760SOL    HW130179   4.484   3.280   5.380
 9760SOL    HW230180   4.569   3.154   5.438
 9761SOL     OW30181   6.136   0.277   1.806
 9761SOL    HW130182   6.118   0.353   1.743
 9761SOL    HW230183   6.181   0.203   1.757
 9762SOL     OW30184   2.589   2.267   4.252
 9762SOL    HW130185   2.502   2.311   4.275
 9762SOL    HW230186   2.575   2.199   4.180
 9763SOL     OW30187   4.700   2.134   1.933
 9763SOL    HW130188   4.609   2.116   1.972
 9763SOL    HW230189   4.701   2.107   1.837
 9764SOL     OW30190   0.804   2.731   3.370
 9764SOL    HW130191   0.804   2.679   3.456
 9764SOL    HW230192   0.715   2.722   3.325
 9765SOL     OW30193   6.418   2.222   2.961
 9765SOL    HW130194   6.447   2.201   3.055
 9765SOL    HW230195   6.343   2.162   2.935
 9766SOL     OW30196   2.881   0.514   3.121
 9766SOL    HW130197   2.849   0.500   3.028
 9766SOL    HW230198   2.958   0.578   3.121
 9767SOL     OW30199   5.319   2.006   5.058
 9767SOL    HW130200   5.325   2.051   4.969
 9767SOL    HW230201   5.310   2.075   5.129
 9768SOL     OW30202   4.810   1.555   2.359
 9768SOL    HW130203   4.759   1.520   2.281
 9768SOL    HW230204   4.760   1.535   2.443
 9769SOL     OW30205   2.182   1.166   2.254
 9769SOL    HW130206   2.145   1.096   2.194
 9769SOL    HW230207   2.278   1.146   2.275
 9770SOL     OW30208   5.338   0.273   6.836
 9770SOL    HW130209   5.369   0.223   6.755
 9770SOL    HW230210   5.238   0.283   6.833
 9771SOL     OW30211   3.607   4.841   1.313
 9771SOL    HW130212   3.683   4.818   1.373
 9771SOL    HW230213   3.559   4.921   1.348
 9772SOL     OW30214   1.397   6.078   2.734
 9772SOL    HW130215   1.480   6.095   2.681
 9772SOL    HW230216   1.412   5.999   2.794
 9773SOL     OW30217   5.452   6.719   4.542
 9773SOL    HW130218   5.489   6.763   4.623
 9773SOL    HW230219   5.361   6.682   4.563
 9774SOL     OW30220   6.255   4.845   1.715
 9774SOL    HW130221   6.283   4.862   1.621
 9774SOL    HW230222   6.329   4.798   1.764
 9775SOL     OW30223   2.595   0.980   3.241
 9775SOL    HW130224   2.626   1.050   3.305
 9775SOL    HW230225   2.500   0.957   3.261
 9776SOL     OW30226   6.990   5.621   4.636
 9776SOL    HW130227   6.937   5.698   4.671
 9776SOL    HW230228   0.048   5.655   4.579
 9777SOL     OW30229   5.621   4.701   6.391
 9777SOL    HW130230   5.545   4.764   6.406
 9777SOL    HW230231   5.675   4.694   6.476
 9778SOL     OW30232   0.252   0.877   3.340
 9778SOL    HW130233   0.155   0.879   3.366
 9778SOL    HW230234   0.293   0.966   3.361
 9779SOL     OW30235   2.277   1.574   4.955
 9779SOL    HW130236   2.206   1.504   4.965
 9779SOL    HW230237   2.334   1.553   4.876
 9780SOL     OW30238   2.452   1.773   1.446
 9780SOL    HW130239   2.440   1.679   1.477
 9780SOL    HW230240   2.548   1.788   1.423
 9781SOL     OW30241   1.389   3.580   4.194
 9781SOL    HW130242   1.403   3.523   4.276
 9781SOL    HW230243   1.422   3.672   4.212
 9782SOL     OW30244   0.029   0.713   1.377
 9782SOL    HW130245   6.981   0.697   1.303
 9782SOL    HW230246   0.104   0.648   1.370
 9783SOL     OW30247   5.266   2.183   2.435
 9783SOL    HW130248   5.254   2.224   2.344
 9783SOL    HW230249   5.176   2.168   2.477
 9784SOL     OW30250   3.909   1.468   3.793
 9784SOL    HW130251   3.958   1.411   3.728
 9784SOL    HW230252   3.819   1.492   3.755
 9785SOL     OW30253   0.051   4.354   5.262
 9785SOL    HW130254   0.126   4.295   5.230
 9785SOL    HW230255   6.989   4.298   5.285
 9786SOL     OW30256   2.368   4.805   6.417
 9786SOL    HW130257   2.387   4.838   6.510
 9786SOL    HW230258   2.356   4.706   6.418
 9787SOL     OW30259   4.747   3.886   1.591
 9787SOL    HW130260   4.762   3.788   1.574
 9787SOL    HW230261   4.804   3.915   1.667
 9788SOL     OW30262   0.407   0.461   3.570
 9788SOL    HW130263   0.504   0.443   3.586
 9788SOL    HW230264   0.396   0.542   3.513
 9789SOL     OW30265   1.403   6.059   6.702
 9789SOL    HW130266   1.487   6.025   6.660
 9789SOL    HW230267   1.324   6.024   6.651
 9790SOL     OW30268   5.799   3.997   6.171
 9790SOL    HW130269   5.859   3.998   6.251
 9790SOL    HW230270   5.749   3.911   6.168
 9791SOL     OW30271   0.425   1.259   3.014
 9791SOL    HW130272   0.433   1.170   3.060
 9791SOL    HW230273   0.509   1.312   3.030
 9792SOL     OW30274   5.477   5.332   1.828
 9792SOL    HW130275   5.448   5.418   1.868
 9792SOL    HW230276   5.496   5.344   1.731
 9793SOL     OW30277   5.512   4.966   3.472
 9793SOL    HW130278   5.582   4.927   3.413
 9793SOL    HW230279   5.506   4.914   3.557
 9794SOL     OW30280   6.672   3.935   6.228
 9794SOL    HW130281   6.630   3.946   6.138
 9794SOL    HW230282   6.770   3.954   6.222
 9795SOL     OW30283   1.098   1.877   4.300
 9795SOL    HW130284   1.048   1.960   4.322
 9795SOL    HW230285   1.088   1.811   4.374
 9796SOL     OW30286   4.065   2.780   1.075
 9796SOL    HW130287   4.123   2.790   1.156
 9796SOL    HW230288   4.073   2.862   1.019
 9797SOL     OW30289   3.298   4.245   6.500
 9797SOL    HW130290   3.334   4.257   6.407
 9797SOL    HW230291   3.198   4.240   6.496
 9798SOL     OW30292   2.061   0.873   0.872
 9798SOL    HW130293   2.072   0.955   0.929
 9798SOL    HW230294   2.151   0.839   0.845
 9799SOL     OW30295   3.380   3.546   3.146
 9799SOL    HW130296   3.292   3.505   3.120
 9799SOL    HW230297   3.411   3.506   3.232
 9800SOL     OW30298   3.301   6.506   5.409
 9800SOL    HW130299   3.240   6.559   5.467
 9800SOL    HW230300   3.375   6.469   5.465
 9801SOL     OW30301   4.040   4.783   0.765
 9801SOL    HW130302   4.025   4.724   0.686
 9801SOL    HW230303   4.128   4.829   0.756
 9802SOL     OW30304   0.587   2.626   2.746
 9802SOL    HW130305   0.636   2.678   2.675
 9802SOL    HW230306   0.545   2.690   2.810
 9803SOL     OW30307   5.943   1.517   6.889
 9803SOL    HW130308   5.960   1.615   6.883
 9803SOL    HW230309   5.892   1.486   6.809
 9804SOL     OW30310   0.664   5.549   3.413
 9804SOL    HW130311   0.673   5.646   3.435
 9804SOL    HW230312   0.682   5.535   3.315
 9805SOL     OW30313   1.245   5.574   5.769
 9805SOL    HW130314   1.265   5.608   5.861
 9805SOL    HW230315   1.330   5.546   5.725
 9806SOL     OW30316   1.006   1.635   0.356
 9806SOL    HW130317   1.079   1.589   0.305
 9806SOL    HW230318   0.922   1.580   0.350
 9807SOL     OW30319   2.010   2.667   0.139
 9807SOL    HW130320   2.057   2.679   0.226
 9807SOL    HW230321   1.965   2.577   0.137
 9808SOL     OW30322   5.679   0.997   5.500
 9808SOL    HW130323   5.617   0.956   5.433
 9808SOL    HW230324   5.710   0.927   5.564
 9809SOL     OW30325   0.987   1.775   6.138
 9809SOL    HW130326   1.078   1.733   6.133
 9809SOL    HW230327   0.925   1.713   6.185
 9810SOL     OW30328   2.835   2.318   3.786
 9810SOL    HW130329   2.737   2.333   3.798
 9810SOL    HW230330   2.885   2.365   3.859
 9811SOL     OW30331   6.200   5.527   4.118
 9811SOL    HW130332   6.169   5.591   4.188
 9811SOL    HW230333   6.191   5.434   4.151
 9812SOL     OW30334   3.313   2.585   6.050
 9812SOL    HW130335   3.412   2.578   6.062
 9812SOL    HW230336   3.267   2.520   6.111
 9813SOL     OW30337   5.746   6.514   6.868
 9813SOL    HW130338   5.794   6.516   6.956
 9813SOL    HW230339   5.813   6.500   6.795
 9814SOL     OW30340   0.429   1.255   6.753
 9814SOL    HW130341   0.473   1.202   6.680
 9814SOL    HW230342   0.376   1.193   6.811
 9815SOL     OW30343   6.738   2.945   2.315
 9815SOL    HW130344   6.836   2.959   2.301
 9815SOL    HW230345   6.701   2.891   2.239
 9816SOL     OW30346   6.491   1.523   6.490
 9816SOL    HW130347   6.471   1.438   6.442
 9816SOL    HW230348   6.495   1.598   6.424
 9817SOL     OW30349   3.094   5.635   1.902
 9817SOL    HW130350   3.139   5.725   1.897
 9817SOL    HW230351   3.006   5.645   1.948
 9818SOL     OW30352   1.571   1.223   3.876
 9818SOL    HW130353   1.561   1.128   3.907
 9818SOL    HW230354   1.667   1.250   3.883
 9819SOL     OW30355   5.066   3.176   4.974
 9819SOL    HW130356   5.117   3.261   4.969
 9819SOL    HW230357   4.970   3.195   4.996
 9820SOL     OW30358   3.451   3.043   6.474
 9820SOL    HW130359   3.510   2.985   6.531
 9820SOL    HW230360   3.363   3.055   6.519
 9821SOL     OW30361   4.220   1.839   0.982
 9821SOL    HW130362   4.214   1.765   1.049
 9821SOL    HW230363   4.269   1.916   1.022
 9822SOL     OW30364   3.580   5.621   4.238
 9822SOL    HW130365   3.516   5.634   4.162
 9822SOL    HW230366   3.673   5.637   4.207
 9823SOL     OW30367   1.673   0.171   2.264
 9823SOL    HW130368   1.704   0.218   2.347
 9823SOL    HW230369   1.578   0.142   2.275
 9824SOL     OW30370   2.210   5.817   5.221
 9824SOL    HW130371   2.207   5.912   5.250
 9824SOL    HW230372   2.170   5.759   5.292
 9825SOL     OW30373   5.555   6.237   4.787
 9825SOL    HW130374   5.629   6.189   4.741
 9825SOL    HW230375   5.481   6.172   4.809
 9826SOL     OW30376   3.582   6.386   5.122
 9826SOL    HW130377   3.540   6.366   5.034
 9826SOL    HW230378   3.585   6.303   5.177
 9827SOL     OW30379   1.847   4.026   3.237
 9827SOL    HW130380   1.819   4.074   3.154
 9827SOL    HW230381   1.795   3.941   3.246
 9828SOL     OW30382   3.436   2.083   5.024
 9828SOL    HW130383   3.365   2.150   5.000
 9828SOL    HW230384   3.466   2.036   4.941
 9829SOL     OW30385   4.617   5.710   6.135
 9829SOL    HW130386   4.538   5.651   6.153
 9829SOL    HW230387   4.673   5.671   6.062
 9830SOL     OW30388   5.051   1.639   1.881
 9830SOL    HW130389   5.101   1.703   1.822
 9830SOL    HW230390   5.034   1.682   1.969
 9831SOL     OW30391   0.782   4.482   1.848
 9831SOL    HW130392   0.689   4.500   1.816
 9831SOL    HW230393   0.789   4.387   1.878
 9832SOL     OW30394   4.583   5.385   3.453
 9832SOL    HW130395   4.518   5.412   3.523
 9832SOL    HW230396   4.664   5.345   3.496
 9833SOL     OW30397   3.414   3.386   3.412
 9833SOL    HW130398   3.398   3.458   3.480
 9833SOL    HW230399   3.512   3.367   3.406
 9834SOL     OW30400   1.970   4.695   5.730
 9834SOL    HW130401   1.946   4.782   5.772
 9834SOL    HW230402   2.070   4.688   5.723
 9835SOL     OW30403   3.774   2.961   4.075
 9835SOL    HW130404   3.728   2.920   3.996
 9835SOL    HW230405   3.776   3.060   4.066
 9836SOL     OW30406   0.830   4.377   4.733
 9836SOL    HW130407   0.906   4.415   4.786
 9836SOL    HW230408   0.859   4.368   4.637
 9837SOL     OW30409   5.677   1.364   2.694
 9837SOL    HW130410   5.675   1.269   2.663
 9837SOL    HW230411   5.762   1.407   2.663
 9838SOL     OW30412   1.536   7.017   0.795
 9838SOL    HW130413   1.534   6.921   0.823
 9838SOL    HW230414   1.567   0.056   0.871
 9839SOL     OW30415   4.103   6.950   3.352
 9839SOL    HW130416   4.191   6.952   3.304
 9839SOL    HW230417   4.118   6.936   3.450
 9840SOL     OW30418   4.743   1.943   0.469
 9840SOL    HW130419   4.743   1.877   0.544
 9840SOL    HW230420   4.728   1.896   0.382
 9841SOL     OW30421   0.926   4.869   3.368
 9841SOL    HW130422   0.877   4.816   3.437
 9841SOL    HW230423   0.903   4.834   3.277
 9842SOL     OW30424   3.522   3.052   0.376
 9842SOL    HW130425   3.449   2.989   0.398
 9842SOL    HW230426   3.579   3.014   0.303
 9843SOL     OW30427   6.538   0.536   1.812
 9843SOL    HW130428   6.612   0.525   1.879
 9843SOL    HW230429   6.450   0.539   1.860
 9844SOL     OW30430   6.045   0.908   3.814
 9844SOL    HW130431   5.956   0.864   3.813
 9844SOL    HW230432   6.113   0.848   3.773
 9845SOL     OW30433   0.936   2.586   3.160
 9845SOL    HW130434   0.891   2.625   3.240
 9845SOL    HW230435   0.893   2.498   3.138
 9846SOL     OW30436   5.054   1.472   0.107
 9846SOL    HW130437   5.072   1.459   0.205
 9846SOL    HW230438   5.110   1.408   0.054
 9847SOL     OW30439   3.837   3.008   2.126
 9847SOL    HW130440   3.824   2.934   2.060
 9847SOL    HW230441   3.792   2.984   2.212
 9848SOL     OW30442   3.468   4.572   5.316
 9848SOL    HW130443   3.509   4.482   5.331
 9848SOL    HW230444   3.370   4.562   5.297
 9849SOL     OW30445   0.930   6.735   7.014
 9849SOL    HW130446   0.961   6.670   0.068
 9849SOL    HW230447   0.864   6.798   0.037
 9850SOL     OW30448   6.870   0.435   3.609
 9850SOL    HW130449   6.774   0.404   3.611
 9850SOL    HW230450   6.907   0.433   3.702
 9851SOL     OW30451   2.640   6.255   4.539
 9851SOL    HW130452   2.628   6.242   4.638
 9851SOL    HW230453   2.683   6.174   4.500
 9852SOL     OW30454   1.441   1.203   5.399
 9852SOL    HW130455   1.389   1.119   5.384
 9852SOL    HW230456   1.424   1.266   5.324
 9853SOL     OW30457   6.704   3.576   5.158
 9853SOL    HW130458   6.752   3.512   5.218
 9853SOL    HW230459   6.687   3.532   5.070
 9854SOL     OW30460   0.823   5.301   5.136
 9854SOL    HW130461   0.836   5.318   5.234
 9854SOL    HW230462   0.838   5.205   5.117
 9855SOL     OW30463   1.115   3.511   1.053
 9855SOL    HW130464   1.091   3.527   1.149
 9855SOL    HW230465   1.126   3.413   1.038
 9856SOL     OW30466   5.845   4.360   3.910
 9856SOL    HW130467   5.923   4.418   3.884
 9856SOL    HW230468   5.840   4.354   4.010
 9857SOL     OW30469   5.686   3.019   2.740
 9857SOL    HW130470   5.606   2.970   2.706
 9857SOL    HW230471   5.673   3.117   2.725
 9858SOL     OW30472   1.241   6.672   1.572
 9858SOL    HW130473   1.158   6.727   1.583
 9858SOL    HW230474   1.318   6.733   1.552
 9859SOL     OW30475   6.398   4.888   4.907
 9859SOL    HW130476   6.442   4.951   4.844
 9859SOL    HW230477   6.404   4.923   5.000
 9860SOL     OW30478   1.641   2.181   4.848
 9860SOL    HW130479   1.566   2.248   4.847
 9860SOL    HW230480   1.728   2.228   4.835
 9861SOL     OW30481   2.891   0.955   3.443
 9861SOL    HW130482   2.988   0.954   3.416
 9861SOL    HW230483   2.872   0.877   3.501
 9862SOL     OW30484   3.000   4.009   0.839
 9862SOL    HW130485   3.047   4.096   0.822
 9862SOL    HW230486   3.065   3.934   0.832
 9863SOL     OW30487   3.113   5.761   1.323
 9863SOL    HW130488   3.146   5.792   1.412
 9863SOL    HW230489   3.065   5.674   1.335
 9864SOL     OW30490   2.977   0.017   5.603
 9864SOL    HW130491   3.031   0.090   5.561
 9864SOL    HW230492   3.038   6.959   5.631
 9865SOL     OW30493   0.488   6.229   5.100
 9865SOL    HW130494   0.567   6.283   5.128
 9865SOL    HW230495   0.514   6.132   5.094
 9866SOL     OW30496   6.078   4.496   5.070
 9866SOL    HW130497   6.174   4.492   5.040
 9866SOL    HW230498   6.043   4.403   5.083
 9867SOL     OW30499   6.234   2.476   2.479
 9867SOL    HW130500   6.238   2.398   2.417
 9867SOL    HW230501   6.326   2.493   2.516
 9868SOL     OW30502   0.773   3.654   4.138
 9868SOL    HW130503   0.852   3.626   4.193
 9868SOL    HW230504   0.788   3.746   4.102
 9869SOL     OW30505   0.335   2.324   0.958
 9869SOL    HW130506   0.419   2.272   0.969
 9869SOL    HW230507   0.334   2.368   0.868
 9870SOL     OW30508   4.491   0.688   3.022
 9870SOL    HW130509   4.536   0.638   3.096
 9870SOL    HW230510   4.544   0.679   2.938
 9871SOL     OW30511   6.822   3.194   6.309
 9871SOL    HW130512   6.787   3.191   6.215
 9871SOL    HW230513   6.888   3.268   6.318
 9872SOL     OW30514   2.288   5.163   5.033
 9872SOL    HW130515   2.208   5.120   5.075
 9872SOL    HW230516   2.290   5.139   4.936
 9873SOL     OW30517   2.204   2.381   6.139
 9873SOL    HW130518   2.245   2.360   6.050
 9873SOL    HW230519   2.117   2.334   6.147
 9874SOL     OW30520   0.512   3.521   4.523
 9874SOL    HW130521   0.463   3.468   4.592
 9874SOL    HW230522   0.610   3.508   4.535
 9875SOL     OW30523   0.029   5.880   1.834
 9875SOL    HW130524   0.079   5.797   1.859
 9875SOL    HW230525   0.092   5.946   1.792
 9876SOL     OW30526   4.650   0.182   4.090
 9876SOL    HW130527   4.736   0.176   4.141
 9876SOL    HW230528   4.588   0.110   4.121
 9877SOL     OW30529   6.851   4.477   4.314
 9877SOL    HW130530   6.768   4.440   4.356
 9877SOL    HW230531   6.876   4.421   4.235
 9878SOL     OW30532   1.686   3.317   6.768
 9878SOL    HW130533   1.613   3.385   6.759
 9878SOL    HW230534   1.684   3.255   6.690
 9879SOL     OW30535   0.546   4.556   5.836
 9879SOL    HW130536   0.640   4.574   5.865
 9879SOL    HW230537   0.486   4.627   5.872
 9880SOL     OW30538   2.789   1.061   0.369
 9880SOL    HW130539   2.783   1.122   0.290
 9880SOL    HW230540   2.701   1.061   0.418
 9881SOL     OW30541   5.691   0.604   4.544
 9881SOL    HW130542   5.744   0.638   4.622
 9881SOL    HW230543   5.618   0.544   4.577
 9882SOL     OW30544   3.629   3.455   4.544
 9882SOL    HW130545   3.718   3.410   4.553
 9882SOL    HW230546   3.641   3.554   4.550
 9883SOL     OW30547   2.044   6.183   1.688
 9883SOL    HW130548   2.101   6.200   1.769
 9883SOL    HW230549   1.963   6.131   1.714
 9884SOL     OW30550   3.038   2.893   6.650
 9884SOL    HW130551   2.939   2.905   6.649
 9884SOL    HW230552   3.065   2.830   6.577
 9885SOL     OW30553   0.692   3.158   3.869
 9885SOL    HW130554   0.780   3.179   3.912
 9885SOL    HW230555   0.694   3.066   3.831
 9886SOL     OW30556   5.974   6.740   2.117
 9886SOL    HW130557   5.928   6.724   2.204
 9886SOL    HW230558   5.909   6.779   2.052
 9887SOL     OW30559   3.605   0.272   0.496
 9887SOL    HW130560   3.614   0.368   0.468
 9887SOL    HW230561   3.509   0.246   0.498
 9888SOL     OW30562   6.011   6.150   3.164
 9888SOL    HW130563   5.942   6.217   3.137
 9888SOL    HW230564   5.979   6.058   3.142
 9889SOL     OW30565   0.567   4.899   2.772
 9889SOL    HW130566   0.582   4.998   2.774
 9889SOL    HW230567   0.542   4.868   2.864
 9890SOL     OW30568   6.325   2.852   0.242
 9890SOL    HW130569   6.415   2.814   0.219
 9890SOL    HW230570   6.263   2.841   0.165
 9891SOL     OW30571   5.181   5.030   1.380
 9891SOL    HW130572   5.199   4.936   1.349
 9891SOL    HW230573   5.164   5.029   1.479
 9892SOL     OW30574   2.299   5.473   3.712
 9892SOL    HW130575   2.206   5.481   3.675
 9892SOL    HW230576   2.353   5.413   3.653
 9893SOL     OW30577   7.008   5.654   2.941
 9893SOL    HW130578   6.987   5.605   2.856
 9893SOL    HW230579   0.012   5.588   3.013
 9894SOL     OW30580   2.801   1.410   6.777
 9894SOL    HW130581   2.866   1.443   6.708
 9894SOL    HW230582   2.805   1.470   6.857
 9895SOL     OW30583   5.974   2.309   5.803
 9895SOL    HW130584   6.033   2.390   5.794
 9895SOL    HW230585   5.906   2.325   5.874
 9896SOL     OW30586   4.055   2.499   1.038
 9896SOL    HW130587   3.978   2.493   0.975
 9896SOL    HW230588   4.061   2.591   1.075
 9897SOL     OW30589   5.322   1.152   2.528
 9897SOL    HW130590   5.298   1.247   2.546
 9897SOL    HW230591   5.286   1.094   2.602
 9898SOL     OW30592   0.723   5.132   5.693
 9898SOL    HW130593   0.685   5.118   5.785
 9898SOL    HW230594   0.757   5.226   5.685
 9899SOL     OW30595   5.994   4.141   2.048
 9899SOL    HW130596   5.926   4.114   1.980
 9899SOL    HW230597   6.086   4.127   2.011
 9900SOL     OW30598   1.852   2.047   2.708
 9900SOL    HW130599   1.878   1.982   2.780
 9900SOL    HW230600   1.848   2.139   2.746
 9901SOL     OW30601   1.410   2.121   7.015
 9901SOL    HW130602   1.501   2.127   0.039
 9901SOL    HW230603   1.364   2.209   0.007
 9902SOL     OW30604   3.413   2.978   0.743
 9902SOL    HW130605   3.467   2.897   0.769
 9902SOL    HW230606   3.464   3.061   0.765
 9903SOL     OW30607   4.746   0.409   2.275
 9903SOL    HW130608   4.693   0.441   2.197
 9903SOL    HW230609   4.843   0.431   2.262
 9904SOL     OW30610   0.373   3.820   6.449
 9904SOL    HW130611   0.318   3.751   6.401
 9904SOL    HW230612   0.440   3.774   6.507
 9905SOL     OW30613   1.644   6.505   0.841
 9905SOL    HW130614   1.691   6.529   0.757
 9905SOL    HW230615   1.711   6.479   0.911
 9906SOL     OW30616   1.709   3.060   6.636
 9906SOL    HW130617   1.757   3.037   6.721
 9906SOL    HW230618   1.773   3.054   6.560
 9907SOL     OW30619   2.769   6.186   3.277
 9907SOL    HW130620   2.697   6.141   3.226
 9907SOL    HW230621   2.732   6.221   3.364
 9908SOL     OW30622   0.685   3.447   6.373
 9908SOL    HW130623   0.652   3.355   6.393
 9908SOL    HW230624   0.657   3.474   6.281
 9909SOL     OW30625   3.476   1.035   3.046
 9909SOL    HW130626   3.439   0.946   3.018
 9909SOL    HW230627   3.514   1.027   3.138
 9910SOL     OW30628   0.128   5.043   1.477
 9910SOL    HW130629   0.118   5.073   1.572
 9910SOL    HW230630   0.148   4.945   1.475
 9911SOL     OW30631   4.916   5.319   3.112
 9911SOL    HW130632   4.982   5.282   3.047
 9911SOL    HW230633   4.863   5.392   3.067
 9912SOL     OW30634   3.914   0.636   2.679
 9912SOL    HW130635   3.815   0.638   2.663
 9912SOL    HW230636   3.932   0.637   2.777
 9913SOL     OW30637   5.756   2.882   1.831
 9913SOL    HW130638   5.811   2.829   1.766
 9913SOL    HW230639   5.666   2.901   1.792
 9914SOL     OW30640   0.998   0.525   5.716
 9914SOL    HW130641   1.053   0.466   5.657
 9914SOL    HW230642   0.912   0.478   5.737
 9915SOL     OW30643   5.839   3.674   4.288
 9915SOL    HW130644   5.920   3.686   4.231
 9915SOL    HW230645   5.770   3.622   4.237
 9916SOL     OW30646   2.890   2.189   3.286
 9916SOL    HW130647   2.883   2.090   3.296
 9916SOL    HW230648   2.980   2.212   3.249
 9917SOL     OW30649   3.084   3.056   5.111
 9917SOL    HW130650   3.094   3.062   5.012
 9917SOL    HW230651   3.166   3.014   5.150
 9918SOL     OW30652   1.365   1.036   0.044
 9918SOL    HW130653   1.383   0.940   0.025
 9918SOL    HW230654   1.444   1.077   0.089
 9919SOL     OW30655   2.133   4.744   2.350
 9919SOL    HW130656   2.065   4.812   2.379
 9919SOL    HW230657   2.202   4.735   2.422
 9920SOL     OW30658   3.669   0.464   2.486
 9920SOL    HW130659   3.693   0.369   2.467
 9920SOL    HW230660   3.670   0.517   2.401
 9921SOL     OW30661   6.658   5.995   3.842
 9921SOL    HW130662   6.628   5.938   3.766
 9921SOL    HW230663   6.728   5.947   3.895
 9922SOL     OW30664   4.282   4.226   0.874
 9922SOL    HW130665   4.248   4.209   0.781
 9922SOL    HW230666   4.207   4.259   0.931
 9923SOL     OW30667   6.900   2.483   6.952
 9923SOL    HW130668   6.832   2.414   6.975
 9923SOL    HW230669   6.984   2.466   7.003
 9924SOL     OW30670   5.787   1.753   1.690
 9924SOL    HW130671   5.768   1.664   1.648
 9924SOL    HW230672   5.701   1.793   1.723
 9925SOL     OW30673   2.224   3.994   5.384
 9925SOL    HW130674   2.256   4.007   5.290
 9925SOL    HW230675   2.127   4.018   5.390
 9926SOL     OW30676   3.175   2.248   1.259
 9926SOL    HW130677   3.259   2.253   1.206
 9926SOL    HW230678   3.164   2.332   1.313
 9927SOL     OW30679   0.639   2.388   1.324
 9927SOL    HW130680   0.726   2.435   1.336
 9927SOL    HW230681   0.653   2.289   1.331
 9928SOL     OW30682   6.014   4.383   2.358
 9928SOL    HW130683   5.994   4.317   2.286
 9928SOL    HW230684   5.974   4.351   2.444
 9929SOL     OW30685   2.842   4.235   5.524
 9929SOL    HW130686   2.882   4.144   5.516
 9929SOL    HW230687   2.857   4.286   5.439
 9930SOL     OW30688   6.929   0.473   5.783
 9930SOL    HW130689   6.852   0.537   5.778
 9930SOL    HW230690   6.925   0.411   5.706
 9931SOL     OW30691   0.044   5.959   5.178
 9931SOL    HW130692   0.034   5.897   5.256
 9931SOL    HW230693   0.131   5.940   5.131
 9932SOL     OW30694   1.486   2.084   0.395
 9932SOL    HW130695   1.530   2.171   0.370
 9932SOL    HW230696   1.391   2.102   0.421
 9933SOL     OW30697   2.613   0.711   3.419
 9933SOL    HW130698   2.645   0.743   3.330
 9933SOL    HW230699   2.515   0.689   3.413
 9934SOL     OW30700   5.725   1.947   0.223
 9934SOL    HW130701   5.785   2.011   0.174
 9934SOL    HW230702   5.677   1.996   0.296
 9935SOL     OW30703   2.916   2.231   0.978
 9935SOL    HW130704   2.992   2.188   0.928
 9935SOL    HW230705   2.853   2.160   1.008
 9936SOL     OW30706   5.570   4.364   6.639
 9936SOL    HW130707   5.617   4.441   6.682
 9936SOL    HW230708   5.544   4.388   6.546
 9937SOL     OW30709   1.291   0.899   2.994
 9937SOL    HW130710   1.242   0.901   2.907
 9937SOL    HW230711   1.330   0.988   3.013
 9938SOL     OW30712   5.640   0.502   3.756
 9938SOL    HW130713   5.647   0.417   3.703
 9938SOL    HW230714   5.732   0.535   3.778
 9939SOL     OW30715   1.172   3.241   1.017
 9939SOL    HW130716   1.196   3.155   0.971
 9939SOL    HW230717   1.231   3.254   1.096
 9940SOL     OW30718   7.014   0.227   3.501
 9940SOL    HW130719   0.084   0.240   3.548
 9940SOL    HW230720   6.946   0.289   3.539
 9941SOL     OW30721   3.793   5.629   5.162
 9941SOL    HW130722   3.878   5.577   5.170
 9941SOL    HW230723   3.724   5.574   5.117
 9942SOL     OW30724   4.858   4.448   2.495
 9942SOL    HW130725   4.776   4.430   2.550
 9942SOL    HW230726   4.939   4.439   2.553
 9943SOL     OW30727   1.174   4.414   6.139
 9943SOL    HW130728   1.174   4.400   6.040
 9943SOL    HW230729   1.084   4.394   6.176
 9944SOL     OW30730   6.787   5.637   6.614
 9944SOL    HW130731   6.795   5.684   6.702
 9944SOL    HW230732   6.814   5.700   6.541
 9945SOL     OW30733   5.676   3.951   6.638
 9945SOL    HW130734   5.729   3.894   6.575
 9945SOL    HW230735   5.610   3.894   6.688
 9946SOL     OW30736   5.944   6.991   3.226
 9946SOL    HW130737   5.937   6.938   3.142
 9946SOL    HW230738   6.008   6.946   3.289
 9947SOL     OW30739   1.427   1.456   3.797
 9947SOL    HW130740   1.500   1.524   3.800
 9947SOL    HW230741   1.466   1.366   3.780
 9948SOL     OW30742   6.706   5.822   5.091
 9948SOL    HW130743   6.738   5.729   5.108
 9948SOL    HW230744   6.662   5.858   5.173
 9949SOL     OW30745   0.143   4.799   4.328
 9949SOL    HW130746   0.214   4.769   4.264
 9949SOL    HW230747   0.093   4.876   4.289
 9950SOL     OW30748   6.493   5.057   6.220
 9950SOL    HW130749   6.464   5.085   6.311
 9950SOL    HW230750   6.536   4.967   6.224
 9951SOL     OW30751   1.627   2.768   2.620
 9951SOL    HW130752   1.557   2.795   2.554
 9951SOL    HW230753   1.713   2.816   2.599
 9952SOL     OW30754   0.638   3.613   2.217
 9952SOL    HW130755   0.584   3.663   2.285
 9952SOL    HW230756   0.577   3.564   2.155
 9953SOL     OW30757   6.366   2.560   3.767
 9953SOL    HW130758   6.434   2.514   3.711
 9953SOL    HW230759   6.311   2.621   3.709
 9954SOL     OW30760   2.531   1.597   5.236
 9954SOL    HW130761   2.596   1.523   5.218
 9954SOL    HW230762   2.493   1.629   5.149
 9955SOL     OW30763   4.915   3.223   0.132
 9955SOL    HW130764   4.927   3.124   0.129
 9955SOL    HW230765   4.903   3.258   0.039
 9956SOL     OW30766   0.558   4.204   2.264
 9956SOL    HW130767   0.625   4.226   2.335
 9956SOL    HW230768   0.603   4.200   2.175
 9957SOL     OW30769   5.505   0.132   1.237
 9957SOL    HW130770   5.470   0.135   1.330
 9957SOL    HW230771   5.597   0.092   1.237
 9958SOL     OW30772   3.327   5.614   6.006
 9958SOL    HW130773   3.354   5.611   5.910
 9958SOL    HW230774   3.389   5.674   6.056
 9959SOL     OW30775   4.509   3.425   1.549
 9959SOL    HW130776   4.505   3.510   1.602
 9959SOL    HW230777   4.476   3.349   1.606
 9960SOL     OW30778   0.092   6.201   1.605
 9960SOL    HW130779   0.145   6.130   1.651
 9960SOL    HW230780   0.018   6.158   1.552
 9961SOL     OW30781   1.825   4.483   2.652
 9961SOL    HW130782   1.792   4.566   2.697
 9961SOL    HW230783   1.924   4.491   2.637
 9962SOL     OW30784   3.444   0.493   1.928
 9962SOL    HW130785   3.354   0.449   1.929
 9962SOL    HW230786   3.467   0.523   2.021
 9963SOL     OW30787   2.515   2.232   0.666
 9963SOL    HW130788   2.475   2.182   0.743
 9963SOL    HW230789   2.607   2.263   0.690
 9964SOL     OW30790   3.821   5.149   5.813
 9964SOL    HW130791   3.729   5.184   5.792
 9964SOL    HW230792   3.834   5.148   5.912
 9965SOL     OW30793   3.903   5.618   4.731
 9965SOL    HW130794   3.873   5.662   4.646
 9965SOL    HW230795   3.866   5.668   4.809
 9966SOL     OW30796   2.548   4.928   2.465
 9966SOL    HW130797   2.530   4.957   2.559
 9966SOL    HW230798   2.518   5.000   2.402
 9967SOL     OW30799   6.437   5.412   3.204
 9967SOL    HW130800   6.377   5.352   3.257
 9967SOL    HW230801   6.381   5.473   3.147
 9968SOL     OW30802   4.744   5.416   6.930
 9968SOL    HW130803   4.799   5.478   6.985
 9968SOL    HW230804   4.651   5.451   6.923
 9969SOL     OW30805   1.418   2.971   4.618
 9969SOL    HW130806   1.503   2.932   4.654
 9969SOL    HW230807   1.341   2.938   4.673
 9970SOL     OW30808   5.999   5.017   1.690
 9970SOL    HW130809   6.018   4.921   1.668
 9970SOL    HW230810   5.903   5.037   1.668
 9971SOL     OW30811   1.341   2.764   1.553
 9971SOL    HW130812   1.316   2.760   1.456
 9971SOL    HW230813   1.435   2.731   1.565
 9972SOL     OW30814   2.874   4.027   1.137
 9972SOL    HW130815   2.938   4.094   1.098
 9972SOL    HW230816   2.881   4.029   1.237
 9973SOL     OW30817   4.834   3.038   4.458
 9973SOL    HW130818   4.830   2.952   4.509
 9973SOL    HW230819   4.809   3.114   4.518
 9974SOL     OW30820   6.785   1.696   3.287
 9974SOL    HW130821   6.685   1.695   3.295
 9974SOL    HW230822   6.813   1.764   3.220
 9975SOL     OW30823   0.688   5.327   6.455
 9975SOL    HW130824   0.709   5.232   6.478
 9975SOL    HW230825   0.599   5.332   6.410
 9976SOL     OW30826   0.789   5.249   6.043
 9976SOL    HW130827   0.725   5.285   6.110
 9976SOL    HW230828   0.868   5.209   6.090
 9977SOL     OW30829   5.250   4.610   5.811
 9977SOL    HW130830   5.337   4.580   5.851
 9977SOL    HW230831   5.187   4.636   5.885
 9978SOL     OW30832   0.029   1.977   5.361
 9978SOL    HW130833   0.041   2.011   5.455
 9978SOL    HW230834   6.949   1.981   5.337
 9979SOL     OW30835   5.853   4.241   6.073
 9979SOL    HW130836   5.860   4.301   6.152
 9979SOL    HW230837   5.813   4.153   6.102
 9980SOL     OW30838   2.171   0.322   1.285
 9980SOL    HW130839   2.101   0.255   1.308
 9980SOL    HW230840   2.237   0.328   1.360
 9981SOL     OW30841   1.466   2.357   1.058
 9981SOL    HW130842   1.445   2.266   1.094
 9981SOL    HW230843   1.470   2.353   0.958
 9982SOL     OW30844   1.435   0.946   4.410
 9982SOL    HW130845   1.453   0.914   4.503
 9982SOL    HW230846   1.470   0.880   4.344
 9983SOL     OW30847   6.957   2.064   2.018
 9983SOL    HW130848   0.020   2.119   2.044
 9983SOL    HW230849   6.973   1.969   2.042
 9984SOL     OW30850   0.765   6.205   0.318
 9984SOL    HW130851   0.737   6.235   0.409
 9984SOL    HW230852   0.729   6.113   0.301
 9985SOL     OW30853   2.968   5.244   1.143
 9985SOL    HW130854   3.059   5.278   1.120
 9985SOL    HW230855   2.900   5.315   1.121
 9986SOL     OW30856   6.165   4.865   0.732
 9986SOL    HW130857   6.123   4.874   0.641
 9986SOL    HW230858   6.236   4.795   0.729
 9987SOL     OW30859   5.722   2.543   2.318
 9987SOL    HW130860   5.799   2.504   2.369
 9987SOL    HW230861   5.668   2.469   2.279
 9988SOL     OW30862   6.915   5.074   4.371
 9988SOL    HW130863   6.859   5.045   4.294
 9988SOL    HW230864   6.970   5.153   4.345
 9989SOL     OW30865   5.805   4.043   1.888
 9989SOL    HW130866   5.715   4.086   1.881
 9989SOL    HW230867   5.794   3.947   1.915
 9990SOL     OW30868   2.347   6.427   3.233
 9990SOL    HW130869   2.422   6.363   3.217
 9990SOL    HW230870   2.380   6.521   3.219
 9991SOL     OW30871   2.142   3.887   3.796
 9991SOL    HW130872   2.125   3.789   3.784
 9991SOL    HW230873   2.155   3.906   3.893
 9992SOL     OW30874   3.199   3.513   0.842
 9992SOL    HW130875   3.183   3.487   0.747
 9992SOL    HW230876   3.208   3.431   0.898
 9993SOL     OW30877   3.573   6.077   3.886
 9993SOL    HW130878   3.534   6.108   3.972
 9993SOL    HW230879   3.563   6.149   3.817
 9994SOL     OW30880   6.990   4.060   2.860
 9994SOL    HW130881   0.045   3.997   2.890
 9994SOL    HW230882   6.947   4.025   2.777
 9995SOL     OW30883   3.419   1.513   3.367
 9995SOL    HW130884   3.379   1.502   3.458
 9995SOL    HW230885   3.477   1.594   3.366
 9996SOL     OW30886   3.304   4.039   1.025
 9996SOL    HW130887   3.283   3.963   0.963
 9996SOL    HW230888   3.402   4.042   1.041
 9997SOL     OW30889   6.013   0.691   3.016
 9997SOL    HW130890   5.996   0.627   2.941
 9997SOL    HW230891   5.926   0.726   3.050
 9998SOL     OW30892   5.386   3.896   1.804
 9998SOL    HW130893   5.419   3.811   1.847
 9998SOL    HW230894   5.445   3.972   1.832
 9999SOL     OW30895   0.061   6.434   4.752
 9999SOL    HW130896   0.007   6.483   4.821
 9999SOL    HW230897   0.137   6.387   4.795
10000SOL     OW30898   5.380   1.954   0.906
10000SOL    HW130899   5.480   1.947   0.915
10000SOL    HW230900   5.338   1.872   0.944
10001SOL     OW30901   3.202   0.365   1.645
10001SOL    HW130902   3.161   0.299   1.583
10001SOL    HW230903   3.255   0.432   1.592
10002SOL     OW30904   2.401   1.250   0.968
10002SOL    HW130905   2.323   1.291   1.017
10002SOL    HW230906   2.401   1.283   0.874
10003SOL     OW30907   3.288   2.131   2.635
10003SOL    HW130908   3.304   2.154   2.539
10003SOL    HW230909   3.348   2.186   2.693
10004SOL     OW30910   5.254   3.481   5.295
10004SOL    HW130911   5.284   3.403   5.350
10004SOL    HW230912   5.154   3.480   5.287
10005SOL     OW30913   3.580   5.328   2.650
10005SOL    HW130914   3.505   5.281   2.603
10005SOL    HW230915   3.550   5.352   2.743
10006SOL     OW30916   5.488   6.931   5.494
10006SOL    HW130917   5.502   0.004   5.454
10006SOL    HW230918   5.442   6.939   5.582
10007SOL     OW30919   1.200   3.257   4.169
10007SOL    HW130920   1.172   3.228   4.261
10007SOL    HW230921   1.213   3.176   4.111
10008SOL     OW30922   5.039   1.421   3.109
10008SOL    HW130923   4.993   1.373   3.035
10008SOL    HW230924   5.045   1.362   3.190
10009SOL     OW30925   2.018   4.197   1.814
10009SOL    HW130926   2.033   4.295   1.827
10009SOL    HW230927   2.105   4.148   1.823
10010SOL     OW30928   2.511   6.045   0.598
10010SOL    HW130929   2.560   6.020   0.682
10010SOL    HW230930   2.467   6.134   0.611
10011SOL     OW30931   0.226   4.191   6.873
10011SOL    HW130932   0.300   4.251   6.906
10011SOL    HW230933   0.262   4.128   6.804
10012SOL     OW30934   5.292   6.949   2.199
10012SOL    HW130935   5.386   6.981   2.207
10012SOL    HW230936   5.230   7.017   2.238
10013SOL     OW30937   1.767   2.881   4.033
10013SOL    HW130938   1.782   2.887   4.132
10013SOL    HW230939   1.814   2.957   3.988
10014SOL     OW30940   1.210   0.350   1.783
10014SOL    HW130941   1.166   0.431   1.821
10014SOL    HW230942   1.212   0.277   1.851
10015SOL     OW30943   4.273   5.283   0.328
10015SOL    HW130944   4.194   5.333   0.364
10015SOL    HW230945   4.243   5.196   0.290
10016SOL     OW30946   2.478   1.068   4.458
10016SOL    HW130947   2.573   1.037   4.464
10016SOL    HW230948   2.466   1.150   4.513
10017SOL     OW30949   1.693   1.613   2.849
10017SOL    HW130950   1.739   1.700   2.866
10017SOL    HW230951   1.644   1.618   2.762
10018SOL     OW30952   6.908   4.689   5.725
10018SOL    HW130953   6.920   4.674   5.824
10018SOL    HW230954   6.824   4.645   5.695
10019SOL     OW30955   0.063   1.434   3.053
10019SOL    HW130956   0.024   1.342   3.059
10019SOL    HW230957   0.138   1.434   2.987
10020SOL     OW30958   0.113   1.276   1.621
10020SOL    HW130959   0.022   1.247   1.593
10020SOL    HW230960   0.107   1.369   1.659
10021SOL     OW30961   0.722   2.974   2.849
10021SOL    HW130962   0.819   2.983   2.871
10021SOL    HW230963   0.679   3.064   2.849
10022SOL     OW30964   3.547   6.339   0.603
10022SOL    HW130965   3.643   6.324   0.579
10022SOL    HW230966   3.540   6.407   0.675
10023SOL     OW30967   2.141   5.586   4.642
10023SOL    HW130968   2.185   5.511   4.691
10023SOL    HW230969   2.098   5.648   4.708
10024SOL     OW30970   1.312   5.621   2.454
10024SOL    HW130971   1.365   5.677   2.391
10024SOL    HW230972   1.214   5.640   2.442
10025SOL     OW30973   1.131   2.989   2.401
10025SOL    HW130974   1.036   2.958   2.400
10025SOL    HW230975   1.186   2.928   2.344
10026SOL     OW30976   5.322   0.277   3.317
10026SOL    HW130977   5.360   0.369   3.329
10026SOL    HW230978   5.383   0.211   3.360
10027SOL     OW30979   0.606   2.415   4.825
10027SOL    HW130980   0.512   2.424   4.859
10027SOL    HW230981   0.617   2.326   4.781
10028SOL     OW30982   1.883   1.541   2.012
10028SOL    HW130983   1.829   1.564   1.932
10028SOL    HW230984   1.954   1.475   1.987
10029SOL     OW30985   1.714   2.532   3.674
10029SOL    HW130986   1.680   2.575   3.758
10029SOL    HW230987   1.707   2.433   3.682
10030SOL     OW30988   3.254   0.371   5.154
10030SOL    HW130989   3.262   0.471   5.163
10030SOL    HW230990   3.320   0.327   5.215
10031SOL     OW30991   5.293   4.628   4.819
10031SOL    HW130992   5.345   4.549   4.785
10031SOL    HW230993   5.306   4.705   4.757
10032SOL     OW30994   4.709   0.538   5.809
10032SOL    HW130995   4.724   0.591   5.726
10032SOL    HW230996   4.625   0.484   5.800
10033SOL     OW30997   4.714   2.680   4.320
10033SOL    HW130998   4.643   2.626   4.364
10033SOL    HW230999   4.802   2.632   4.326
10034SOL     OW31000   2.912   0.450   4.111
10034SOL    HW131001   2.842   0.470   4.042
10034SOL    HW231002   2.980   0.389   4.072
10035SOL     OW31003   6.807   4.986   0.870
10035SOL    HW131004   6.872   4.959   0.799
10035SOL    HW231005   6.857   5.003   0.955
10036SOL     OW31006   6.663   0.664   0.823
10036SOL    HW131007   6.675   0.706   0.913
10036SOL    HW231008   6.648   0.736   0.754
10037SOL     OW31009   6.319   0.800   0.324
10037SOL    HW131010   6.302   0.718   0.270
10037SOL    HW231011   6.260   0.874   0.291
10038SOL     OW31012   4.306   6.893   6.863
10038SOL    HW131013   4.329   6.819   6.799
10038SOL    HW231014   4.273   6.853   6.948
10039SOL     OW31015   4.542   6.506   5.423
10039SOL    HW131016   4.634   6.518   5.386
10039SOL    HW231017   4.511   6.412   5.409
10040SOL     OW31018   4.237   5.650   6.155
10040SOL    HW131019   4.156   5.669   6.211
10040SOL    HW231020   4.212   5.653   6.059
10041SOL     OW31021   5.106   5.796   6.455
10041SOL    HW131022   5.075   5.706   6.485
10041SOL    HW231023   5.202   5.791   6.430
10042SOL     OW31024   0.885   1.754   5.241
10042SOL    HW131025   0.893   1.771   5.340
10042SOL    HW231026   0.957   1.691   5.213
10043SOL     OW31027   0.155   1.621   4.289
10043SOL    HW131028   0.075   1.659   4.335
10043SOL    HW231029   0.229   1.689   4.288
10044SOL     OW31030   2.721   2.336   3.449
10044SOL    HW131031   2.738   2.302   3.541
10044SOL    HW231032   2.780   2.290   3.384
10045SOL     OW31033   5.135   6.917   3.724
10045SOL    HW131034   5.108   7.012   3.705
10045SOL    HW231035   5.061   6.856   3.697
10046SOL     OW31036   1.442   3.450   1.628
10046SOL    HW131037   1.440   3.455   1.727
10046SOL    HW231038   1.404   3.534   1.589
10047SOL     OW31039   5.999   4.039   4.861
10047SOL    HW131040   5.949   3.984   4.927
10047SOL    HW231041   5.936   4.071   4.790
10048SOL     OW31042   4.514   2.053   2.335
10048SOL    HW131043   4.575   2.128   2.362
10048SOL    HW231044   4.569   1.970   2.319
10049SOL     OW31045   0.416   0.614   6.779
10049SOL    HW131046   0.353   0.548   6.820
10049SOL    HW231047   0.383   0.639   6.688
10050SOL     OW31048   6.727   2.400   5.163
10050SOL    HW131049   6.794   2.452   5.111
10050SOL    HW231050   6.691   2.326   5.106
10051SOL     OW31051   6.519   2.250   5.286
10051SOL    HW131052   6.430   2.273   5.325
10051SOL    HW231053   6.579   2.330   5.289
10052SOL     OW31054   3.130   2.074   2.859
10052SOL    HW131055   3.170   2.110   2.774
10052SOL    HW231056   3.039   2.112   2.872
10053SOL     OW31057   3.653   5.697   1.884
10053SOL    HW131058   3.732   5.691   1.823
10053SOL    HW231059   3.672   5.646   1.968
10054SOL     OW31060   4.587   5.270   6.228
10054SOL    HW131061   4.547   5.357   6.256
10054SOL    HW231062   4.580   5.260   6.129
10055SOL     OW31063   6.105   2.488   5.262
10055SOL    HW131064   6.093   2.535   5.350
10055SOL    HW231065   6.136   2.394   5.278
10056SOL     OW31066   5.629   4.803   1.225
10056SOL    HW131067   5.720   4.826   1.261
10056SOL    HW231068   5.571   4.769   1.300
10057SOL     OW31069   3.720   1.962   4.547
10057SOL    HW131070   3.763   2.029   4.487
10057SOL    HW231071   3.625   1.990   4.564
10058SOL     OW31072   0.921   3.766   4.489
10058SOL    HW131073   0.833   3.781   4.444
10058SOL    HW231074   0.991   3.749   4.420
10059SOL     OW31075   5.293   6.245   1.237
10059SOL    HW131076   5.262   6.340   1.251
10059SOL    HW231077   5.295   6.198   1.326
10060SOL     OW31078   1.768   1.606   1.777
10060SOL    HW131079   1.698   1.549   1.820
10060SOL    HW231080   1.817   1.551   1.709
10061SOL     OW31081   5.628   1.422   4.918
10061SOL    HW131082   5.668   1.333   4.938
10061SOL    HW231083   5.683   1.468   4.848
10062SOL     OW31084   6.537   0.153   4.129
10062SOL    HW131085   6.569   0.085   4.196
10062SOL    HW231086   6.555   0.245   4.164
10063SOL     OW31087   1.854   1.261   3.845
10063SOL    HW131088   1.944   1.221   3.859
10063SOL    HW231089   1.859   1.360   3.861
10064SOL     OW31090   5.388   6.355   0.166
10064SOL    HW131091   5.382   6.436   0.108
10064SOL    HW231092   5.312   6.293   0.145
10065SOL     OW31093   1.999   6.743   2.617
10065SOL    HW131094   1.948   6.818   2.660
10065SOL    HW231095   2.010   6.669   2.682
10066SOL     OW31096   0.795   1.011   3.347
10066SOL    HW131097   0.838   0.957   3.275
10066SOL    HW231098   0.788   0.957   3.430
10067SOL     OW31099   6.335   4.137   4.895
10067SOL    HW131100   6.376   4.224   4.869
10067SOL    HW231101   6.283   4.148   4.980
10068SOL     OW31102   6.667   3.083   2.849
10068SOL    HW131103   6.693   2.994   2.813
10068SOL    HW231104   6.622   3.136   2.777
10069SOL     OW31105   1.835   5.496   3.829
10069SOL    HW131106   1.735   5.503   3.822
10069SOL    HW231107   1.859   5.416   3.885
10070SOL     OW31108   6.515   0.102   5.027
10070SOL    HW131109   6.552   0.189   4.993
10070SOL    HW231110   6.489   0.113   5.123
10071SOL     OW31111   6.335   5.502   3.829
10071SOL    HW131112   6.353   5.409   3.797
10071SOL    HW231113   6.276   5.499   3.909
10072SOL     OW31114   0.560   6.516   4.001
10072SOL    HW131115   0.526   6.492   3.910
10072SOL    HW231116   0.652   6.481   4.013
10073SOL     OW31117   6.127   4.831   5.185
10073SOL    HW131118   6.161   4.737   5.178
10073SOL    HW231119   6.039   4.831   5.233
10074SOL     OW31120   1.416   0.878   5.505
10074SOL    HW131121   1.337   0.883   5.444
10074SOL    HW231122   1.498   0.907   5.455
10075SOL     OW31123   1.267   2.933   3.506
10075SOL    HW131124   1.192   2.878   3.543
10075SOL    HW231125   1.258   2.940   3.407
10076SOL     OW31126   6.812   0.313   3.297
10076SOL    HW131127   6.891   0.276   3.346
10076SOL    HW231128   6.810   0.412   3.307
10077SOL     OW31129   3.839   3.127   6.159
10077SOL    HW131130   3.918   3.134   6.098
10077SOL    HW231131   3.755   3.125   6.104
10078SOL     OW31132   0.135   5.573   3.682
10078SOL    HW131133   0.111   5.612   3.771
10078SOL    HW231134   0.194   5.637   3.633
10079SOL     OW31135   0.272   3.851   1.981
10079SOL    HW131136   0.242   3.776   1.923
10079SOL    HW231137   0.326   3.916   1.927
10080SOL     OW31138   3.515   1.188   5.302
10080SOL    HW131139   3.506   1.282   5.268
10080SOL    HW231140   3.481   1.124   5.233
10081SOL     OW31141   0.157   6.891   0.664
10081SOL    HW131142   0.193   6.933   0.748
10081SOL    HW231143   0.202   6.803   0.649
10082SOL     OW31144   0.182   4.672   1.942
10082SOL    HW131145   0.260   4.715   1.896
10082SOL    HW231146   0.178   4.575   1.918
10083SOL     OW31147   5.479   0.429   3.036
10083SOL    HW131148   5.390   0.390   3.059
10083SOL    HW231149   5.508   0.394   2.947
10084SOL     OW31150   2.826   1.119   5.793
10084SOL    HW131151   2.853   1.205   5.749
10084SOL    HW231152   2.863   1.116   5.886
10085SOL     OW31153   1.528   6.022   2.096
10085SOL    HW131154   1.456   6.089   2.076
10085SOL    HW231155   1.579   6.052   2.176
10086SOL     OW31156   5.527   5.556   2.510
10086SOL    HW131157   5.605   5.538   2.450
10086SOL    HW231158   5.547   5.521   2.601
10087SOL     OW31159   0.354   0.253   3.394
10087SOL    HW131160   0.354   0.339   3.444
10087SOL    HW231161   0.326   0.269   3.299
10088SOL     OW31162   6.666   0.182   0.536
10088SOL    HW131163   6.739   0.228   0.485
10088SOL    HW231164   6.583   0.178   0.480
10089SOL     OW31165   3.081   1.826   2.093
10089SOL    HW131166   3.064   1.744   2.148
10089SOL    HW231167   3.014   1.897   2.116
10090SOL     OW31168   1.285   4.702   1.018
10090SOL    HW131169   1.371   4.663   1.049
10090SOL    HW231170   1.212   4.634   1.027
10091SOL     OW31171   1.456   3.605   5.638
10091SOL    HW131172   1.436   3.693   5.597
10091SOL    HW231173   1.511   3.550   5.576
10092SOL     OW31174   1.947   3.031   5.057
10092SOL    HW131175   1.972   3.053   5.151
10092SOL    HW231176   2.029   3.036   4.999
10093SOL     OW31177   6.727   3.677   4.845
10093SOL    HW131178   6.646   3.708   4.795
10093SOL    HW231179   6.762   3.753   4.900
10094SOL     OW31180   2.122   5.592   1.864
10094SOL    HW131181   2.144   5.685   1.893
10094SOL    HW231182   2.126   5.531   1.943
10095SOL     OW31183   5.825   1.530   5.115
10095SOL    HW131184   5.816   1.499   5.020
10095SOL    HW231185   5.907   1.587   5.124
10096SOL     OW31186   5.325   4.828   2.198
10096SOL    HW131187   5.425   4.831   2.192
10096SOL    HW231188   5.298   4.812   2.293
10097SOL     OW31189   0.774   0.934   0.806
10097SOL    HW131190   0.867   0.902   0.789
10097SOL    HW231191   0.712   0.894   0.739
10098SOL     OW31192   2.761   1.047   5.069
10098SOL    HW131193   2.840   0.987   5.086
10098SOL    HW231194   2.680   1.006   5.112
10099SOL     OW31195   6.874   5.058   1.139
10099SOL    HW131196   6.782   5.074   1.176
10099SOL    HW231197   6.938   5.045   1.215
10100SOL     OW31198   5.124   0.104   4.816
10100SOL    HW131199   5.167   0.066   4.734
10100SOL    HW231200   5.026   0.084   4.815
10101SOL     OW31201   6.065   4.202   1.681
10101SOL    HW131202   6.046   4.263   1.758
10101SOL    HW231203   6.113   4.253   1.610
10102SOL     OW31204   1.303   0.978   1.959
10102SOL    HW131205   1.223   0.995   1.902
10102SOL    HW231206   1.347   1.065   1.982
10103SOL     OW31207   2.527   0.953   6.592
10103SOL    HW131208   2.520   0.988   6.499
10103SOL    HW231209   2.608   0.894   6.599
10104SOL     OW31210   1.728   1.927   4.017
10104SOL    HW131211   1.640   1.973   4.002
10104SOL    HW231212   1.745   1.920   4.115
10105SOL     OW31213   1.389   0.717   0.763
10105SOL    HW131214   1.489   0.714   0.758
10105SOL    HW231215   1.357   0.636   0.813
10106SOL     OW31216   4.337   6.756   0.910
10106SOL    HW131217   4.285   6.837   0.883
10106SOL    HW231218   4.414   6.744   0.848
10107SOL     OW31219   6.751   1.134   6.668
10107SOL    HW131220   6.781   1.228   6.682
10107SOL    HW231221   6.712   1.124   6.576
10108SOL     OW31222   6.586   6.480   0.528
10108SOL    HW131223   6.669   6.533   0.511
10108SOL    HW231224   6.548   6.505   0.616
10109SOL     OW31225   4.889   0.253   0.558
10109SOL    HW131226   4.875   0.340   0.510
10109SOL    HW231227   4.815   0.238   0.623
10110SOL     OW31228   4.129   6.161   4.512
10110SOL    HW131229   4.107   6.064   4.498
10110SOL    HW231230   4.228   6.171   4.524
10111SOL     OW31231   5.219   3.698   3.341
10111SOL    HW131232   5.121   3.681   3.347
10111SOL    HW231233   5.236   3.797   3.348
10112SOL     OW31234   5.647   3.785   3.638
10112SOL    HW131235   5.613   3.797   3.732
10112SOL    HW231236   5.628   3.692   3.608
10113SOL     OW31237   4.515   0.230   6.011
10113SOL    HW131238   4.608   0.213   5.979
10113SOL    HW231239   4.518   0.276   6.100
10114SOL     OW31240   6.121   1.225   0.808
10114SOL    HW131241   6.168   1.293   0.865
10114SOL    HW231242   6.037   1.265   0.771
10115SOL     OW31243   3.884   1.596   4.172
10115SOL    HW131244   3.827   1.599   4.254
10115SOL    HW231245   3.960   1.532   4.186
10116SOL     OW31246   0.362   6.025   0.810
10116SOL    HW131247   0.383   6.020   0.712
10116SOL    HW231248   0.282   5.968   0.829
10117SOL     OW31249   6.519   5.994   5.655
10117SOL    HW131250   6.507   5.955   5.746
10117SOL    HW231251   6.440   6.053   5.634
10118SOL     OW31252   2.022   5.058   2.936
10118SOL    HW131253   2.029   5.134   2.870
10118SOL    HW231254   2.075   5.081   3.018
10119SOL     OW31255   0.580   5.893   4.687
10119SOL    HW131256   0.650   5.822   4.700
10119SOL    HW231257   0.623   5.975   4.649
10120SOL     OW31258   1.756   3.927   4.978
10120SOL    HW131259   1.669   3.972   5.000
10120SOL    HW231260   1.808   3.985   4.915
10121SOL     OW31261   6.449   4.111   6.725
10121SOL    HW131262   6.353   4.139   6.720
10121SOL    HW231263   6.499   4.153   6.649
10122SOL     OW31264   6.294   3.208   1.315
10122SOL    HW131265   6.268   3.245   1.404
10122SOL    HW231266   6.340   3.120   1.327
10123SOL     OW31267   5.688   6.988   0.036
10123SOL    HW131268   5.717   0.039   0.103
10123SOL    HW231269   5.601   7.016   7.012
10124SOL     OW31270   1.348   4.121   0.326
10124SOL    HW131271   1.408   4.095   0.250
10124SOL    HW231272   1.259   4.149   0.290
10125SOL     OW31273   1.897   1.530   2.301
10125SOL    HW131274   1.879   1.517   2.203
10125SOL    HW231275   1.811   1.524   2.351
10126SOL     OW31276   0.523   6.809   6.081
10126SOL    HW131277   0.486   6.742   6.145
10126SOL    HW231278   0.498   6.783   5.987
10127SOL     OW31279   2.720   4.814   6.564
10127SOL    HW131280   2.736   4.803   6.662
10127SOL    HW231281   2.807   4.832   6.518
10128SOL     OW31282   2.649   1.256   1.581
10128SOL    HW131283   2.717   1.285   1.515
10128SOL    HW231284   2.623   1.161   1.562
10129SOL     OW31285   5.541   1.884   2.317
10129SOL    HW131286   5.488   1.862   2.399
10129SOL    HW231287   5.633   1.915   2.344
10130SOL     OW31288   1.445   3.510   1.885
10130SOL    HW131289   1.420   3.496   1.981
10130SOL    HW231290   1.518   3.578   1.880
10131SOL     OW31291   1.230   6.880   4.151
10131SOL    HW131292   1.182   6.930   4.224
10131SOL    HW231293   1.270   6.945   4.087
10132SOL     OW31294   3.516   0.181   5.012
10132SOL    HW131295   3.575   0.195   5.092
10132SOL    HW231296   3.511   0.266   4.960
10133SOL     OW31297   3.636   6.436   1.117
10133SOL    HW131298   3.688   6.384   1.185
10133SOL    HW231299   3.551   6.470   1.159
10134SOL     OW31300   0.210   6.551   3.646
10134SOL    HW131301   0.170   6.477   3.593
10134SOL    HW231302   0.150   6.632   3.641
10135SOL     OW31303   4.938   3.500   3.346
10135SOL    HW131304   4.944   3.417   3.402
10135SOL    HW231305   4.898   3.478   3.258
10136SOL     OW31306   5.280   0.565   2.695
10136SOL    HW131307   5.273   0.604   2.603
10136SOL    HW231308   5.262   0.467   2.691
10137SOL     OW31309   6.244   4.151   4.036
10137SOL    HW131310   6.257   4.225   4.102
10137SOL    HW231311   6.302   4.166   3.957
10138SOL     OW31312   5.070   3.339   0.554
10138SOL    HW131313   5.003   3.331   0.628
10138SOL    HW231314   5.148   3.393   0.586
10139SOL     OW31315   3.180   4.060   3.018
10139SOL    HW131316   3.172   4.026   2.925
10139SOL    HW231317   3.113   4.014   3.076
10140SOL     OW31318   5.696   6.243   6.986
10140SOL    HW131319   5.620   6.255   0.034
10140SOL    HW231320   5.701   6.323   6.927
10141SOL     OW31321   3.677   1.552   5.110
10141SOL    HW131322   3.699   1.568   5.014
10141SOL    HW231323   3.744   1.490   5.150
10142SOL     OW31324   6.098   6.295   5.160
10142SOL    HW131325   6.156   6.328   5.235
10142SOL    HW231326   6.126   6.339   5.075
10143SOL     OW31327   4.787   1.129   6.589
10143SOL    HW131328   4.730   1.081   6.522
10143SOL    HW231329   4.735   1.204   6.629
10144SOL     OW31330   3.373   0.447   6.381
10144SOL    HW131331   3.283   0.403   6.388
10144SOL    HW231332   3.388   0.503   6.463
10145SOL     OW31333   2.377   5.559   4.428
10145SOL    HW131334   2.309   5.622   4.464
10145SOL    HW231335   2.469   5.595   4.446
10146SOL     OW31336   4.352   4.687   4.727
10146SOL    HW131337   4.342   4.628   4.807
10146SOL    HW231338   4.286   4.762   4.732
10147SOL     OW31339   5.007   3.910   5.374
10147SOL    HW131340   5.041   3.995   5.415
10147SOL    HW231341   5.030   3.833   5.434
10148SOL     OW31342   5.241   5.160   6.733
10148SOL    HW131343   5.279   5.251   6.718
10148SOL    HW231344   5.194   5.130   6.650
10149SOL     OW31345   5.823   3.387   0.495
10149SOL    HW131346   5.758   3.314   0.474
10149SOL    HW231347   5.855   3.377   0.590
10150SOL     OW31348   3.548   3.892   0.142
10150SOL    HW131349   3.500   3.832   0.207
10150SOL    HW231350   3.530   3.987   0.165
10151SOL     OW31351   0.936   6.280   6.870
10151SOL    HW131352   0.854   6.321   6.908
10151SOL    HW231353   0.924   6.266   6.772
10152SOL     OW31354   6.679   6.079   4.486
10152SOL    HW131355   6.704   6.074   4.390
10152SOL    HW231356   6.751   6.036   4.542
10153SOL     OW31357   4.827   6.063   3.822
10153SOL    HW131358   4.866   6.128   3.757
10153SOL    HW231359   4.779   5.990   3.772
10154SOL     OW31360   4.586   6.786   5.846
10154SOL    HW131361   4.539   6.872   5.867
10154SOL    HW231362   4.554   6.751   5.758
10155SOL     OW31363   3.843   2.422   5.459
10155SOL    HW131364   3.809   2.500   5.512
10155SOL    HW231365   3.942   2.429   5.449
10156SOL     OW31366   5.756   0.728   2.423
10156SOL    HW131367   5.682   0.661   2.417
10156SOL    HW231368   5.841   0.681   2.443
10157SOL     OW31369   6.743   1.693   0.874
10157SOL    HW131370   6.773   1.763   0.938
10157SOL    HW231371   6.656   1.721   0.832
10158SOL     OW31372   5.800   5.001   0.465
10158SOL    HW131373   5.739   5.080   0.465
10158SOL    HW231374   5.778   4.942   0.543
10159SOL     OW31375   2.158   3.437   0.021
10159SOL    HW131376   2.230   3.382   0.065
10159SOL    HW231377   2.086   3.376   7.006
10160SOL     OW31378   1.703   3.117   2.257
10160SOL    HW131379   1.753   3.080   2.179
10160SOL    HW231380   1.761   3.181   2.307
10161SOL     OW31381   2.859   2.846   0.271
10161SOL    HW131382   2.891   2.833   0.365
10161SOL    HW231383   2.879   2.765   0.217
10162SOL     OW31384   3.737   4.489   0.815
10162SOL    HW131385   3.703   4.420   0.879
10162SOL    HW231386   3.721   4.581   0.853
10163SOL     OW31387   6.199   4.231   6.676
10163SOL    HW131388   6.175   4.307   6.616
10163SOL    HW231389   6.118   4.174   6.693
10164SOL     OW31390   6.253   3.586   4.412
10164SOL    HW131391   6.280   3.631   4.327
10164SOL    HW231392   6.230   3.491   4.393
10165SOL     OW31393   6.799   1.935   3.145
10165SOL    HW131394   6.750   1.908   3.062
10165SOL    HW231395   6.871   2.000   3.122
10166SOL     OW31396   3.248   1.896   1.895
10166SOL    HW131397   3.184   1.868   1.966
10166SOL    HW231398   3.261   1.995   1.899
10167SOL     OW31399   2.177   4.133   6.815
10167SOL    HW131400   2.223   4.046   6.798
10167SOL    HW231401   2.186   4.156   6.912
10168SOL     OW31402   5.829   3.213   6.351
10168SOL    HW131403   5.764   3.203   6.276
10168SOL    HW231404   5.914   3.253   6.317
10169SOL     OW31405   6.731   4.381   3.858
10169SOL    HW131406   6.724   4.328   3.942
10169SOL    HW231407   6.780   4.466   3.876
10170SOL     OW31408   0.030   5.771   5.800
10170SOL    HW131409   6.956   5.807   5.782
10170SOL    HW231410   0.025   5.671   5.807
10171SOL     OW31411   6.816   2.590   4.800
10171SOL    HW131412   6.853   2.563   4.889
10171SOL    HW231413   6.851   2.528   4.729
10172SOL     OW31414   6.912   5.819   4.828
10172SOL    HW131415   6.908   5.734   4.881
10172SOL    HW231416   6.895   5.897   4.888
10173SOL     OW31417   1.398   2.906   0.755
10173SOL    HW131418   1.465   2.925   0.683
10173SOL    HW231419   1.312   2.879   0.713
10174SOL     OW31420   5.212   4.778   3.244
10174SOL    HW131421   5.303   4.750   3.276
10174SOL    HW231422   5.143   4.722   3.289
10175SOL     OW31423   6.182   1.397   3.871
10175SOL    HW131424   6.191   1.312   3.818
10175SOL    HW231425   6.086   1.418   3.885
10176SOL     OW31426   0.551   3.775   4.937
10176SOL    HW131427   0.616   3.837   4.982
10176SOL    HW231428   0.468   3.825   4.914
10177SOL     OW31429   2.604   0.610   1.348
10177SOL    HW131430   2.519   0.557   1.358
10177SOL    HW231431   2.682   0.551   1.370
10178SOL     OW31432   0.958   0.775   6.010
10178SOL    HW131433   0.965   0.678   6.034
10178SOL    HW231434   0.983   0.787   5.914
10179SOL     OW31435   0.832   2.581   6.581
10179SOL    HW131436   0.915   2.534   6.611
10179SOL    HW231437   0.853   2.678   6.566
10180SOL     OW31438   4.356   0.771   5.885
10180SOL    HW131439   4.375   0.868   5.896
10180SOL    HW231440   4.373   0.723   5.971
10181SOL     OW31441   6.604   3.174   0.984
10181SOL    HW131442   6.704   3.166   0.983
10181SOL    HW231443   6.573   3.210   0.896
10182SOL     OW31444   4.754   1.030   1.918
10182SOL    HW131445   4.666   1.015   1.964
10182SOL    HW231446   4.773   0.952   1.857
10183SOL     OW31447   0.062   3.136   6.623
10183SOL    HW131448   7.004   3.080   6.589
10183SOL    HW231449   0.067   3.129   6.723
10184SOL     OW31450   4.093   1.462   5.965
10184SOL    HW131451   4.128   1.533   6.025
10184SOL    HW231452   4.054   1.387   6.019
10185SOL     OW31453   6.227   5.900   2.920
10185SOL    HW131454   6.249   5.804   2.937
10185SOL    HW231455   6.280   5.958   2.982
10186SOL     OW31456   5.723   3.442   4.169
10186SOL    HW131457   5.650   3.374   4.165
10186SOL    HW231458   5.811   3.398   4.150
10187SOL     OW31459   1.213   3.493   0.667
10187SOL    HW131460   1.244   3.505   0.573
10187SOL    HW231461   1.272   3.545   0.729
10188SOL     OW31462   4.005   5.547   0.592
10188SOL    HW131463   4.041   5.457   0.616
10188SOL    HW231464   3.916   5.561   0.636
10189SOL     OW31465   1.222   0.961   5.900
10189SOL    HW131466   1.290   0.916   5.958
10189SOL    HW231467   1.186   0.895   5.835
10190SOL     OW31468   4.996   3.471   2.084
10190SOL    HW131469   4.932   3.480   2.008
10190SOL    HW231470   5.080   3.521   2.064
10191SOL     OW31471   4.692   6.072   6.606
10191SOL    HW131472   4.625   6.004   6.576
10191SOL    HW231473   4.776   6.025   6.632
10192SOL     OW31474   4.298   1.367   4.769
10192SOL    HW131475   4.267   1.409   4.854
10192SOL    HW231476   4.379   1.311   4.787
10193SOL     OW31477   4.084   3.098   2.024
10193SOL    HW131478   3.996   3.078   2.067
10193SOL    HW231479   4.158   3.062   2.081
10194SOL     OW31480   5.618   6.193   5.490
10194SOL    HW131481   5.583   6.163   5.401
10194SOL    HW231482   5.718   6.188   5.490
10195SOL     OW31483   5.838   6.000   0.440
10195SOL    HW131484   5.854   5.938   0.363
10195SOL    HW231485   5.752   5.975   0.486
10196SOL     OW31486   4.640   1.871   3.688
10196SOL    HW131487   4.729   1.905   3.658
10196SOL    HW231488   4.603   1.809   3.619
10197SOL     OW31489   5.758   1.463   5.368
10197SOL    HW131490   5.779   1.495   5.276
10197SOL    HW231491   5.799   1.372   5.382
10198SOL     OW31492   2.882   6.597   2.692
10198SOL    HW131493   2.919   6.505   2.700
10198SOL    HW231494   2.848   6.628   2.781
10199SOL     OW31495   2.117   3.646   0.444
10199SOL    HW131496   2.066   3.636   0.530
10199SOL    HW231497   2.073   3.715   0.387
10200SOL     OW31498   4.947   2.581   6.554
10200SOL    HW131499   4.864   2.548   6.510
10200SOL    HW231500   5.021   2.515   6.539
10201SOL     OW31501   1.468   5.107   0.558
10201SOL    HW131502   1.556   5.108   0.511
10201SOL    HW231503   1.464   5.027   0.619
10202SOL     OW31504   3.397   4.730   1.156
10202SOL    HW131505   3.437   4.641   1.135
10202SOL    HW231506   3.453   4.777   1.225
10203SOL     OW31507   6.561   2.502   2.580
10203SOL    HW131508   6.512   2.502   2.667
10203SOL    HW231509   6.552   2.591   2.537
10204SOL     OW31510   5.002   6.224   0.501
10204SOL    HW131511   4.991   6.144   0.443
10204SOL    HW231512   5.096   6.230   0.534
10205SOL     OW31513   2.256   0.597   2.105
10205SOL    HW131514   2.182   0.624   2.044
10205SOL    HW231515   2.324   0.670   2.111
10206SOL     OW31516   6.359   0.527   6.763
10206SOL    HW131517   6.329   0.506   6.670
10206SOL    HW231518   6.456   0.550   6.763
10207SOL     OW31519   1.254   1.833   6.802
10207SOL    HW131520   1.317   1.903   6.837
10207SOL    HW231521   1.175   1.877   6.759
10208SOL     OW31522   6.333   4.566   3.940
10208SOL    HW131523   6.392   4.555   3.860
10208SOL    HW231524   6.384   4.545   4.023
10209SOL     OW31525   0.303   6.770   0.448
10209SOL    HW131526   0.324   6.851   0.504
10209SOL    HW231527   0.307   6.688   0.505
10210SOL     OW31528   4.511   0.033   1.974
10210SOL    HW131529   4.467   6.982   2.032
10210SOL    HW231530   4.597   7.014   1.939
10211SOL     OW31531   4.164   6.643   4.800
10211SOL    HW131532   4.201   6.561   4.757
10211SOL    HW231533   4.196   6.724   4.750
10212SOL     OW31534   0.311   0.412   5.600
10212SOL    HW131535   0.232   0.454   5.554
10212SOL    HW231536   0.286   0.320   5.630
10213SOL     OW31537   5.967   2.619   1.374
10213SOL    HW131538   6.055   2.652   1.409
10213SOL    HW231539   5.982   2.570   1.288
10214SOL     OW31540   0.646   1.694   1.596
10214SOL    HW131541   0.627   1.789   1.621
10214SOL    HW231542   0.715   1.657   1.658
10215SOL     OW31543   3.825   2.960   3.455
10215SOL    HW131544   3.736   2.955   3.501
10215SOL    HW231545   3.889   3.010   3.514
10216SOL     OW31546   0.463   1.347   1.338
10216SOL    HW131547   0.388   1.370   1.276
10216SOL    HW231548   0.486   1.428   1.392
10217SOL     OW31549   3.079   1.415   2.950
10217SOL    HW131550   3.149   1.420   2.879
10217SOL    HW231551   3.022   1.334   2.936
10218SOL     OW31552   1.291   1.621   1.816
10218SOL    HW131553   1.205   1.655   1.778
10218SOL    HW231554   1.342   1.697   1.856
10219SOL     OW31555   0.286   1.474   3.611
10219SOL    HW131556   0.246   1.565   3.622
10219SOL    HW231557   0.344   1.472   3.530
10220SOL     OW31558   4.957   1.695   0.774
10220SOL    HW131559   5.049   1.669   0.803
10220SOL    HW231560   4.943   1.792   0.792
10221SOL     OW31561   1.209   4.347   3.865
10221SOL    HW131562   1.248   4.325   3.954
10221SOL    HW231563   1.120   4.302   3.855
10222SOL     OW31564   3.055   4.180   5.234
10222SOL    HW131565   2.995   4.250   5.272
10222SOL    HW231566   3.019   4.090   5.257
10223SOL     OW31567   1.879   4.431   1.010
10223SOL    HW131568   1.970   4.455   0.977
10223SOL    HW231569   1.886   4.387   1.099
10224SOL     OW31570   5.841   3.206   5.721
10224SOL    HW131571   5.937   3.214   5.695
10224SOL    HW231572   5.783   3.231   5.643
10225SOL     OW31573   1.030   5.436   5.417
10225SOL    HW131574   0.939   5.453   5.455
10225SOL    HW231575   1.084   5.520   5.425
10226SOL     OW31576   2.523   0.447   5.962
10226SOL    HW131577   2.538   0.391   5.881
10226SOL    HW231578   2.427   0.478   5.964
10227SOL     OW31579   5.757   4.889   0.968
10227SOL    HW131580   5.692   4.898   1.043
10227SOL    HW231581   5.843   4.934   0.993
10228SOL     OW31582   0.451   6.304   1.997
10228SOL    HW131583   0.394   6.326   1.918
10228SOL    HW231584   0.528   6.367   2.001
10229SOL     OW31585   1.669   3.021   4.719
10229SOL    HW131586   1.639   3.099   4.774
10229SOL    HW231587   1.708   2.951   4.778
10230SOL     OW31588   5.840   6.559   3.138
10230SOL    HW131589   5.871   6.483   3.081
10230SOL    HW231590   5.797   6.523   3.221
10231SOL     OW31591   6.589   4.809   5.279
10231SOL    HW131592   6.526   4.766   5.344
10231SOL    HW231593   6.662   4.855   5.330
10232SOL     OW31594   3.338   1.525   3.607
10232SOL    HW131595   3.344   1.454   3.677
10232SOL    HW231596   3.242   1.549   3.593
10233SOL     OW31597   3.827   4.153   4.851
10233SOL    HW131598   3.910   4.207   4.837
10233SOL    HW231599   3.784   4.136   4.762
10234SOL     OW31600   6.141   0.952   0.875
10234SOL    HW131601   6.129   1.051   0.864
10234SOL    HW231602   6.056   0.906   0.851
10235SOL     OW31603   2.683   2.495   1.137
10235SOL    HW131604   2.751   2.545   1.082
10235SOL    HW231605   2.710   2.497   1.233
10236SOL     OW31606   2.325   1.100   0.333
10236SOL    HW131607   2.399   1.060   0.279
10236SOL    HW231608   2.237   1.064   0.300
10237SOL     OW31609   1.054   4.207   6.427
10237SOL    HW131610   0.960   4.196   6.461
10237SOL    HW231611   1.089   4.118   6.397
10238SOL     OW31612   3.813   4.228   1.721
10238SOL    HW131613   3.738   4.294   1.713
10238SOL    HW231614   3.803   4.176   1.806
10239SOL     OW31615   1.864   3.076   5.580
10239SOL    HW131616   1.882   3.163   5.625
10239SOL    HW231617   1.920   3.004   5.623
10240SOL     OW31618   1.917   4.885   2.375
10240SOL    HW131619   1.928   4.985   2.368
10240SOL    HW231620   1.829   4.858   2.338
10241SOL     OW31621   6.839   6.579   3.224
10241SOL    HW131622   6.795   6.640   3.158
10241SOL    HW231623   6.811   6.603   3.317
10242SOL     OW31624   0.269   1.348   0.669
10242SOL    HW131625   0.311   1.429   0.628
10242SOL    HW231626   0.250   1.280   0.598
10243SOL     OW31627   2.047   4.497   2.222
10243SOL    HW131628   2.070   4.421   2.283
10243SOL    HW231629   2.047   4.582   2.274
10244SOL     OW31630   1.658   4.468   0.559
10244SOL    HW131631   1.647   4.504   0.466
10244SOL    HW231632   1.754   4.474   0.586
10245SOL     OW31633   3.296   3.819   1.457
10245SOL    HW131634   3.392   3.817   1.487
10245SOL    HW231635   3.285   3.757   1.379
10246SOL     OW31636   3.347   3.286   3.796
10246SOL    HW131637   3.277   3.244   3.738
10246SOL    HW231638   3.438   3.267   3.758
10247SOL     OW31639   6.561   4.172   5.738
10247SOL    HW131640   6.468   4.196   5.768
10247SOL    HW231641   6.567   4.179   5.639
10248SOL     OW31642   1.629   6.119   2.319
10248SOL    HW131643   1.651   6.215   2.333
10248SOL    HW231644   1.633   6.071   2.407
10249SOL     OW31645   3.558   5.862   6.682
10249SOL    HW131646   3.466   5.828   6.662
10249SOL    HW231647   3.590   5.918   6.606
10250SOL     OW31648   6.797   3.076   1.611
10250SOL    HW131649   6.705   3.048   1.587
10250SOL    HW231650   6.829   3.023   1.689
10251SOL     OW31651   2.042   1.532   5.310
10251SOL    HW131652   1.998   1.585   5.238
10251SOL    HW231653   2.117   1.585   5.350
10252SOL     OW31654   4.230   4.246   6.404
10252SOL    HW131655   4.146   4.279   6.360
10252SOL    HW231656   4.217   4.245   6.503
10253SOL     OW31657   3.001   6.273   0.459
10253SOL    HW131658   2.959   6.222   0.535
10253SOL    HW231659   3.090   6.308   0.489
10254SOL     OW31660   4.795   1.018   5.663
10254SOL    HW131661   4.830   1.047   5.752
10254SOL    HW231662   4.707   1.063   5.646
10255SOL     OW31663   2.597   6.467   1.289
10255SOL    HW131664   2.639   6.490   1.377
10255SOL    HW231665   2.563   6.374   1.291
10256SOL     OW31666   4.689   2.272   2.412
10256SOL    HW131667   4.747   2.320   2.345
10256SOL    HW231668   4.670   2.333   2.489
10257SOL     OW31669   1.563   5.157   4.679
10257SOL    HW131670   1.514   5.232   4.635
10257SOL    HW231671   1.535   5.070   4.638
10258SOL     OW31672   3.719   2.010   3.439
10258SOL    HW131673   3.727   2.021   3.340
10258SOL    HW231674   3.808   1.988   3.477
10259SOL     OW31675   0.940   4.446   2.464
10259SOL    HW131676   0.964   4.542   2.481
10259SOL    HW231677   1.023   4.390   2.471
10260SOL     OW31678   1.502   1.083   3.494
10260SOL    HW131679   1.442   1.066   3.572
10260SOL    HW231680   1.512   1.182   3.480
10261SOL     OW31681   6.582   4.528   1.291
10261SOL    HW131682   6.594   4.432   1.265
10261SOL    HW231683   6.534   4.533   1.378
10262SOL     OW31684   2.182   6.444   5.660
10262SOL    HW131685   2.237   6.438   5.577
10262SOL    HW231686   2.224   6.510   5.723
10263SOL     OW31687   5.331   0.351   0.558
10263SOL    HW131688   5.279   0.367   0.474
10263SOL    HW231689   5.327   0.254   0.581
10264SOL     OW31690   6.216   0.004   6.822
10264SOL    HW131691   6.247   0.084   6.872
10264SOL    HW231692   6.294   6.976   6.778
10265SOL     OW31693   2.753   2.538   1.421
10265SOL    HW131694   2.676   2.596   1.448
10265SOL    HW231695   2.838   2.591   1.428
10266SOL     OW31696   3.429   2.914   3.453
10266SOL    HW131697   3.512   2.902   3.399
10266SOL    HW231698   3.349   2.887   3.398
10267SOL     OW31699   5.588   2.822   6.984
10267SOL    HW131700   5.571   2.819   0.066
10267SOL    HW231701   5.643   2.902   6.962
10268SOL     OW31702   6.679   5.765   2.639
10268SOL    HW131703   6.673   5.710   2.722
10268SOL    HW231704   6.754   5.731   2.582
10269SOL     OW31705   0.826   4.004   6.821
10269SOL    HW131706   0.746   4.063   6.812
10269SOL    HW231707   0.861   3.981   6.730
10270SOL     OW31708   2.898   4.856   2.558
10270SOL    HW131709   2.836   4.803   2.500
10270SOL    HW231710   2.911   4.808   2.645
10271SOL     OW31711   3.940   2.836   6.550
10271SOL    HW131712   3.968   2.900   6.479
10271SOL    HW231713   3.866   2.778   6.516
10272SOL     OW31714   1.303   1.235   5.658
10272SOL    HW131715   1.342   1.291   5.731
10272SOL    HW231716   1.354   1.250   5.574
10273SOL     OW31717   2.978   5.929   2.776
10273SOL    HW131718   3.030   5.898   2.855
10273SOL    HW231719   2.884   5.897   2.782
10274SOL     OW31720   0.821   4.897   6.026
10274SOL    HW131721   0.888   4.831   6.058
10274SOL    HW231722   0.850   4.937   5.939
10275SOL     OW31723   0.727   6.393   2.083
10275SOL    HW131724   0.811   6.436   2.049
10275SOL    HW231725   0.748   6.339   2.165
10276SOL     OW31726   5.350   5.508   5.443
10276SOL    HW131727   5.387   5.499   5.535
10276SOL    HW231728   5.254   5.537   5.448
10277SOL     OW31729   1.717   5.898   5.035
10277SOL    HW131730   1.624   5.936   5.037
10277SOL    HW231731   1.743   5.880   4.940
10278SOL     OW31732   1.548   1.659   3.478
10278SOL    HW131733   1.585   1.750   3.493
10278SOL    HW231734   1.598   1.614   3.404
10279SOL     OW31735   1.746   4.676   4.118
10279SOL    HW131736   1.759   4.775   4.126
10279SOL    HW231737   1.657   4.658   4.077
10280SOL     OW31738   0.098   2.822   6.841
10280SOL    HW131739   0.190   2.791   6.863
10280SOL    HW231740   0.098   2.922   6.832
10281SOL     OW31741   5.528   1.121   2.881
10281SOL    HW131742   5.444   1.165   2.850
10281SOL    HW231743   5.523   1.107   2.980
10282SOL     OW31744   5.525   3.723   4.430
10282SOL    HW131745   5.556   3.733   4.336
10282SOL    HW231746   5.593   3.671   4.482
10283SOL     OW31747   1.872   3.516   0.998
10283SOL    HW131748   1.809   3.586   0.964
10283SOL    HW231749   1.819   3.440   1.038
10284SOL     OW31750   4.878   2.407   5.035
10284SOL    HW131751   4.944   2.339   5.004
10284SOL    HW231752   4.885   2.489   4.978
10285SOL     OW31753   5.205   6.566   2.509
10285SOL    HW131754   5.292   6.607   2.483
10285SOL    HW231755   5.134   6.636   2.509
10286SOL     OW31756   3.540   2.115   3.672
10286SOL    HW131757   3.585   2.063   3.599
10286SOL    HW231758   3.528   2.210   3.643
10287SOL     OW31759   3.152   6.281   1.751
10287SOL    HW131760   3.121   6.232   1.670
10287SOL    HW231761   3.252   6.288   1.749
10288SOL     OW31762   4.774   5.616   3.345
10288SOL    HW131763   4.714   5.663   3.281
10288SOL    HW231764   4.726   5.539   3.387
10289SOL     OW31765   2.632   6.214   6.963
10289SOL    HW131766   2.629   6.313   6.946
10289SOL    HW231767   2.645   6.198   0.043
10290SOL     OW31768   2.993   3.447   2.588
10290SOL    HW131769   2.998   3.411   2.681
10290SOL    HW231770   2.978   3.372   2.523
10291SOL     OW31771   3.981   1.421   2.645
10291SOL    HW131772   3.906   1.449   2.585
10291SOL    HW231773   4.062   1.477   2.626
10292SOL     OW31774   1.724   2.085   5.890
10292SOL    HW131775   1.772   2.169   5.865
10292SOL    HW231776   1.654   2.107   5.958
10293SOL     OW31777   1.786   3.734   2.393
10293SOL    HW131778   1.728   3.668   2.441
10293SOL    HW231779   1.882   3.707   2.403
10294SOL     OW31780   5.186   2.883   3.216
10294SOL    HW131781   5.159   2.788   3.226
10294SOL    HW231782   5.129   2.927   3.146
10295SOL     OW31783   0.152   3.387   5.829
10295SOL    HW131784   0.074   3.343   5.786
10295SOL    HW231785   0.138   3.486   5.832
10296SOL     OW31786   5.254   1.516   6.793
10296SOL    HW131787   5.254   1.448   6.866
10296SOL    HW231788   5.175   1.577   6.805
10297SOL     OW31789   1.881   0.302   6.628
10297SOL    HW131790   1.963   0.245   6.635
10297SOL    HW231791   1.810   0.265   6.687
10298SOL     OW31792   2.489   4.437   0.836
10298SOL    HW131793   2.504   4.529   0.798
10298SOL    HW231794   2.574   4.385   0.831
10299SOL     OW31795   4.388   4.894   3.014
10299SOL    HW131796   4.471   4.847   3.046
10299SOL    HW231797   4.402   4.993   3.017
10300SOL     OW31798   0.838   4.049   2.349
10300SOL    HW131799   0.812   4.065   2.253
10300SOL    HW231800   0.908   3.978   2.352
10301SOL     OW31801   5.104   2.252   4.223
10301SOL    HW131802   5.150   2.327   4.270
10301SOL    HW231803   5.103   2.269   4.125
10302SOL     OW31804   2.162   6.266   5.103
10302SOL    HW131805   2.138   6.194   5.168
10302SOL    HW231806   2.102   6.345   5.115
10303SOL     OW31807   1.538   5.608   2.970
10303SOL    HW131808   1.481   5.638   2.894
10303SOL    HW231809   1.509   5.654   3.054
10304SOL     OW31810   5.448   0.163   1.502
10304SOL    HW131811   5.357   0.147   1.542
10304SOL    HW231812   5.512   0.094   1.536
10305SOL     OW31813   1.441   4.208   6.551
10305SOL    HW131814   1.396   4.276   6.493
10305SOL    HW231815   1.516   4.251   6.601
10306SOL     OW31816   4.895   6.028   7.008
10306SOL    HW131817   4.886   6.122   6.974
10306SOL    HW231818   4.851   5.965   6.944
10307SOL     OW31819   2.867   2.325   5.254
10307SOL    HW131820   2.852   2.422   5.273
10307SOL    HW231821   2.960   2.311   5.220
10308SOL     OW31822   1.646   3.945   2.870
10308SOL    HW131823   1.735   3.900   2.880
10308SOL    HW231824   1.604   3.916   2.784
10309SOL     OW31825   6.785   1.632   6.542
10309SOL    HW131826   6.691   1.619   6.571
10309SOL    HW231827   6.789   1.636   6.442
10310SOL     OW31828   2.945   3.546   0.971
10310SOL    HW131829   2.914   3.459   1.008
10310SOL    HW231830   3.019   3.530   0.906
10311SOL     OW31831   6.856   5.798   0.764
10311SOL    HW131832   6.819   5.801   0.672
10311SOL    HW231833   6.784   5.771   0.828
10312SOL     OW31834   3.340   5.205   2.581
10312SOL    HW131835   3.308   5.203   2.676
10312SOL    HW231836   3.353   5.111   2.548
10313SOL     OW31837   4.577   6.374   2.348
10313SOL    HW131838   4.594   6.437   2.272
10313SOL    HW231839   4.485   6.337   2.341
10314SOL     OW31840   6.179   0.573   1.746
10314SOL    HW131841   6.179   0.670   1.721
10314SOL    HW231842   6.236   0.559   1.827
10315SOL     OW31843   4.935   5.531   5.149
10315SOL    HW131844   5.002   5.464   5.181
10315SOL    HW231845   4.880   5.563   5.226
10316SOL     OW31846   5.367   1.544   5.120
10316SOL    HW131847   5.346   1.500   5.032
10316SOL    HW231848   5.343   1.482   5.195
10317SOL     OW31849   4.787   5.645   5.360
10317SOL    HW131850   4.718   5.673   5.293
10317SOL    HW231851   4.846   5.722   5.383
10318SOL     OW31852   5.333   6.499   6.301
10318SOL    HW131853   5.368   6.533   6.388
10318SOL    HW231854   5.236   6.522   6.293
10319SOL     OW31855   1.072   2.556   5.339
10319SOL    HW131856   1.098   2.538   5.434
10319SOL    HW231857   1.062   2.470   5.290
10320SOL     OW31858   0.195   0.561   2.330
10320SOL    HW131859   0.247   0.622   2.391
10320SOL    HW231860   0.248   0.543   2.248
10321SOL     OW31861   3.720   1.765   1.888
10321SOL    HW131862   3.734   1.850   1.837
10321SOL    HW231863   3.642   1.775   1.949
10322SOL     OW31864   6.360   5.626   5.683
10322SOL    HW131865   6.316   5.705   5.724
10322SOL    HW231866   6.295   5.550   5.677
10323SOL     OW31867   5.539   3.512   5.583
10323SOL    HW131868   5.587   3.424   5.581
10323SOL    HW231869   5.598   3.582   5.623
10324SOL     OW31870   3.173   3.523   1.929
10324SOL    HW131871   3.097   3.575   1.967
10324SOL    HW231872   3.160   3.426   1.952
10325SOL     OW31873   6.700   3.841   2.128
10325SOL    HW131874   6.605   3.833   2.097
10325SOL    HW231875   6.761   3.842   2.049
10326SOL     OW31876   3.286   5.177   0.574
10326SOL    HW131877   3.314   5.186   0.479
10326SOL    HW231878   3.357   5.130   0.626
10327SOL     OW31879   2.056   1.073   1.058
10327SOL    HW131880   2.054   1.164   1.015
10327SOL    HW231881   1.963   1.049   1.088
10328SOL     OW31882   6.127   2.081   0.851
10328SOL    HW131883   6.224   2.100   0.837
10328SOL    HW231884   6.073   2.161   0.824
10329SOL     OW31885   3.795   0.941   3.901
10329SOL    HW131886   3.696   0.927   3.898
10329SOL    HW231887   3.839   0.857   3.931
10330SOL     OW31888   4.850   0.683   2.116
10330SOL    HW131889   4.878   0.779   2.118
10330SOL    HW231890   4.751   0.677   2.109
10331SOL     OW31891   6.535   0.667   5.949
10331SOL    HW131892   6.502   0.675   6.043
10331SOL    HW231893   6.574   0.754   5.920
10332SOL     OW31894   6.835   6.842   1.245
10332SOL    HW131895   6.873   6.918   1.298
10332SOL    HW231896   6.735   6.847   1.247
10333SOL     OW31897   6.731   4.617   4.628
10333SOL    HW131898   6.669   4.616   4.706
10333SOL    HW231899   6.752   4.712   4.603
10334SOL     OW31900   3.612   6.990   3.803
10334SOL    HW131901   3.572   6.899   3.799
10334SOL    HW231902   3.563   0.034   3.741
10335SOL     OW31903   3.029   4.376   6.776
10335SOL    HW131904   3.032   4.375   6.676
10335SOL    HW231905   3.074   4.458   6.809
10336SOL     OW31906   6.800   6.881   2.033
10336SOL    HW131907   6.819   6.979   2.044
10336SOL    HW231908   6.865   6.829   2.089
10337SOL     OW31909   0.373   6.794   5.824
10337SOL    HW131910   0.274   6.797   5.842
10337SOL    HW231911   0.402   6.699   5.813
10338SOL     OW31912   2.450   6.621   2.711
10338SOL    HW131913   2.412   6.558   2.779
10338SOL    HW231914   2.538   6.656   2.743
10339SOL     OW31915   3.463   4.566   6.824
10339SOL    HW131916   3.472   4.664   6.805
10339SOL    HW231917   3.501   4.514   6.748
10340SOL     OW31918   1.758   4.129   1.146
10340SOL    HW131919   1.664   4.139   1.181
10340SOL    HW231920   1.756   4.121   1.047
10341SOL     OW31921   2.113   3.063   2.034
10341SOL    HW131922   2.177   2.985   2.033
10341SOL    HW231923   2.022   3.032   2.010
10342SOL     OW31924   0.867   0.509   5.214
10342SOL    HW131925   0.785   0.545   5.259
10342SOL    HW231926   0.948   0.537   5.266
10343SOL     OW31927   3.301   5.769   6.638
10343SOL    HW131928   3.343   5.679   6.627
10343SOL    HW231929   3.236   5.785   6.564
10344SOL     OW31930   4.494   3.941   1.684
10344SOL    HW131931   4.583   3.942   1.638
10344SOL    HW231932   4.487   4.020   1.746
10345SOL     OW31933   1.924   1.453   6.858
10345SOL    HW131934   1.872   1.370   6.881
10345SOL    HW231935   1.874   1.533   6.891
10346SOL     OW31936   6.740   5.993   2.156
10346SOL    HW131937   6.768   5.916   2.099
10346SOL    HW231938   6.642   6.012   2.141
10347SOL     OW31939   4.523   2.217   3.287
10347SOL    HW131940   4.526   2.128   3.240
10347SOL    HW231941   4.614   2.240   3.321
10348SOL     OW31942   6.384   1.680   7.002
10348SOL    HW131943   6.444   1.602   6.989
10348SOL    HW231944   6.334   1.698   6.917
10349SOL     OW31945   0.206   0.329   0.651
10349SOL    HW131946   0.233   0.424   0.671
10349SOL    HW231947   0.150   0.294   0.726
10350SOL     OW31948   1.661   6.782   5.457
10350SOL    HW131949   1.659   6.820   5.549
10350SOL    HW231950   1.756   6.776   5.425
10351SOL     OW31951   4.264   4.825   6.391
10351SOL    HW131952   4.327   4.783   6.325
10351SOL    HW231953   4.307   4.828   6.481
10352SOL     OW31954   4.135   1.790   6.073
10352SOL    HW131955   4.185   1.844   6.140
10352SOL    HW231956   4.053   1.839   6.044
10353SOL     OW31957   6.500   2.564   5.479
10353SOL    HW131958   6.595   2.537   5.463
10353SOL    HW231959   6.450   2.560   5.392
10354SOL     OW31960   5.905   2.319   1.970
10354SOL    HW131961   5.807   2.327   1.951
10354SOL    HW231962   5.950   2.270   1.895
10355SOL     OW31963   1.770   6.916   2.338
10355SOL    HW131964   1.757   6.936   2.435
10355SOL    HW231965   1.800   6.999   2.291
10356SOL     OW31966   0.896   4.389   6.184
10356SOL    HW131967   0.889   4.298   6.146
10356SOL    HW231968   0.811   4.412   6.232
10357SOL     OW31969   2.242   3.314   6.094
10357SOL    HW131970   2.332   3.355   6.098
10357SOL    HW231971   2.210   3.311   6.000
10358SOL     OW31972   6.108   2.748   2.865
10358SOL    HW131973   6.115   2.835   2.913
10358SOL    HW231974   6.086   2.764   2.769
10359SOL     OW31975   0.281   1.706   1.371
10359SOL    HW131976   0.340   1.666   1.301
10359SOL    HW231977   0.223   1.777   1.330
10360SOL     OW31978   5.126   5.541   3.175
10360SOL    HW131979   5.047   5.485   3.149
10360SOL    HW231980   5.193   5.484   3.223
10361SOL     OW31981   3.315   0.489   3.363
10361SOL    HW131982   3.283   0.394   3.365
10361SOL    HW231983   3.308   0.529   3.455
10362SOL     OW31984   0.604   5.109   4.819
10362SOL    HW131985   0.548   5.189   4.796
10362SOL    HW231986   0.633   5.064   4.735
10363SOL     OW31987   5.132   1.413   1.288
10363SOL    HW131988   5.078   1.487   1.327
10363SOL    HW231989   5.165   1.354   1.361
10364SOL     OW31990   3.432   3.390   1.616
10364SOL    HW131991   3.484   3.440   1.547
10364SOL    HW231992   3.345   3.361   1.578
10365SOL     OW31993   4.649   4.605   6.019
10365SOL    HW131994   4.676   4.563   5.932
10365SOL    HW231995   4.722   4.591   6.086
10366SOL     OW31996   4.107   0.340   4.132
10366SOL    HW131997   4.044   0.270   4.098
10366SOL    HW231998   4.091   0.355   4.229
10367SOL     OW31999   6.313   1.622   2.491
10367SOL    HW132000   6.339   1.645   2.398
10367SOL    HW232001   6.270   1.701   2.535
10368SOL     OW32002   1.792   1.181   1.623
10368SOL    HW132003   1.698   1.189   1.657
10368SOL    HW232004   1.810   1.086   1.597
10369SOL     OW32005   3.850   1.378   5.253
10369SOL    HW132006   3.819   1.290   5.290
10369SOL    HW232007   3.942   1.368   5.216
10370SOL     OW32008   5.229   2.003   5.382
10370SOL    HW132009   5.316   2.051   5.370
10370SOL    HW232010   5.246   1.904   5.385
10371SOL     OW32011   2.348   6.309   4.666
10371SOL    HW132012   2.275   6.245   4.686
10371SOL    HW232013   2.427   6.289   4.724
10372SOL     OW32014   1.026   1.510   6.968
10372SOL    HW132015   1.078   1.535   0.032
10372SOL    HW232016   0.995   1.415   6.976
10373SOL     OW32017   2.256   5.926   4.815
10373SOL    HW132018   2.165   5.911   4.776
10373SOL    HW232019   2.280   5.848   4.873
10374SOL     OW32020   4.110   1.139   2.664
10374SOL    HW132021   4.106   1.237   2.645
10374SOL    HW232022   4.111   1.124   2.763
10375SOL     OW32023   2.931   1.897   6.315
10375SOL    HW132024   2.918   1.974   6.378
10375SOL    HW232025   3.005   1.918   6.251
10376SOL     OW32026   1.310   6.365   4.253
10376SOL    HW132027   1.253   6.446   4.242
10376SOL    HW232028   1.399   6.381   4.211
10377SOL     OW32029   7.005   0.434   4.115
10377SOL    HW132030   0.014   0.526   4.146
10377SOL    HW232031   6.948   0.390   4.184
10378SOL     OW32032   6.409   6.982   6.039
10378SOL    HW132033   6.393   0.054   6.082
10378SOL    HW232034   6.338   6.918   6.068
10379SOL     OW32035   3.202   6.501   4.555
10379SOL    HW132036   3.207   6.588   4.603
10379SOL    HW232037   3.107   6.480   4.534
10380SOL     OW32038   0.517   1.265   4.047
10380SOL    HW132039   0.490   1.329   3.975
10380SOL    HW232040   0.550   1.180   4.005
10381SOL     OW32041   4.368   5.764   6.722
10381SOL    HW132042   4.377   5.729   6.628
10381SOL    HW232043   4.375   5.863   6.721
10382SOL     OW32044   2.163   4.460   0.518
10382SOL    HW132045   2.223   4.399   0.570
10382SOL    HW232046   2.119   4.408   0.444
10383SOL     OW32047   0.546   3.578   0.459
10383SOL    HW132048   0.602   3.619   0.387
10383SOL    HW232049   0.555   3.632   0.542
10384SOL     OW32050   0.815   0.323   0.856
10384SOL    HW132051   0.750   0.376   0.801
10384SOL    HW232052   0.764   0.259   0.914
10385SOL     OW32053   3.690   6.945   6.160
10385SOL    HW132054   3.728   6.866   6.208
10385SOL    HW232055   3.634   6.998   6.224
10386SOL     OW32056   5.989   3.215   5.456
10386SOL    HW132057   6.079   3.195   5.418
10386SOL    HW232058   5.948   3.130   5.491
10387SOL     OW32059   4.256   2.316   2.376
10387SOL    HW132060   4.161   2.335   2.399
10387SOL    HW232061   4.274   2.218   2.386
10388SOL     OW32062   1.611   5.811   2.724
10388SOL    HW132063   1.596   5.805   2.823
10388SOL    HW232064   1.601   5.720   2.684
10389SOL     OW32065   0.568   6.798   1.639
10389SOL    HW132066   0.628   6.830   1.567
10389SOL    HW232067   0.543   6.875   1.698
10390SOL     OW32068   1.649   3.341   1.845
10390SOL    HW132069   1.703   3.413   1.801
10390SOL    HW232070   1.554   3.371   1.852
10391SOL     OW32071   1.439   5.909   5.048
10391SOL    HW132072   1.376   5.856   5.104
10391SOL    HW232073   1.393   5.937   4.964
10392SOL     OW32074   6.317   3.831   0.368
10392SOL    HW132075   6.351   3.737   0.365
10392SOL    HW232076   6.257   3.847   0.290
10393SOL     OW32077   2.105   2.123   2.922
10393SOL    HW132078   2.154   2.208   2.944
10393SOL    HW232079   2.018   2.121   2.972
10394SOL     OW32080   2.610   6.548   5.548
10394SOL    HW132081   2.546   6.608   5.595
10394SOL    HW232082   2.562   6.495   5.478
10395SOL     OW32083   6.391   0.464   3.631
10395SOL    HW132084   6.484   0.435   3.655
10395SOL    HW232085   6.329   0.444   3.707
10396SOL     OW32086   2.325   0.618   4.798
10396SOL    HW132087   2.396   0.551   4.779
10396SOL    HW232088   2.356   0.709   4.770
10397SOL     OW32089   3.209   2.118   3.203
10397SOL    HW132090   3.250   2.152   3.288
10397SOL    HW232091   3.281   2.097   3.137
10398SOL     OW32092   5.765   3.086   0.675
10398SOL    HW132093   5.708   3.120   0.600
10398SOL    HW232094   5.810   3.164   0.720
10399SOL     OW32095   4.414   1.925   4.564
10399SOL    HW132096   4.482   1.955   4.497
10399SOL    HW232097   4.325   1.915   4.520
10400SOL     OW32098   3.511   5.916   1.959
10400SOL    HW132099   3.542   6.011   1.948
10400SOL    HW232100   3.586   5.854   1.936
10401SOL     OW32101   6.835   0.093   2.589
10401SOL    HW132102   6.831   0.193   2.601
10401SOL    HW232103   6.889   0.053   2.663
10402SOL     OW32104   0.089   2.635   5.260
10402SOL    HW132105   0.122   2.684   5.179
10402SOL    HW232106   0.101   2.693   5.341
10403SOL     OW32107   5.090   1.279   2.326
10403SOL    HW132108   5.166   1.218   2.304
10403SOL    HW232109   5.028   1.233   2.390
10404SOL     OW32110   0.583   6.663   3.328
10404SOL    HW132111   0.628   6.723   3.261
10404SOL    HW232112   0.504   6.710   3.367
10405SOL     OW32113   1.338   5.496   4.809
10405SOL    HW132114   1.245   5.465   4.830
10405SOL    HW232115   1.335   5.560   4.732
10406SOL     OW32116   2.128   3.824   5.088
10406SOL    HW132117   2.214   3.868   5.115
10406SOL    HW232118   2.111   3.746   5.149
10407SOL     OW32119   1.689   0.393   6.433
10407SOL    HW132120   1.661   0.354   6.521
10407SOL    HW232121   1.787   0.410   6.434
10408SOL     OW32122   4.175   6.052   2.248
10408SOL    HW132123   4.139   6.064   2.155
10408SOL    HW232124   4.101   6.066   2.314
10409SOL     OW32125   0.751   4.317   1.056
10409SOL    HW132126   0.766   4.407   1.017
10409SOL    HW232127   0.662   4.315   1.103
10410SOL     OW32128   5.486   1.785   1.259
10410SOL    HW132129   5.461   1.878   1.233
10410SOL    HW232130   5.584   1.780   1.276
10411SOL     OW32131   3.387   5.355   4.089
10411SOL    HW132132   3.404   5.299   4.170
10411SOL    HW232133   3.322   5.427   4.112
10412SOL     OW32134   0.380   1.440   0.274
10412SOL    HW132135   0.419   1.418   0.184
10412SOL    HW232136   0.334   1.359   0.311
10413SOL     OW32137   0.254   2.161   0.655
10413SOL    HW132138   0.177   2.156   0.591
10413SOL    HW232139   0.219   2.152   0.748
10414SOL     OW32140   4.708   6.054   5.449
10414SOL    HW132141   4.739   6.136   5.497
10414SOL    HW232142   4.702   5.978   5.514
10415SOL     OW32143   2.117   5.052   3.912
10415SOL    HW132144   2.018   5.054   3.927
10415SOL    HW232145   2.149   4.957   3.916
10416SOL     OW32146   6.611   1.588   5.765
10416SOL    HW132147   6.668   1.509   5.744
10416SOL    HW232148   6.568   1.575   5.855
10417SOL     OW32149   4.744   4.558   4.346
10417SOL    HW132150   4.801   4.639   4.362
10417SOL    HW232151   4.802   4.482   4.315
10418SOL     OW32152   6.398   4.497   5.362
10418SOL    HW132153   6.414   4.416   5.420
10418SOL    HW232154   6.301   4.506   5.343
10419SOL     OW32155   2.846   0.526   5.512
10419SOL    HW132156   2.844   0.463   5.435
10419SOL    HW232157   2.761   0.579   5.514
10420SOL     OW32158   6.930   3.612   3.527
10420SOL    HW132159   6.866   3.559   3.584
10420SOL    HW232160   6.987   3.669   3.585
10421SOL     OW32161   1.441   3.084   4.182
10421SOL    HW132162   1.365   3.145   4.203
10421SOL    HW232163   1.516   3.136   4.140
10422SOL     OW32164   6.485   3.645   5.630
10422SOL    HW132165   6.449   3.721   5.576
10422SOL    HW232166   6.412   3.608   5.688
10423SOL     OW32167   4.166   4.862   4.782
10423SOL    HW132168   4.123   4.940   4.737
10423SOL    HW232169   4.116   4.838   4.865
10424SOL     OW32170   4.908   2.022   6.857
10424SOL    HW132171   4.856   2.082   6.918
10424SOL    HW232172   4.915   2.063   6.767
10425SOL     OW32173   0.903   6.555   1.718
10425SOL    HW132174   0.884   6.498   1.638
10425SOL    HW232175   0.817   6.583   1.760
10426SOL     OW32176   5.048   3.520   5.767
10426SOL    HW132177   5.059   3.524   5.866
10426SOL    HW232178   4.955   3.493   5.744
10427SOL     OW32179   5.307   5.827   5.663
10427SOL    HW132180   5.255   5.912   5.654
10427SOL    HW232181   5.313   5.782   5.574
10428SOL     OW32182   1.322   1.750   3.995
10428SOL    HW132183   1.254   1.708   3.936
10428SOL    HW232184   1.277   1.811   4.061
10429SOL     OW32185   1.401   3.610   2.967
10429SOL    HW132186   1.465   3.639   2.896
10429SOL    HW232187   1.397   3.510   2.970
10430SOL     OW32188   3.218   6.069   4.379
10430SOL    HW132189   3.213   6.162   4.344
10430SOL    HW232190   3.312   6.034   4.370
10431SOL     OW32191   2.604   0.766   3.775
10431SOL    HW132192   2.523   0.785   3.720
10431SOL    HW232193   2.611   0.832   3.849
10432SOL     OW32194   0.622   1.019   5.332
10432SOL    HW132195   0.610   1.085   5.405
10432SOL    HW232196   0.665   1.063   5.253
10433SOL     OW32197   0.524   6.399   1.464
10433SOL    HW132198   0.442   6.349   1.436
10433SOL    HW232199   0.589   6.401   1.387
10434SOL     OW32200   4.841   6.353   4.562
10434SOL    HW132201   4.896   6.330   4.481
10434SOL    HW232202   4.885   6.317   4.644
10435SOL     OW32203   1.315   1.869   6.154
10435SOL    HW132204   1.273   1.798   6.211
10435SOL    HW232205   1.366   1.827   6.080
10436SOL     OW32206   6.021   3.731   4.074
10436SOL    HW132207   5.966   3.692   4.000
10436SOL    HW232208   6.115   3.698   4.065
10437SOL     OW32209   5.483   5.201   5.299
10437SOL    HW132210   5.393   5.200   5.342
10437SOL    HW232211   5.528   5.288   5.319
10438SOL     OW32212   0.395   6.532   5.753
10438SOL    HW132213   0.352   6.513   5.841
10438SOL    HW232214   0.357   6.471   5.684
10439SOL     OW32215   5.829   0.973   4.929
10439SOL    HW132216   5.928   0.968   4.916
10439SOL    HW232217   5.794   1.059   4.891
10440SOL     OW32218   0.087   0.009   6.876
10440SOL    HW132219   0.170   0.061   6.899
10440SOL    HW232220   0.012   0.073   6.860
10441SOL     OW32221   2.901   1.305   0.773
10441SOL    HW132222   2.939   1.344   0.856
10441SOL    HW232223   2.833   1.235   0.797
10442SOL     OW32224   4.193   0.921   4.855
10442SOL    HW132225   4.161   1.004   4.901
10442SOL    HW232226   4.206   0.940   4.758
10443SOL     OW32227   6.684   2.239   2.864
10443SOL    HW132228   6.715   2.313   2.924
10443SOL    HW232229   6.584   2.233   2.868
10444SOL     OW32230   3.014   5.042   3.154
10444SOL    HW132231   2.984   5.016   3.246
10444SOL    HW232232   3.113   5.051   3.153
10445SOL     OW32233   0.525   3.570   2.638
10445SOL    HW132234   0.535   3.610   2.547
10445SOL    HW232235   0.450   3.614   2.687
10446SOL     OW32236   1.689   4.466   6.093
10446SOL    HW132237   1.668   4.380   6.140
10446SOL    HW232238   1.767   4.454   6.033
10447SOL     OW32239   6.605   0.899   1.874
10447SOL    HW132240   6.662   0.870   1.950
10447SOL    HW232241   6.645   0.867   1.788
10448SOL     OW32242   3.465   0.705   3.205
10448SOL    HW132243   3.563   0.716   3.221
10448SOL    HW232244   3.431   0.630   3.262
10449SOL     OW32245   3.428   5.536   6.623
10449SOL    HW132246   3.518   5.541   6.580
10449SOL    HW232247   3.422   5.453   6.678
10450SOL     OW32248   6.704   0.781   6.185
10450SOL    HW132249   6.746   0.776   6.094
10450SOL    HW232250   6.647   0.701   6.200
10451SOL     OW32251   3.414   0.776   2.964
10451SOL    HW132252   3.420   0.749   3.060
10451SOL    HW232253   3.506   0.778   2.924
10452SOL     OW32254   7.010   2.478   2.673
10452SOL    HW132255   0.003   2.536   2.592
10452SOL    HW232256   6.930   2.509   2.725
10453SOL     OW32257   4.535   6.209   2.758
10453SOL    HW132258   4.487   6.290   2.791
10453SOL    HW232259   4.509   6.130   2.812
10454SOL     OW32260   6.184   1.053   0.353
10454SOL    HW132261   6.202   1.090   0.262
10454SOL    HW232262   6.086   1.043   0.367
10455SOL     OW32263   6.924   5.770   4.366
10455SOL    HW132264   6.931   5.823   4.451
10455SOL    HW232265   6.893   5.830   4.292
10456SOL     OW32266   0.396   5.502   0.210
10456SOL    HW132267   0.406   5.505   0.309
10456SOL    HW232268   0.446   5.579   0.169
10457SOL     OW32269   4.272   3.420   6.904
10457SOL    HW132270   4.207   3.495   6.898
10457SOL    HW232271   4.351   3.449   6.958
10458SOL     OW32272   6.580   0.538   6.436
10458SOL    HW132273   6.578   0.446   6.396
10458SOL    HW232274   6.616   0.533   6.530
10459SOL     OW32275   6.111   5.041   0.970
10459SOL    HW132276   6.103   4.999   0.880
10459SOL    HW232277   6.136   5.138   0.960
10460SOL     OW32278   0.180   3.615   1.840
10460SOL    HW132279   0.247   3.552   1.800
10460SOL    HW232280   0.123   3.653   1.768
10461SOL     OW32281   6.562   4.754   5.612
10461SOL    HW132282   6.554   4.769   5.710
10461SOL    HW232283   6.510   4.823   5.562
10462SOL     OW32284   4.792   2.027   2.545
10462SOL    HW132285   4.761   2.013   2.639
10462SOL    HW232286   4.738   2.100   2.503
10463SOL     OW32287   4.986   1.542   6.380
10463SOL    HW132288   5.053   1.556   6.307
10463SOL    HW232289   4.996   1.449   6.417
10464SOL     OW32290   5.627   5.538   2.078
10464SOL    HW132291   5.594   5.471   2.144
10464SOL    HW232292   5.550   5.593   2.045
10465SOL     OW32293   4.901   5.086   2.635
10465SOL    HW132294   4.946   4.997   2.643
10465SOL    HW232295   4.814   5.076   2.587
10466SOL     OW32296   4.508   4.113   6.526
10466SOL    HW132297   4.421   4.099   6.573
10466SOL    HW232298   4.499   4.084   6.431
10467SOL     OW32299   1.511   2.728   0.124
10467SOL    HW132300   1.460   2.811   0.146
10467SOL    HW232301   1.591   2.752   0.068
10468SOL     OW32302   3.845   4.961   3.403
10468SOL    HW132303   3.748   4.938   3.401
10468SOL    HW232304   3.865   5.019   3.482
10469SOL     OW32305   4.409   4.276   5.796
10469SOL    HW132306   4.369   4.185   5.801
10469SOL    HW232307   4.465   4.283   5.713
10470SOL     OW32308   2.483   1.693   3.192
10470SOL    HW132309   2.500   1.618   3.256
10470SOL    HW232310   2.569   1.721   3.149
10471SOL     OW32311   3.315   0.249   0.439
10471SOL    HW132312   3.261   0.251   0.355
10471SOL    HW232313   3.282   0.319   0.502
10472SOL     OW32314   2.711   5.593   1.286
10472SOL    HW132315   2.695   5.691   1.285
10472SOL    HW232316   2.626   5.545   1.305
10473SOL     OW32317   5.928   6.402   5.539
10473SOL    HW132318   5.897   6.378   5.631
10473SOL    HW232319   5.925   6.321   5.480
10474SOL     OW32320   4.672   1.477   3.596
10474SOL    HW132321   4.648   1.557   3.541
10474SOL    HW232322   4.746   1.500   3.658
10475SOL     OW32323   2.933   6.932   1.601
10475SOL    HW132324   2.927   6.942   1.700
10475SOL    HW232325   2.971   6.842   1.579
10476SOL     OW32326   4.691   6.393   6.306
10476SOL    HW132327   4.600   6.393   6.264
10476SOL    HW232328   4.698   6.467   6.372
10477SOL     OW32329   6.920   0.667   4.826
10477SOL    HW132330   6.828   0.694   4.796
10477SOL    HW232331   6.926   0.674   4.925
10478SOL     OW32332   6.861   6.471   7.002
10478SOL    HW132333   6.793   6.543   6.989
10478SOL    HW232334   6.894   6.473   0.079
10479SOL     OW32335   6.576   1.185   1.820
10479SOL    HW132336   6.515   1.211   1.745
10479SOL    HW232337   6.574   1.085   1.831
10480SOL     OW32338   1.394   0.718   2.004
10480SOL    HW132339   1.345   0.694   2.087
10480SOL    HW232340   1.364   0.808   1.972
10481SOL     OW32341   1.993   5.736   3.157
10481SOL    HW132342   2.076   5.768   3.204
10481SOL    HW232343   1.937   5.814   3.132
10482SOL     OW32344   6.269   5.322   4.691
10482SOL    HW132345   6.352   5.366   4.656
10482SOL    HW232346   6.191   5.351   4.636
10483SOL     OW32347   5.464   5.623   0.370
10483SOL    HW132348   5.394   5.687   0.340
10483SOL    HW232349   5.541   5.625   0.306
10484SOL     OW32350   4.516   1.796   1.609
10484SOL    HW132351   4.493   1.741   1.689
10484SOL    HW232352   4.452   1.873   1.602
10485SOL     OW32353   3.106   4.813   0.288
10485SOL    HW132354   3.102   4.749   0.365
10485SOL    HW232355   3.144   4.766   0.208
10486SOL     OW32356   6.789   1.048   0.315
10486SOL    HW132357   6.838   1.022   0.231
10486SOL    HW232358   6.709   0.990   0.327
10487SOL     OW32359   4.950   6.621   2.303
10487SOL    HW132360   4.993   6.652   2.389
10487SOL    HW232361   4.870   6.678   2.284
10488SOL     OW32362   3.125   1.941   6.100
10488SOL    HW132363   3.070   1.920   6.019
10488SOL    HW232364   3.143   2.039   6.103
10489SOL     OW32365   0.241   6.727   4.849
10489SOL    HW132366   0.199   6.650   4.898
10489SOL    HW232367   0.307   6.772   4.910
10490SOL     OW32368   6.205   1.426   2.028
10490SOL    HW132369   6.300   1.434   1.998
10490SOL    HW232370   6.173   1.332   2.013
10491SOL     OW32371   1.356   3.229   0.115
10491SOL    HW132372   1.448   3.258   0.088
10491SOL    HW232373   1.359   3.137   0.152
10492SOL     OW32374   5.622   4.220   6.264
10492SOL    HW132375   5.674   4.139   6.238
10492SOL    HW232376   5.536   4.222   6.213
10493SOL     OW32377   3.535   1.116   1.462
10493SOL    HW132378   3.479   1.181   1.513
10493SOL    HW232379   3.580   1.163   1.386
10494SOL     OW32380   4.493   3.653   5.593
10494SOL    HW132381   4.532   3.745   5.584
10494SOL    HW232382   4.524   3.596   5.518
10495SOL     OW32383   2.072   6.473   0.465
10495SOL    HW132384   1.999   6.410   0.440
10495SOL    HW232385   2.149   6.421   0.503
10496SOL     OW32386   0.371   5.104   0.111
10496SOL    HW132387   0.461   5.143   0.093
10496SOL    HW232388   0.355   5.101   0.210
10497SOL     OW32389   2.452   7.005   2.346
10497SOL    HW132390   2.397   0.017   2.267
10497SOL    HW232391   2.448   0.058   2.417
10498SOL     OW32392   3.038   6.682   1.710
10498SOL    HW132393   3.038   6.701   1.809
10498SOL    HW232394   3.120   6.632   1.685
10499SOL     OW32395   3.380   6.832   2.378
10499SOL    HW132396   3.290   6.839   2.336
10499SOL    HW232397   3.406   6.736   2.387
10500SOL     OW32398   0.351   0.388   6.927
10500SOL    HW132399   0.281   0.318   6.944
10500SOL    HW232400   0.363   0.444   7.010
10501SOL     OW32401   2.064   5.046   3.209
10501SOL    HW132402   2.004   5.111   3.255
10501SOL    HW232403   2.069   4.962   3.262
10502SOL     OW32404   3.032   0.731   0.781
10502SOL    HW132405   3.113   0.747   0.838
10502SOL    HW232406   2.951   0.726   0.839
10503SOL     OW32407   4.257   3.209   0.080
10503SOL    HW132408   4.190   3.137   0.064
10503SOL    HW232409   4.248   3.279   0.008
10504SOL     OW32410   1.982   1.821   0.456
10504SOL    HW132411   1.980   1.729   0.496
10504SOL    HW232412   2.044   1.821   0.377
10505SOL     OW32413   5.573   5.997   0.578
10505SOL    HW132414   5.599   5.961   0.667
10505SOL    HW232415   5.474   5.990   0.567
10506SOL     OW32416   6.897   5.189   6.593
10506SOL    HW132417   6.841   5.125   6.540
10506SOL    HW232418   6.840   5.265   6.623
10507SOL     OW32419   2.236   0.098   0.196
10507SOL    HW132420   2.248   0.033   0.271
10507SOL    HW232421   2.258   0.053   0.110
10508SOL     OW32422   6.034   6.176   4.554
10508SOL    HW132423   5.974   6.233   4.497
10508SOL    HW232424   6.128   6.210   4.549
10509SOL     OW32425   0.900   6.376   5.497
10509SOL    HW132426   0.870   6.471   5.502
10509SOL    HW232427   0.998   6.373   5.480
10510SOL     OW32428   4.901   5.793   5.792
10510SOL    HW132429   4.934   5.872   5.740
10510SOL    HW232430   4.898   5.816   5.890
10511SOL     OW32431   4.453   1.811   1.303
10511SOL    HW132432   4.494   1.793   1.392
10511SOL    HW232433   4.354   1.801   1.309
10512SOL     OW32434   4.156   0.400   5.704
10512SOL    HW132435   4.082   0.432   5.763
10512SOL    HW232436   4.220   0.346   5.759
10513SOL     OW32437   6.698   2.260   4.779
10513SOL    HW132438   6.602   2.231   4.784
10513SOL    HW232439   6.703   2.348   4.732
10514SOL     OW32440   0.067   3.622   0.163
10514SOL    HW132441   0.115   3.666   0.239
10514SOL    HW232442   0.030   3.534   0.193
10515SOL     OW32443   6.865   2.855   3.139
10515SOL    HW132444   6.775   2.836   3.098
10515SOL    HW232445   6.856   2.857   3.238
10516SOL     OW32446   4.307   0.891   6.987
10516SOL    HW132447   4.402   0.906   7.014
10516SOL    HW232448   4.299   0.894   6.887
10517SOL     OW32449   7.011   2.076   3.006
10517SOL    HW132450   0.021   2.023   2.926
10517SOL    HW232451   0.067   2.140   3.030
10518SOL     OW32452   1.005   4.707   6.138
10518SOL    HW132453   1.065   4.649   6.084
10518SOL    HW232454   1.059   4.760   6.203
10519SOL     OW32455   2.424   2.807   6.242
10519SOL    HW132456   2.390   2.847   6.157
10519SOL    HW232457   2.418   2.875   6.315
10520SOL     OW32458   1.401   2.341   6.310
10520SOL    HW132459   1.356   2.351   6.222
10520SOL    HW232460   1.418   2.244   6.328
10521SOL     OW32461   5.700   5.656   1.820
10521SOL    HW132462   5.731   5.677   1.912
10521SOL    HW232463   5.660   5.565   1.818
10522SOL     OW32464   6.025   0.415   6.959
10522SOL    HW132465   6.046   0.347   0.012
10522SOL    HW232466   5.950   0.381   6.902
10523SOL     OW32467   0.450   5.298   4.748
10523SOL    HW132468   0.367   5.275   4.698
10523SOL    HW232469   0.434   5.379   4.804
10524SOL     OW32470   2.020   0.731   5.082
10524SOL    HW132471   1.922   0.737   5.065
10524SOL    HW232472   2.038   0.742   5.180
10525SOL     OW32473   3.111   6.971   6.150
10525SOL    HW132474   3.137   6.963   6.246
10525SOL    HW232475   3.057   6.891   6.123
10526SOL     OW32476   0.467   6.960   2.702
10526SOL    HW132477   0.506   6.999   2.785
10526SOL    HW232478   0.435   0.016   2.642
10527SOL     OW32479   6.391   2.440   4.934
10527SOL    HW132480   6.404   2.341   4.940
10527SOL    HW232481   6.294   2.461   4.934
10528SOL     OW32482   1.088   3.175   5.657
10528SOL    HW132483   1.179   3.133   5.647
10528SOL    HW232484   1.062   3.218   5.570
10529SOL     OW32485   2.314   6.275   3.490
10529SOL    HW132486   2.255   6.329   3.551
10529SOL    HW232487   2.344   6.333   3.414
10530SOL     OW32488   2.130   0.957   6.353
10530SOL    HW132489   2.053   0.903   6.320
10530SOL    HW232490   2.107   0.997   6.441
10531SOL     OW32491   1.025   2.709   4.112
10531SOL    HW132492   1.073   2.663   4.187
10531SOL    HW232493   1.092   2.740   4.045
10532SOL     OW32494   2.008   4.330   6.752
10532SOL    HW132495   2.065   4.251   6.775
10532SOL    HW232496   1.912   4.308   6.765
10533SOL     OW32497   2.860   1.497   4.606
10533SOL    HW132498   2.802   1.425   4.567
10533SOL    HW232499   2.804   1.554   4.667
10534SOL     OW32500   5.757   5.517   1.602
10534SOL    HW132501   5.755   5.563   1.513
10534SOL    HW232502   5.788   5.581   1.672
10535SOL     OW32503   0.848   1.696   0.825
10535SOL    HW132504   0.756   1.677   0.860
10535SOL    HW232505   0.842   1.736   0.734
10536SOL     OW32506   4.060   0.835   3.077
10536SOL    HW132507   3.992   0.900   3.044
10536SOL    HW232508   4.066   0.757   3.015
10537SOL     OW32509   3.463   5.220   4.311
10537SOL    HW132510   3.485   5.126   4.338
10537SOL    HW232511   3.494   5.283   4.381
10538SOL     OW32512   4.675   2.675   0.175
10538SOL    HW132513   4.648   2.767   0.146
10538SOL    HW232514   4.759   2.648   0.128
10539SOL     OW32515   0.772   4.113   6.460
10539SOL    HW132516   0.677   4.094   6.435
10539SOL    HW232517   0.820   4.027   6.478
10540SOL     OW32518   1.395   2.209   5.105
10540SOL    HW132519   1.330   2.135   5.123
10540SOL    HW232520   1.445   2.190   5.020
10541SOL     OW32521   3.832   3.691   1.803
10541SOL    HW132522   3.822   3.593   1.822
10541SOL    HW232523   3.745   3.737   1.820
10542SOL     OW32524   6.457   1.952   6.347
10542SOL    HW132525   6.525   1.978   6.415
10542SOL    HW232526   6.366   1.969   6.382
10543SOL     OW32527   6.615   1.144   5.124
10543SOL    HW132528   6.656   1.194   5.200
10543SOL    HW232529   6.531   1.100   5.154
10544SOL     OW32530   1.515   6.977   2.700
10544SOL    HW132531   1.440   6.982   2.634
10544SOL    HW232532   1.496   0.022   2.776
10545SOL     OW32533   5.926   1.172   2.841
10545SOL    HW132534   5.907   1.131   2.931
10545SOL    HW232535   5.847   1.160   2.781
10546SOL     OW32536   0.572   0.858   6.523
10546SOL    HW132537   0.527   0.875   6.435
10546SOL    HW232538   0.638   0.783   6.513
10547SOL     OW32539   4.915   2.131   2.090
10547SOL    HW132540   4.839   2.140   2.026
10547SOL    HW232541   4.901   2.051   2.148
10548SOL     OW32542   5.009   4.423   5.072
10548SOL    HW132543   5.011   4.330   5.037
10548SOL    HW232544   4.958   4.426   5.158
10549SOL     OW32545   6.195   6.836   2.284
10549SOL    HW132546   6.284   6.830   2.238
10549SOL    HW232547   6.123   6.849   2.217
10550SOL     OW32548   4.278   6.424   4.700
10550SOL    HW132549   4.377   6.435   4.693
10550SOL    HW232550   4.258   6.343   4.756
10551SOL     OW32551   1.883   2.610   5.895
10551SOL    HW132552   1.828   2.682   5.853
10551SOL    HW232553   1.972   2.604   5.849
10552SOL     OW32554   3.982   1.963   5.952
10552SOL    HW132555   4.072   1.968   5.910
10552SOL    HW232556   3.912   1.951   5.880
10553SOL     OW32557   1.073   5.057   1.456
10553SOL    HW132558   1.122   4.981   1.498
10553SOL    HW232559   1.054   5.126   1.525
10554SOL     OW32560   4.744   5.157   0.053
10554SOL    HW132561   4.758   5.059   0.067
10554SOL    HW232562   4.823   5.196   0.007
10555SOL     OW32563   2.263   3.105   0.913
10555SOL    HW132564   2.330   3.080   0.983
10555SOL    HW232565   2.303   3.089   0.822
10556SOL     OW32566   2.222   2.458   5.092
10556SOL    HW132567   2.149   2.390   5.098
10556SOL    HW232568   2.188   2.539   5.043
10557SOL     OW32569   1.851   2.295   2.824
10557SOL    HW132570   1.905   2.373   2.791
10557SOL    HW232571   1.814   2.316   2.914
10558SOL     OW32572   4.184   0.581   3.994
10558SOL    HW132573   4.155   0.570   3.899
10558SOL    HW232574   4.186   0.492   4.039
10559SOL     OW32575   4.440   0.693   1.082
10559SOL    HW132576   4.405   0.629   1.013
10559SOL    HW232577   4.476   0.641   1.159
10560SOL     OW32578   2.755   6.867   3.611
10560SOL    HW132579   2.755   6.967   3.609
10560SOL    HW232580   2.836   6.833   3.563
10561SOL     OW32581   2.874   4.463   0.839
10561SOL    HW132582   2.861   4.406   0.920
10561SOL    HW232583   2.855   4.558   0.862
10562SOL     OW32584   5.265   6.267   0.571
10562SOL    HW132585   5.334   6.315   0.517
10562SOL    HW232586   5.302   6.243   0.660
10563SOL     OW32587   0.841   0.543   4.093
10563SOL    HW132588   0.828   0.545   3.994
10563SOL    HW232589   0.826   0.449   4.126
10564SOL     OW32590   5.948   6.270   2.456
10564SOL    HW132591   5.975   6.198   2.520
10564SOL    HW232592   6.019   6.282   2.387
10565SOL     OW32593   0.056   0.919   5.961
10565SOL    HW132594   7.007   0.984   5.999
10565SOL    HW232595   0.111   0.964   5.891
10566SOL     OW32596   4.197   2.705   6.894
10566SOL    HW132597   4.237   2.647   6.823
10566SOL    HW232598   4.106   2.734   6.867
10567SOL     OW32599   2.348   2.000   4.439
10567SOL    HW132600   2.328   1.991   4.342
10567SOL    HW232601   2.435   1.955   4.460
10568SOL     OW32602   5.923   1.846   1.474
10568SOL    HW132603   5.864   1.831   1.554
10568SOL    HW232604   6.000   1.904   1.501
10569SOL     OW32605   6.157   2.274   1.458
10569SOL    HW132606   6.108   2.351   1.498
10569SOL    HW232607   6.203   2.303   1.374
10570SOL     OW32608   1.466   4.596   3.580
10570SOL    HW132609   1.461   4.506   3.623
10570SOL    HW232610   1.499   4.663   3.646
10571SOL     OW32611   6.953   4.423   4.652
10571SOL    HW132612   6.869   4.473   4.676
10571SOL    HW232613   6.999   4.471   4.578
10572SOL     OW32614   6.928   4.066   3.808
10572SOL    HW132615   6.990   4.034   3.736
10572SOL    HW232616   6.853   4.118   3.767
10573SOL     OW32617   4.719   6.912   4.749
10573SOL    HW132618   4.622   6.893   4.755
10573SOL    HW232619   4.748   6.909   4.654
10574SOL     OW32620   1.073   1.624   4.463
10574SOL    HW132621   1.151   1.644   4.522
10574SOL    HW232622   1.012   1.559   4.508
10575SOL     OW32623   0.170   1.090   2.838
10575SOL    HW132624   0.156   1.117   2.934
10575SOL    HW232625   0.141   1.164   2.778
10576SOL     OW32626   6.967   6.584   5.489
10576SOL    HW132627   0.033   6.533   5.466
10576SOL    HW232628   6.947   6.650   5.417
10577SOL     OW32629   1.766   2.318   6.896
10577SOL    HW132630   1.812   2.376   6.963
10577SOL    HW232631   1.831   2.293   6.824
10578SOL     OW32632   6.379   0.490   3.158
10578SOL    HW132633   6.433   0.417   3.200
10578SOL    HW232634   6.288   0.492   3.198
10579SOL     OW32635   3.680   1.707   0.383
10579SOL    HW132636   3.773   1.709   0.419
10579SOL    HW232637   3.623   1.649   0.442
10580SOL     OW32638   6.867   0.294   0.375
10580SOL    HW132639   6.907   0.252   0.294
10580SOL    HW232640   6.863   0.393   0.364
10581SOL     OW32641   6.615   6.746   3.209
10581SOL    HW132642   6.523   6.737   3.170
10581SOL    HW232643   6.660   6.827   3.170
10582SOL     OW32644   4.401   4.816   6.642
10582SOL    HW132645   4.412   4.722   6.672
10582SOL    HW232646   4.347   4.867   6.709
10583SOL     OW32647   3.690   1.006   5.436
10583SOL    HW132648   3.756   1.007   5.361
10583SOL    HW232649   3.602   1.040   5.404
10584SOL     OW32650   6.340   6.483   1.541
10584SOL    HW132651   6.318   6.579   1.562
10584SOL    HW232652   6.419   6.455   1.595
10585SOL     OW32653   2.066   3.001   5.297
10585SOL    HW132654   2.154   2.970   5.333
10585SOL    HW232655   1.992   2.956   5.345
10586SOL     OW32656   0.705   5.476   4.974
10586SOL    HW132657   0.688   5.507   5.068
10586SOL    HW232658   0.770   5.401   4.975
10587SOL     OW32659   6.252   3.955   0.592
10587SOL    HW132660   6.175   3.915   0.643
10587SOL    HW232661   6.271   3.899   0.511
10588SOL     OW32662   0.277   3.803   2.256
10588SOL    HW132663   0.245   3.893   2.285
10588SOL    HW232664   0.293   3.803   2.157
10589SOL     OW32665   5.992   1.377   4.850
10589SOL    HW132666   6.063   1.343   4.788
10589SOL    HW232667   5.958   1.465   4.816
10590SOL     OW32668   1.405   0.231   1.646
10590SOL    HW132669   1.328   0.290   1.669
10590SOL    HW232670   1.434   0.179   1.726
10591SOL     OW32671   1.256   1.260   6.342
10591SOL    HW132672   1.190   1.190   6.313
10591SOL    HW232673   1.230   1.294   6.433
10592SOL     OW32674   6.403   2.784   0.623
10592SOL    HW132675   6.316   2.780   0.574
10592SOL    HW232676   6.476   2.809   0.559
10593SOL     OW32677   2.577   5.238   0.777
10593SOL    HW132678   2.559   5.246   0.679
10593SOL    HW232679   2.670   5.206   0.792
10594SOL     OW32680   5.244   0.935   2.336
10594SOL    HW132681   5.310   0.978   2.397
10594SOL    HW232682   5.160   0.916   2.387
10595SOL     OW32683   3.570   0.353   5.878
10595SOL    HW132684   3.569   0.362   5.779
10595SOL    HW232685   3.536   0.438   5.920
10596SOL     OW32686   4.964   0.033   0.413
10596SOL    HW132687   4.981   0.038   0.314
10596SOL    HW232688   4.947   0.125   0.448
10597SOL     OW32689   3.420   1.043   5.080
10597SOL    HW132690   3.459   0.973   5.020
10597SOL    HW232691   3.356   1.100   5.029
10598SOL     OW32692   2.444   2.630   6.679
10598SOL    HW132693   2.498   2.546   6.684
10598SOL    HW232694   2.350   2.607   6.654
10599SOL     OW32695   4.903   2.463   6.811
10599SOL    HW132696   4.837   2.389   6.792
10599SOL    HW232697   4.898   2.531   6.738
10600SOL     OW32698   1.875   2.894   0.226
10600SOL    HW132699   1.905   2.811   0.181
10600SOL    HW232700   1.818   2.871   0.305
10601SOL     OW32701   1.702   4.666   6.541
10601SOL    HW132702   1.637   4.721   6.594
10601SOL    HW232703   1.783   4.648   6.596
10602SOL     OW32704   5.325   1.691   2.876
10602SOL    HW132705   5.362   1.781   2.854
10602SOL    HW232706   5.311   1.684   2.975
10603SOL     OW32707   2.242   5.976   3.945
10603SOL    HW132708   2.319   6.039   3.933
10603SOL    HW232709   2.273   5.895   3.994
10604SOL     OW32710   5.831   3.840   5.278
10604SOL    HW132711   5.793   3.754   5.314
10604SOL    HW232712   5.900   3.875   5.341
10605SOL     OW32713   1.579   5.110   0.951
10605SOL    HW132714   1.481   5.119   0.972
10605SOL    HW232715   1.616   5.030   0.998
10606SOL     OW32716   6.243   6.924   2.515
10606SOL    HW132717   6.231   6.910   2.416
10606SOL    HW232718   6.314   6.864   2.549
10607SOL     OW32719   4.058   3.992   5.880
10607SOL    HW132720   4.080   3.934   5.959
10607SOL    HW232721   4.062   4.088   5.907
10608SOL     OW32722   5.529   2.055   5.528
10608SOL    HW132723   5.586   2.062   5.610
10608SOL    HW232724   5.540   1.963   5.489
10609SOL     OW32725   3.517   6.658   1.905
10609SOL    HW132726   3.466   6.619   1.982
10609SOL    HW232727   3.538   6.754   1.924
10610SOL     OW32728   0.387   3.555   5.924
10610SOL    HW132729   0.317   3.511   5.868
10610SOL    HW232730   0.405   3.647   5.889
10611SOL     OW32731   4.094   3.868   5.431
10611SOL    HW132732   4.175   3.925   5.444
10611SOL    HW232733   4.038   3.904   5.356
10612SOL     OW32734   2.529   7.005   5.858
10612SOL    HW132735   2.497   0.070   5.811
10612SOL    HW232736   2.629   7.004   5.859
10613SOL     OW32737   0.000   0.509   5.201
10613SOL    HW132738   6.918   0.513   5.211
10613SOL    HW232739   0.035   0.601   5.183
10614SOL     OW32740   6.657   1.992   4.683
10614SOL    HW132741   6.688   2.086   4.695
10614SOL    HW232742   6.661   1.943   4.770
10615SOL     OW32743   2.993   6.150   5.861
10615SOL    HW132744   2.953   6.212   5.794
10615SOL    HW232745   3.001   6.058   5.821
10616SOL     OW32746   2.864   6.433   0.829
10616SOL    HW132747   2.835   6.364   0.763
10616SOL    HW232748   2.790   6.448   0.895
10617SOL     OW32749   2.318   2.626   0.686
10617SOL    HW132750   2.274   2.705   0.727
10617SOL    HW232751   2.289   2.617   0.590
10618SOL     OW32752   6.022   3.662   6.861
10618SOL    HW132753   6.026   3.574   6.909
10618SOL    HW232754   6.049   3.735   6.924
10619SOL     OW32755   0.297   3.795   1.664
10619SOL    HW132756   0.342   3.707   1.646
10619SOL    HW232757   0.214   3.802   1.609
10620SOL     OW32758   1.042   5.363   5.741
10620SOL    HW132759   0.971   5.359   5.671
10620SOL    HW232760   1.118   5.419   5.708
10621SOL     OW32761   1.375   6.491   1.379
10621SOL    HW132762   1.327   6.550   1.444
10621SOL    HW232763   1.406   6.545   1.301
10622SOL     OW32764   5.306   0.970   1.068
10622SOL    HW132765   5.400   0.937   1.060
10622SOL    HW232766   5.282   1.022   0.986
10623SOL     OW32767   6.764   4.984   4.152
10623SOL    HW132768   6.807   4.969   4.063
10623SOL    HW232769   6.735   4.896   4.190
10624SOL     OW32770   0.385   1.292   4.726
10624SOL    HW132771   0.424   1.266   4.815
10624SOL    HW232772   0.390   1.214   4.663
10625SOL     OW32773   0.542   4.831   0.053
10625SOL    HW132774   0.452   4.871   0.033
10625SOL    HW232775   0.605   4.904   0.079
10626SOL     OW32776   0.896   3.188   1.086
10626SOL    HW132777   0.940   3.135   1.013
10626SOL    HW232778   0.957   3.260   1.116
10627SOL     OW32779   5.303   5.794   1.254
10627SOL    HW132780   5.397   5.791   1.287
10627SOL    HW232781   5.300   5.769   1.157
10628SOL     OW32782   5.275   5.388   6.161
10628SOL    HW132783   5.180   5.400   6.133
10628SOL    HW232784   5.333   5.378   6.080
10629SOL     OW32785   2.431   4.677   4.745
10629SOL    HW132786   2.510   4.738   4.734
10629SOL    HW232787   2.347   4.727   4.725
10630SOL     OW32788   6.530   1.361   3.617
10630SOL    HW132789   6.502   1.427   3.687
10630SOL    HW232790   6.576   1.408   3.542
10631SOL     OW32791   1.512   4.626   5.267
10631SOL    HW132792   1.548   4.606   5.176
10631SOL    HW232793   1.529   4.722   5.289
10632SOL     OW32794   5.569   1.707   4.078
10632SOL    HW132795   5.520   1.774   4.023
10632SOL    HW232796   5.545   1.719   4.174
10633SOL     OW32797   2.323   3.605   1.307
10633SOL    HW132798   2.322   3.561   1.396
10633SOL    HW232799   2.275   3.548   1.240
10634SOL     OW32800   3.161   5.301   1.451
10634SOL    HW132801   3.103   5.382   1.447
10634SOL    HW232802   3.166   5.258   1.361
10635SOL     OW32803   3.451   1.581   1.061
10635SOL    HW132804   3.355   1.609   1.061
10635SOL    HW232805   3.502   1.637   1.127
10636SOL     OW32806   1.114   2.142   1.533
10636SOL    HW132807   1.134   2.197   1.452
10636SOL    HW232808   1.199   2.102   1.568
10637SOL     OW32809   3.414   5.027   5.349
10637SOL    HW132810   3.471   5.022   5.266
10637SOL    HW232811   3.366   4.940   5.360
10638SOL     OW32812   0.243   5.829   3.083
10638SOL    HW132813   0.147   5.814   3.063
10638SOL    HW232814   0.259   5.926   3.098
10639SOL     OW32815   0.183   2.599   3.128
10639SOL    HW132816   0.211   2.554   3.043
10639SOL    HW232817   0.133   2.683   3.106
10640SOL     OW32818   4.118   0.291   6.256
10640SOL    HW132819   4.025   0.293   6.219
10640SOL    HW232820   4.148   0.384   6.276
10641SOL     OW32821   3.521   2.164   0.183
10641SOL    HW132822   3.581   2.087   0.161
10641SOL    HW232823   3.509   2.221   0.102
10642SOL     OW32824   0.318   2.640   1.799
10642SOL    HW132825   0.343   2.656   1.703
10642SOL    HW232826   0.336   2.545   1.823
10643SOL     OW32827   1.897   4.693   5.486
10643SOL    HW132828   1.970   4.747   5.444
10643SOL    HW232829   1.907   4.695   5.586
10644SOL     OW32830   5.854   1.857   3.202
10644SOL    HW132831   5.819   1.857   3.296
10644SOL    HW232832   5.783   1.824   3.140
10645SOL     OW32833   0.479   0.822   4.567
10645SOL    HW132834   0.569   0.827   4.523
10645SOL    HW232835   0.445   0.728   4.563
10646SOL     OW32836   0.625   1.583   5.585
10646SOL    HW132837   0.686   1.582   5.664
10646SOL    HW232838   0.645   1.505   5.526
10647SOL     OW32839   4.200   5.614   6.889
10647SOL    HW132840   4.263   5.661   6.828
10647SOL    HW232841   4.229   5.519   6.901
10648SOL     OW32842   4.679   3.559   6.663
10648SOL    HW132843   4.609   3.625   6.638
10648SOL    HW232844   4.703   3.503   6.584
10649SOL     OW32845   0.278   4.254   3.052
10649SOL    HW132846   0.228   4.259   3.138
10649SOL    HW232847   0.255   4.332   2.995
10650SOL     OW32848   1.400   6.258   3.296
10650SOL    HW132849   1.474   6.249   3.363
10650SOL    HW232850   1.379   6.355   3.281
10651SOL     OW32851   5.036   6.837   5.963
10651SOL    HW132852   5.022   6.739   5.973
10651SOL    HW232853   4.957   6.878   5.917
10652SOL     OW32854   3.541   0.041   6.346
10652SOL    HW132855   3.577   0.122   6.391
10652SOL    HW232856   3.441   0.042   6.349
10653SOL     OW32857   5.434   4.451   4.455
10653SOL    HW132858   5.360   4.393   4.421
10653SOL    HW232859   5.458   4.423   4.548
10654SOL     OW32860   4.327   1.180   0.656
10654SOL    HW132861   4.391   1.121   0.704
10654SOL    HW232862   4.302   1.138   0.569
10655SOL     OW32863   2.998   5.527   1.456
10655SOL    HW132864   2.904   5.512   1.424
10655SOL    HW232865   3.002   5.512   1.555
10656SOL     OW32866   6.040   2.265   0.510
10656SOL    HW132867   5.979   2.227   0.441
10656SOL    HW232868   6.068   2.357   0.483
10657SOL     OW32869   6.237   6.549   7.002
10657SOL    HW132870   6.313   6.487   0.005
10657SOL    HW232871   6.234   6.567   6.904
10658SOL     OW32872   6.381   3.854   4.489
10658SOL    HW132873   6.378   3.832   4.587
10658SOL    HW232874   6.288   3.874   4.457
10659SOL     OW32875   6.291   6.338   0.748
10659SOL    HW132876   6.266   6.285   0.829
10659SOL    HW232877   6.332   6.425   0.777
10660SOL     OW32878   5.344   4.625   6.725
10660SOL    HW132879   5.350   4.537   6.771
10660SOL    HW232880   5.313   4.612   6.631
10661SOL     OW32881   0.539   6.609   2.118
10661SOL    HW132882   0.526   6.669   2.039
10661SOL    HW232883   0.617   6.548   2.101
10662SOL     OW32884   5.793   0.730   1.985
10662SOL    HW132885   5.762   0.659   2.047
10662SOL    HW232886   5.893   0.738   1.991
10663SOL     OW32887   0.441   6.638   1.369
10663SOL    HW132888   0.467   6.630   1.273
10663SOL    HW232889   0.467   6.555   1.419
10664SOL     OW32890   1.931   4.136   5.811
10664SOL    HW132891   1.975   4.062   5.861
10664SOL    HW232892   1.837   4.110   5.788
10665SOL     OW32893   0.620   0.428   0.498
10665SOL    HW132894   0.632   0.473   0.410
10665SOL    HW232895   0.676   0.344   0.501
10666SOL     OW32896   3.714   4.675   0.253
10666SOL    HW132897   3.746   4.671   0.348
10666SOL    HW232898   3.701   4.582   0.218
10667SOL     OW32899   3.504   2.513   5.455
10667SOL    HW132900   3.531   2.424   5.419
10667SOL    HW232901   3.529   2.520   5.551
10668SOL     OW32902   1.142   1.302   5.054
10668SOL    HW132903   1.241   1.288   5.063
10668SOL    HW232904   1.100   1.219   5.020
10669SOL     OW32905   6.199   6.702   0.740
10669SOL    HW132906   6.109   6.721   0.701
10669SOL    HW232907   6.269   6.745   0.683
10670SOL     OW32908   5.054   4.252   5.701
10670SOL    HW132909   4.971   4.218   5.746
10670SOL    HW232910   5.055   4.351   5.705
10671SOL     OW32911   2.258   2.666   2.457
10671SOL    HW132912   2.334   2.601   2.463
10671SOL    HW232913   2.251   2.700   2.363
10672SOL     OW32914   0.102   2.751   0.517
10672SOL    HW132915   0.126   2.818   0.587
10672SOL    HW232916   0.032   2.689   0.554
10673SOL     OW32917   1.714   2.312   6.212
10673SOL    HW132918   1.647   2.241   6.189
10673SOL    HW232919   1.751   2.294   6.303
10674SOL     OW32920   3.712   3.156   0.590
10674SOL    HW132921   3.660   3.123   0.669
10674SOL    HW232922   3.667   3.126   0.505
10675SOL     OW32923   1.930   0.821   6.217
10675SOL    HW132924   1.888   0.889   6.157
10675SOL    HW232925   1.965   0.745   6.163
10676SOL     OW32926   6.409   0.015   6.440
10676SOL    HW132927   6.385   6.948   6.391
10676SOL    HW232928   6.488   0.057   6.396
10677SOL     OW32929   0.456   0.272   2.214
10677SOL    HW132930   0.392   0.195   2.205
10677SOL    HW232931   0.448   0.332   2.136
10678SOL     OW32932   3.564   5.309   3.230
10678SOL    HW132933   3.474   5.351   3.231
10678SOL    HW232934   3.576   5.258   3.144
10679SOL     OW32935   5.097   4.625   6.035
10679SOL    HW132936   5.116   4.625   6.133
10679SOL    HW232937   5.072   4.533   6.006
10680SOL     OW32938   2.195   2.257   4.087
10680SOL    HW132939   2.167   2.242   4.182
10680SOL    HW232940   2.173   2.351   4.060
10681SOL     OW32941   0.013   3.896   6.422
10681SOL    HW132942   0.034   3.884   6.325
10681SOL    HW232943   6.988   3.986   6.436
10682SOL     OW32944   1.638   1.996   3.062
10682SOL    HW132945   1.606   1.974   2.970
10682SOL    HW232946   1.725   1.950   3.080
10683SOL     OW32947   2.964   1.774   3.625
10683SOL    HW132948   2.877   1.818   3.645
10683SOL    HW232949   2.978   1.771   3.526
10684SOL     OW32950   4.394   3.762   0.335
10684SOL    HW132951   4.334   3.699   0.286
10684SOL    HW232952   4.475   3.713   0.366
10685SOL     OW32953   6.988   4.221   2.124
10685SOL    HW132954   0.011   4.138   2.085
10685SOL    HW232955   6.900   4.198   2.166
10686SOL     OW32956   4.328   5.726   6.427
10686SOL    HW132957   4.320   5.807   6.369
10686SOL    HW232958   4.255   5.727   6.495
10687SOL     OW32959   0.073   4.891   2.063
10687SOL    HW132960   0.098   4.805   2.021
10687SOL    HW232961   0.127   4.966   2.024
10688SOL     OW32962   5.896   4.292   2.597
10688SOL    HW132963   5.912   4.202   2.640
10688SOL    HW232964   5.799   4.312   2.596
10689SOL     OW32965   0.568   0.340   2.990
10689SOL    HW132966   0.520   0.282   3.056
10689SOL    HW232967   0.572   0.433   3.025
10690SOL     OW32968   6.018   5.334   3.703
10690SOL    HW132969   5.974   5.421   3.720
10690SOL    HW232970   6.090   5.319   3.770
10691SOL     OW32971   0.059   1.796   2.124
10691SOL    HW132972   0.106   1.838   2.202
10691SOL    HW232973   0.116   1.806   2.042
10692SOL     OW32974   3.298   5.199   3.423
10692SOL    HW132975   3.300   5.139   3.343
10692SOL    HW232976   3.391   5.211   3.458
10693SOL     OW32977   1.709   0.807   1.781
10693SOL    HW132978   1.645   0.731   1.773
10693SOL    HW232979   1.730   0.843   1.690
10694SOL     OW32980   3.497   6.175   1.280
10694SOL    HW132981   3.472   6.175   1.183
10694SOL    HW232982   3.597   6.185   1.289
10695SOL     OW32983   6.340   2.081   4.180
10695SOL    HW132984   6.439   2.064   4.172
10695SOL    HW232985   6.305   2.111   4.091
10696SOL     OW32986   6.860   5.101   1.833
10696SOL    HW132987   6.887   5.021   1.778
10696SOL    HW232988   6.793   5.073   1.901
10697SOL     OW32989   0.301   6.256   3.956
10697SOL    HW132990   0.321   6.158   3.956
10697SOL    HW232991   0.375   6.305   3.910
10698SOL     OW32992   3.240   6.522   3.985
10698SOL    HW132993   3.161   6.575   4.016
10698SOL    HW232994   3.209   6.446   3.927
10699SOL     OW32995   4.814   1.764   2.861
10699SOL    HW132996   4.905   1.799   2.885
10699SOL    HW232997   4.781   1.704   2.934
10700SOL     OW32998   1.146   0.489   0.640
10700SOL    HW132999   1.241   0.478   0.610
10700SOL    HW233000   1.088   0.422   0.594
10701SOL     OW33001   4.257   6.303   0.127
10701SOL    HW133002   4.322   6.331   0.198
10701SOL    HW233003   4.241   6.380   0.064
10702SOL     OW33004   5.538   2.478   1.635
10702SOL    HW133005   5.518   2.575   1.633
10702SOL    HW233006   5.454   2.427   1.651
10703SOL     OW33007   3.520   2.989   3.707
10703SOL    HW133008   3.529   3.087   3.689
10703SOL    HW233009   3.478   2.945   3.628
10704SOL     OW33010   4.960   6.110   2.174
10704SOL    HW133011   4.965   6.145   2.081
10704SOL    HW233012   5.027   6.157   2.232
10705SOL     OW33013   0.960   3.662   0.098
10705SOL    HW133014   1.008   3.740   0.137
10705SOL    HW233015   0.981   3.580   0.150
10706SOL     OW33016   4.768   0.255   1.474
10706SOL    HW133017   4.791   0.275   1.379
10706SOL    HW233018   4.714   0.330   1.512
10707SOL     OW33019   0.227   6.741   5.349
10707SOL    HW133020   0.247   6.787   5.435
10707SOL    HW233021   0.194   6.808   5.282
10708SOL     OW33022   4.773   1.054   1.581
10708SOL    HW133023   4.811   1.128   1.636
10708SOL    HW233024   4.809   0.967   1.613
10709SOL     OW33025   6.373   0.815   5.363
10709SOL    HW133026   6.406   0.789   5.454
10709SOL    HW233027   6.362   0.914   5.358
10710SOL     OW33028   0.492   6.455   4.814
10710SOL    HW133029   0.417   6.389   4.818
10710SOL    HW233030   0.468   6.530   4.752
10711SOL     OW33031   1.912   0.218   3.942
10711SOL    HW133032   1.879   0.206   3.848
10711SOL    HW233033   1.981   0.148   3.962
10712SOL     OW33034   3.849   1.074   3.647
10712SOL    HW133035   3.825   1.049   3.741
10712SOL    HW233036   3.948   1.064   3.634
10713SOL     OW33037   1.867   5.485   1.729
10713SOL    HW133038   1.767   5.480   1.720
10713SOL    HW233039   1.892   5.562   1.787
10714SOL     OW33040   0.233   4.162   5.145
10714SOL    HW133041   0.206   4.207   5.060
10714SOL    HW233042   0.226   4.063   5.133
10715SOL     OW33043   5.220   6.943   2.933
10715SOL    HW133044   5.271   6.858   2.947
10715SOL    HW233045   5.280   0.004   2.949
10716SOL     OW33046   0.125   1.267   3.694
10716SOL    HW133047   0.173   1.352   3.674
10716SOL    HW233048   0.031   1.273   3.661
10717SOL     OW33049   0.213   1.420   1.170
10717SOL    HW133050   0.238   1.410   1.074
10717SOL    HW233051   0.133   1.479   1.178
10718SOL     OW33052   6.734   4.827   0.580
10718SOL    HW133053   6.663   4.889   0.614
10718SOL    HW233054   6.714   4.802   0.486
10719SOL     OW33055   5.102   6.428   2.176
10719SOL    HW133056   5.050   6.501   2.219
10719SOL    HW233057   5.200   6.444   2.188
10720SOL     OW33058   6.546   3.429   6.076
10720SOL    HW133059   6.637   3.437   6.035
10720SOL    HW233060   6.524   3.515   6.123
10721SOL     OW33061   5.996   2.163   4.025
10721SOL    HW133062   6.088   2.132   4.002
10721SOL    HW233063   5.936   2.151   3.945
10722SOL     OW33064   0.337   3.668   0.069
10722SOL    HW133065   0.237   3.665   0.061
10722SOL    HW233066   0.369   3.762   0.056
10723SOL     OW33067   5.481   3.810   6.784
10723SOL    HW133068   5.384   3.800   6.766
10723SOL    HW233069   5.508   3.747   6.858
10724SOL     OW33070   4.398   6.684   6.219
10724SOL    HW133071   4.416   6.739   6.138
10724SOL    HW233072   4.321   6.723   6.270
10725SOL     OW33073   6.812   5.220   4.587
10725SOL    HW133074   6.853   5.150   4.528
10725SOL    HW233075   6.717   5.234   4.560
10726SOL     OW33076   5.963   0.483   4.715
10726SOL    HW133077   5.949   0.582   4.711
10726SOL    HW233078   5.904   0.444   4.787
10727SOL     OW33079   1.139   5.067   5.189
10727SOL    HW133080   1.055   5.078   5.137
10727SOL    HW233081   1.166   4.971   5.190
10728SOL     OW33082   5.597   6.506   2.975
10728SOL    HW133083   5.619   6.505   3.072
10728SOL    HW233084   5.500   6.485   2.963
10729SOL     OW33085   6.317   2.084   2.385
10729SOL    HW133086   6.293   2.067   2.481
10729SOL    HW233087   6.385   2.016   2.356
10730SOL     OW33088   2.664   5.940   2.164
10730SOL    HW133089   2.705   6.031   2.159
10730SOL    HW233090   2.620   5.928   2.253
10731SOL     OW33091   2.488   5.942   0.910
10731SOL    HW133092   2.478   5.848   0.944
10731SOL    HW233093   2.583   5.971   0.923
10732SOL     OW33094   6.682   0.040   3.168
10732SOL    HW133095   6.771   0.025   3.211
10732SOL    HW233096   6.611   0.037   3.238
10733SOL     OW33097   6.086   2.023   6.803
10733SOL    HW133098   6.168   2.047   6.854
10733SOL    HW233099   6.070   2.091   6.731
10734SOL     OW33100   0.389   0.424   6.427
10734SOL    HW133101   0.355   0.515   6.401
10734SOL    HW233102   0.321   0.355   6.405
10735SOL     OW33103   0.777   4.931   2.244
10735SOL    HW133104   0.686   4.889   2.244
10735SOL    HW233105   0.770   5.027   2.272
10736SOL     OW33106   0.406   0.612   3.332
10736SOL    HW133107   0.362   0.702   3.346
10736SOL    HW233108   0.406   0.590   3.235
10737SOL     OW33109   0.624   1.898   0.817
10737SOL    HW133110   0.608   1.807   0.856
10737SOL    HW233111   0.713   1.933   0.846
10738SOL     OW33112   2.342   0.438   2.785
10738SOL    HW133113   2.319   0.353   2.833
10738SOL    HW233114   2.424   0.424   2.729
10739SOL     OW33115   6.422   2.033   1.831
10739SOL    HW133116   6.382   1.944   1.854
10739SOL    HW233117   6.516   2.037   1.864
10740SOL     OW33118   1.416   6.584   5.588
10740SOL    HW133119   1.471   6.543   5.514
10740SOL    HW233120   1.380   6.511   5.647
10741SOL     OW33121   2.119   1.936   3.484
10741SOL    HW133122   2.187   1.959   3.415
10741SOL    HW233123   2.126   2.002   3.560
10742SOL     OW33124   5.747   6.363   2.318
10742SOL    HW133125   5.826   6.324   2.366
10742SOL    HW233126   5.664   6.343   2.370
10743SOL     OW33127   3.776   1.531   4.869
10743SOL    HW133128   3.808   1.437   4.866
10743SOL    HW233129   3.841   1.590   4.821
10744SOL     OW33130   3.417   1.345   2.192
10744SOL    HW133131   3.353   1.270   2.211
10744SOL    HW233132   3.495   1.337   2.253
10745SOL     OW33133   2.300   4.854   0.841
10745SOL    HW133134   2.388   4.807   0.849
10745SOL    HW233135   2.246   4.810   0.769
10746SOL     OW33136   2.386   5.705   1.409
10746SOL    HW133137   2.348   5.680   1.498
10746SOL    HW233138   2.435   5.627   1.370
10747SOL     OW33139   5.565   1.739   3.267
10747SOL    HW133140   5.508   1.731   3.186
10747SOL    HW233141   5.554   1.831   3.307
10748SOL     OW33142   5.334   5.341   1.123
10748SOL    HW133143   5.392   5.417   1.152
10748SOL    HW233144   5.391   5.261   1.107
10749SOL     OW33145   6.580   4.632   3.013
10749SOL    HW133146   6.491   4.592   3.038
10749SOL    HW233147   6.645   4.559   2.995
10750SOL     OW33148   4.772   4.145   4.640
10750SOL    HW133149   4.700   4.201   4.598
10750SOL    HW233150   4.797   4.185   4.728
10751SOL     OW33151   1.316   2.842   5.123
10751SOL    HW133152   1.414   2.824   5.112
10751SOL    HW233153   1.303   2.939   5.144
10752SOL     OW33154   5.985   4.536   6.939
10752SOL    HW133155   5.932   4.466   6.891
10752SOL    HW233156   6.042   4.493   7.009
10753SOL     OW33157   5.051   0.247   4.052
10753SOL    HW133158   5.113   0.232   3.975
10753SOL    HW233159   4.996   0.329   4.034
10754SOL     OW33160   0.825   2.969   2.067
10754SOL    HW133161   0.917   2.964   2.028
10754SOL    HW233162   0.785   3.058   2.047
10755SOL     OW33163   0.128   1.795   0.772
10755SOL    HW133164   0.226   1.812   0.761
10755SOL    HW233165   0.092   1.758   0.686
10756SOL     OW33166   6.729   2.299   0.031
10756SOL    HW133167   6.767   2.304   0.124
10756SOL    HW233168   6.693   2.207   0.016
10757SOL     OW33169   0.242   4.190   0.486
10757SOL    HW133170   0.171   4.151   0.427
10757SOL    HW233171   0.202   4.262   0.543
10758SOL     OW33172   0.540   5.549   5.992
10758SOL    HW133173   0.470   5.525   5.924
10758SOL    HW233174   0.551   5.649   5.994
10759SOL     OW33175   1.748   3.562   5.907
10759SOL    HW133176   1.658   3.605   5.906
10759SOL    HW233177   1.738   3.464   5.927
10760SOL     OW33178   1.094   5.625   0.870
10760SOL    HW133179   1.110   5.702   0.933
10760SOL    HW233180   0.996   5.606   0.866
10761SOL     OW33181   1.134   2.736   6.284
10761SOL    HW133182   1.218   2.732   6.339
10761SOL    HW233183   1.084   2.650   6.293
10762SOL     OW33184   4.861   0.762   6.080
10762SOL    HW133185   4.916   0.702   6.022
10762SOL    HW233186   4.917   0.839   6.110
10763SOL     OW33187   5.014   0.257   1.615
10763SOL    HW133188   5.050   0.349   1.601
10763SOL    HW233189   4.926   0.248   1.569
10764SOL     OW33190   5.249   1.178   5.651
10764SOL    HW133191   5.319   1.111   5.677
10764SOL    HW233192   5.204   1.213   5.733
10765SOL     OW33193   5.470   1.482   2.351
10765SOL    HW133194   5.547   1.543   2.369
10765SOL    HW233195   5.498   1.387   2.366
10766SOL     OW33196   2.040   4.264   0.345
10766SOL    HW133197   1.946   4.250   0.314
10766SOL    HW233198   2.077   4.177   0.378
10767SOL     OW33199   1.957   6.319   0.844
10767SOL    HW133200   1.961   6.413   0.810
10767SOL    HW233201   2.006   6.259   0.781
10768SOL     OW33202   5.283   5.380   0.398
10768SOL    HW133203   5.313   5.288   0.424
10768SOL    HW233204   5.364   5.438   0.382
10769SOL     OW33205   2.876   4.397   5.305
10769SOL    HW133206   2.916   4.464   5.242
10769SOL    HW233207   2.783   4.426   5.329
10770SOL     OW33208   5.500   0.388   4.629
10770SOL    HW133209   5.555   0.329   4.687
10770SOL    HW233210   5.411   0.346   4.611
10771SOL     OW33211   4.350   0.355   5.247
10771SOL    HW133212   4.314   0.263   5.228
10771SOL    HW233213   4.283   0.407   5.300
10772SOL     OW33214   6.924   6.446   3.881
10772SOL    HW133215   6.953   6.434   3.785
10772SOL    HW233216   6.902   6.543   3.897
10773SOL     OW33217   6.980   4.221   6.823
10773SOL    HW133218   0.059   4.223   6.851
10773SOL    HW233219   6.958   4.306   6.775
10774SOL     OW33220   1.729   2.488   1.660
10774SOL    HW133221   1.787   2.523   1.734
10774SOL    HW233222   1.786   2.466   1.581
10775SOL     OW33223   2.012   4.519   1.680
10775SOL    HW133224   2.099   4.472   1.668
10775SOL    HW233225   2.025   4.602   1.734
10776SOL     OW33226   0.340   6.624   2.310
10776SOL    HW133227   0.411   6.618   2.240
10776SOL    HW233228   0.292   6.712   2.301
10777SOL     OW33229   4.083   0.558   3.426
10777SOL    HW133230   4.050   0.629   3.364
10777SOL    HW233231   4.170   0.521   3.392
10778SOL     OW33232   6.265   6.132   4.778
10778SOL    HW133233   6.181   6.122   4.831
10778SOL    HW233234   6.252   6.202   4.708
10779SOL     OW33235   6.474   4.444   2.584
10779SOL    HW133236   6.475   4.358   2.532
10779SOL    HW233237   6.554   4.498   2.562
10780SOL     OW33238   0.105   5.240   4.346
10780SOL    HW133239   0.153   5.244   4.434
10780SOL    HW233240   0.153   5.298   4.280
10781SOL     OW33241   5.157   0.689   4.395
10781SOL    HW133242   5.179   0.609   4.339
10781SOL    HW233243   5.217   0.692   4.474
10782SOL     OW33244   6.347   3.307   4.388
10782SOL    HW133245   6.437   3.296   4.431
10782SOL    HW233246   6.358   3.323   4.290
10783SOL     OW33247   2.172   3.040   2.393
10783SOL    HW133248   2.267   3.009   2.383
10783SOL    HW233249   2.123   3.025   2.307
10784SOL     OW33250   2.466   6.403   2.014
10784SOL    HW133251   2.561   6.374   2.005
10784SOL    HW233252   2.436   6.390   2.109
10785SOL     OW33253   1.577   5.467   1.322
10785SOL    HW133254   1.564   5.553   1.371
10785SOL    HW233255   1.591   5.393   1.387
10786SOL     OW33256   4.233   2.023   2.465
10786SOL    HW133257   4.325   1.989   2.448
10786SOL    HW233258   4.217   2.030   2.564
10787SOL     OW33259   3.178   1.265   4.151
10787SOL    HW133260   3.114   1.213   4.095
10787SOL    HW233261   3.268   1.265   4.107
10788SOL     OW33262   1.980   3.811   0.271
10788SOL    HW133263   1.881   3.793   0.266
10788SOL    HW233264   2.013   3.838   0.180
10789SOL     OW33265   6.457   1.221   0.446
10789SOL    HW133266   6.377   1.162   0.436
10789SOL    HW233267   6.494   1.211   0.539
10790SOL     OW33268   6.242   1.334   5.676
10790SOL    HW133269   6.292   1.297   5.597
10790SOL    HW233270   6.153   1.290   5.682
10791SOL     OW33271   1.843   1.858   1.806
10791SOL    HW133272   1.938   1.839   1.830
10791SOL    HW233273   1.796   1.772   1.786
10792SOL     OW33274   3.524   2.779   1.092
10792SOL    HW133275   3.623   2.786   1.079
10792SOL    HW233276   3.501   2.806   1.186
10793SOL     OW33277   5.186   2.073   4.442
10793SOL    HW133278   5.204   1.984   4.402
10793SOL    HW233279   5.156   2.137   4.371
10794SOL     OW33280   3.916   3.927   1.713
10794SOL    HW133281   3.905   3.842   1.764
10794SOL    HW233282   3.866   4.000   1.759
10795SOL     OW33283   6.455   3.832   2.408
10795SOL    HW133284   6.454   3.931   2.422
10795SOL    HW233285   6.436   3.786   2.495
10796SOL     OW33286   4.601   7.008   6.260
10796SOL    HW133287   4.553   0.054   6.320
10796SOL    HW233288   4.537   6.966   6.196
10797SOL     OW33289   3.737   2.622   6.656
10797SOL    HW133290   3.792   2.574   6.725
10797SOL    HW233291   3.694   2.556   6.596
10798SOL     OW33292   2.344   0.141   6.729
10798SOL    HW133293   2.437   0.151   6.695
10798SOL    HW233294   2.308   0.230   6.757
10799SOL     OW33295   3.677   1.950   2.574
10799SOL    HW133296   3.720   1.943   2.484
10799SOL    HW233297   3.601   1.886   2.579
10800SOL     OW33298   2.476   6.662   0.996
10800SOL    HW133299   2.403   6.728   0.980
10800SOL    HW233300   2.436   6.576   1.030
10801SOL     OW33301   1.891   6.236   5.506
10801SOL    HW133302   1.979   6.272   5.537
10801SOL    HW233303   1.904   6.143   5.471
10802SOL     OW33304   2.156   3.371   3.724
10802SOL    HW133305   2.176   3.417   3.637
10802SOL    HW233306   2.083   3.304   3.710
10803SOL     OW33307   5.439   4.705   5.583
10803SOL    HW133308   5.475   4.759   5.506
10803SOL    HW233309   5.358   4.751   5.621
10804SOL     OW33310   6.902   3.772   0.721
10804SOL    HW133311   6.958   3.813   0.793
10804SOL    HW233312   6.916   3.673   0.720
10805SOL     OW33313   3.506   6.622   6.996
10805SOL    HW133314   3.453   6.570   0.046
10805SOL    HW233315   3.590   6.656   0.020
10806SOL     OW33316   6.010   4.070   0.232
10806SOL    HW133317   5.989   3.978   0.263
10806SOL    HW233318   6.102   4.072   0.193
10807SOL     OW33319   3.225   6.681   3.421
10807SOL    HW133320   3.284   6.630   3.482
10807SOL    HW233321   3.219   6.633   3.333
10808SOL     OW33322   0.515   3.894   6.964
10808SOL    HW133323   0.544   3.981   6.923
10808SOL    HW233324   0.545   3.890   0.042
10809SOL     OW33325   2.732   1.009   4.474
10809SOL    HW133326   2.794   0.975   4.545
10809SOL    HW233327   2.786   1.052   4.401
10810SOL     OW33328   0.579   1.406   6.001
10810SOL    HW133329   0.532   1.406   5.913
10810SOL    HW233330   0.513   1.419   6.074
10811SOL     OW33331   3.965   5.381   5.754
10811SOL    HW133332   3.945   5.445   5.828
10811SOL    HW233333   3.949   5.288   5.786
10812SOL     OW33334   0.360   2.509   2.683
10812SOL    HW133335   0.454   2.539   2.701
10812SOL    HW233336   0.343   2.511   2.585
10813SOL     OW33337   3.064   6.113   1.522
10813SOL    HW133338   3.044   6.016   1.534
10813SOL    HW233339   3.025   6.144   1.435
10814SOL     OW33340   1.704   0.285   5.839
10814SOL    HW133341   1.628   0.303   5.901
10814SOL    HW233342   1.790   0.287   5.891
10815SOL     OW33343   4.794   4.703   2.965
10815SOL    HW133344   4.774   4.740   2.874
10815SOL    HW233345   4.873   4.642   2.960
10816SOL     OW33346   1.242   1.437   2.299
10816SOL    HW133347   1.181   1.484   2.362
10816SOL    HW233348   1.204   1.440   2.207
10817SOL     OW33349   5.376   6.721   2.973
10817SOL    HW133350   5.472   6.736   2.996
10817SOL    HW233351   5.369   6.651   2.902
10818SOL     OW33352   5.591   2.808   6.546
10818SOL    HW133353   5.497   2.827   6.520
10818SOL    HW233354   5.614   2.858   6.629
10819SOL     OW33355   0.861   3.873   6.541
10819SOL    HW133356   0.781   3.814   6.537
10819SOL    HW233357   0.944   3.817   6.543
10820SOL     OW33358   6.994   6.866   4.055
10820SOL    HW133359   7.014   6.772   4.084
10820SOL    HW233360   0.056   6.903   4.007
10821SOL     OW33361   0.083   6.048   2.029
10821SOL    HW133362   0.036   6.107   2.094
10821SOL    HW233363   0.016   5.995   1.976
10822SOL     OW33364   1.471   3.530   2.376
10822SOL    HW133365   1.543   3.475   2.418
10822SOL    HW233366   1.456   3.612   2.431
10823SOL     OW33367   2.203   6.110   1.442
10823SOL    HW133368   2.174   6.179   1.375
10823SOL    HW233369   2.144   6.115   1.522
10824SOL     OW33370   5.287   6.790   3.377
10824SOL    HW133371   5.284   6.837   3.465
10824SOL    HW233372   5.201   6.802   3.329
10825SOL     OW33373   2.186   1.378   1.132
10825SOL    HW133374   2.168   1.420   1.221
10825SOL    HW233375   2.131   1.422   1.062
10826SOL     OW33376   6.861   3.657   2.272
10826SOL    HW133377   6.841   3.573   2.222
10826SOL    HW233378   6.808   3.733   2.234
10827SOL     OW33379   6.277   3.592   3.989
10827SOL    HW133380   6.255   3.568   3.895
10827SOL    HW233381   6.374   3.619   3.995
10828SOL     OW33382   0.817   5.986   1.626
10828SOL    HW133383   0.759   6.007   1.705
10828SOL    HW233384   0.825   6.067   1.568
10829SOL     OW33385   2.235   3.234   1.239
10829SOL    HW133386   2.310   3.193   1.292
10829SOL    HW233387   2.184   3.297   1.297
10830SOL     OW33388   5.950   2.744   4.458
10830SOL    HW133389   6.025   2.690   4.419
10830SOL    HW233390   5.971   2.841   4.450
10831SOL     OW33391   5.149   0.262   1.865
10831SOL    HW133392   5.085   0.296   1.796
10831SOL    HW233393   5.164   0.164   1.850
10832SOL     OW33394   0.774   2.153   0.453
10832SOL    HW133395   0.849   2.164   0.518
10832SOL    HW233396   0.809   2.111   0.369
10833SOL     OW33397   2.079   0.294   3.707
10833SOL    HW133398   2.123   0.367   3.758
10833SOL    HW233399   1.980   0.308   3.706
10834SOL     OW33400   0.275   1.553   5.224
10834SOL    HW133401   0.189   1.541   5.174
10834SOL    HW233402   0.259   1.612   5.303
10835SOL     OW33403   6.649   1.802   1.720
10835SOL    HW133404   6.636   1.812   1.819
10835SOL    HW233405   6.746   1.807   1.698
10836SOL     OW33406   6.892   1.669   5.256
10836SOL    HW133407   6.806   1.712   5.286
10836SOL    HW233408   6.962   1.739   5.247
10837SOL     OW33409   6.894   4.518   0.153
10837SOL    HW133410   6.984   4.524   0.197
10837SOL    HW233411   6.863   4.422   0.155
10838SOL     OW33412   5.487   0.279   5.651
10838SOL    HW133413   5.507   0.357   5.709
10838SOL    HW233414   5.573   0.238   5.619
10839SOL     OW33415   2.906   2.145   6.940
10839SOL    HW133416   2.810   2.171   6.945
10839SOL    HW233417   2.915   2.048   6.963
10840SOL     OW33418   3.607   6.065   1.633
10840SOL    HW133419   3.695   6.067   1.682
10840SOL    HW233420   3.616   6.116   1.548
10841SOL     OW33421   3.817   6.140   5.737
10841SOL    HW133422   3.829   6.236   5.712
10841SOL    HW233423   3.754   6.133   5.815
10842SOL     OW33424   6.417   2.998   1.063
10842SOL    HW133425   6.382   3.002   1.157
10842SOL    HW233426   6.501   3.052   1.057
10843SOL     OW33427   0.869   1.965   1.996
10843SOL    HW133428   0.921   1.997   1.917
10843SOL    HW233429   0.795   1.905   1.966
10844SOL     OW33430   6.638   6.381   4.428
10844SOL    HW133431   6.708   6.328   4.382
10844SOL    HW233432   6.590   6.323   4.494
10845SOL     OW33433   1.285   1.223   1.562
10845SOL    HW133434   1.204   1.224   1.620
10845SOL    HW233435   1.286   1.139   1.508
10846SOL     OW33436   4.950   1.615   0.452
10846SOL    HW133437   4.997   1.538   0.409
10846SOL    HW233438   4.906   1.585   0.537
10847SOL     OW33439   2.651   1.672   6.017
10847SOL    HW133440   2.649   1.734   6.096
10847SOL    HW233441   2.655   1.577   6.049
10848SOL     OW33442   2.742   1.876   6.767
10848SOL    HW133443   2.840   1.870   6.787
10848SOL    HW233444   2.692   1.899   6.850
10849SOL     OW33445   3.641   4.910   3.705
10849SOL    HW133446   3.738   4.908   3.678
10849SOL    HW233447   3.630   4.868   3.795
10850SOL     OW33448   3.956   6.848   6.905
10850SOL    HW133449   4.044   6.846   6.954
10850SOL    HW233450   3.883   6.870   6.970
10851SOL     OW33451   3.371   3.114   5.869
10851SOL    HW133452   3.393   3.162   5.785
10851SOL    HW233453   3.282   3.145   5.903
10852SOL     OW33454   6.998   0.949   6.653
10852SOL    HW133455   0.074   0.923   6.678
10852SOL    HW233456   6.939   0.868   6.657
10853SOL     OW33457   3.417   1.804   4.301
10853SOL    HW133458   3.508   1.788   4.337
10853SOL    HW233459   3.350   1.800   4.375
10854SOL     OW33460   5.799   0.329   6.811
10854SOL    HW133461   5.747   0.358   6.892
10854SOL    HW233462   5.808   0.229   6.811
10855SOL     OW33463   2.794   6.052   2.508
10855SOL    HW133464   2.720   6.099   2.554
10855SOL    HW233465   2.828   6.109   2.433
10856SOL     OW33466   5.936   6.938   0.879
10856SOL    HW133467   5.880   0.003   0.887
10856SOL    HW233468   5.988   6.925   0.964
10857SOL     OW33469   6.285   2.606   3.005
10857SOL    HW133470   6.241   2.524   3.044
10857SOL    HW233471   6.217   2.660   2.956
10858SOL     OW33472   1.869   3.146   0.107
10858SOL    HW133473   1.855   3.051   0.136
10858SOL    HW233474   1.837   3.208   0.179
10859SOL     OW33475   1.690   3.472   2.974
10859SOL    HW133476   1.705   3.387   3.025
10859SOL    HW233477   1.655   3.542   3.036
10860SOL     OW33478   6.504   1.037   0.099
10860SOL    HW133479   6.564   0.957   0.099
10860SOL    HW233480   6.545   1.110   0.044
10861SOL     OW33481   3.937   2.836   1.759
10861SOL    HW133482   4.004   2.910   1.761
10861SOL    HW233483   3.845   2.874   1.772
10862SOL     OW33484   2.601   2.259   6.480
10862SOL    HW133485   2.620   2.269   6.383
10862SOL    HW233486   2.503   2.274   6.497
10863SOL     OW33487   2.801   0.480   2.846
10863SOL    HW133488   2.741   0.544   2.798
10863SOL    HW233489   2.863   0.437   2.782
10864SOL     OW33490   2.444   4.543   1.446
10864SOL    HW133491   2.346   4.524   1.443
10864SOL    HW233492   2.483   4.508   1.531
10865SOL     OW33493   5.568   3.213   3.619
10865SOL    HW133494   5.579   3.313   3.613
10865SOL    HW233495   5.474   3.191   3.644
10866SOL     OW33496   6.136   3.066   0.966
10866SOL    HW133497   6.212   3.120   1.001
10866SOL    HW233498   6.107   2.999   1.034
10867SOL     OW33499   2.654   2.989   0.273
10867SOL    HW133500   2.608   2.988   0.362
10867SOL    HW233501   2.730   2.924   0.274
10868SOL     OW33502   1.082   1.885   3.365
10868SOL    HW133503   1.073   1.985   3.365
10868SOL    HW233504   1.177   1.860   3.382
10869NA      NA33505   0.802   1.890   6.042
10870NA      NA33506   4.511   4.487   5.106
10871NA      NA33507   1.874   4.891   2.858
10872NA      NA33508   5.244   4.321   3.941
10873NA      NA33509   4.316   2.441   5.271
10874NA      NA33510   3.013   4.952   1.482
10875NA      NA33511   1.320   4.808   0.296
10876NA      NA33512   4.028   4.253   1.586
10877NA      NA33513   4.590   3.949   0.868
10878NA      NA33514   3.461   1.255   5.758
10879NA      NA33515   5.012   5.849   2.125
10880NA      NA33516   1.582   0.320   5.615
10881NA      NA33517   5.102   5.100   1.891
10882NA      NA33518   3.248   3.300   0.205
   7.01709   7.01709   7.01709
