Generated by trjconv : CNT in water t= 553.00000
33518
    1C        C    1   2.844   2.771   4.750
    1C        C    2   2.897   2.721   4.871
    1C        C    3   2.844   2.774   4.989
    1C        C    4   2.851   2.774   4.263
    1C        C    5   2.905   2.730   4.386
    1C        C    6   2.849   2.773   4.509
    1C        C    7   3.014   2.638   4.629
    1C        C    8   2.899   2.720   4.630
    1C        C    9   3.079   2.604   4.749
    1C        C   10   3.009   2.635   4.868
    1C        C   11   3.184   2.494   4.978
    1C        C   12   3.066   2.569   4.978
    1C        C   13   2.858   2.778   3.772
    1C        C   14   2.905   2.724   3.894
    1C        C   15   2.853   2.772   4.016
    1C        C   16   3.019   2.646   4.141
    1C        C   17   2.902   2.727   4.140
    1C        C   18   3.082   2.617   4.264
    1C        C   19   3.024   2.653   4.387
    1C        C   20   3.210   2.554   4.508
    1C        C   21   3.079   2.605   4.508
    1C        C   22   3.283   2.537   4.628
    1C        C   23   3.211   2.551   4.749
    1C        C   24   3.416   2.485   4.867
    1C        C   25   3.275   2.506   4.868
    1C        C   26   3.493   2.479   4.984
    1C        C   27   2.855   2.773   3.284
    1C        C   28   2.910   2.727   3.406
    1C        C   29   2.858   2.776   3.527
    1C        C   30   3.020   2.640   3.650
    1C        C   31   2.910   2.728   3.650
    1C        C   32   3.078   2.604   3.774
    1C        C   33   3.020   2.642   3.897
    1C        C   34   3.210   2.551   4.020
    1C        C   35   3.080   2.607   4.020
    1C        C   36   3.277   2.530   4.143
    1C        C   37   3.210   2.558   4.264
    1C        C   38   3.417   2.508   4.384
    1C        C   39   3.279   2.536   4.386
    1C        C   40   3.490   2.502   4.505
    1C        C   41   3.421   2.507   4.628
    1C        C   42   3.635   2.489   4.748
    1C        C   43   3.493   2.487   4.747
    1C        C   44   3.708   2.498   4.869
    1C        C   45   3.632   2.481   4.986
    1C        C   46   2.842   2.759   2.796
    1C        C   47   2.897   2.713   2.918
    1C        C   48   2.848   2.765   3.040
    1C        C   49   3.022   2.643   3.163
    1C        C   50   2.907   2.725   3.161
    1C        C   51   3.084   2.605   3.285
    1C        C   52   3.024   2.644   3.407
    1C        C   53   3.212   2.546   3.529
    1C        C   54   3.083   2.603   3.529
    1C        C   55   3.276   2.528   3.654
    1C        C   56   3.208   2.549   3.776
    1C        C   57   3.415   2.504   3.896
    1C        C   58   3.276   2.529   3.898
    1C        C   59   3.487   2.506   4.018
    1C        C   60   3.417   2.514   4.141
    1C        C   61   3.630   2.505   4.262
    1C        C   62   3.488   2.502   4.262
    1C        C   63   3.703   2.513   4.383
    1C        C   64   3.632   2.508   4.505
    1C        C   65   3.840   2.544   4.626
    1C        C   66   3.704   2.504   4.626
    1C        C   67   3.911   2.564   4.747
    1C        C   68   3.846   2.529   4.867
    1C        C   69   4.056   2.591   4.985
    1C        C   70   3.926   2.538   4.981
    1C        C   71   2.832   2.742   2.308
    1C        C   72   2.891   2.702   2.430
    1C        C   73   2.843   2.754   2.553
    1C        C   74   3.013   2.630   2.675
    1C        C   75   2.896   2.710   2.675
    1C        C   76   3.079   2.604   2.797
    1C        C   77   3.017   2.638   2.919
    1C        C   78   3.211   2.549   3.039
    1C        C   79   3.080   2.603   3.041
    1C        C   80   3.278   2.525   3.161
    1C        C   81   3.211   2.545   3.284
    1C        C   82   3.418   2.503   3.407
    1C        C   83   3.278   2.522   3.406
    1C        C   84   3.488   2.500   3.529
    1C        C   85   3.416   2.507   3.651
    1C        C   86   3.627   2.506   3.774
    1C        C   87   3.486   2.502   3.774
    1C        C   88   3.698   2.520   3.895
    1C        C   89   3.628   2.513   4.018
    1C        C   90   3.836   2.555   4.138
    1C        C   91   3.699   2.521   4.140
    1C        C   92   3.905   2.574   4.260
    1C        C   93   3.840   2.549   4.383
    1C        C   94   4.030   2.639   4.503
    1C        C   95   3.907   2.570   4.505
    1C        C   96   4.095   2.674   4.624
    1C        C   97   4.036   2.630   4.745
    1C        C   98   4.192   2.770   4.866
    1C        C   99   4.103   2.657   4.867
    1C        C  100   4.216   2.846   4.981
    1C        C  101   2.825   2.735   2.072
    1C        C  102   2.998   2.597   2.191
    1C        C  103   2.885   2.685   2.189
    1C        C  104   3.069   2.578   2.313
    1C        C  105   3.007   2.620   2.433
    1C        C  106   3.204   2.537   2.553
    1C        C  107   3.072   2.589   2.553
    1C        C  108   3.273   2.518   2.674
    1C        C  109   3.205   2.540   2.796
    1C        C  110   3.416   2.496   2.916
    1C        C  111   3.277   2.525   2.917
    1C        C  112   3.486   2.496   3.039
    1C        C  113   3.418   2.502   3.162
    1C        C  114   3.630   2.502   3.283
    1C        C  115   3.489   2.499   3.284
    1C        C  116   3.699   2.515   3.406
    1C        C  117   3.629   2.507   3.528
    1C        C  118   3.833   2.552   3.650
    1C        C  119   3.697   2.514   3.652
    1C        C  120   3.901   2.582   3.771
    1C        C  121   3.833   2.559   3.893
    1C        C  122   4.027   2.645   4.017
    1C        C  123   3.901   2.580   4.015
    1C        C  124   4.089   2.682   4.138
    1C        C  125   4.030   2.640   4.259
    1C        C  126   4.199   2.768   4.380
    1C        C  127   4.091   2.676   4.381
    1C        C  128   4.248   2.821   4.501
    1C        C  129   4.202   2.766   4.624
    1C        C  130   4.327   2.939   4.743
    1C        C  131   4.249   2.820   4.745
    1C        C  132   4.356   3.009   4.863
    1C        C  133   4.289   2.964   4.977
    1C        C  134   3.175   2.470   2.084
    1C        C  135   3.043   2.516   2.082
    1C        C  136   3.263   2.482   2.193
    1C        C  137   3.197   2.517   2.313
    1C        C  138   3.410   2.479   2.430
    1C        C  139   3.270   2.504   2.433
    1C        C  140   3.483   2.478   2.551
    1C        C  141   3.412   2.495   2.672
    1C        C  142   3.626   2.498   2.793
    1C        C  143   3.485   2.491   2.793
    1C        C  144   3.696   2.505   2.916
    1C        C  145   3.627   2.500   3.039
    1C        C  146   3.836   2.544   3.158
    1C        C  147   3.699   2.507   3.160
    1C        C  148   3.903   2.571   3.279
    1C        C  149   3.835   2.552   3.402
    1C        C  150   4.022   2.641   3.529
    1C        C  151   3.896   2.578   3.527
    1C        C  152   4.084   2.681   3.650
    1C        C  153   4.026   2.647   3.774
    1C        C  154   4.200   2.769   3.894
    1C        C  155   4.088   2.683   3.895
    1C        C  156   4.256   2.814   4.016
    1C        C  157   4.205   2.763   4.137
    1C        C  158   4.343   2.925   4.260
    1C        C  159   4.250   2.819   4.259
    1C        C  160   4.384   2.987   4.380
    1C        C  161   4.334   2.933   4.501
    1C        C  162   4.441   3.118   4.623
    1C        C  163   4.370   2.996   4.622
    1C        C  164   4.473   3.188   4.742
    1C        C  165   4.432   3.128   4.863
    1C        C  166   4.517   3.327   4.979
    1C        C  167   4.486   3.191   4.976
    1C        C  168   3.478   2.438   2.075
    1C        C  169   3.403   2.464   2.190
    1C        C  170   3.622   2.471   2.310
    1C        C  171   3.480   2.467   2.309
    1C        C  172   3.696   2.494   2.427
    1C        C  173   3.624   2.494   2.549
    1C        C  174   3.832   2.541   2.669
    1C        C  175   3.694   2.510   2.670
    1C        C  176   3.900   2.562   2.791
    1C        C  177   3.832   2.543   2.913
    1C        C  178   4.029   2.626   3.034
    1C        C  179   3.901   2.567   3.034
    1C        C  180   4.088   2.664   3.157
    1C        C  181   4.030   2.631   3.282
    1C        C  182   4.200   2.753   3.401
    1C        C  183   4.087   2.668   3.406
    1C        C  184   4.251   2.803   3.523
    1C        C  185   4.201   2.760   3.648
    1C        C  186   4.344   2.917   3.768
    1C        C  187   4.255   2.808   3.770
    1C        C  188   4.383   2.978   3.889
    1C        C  189   4.346   2.922   4.014
    1C        C  190   4.452   3.105   4.133
    1C        C  191   4.383   2.982   4.137
    1C        C  192   4.477   3.174   4.254
    1C        C  193   4.448   3.113   4.378
    1C        C  194   4.506   3.318   4.495
    1C        C  195   4.469   3.181   4.500
    1C        C  196   4.524   3.390   4.615
    1C        C  197   4.515   3.324   4.740
    1C        C  198   4.561   3.538   4.855
    1C        C  199   4.534   3.397   4.860
    1C        C  200   4.588   3.623   4.967
    1C        C  201   3.617   2.426   2.075
    1C        C  202   3.833   2.506   2.186
    1C        C  203   3.695   2.467   2.188
    1C        C  204   3.903   2.543   2.304
    1C        C  205   3.835   2.522   2.426
    1C        C  206   4.024   2.624   2.548
    1C        C  207   3.902   2.554   2.546
    1C        C  208   4.085   2.662   2.669
    1C        C  209   4.025   2.627   2.792
    1C        C  210   4.202   2.750   2.912
    1C        C  211   4.089   2.665   2.912
    1C        C  212   4.255   2.794   3.035
    1C        C  213   4.204   2.744   3.157
    1C        C  214   4.340   2.909   3.276
    1C        C  215   4.252   2.798   3.278
    1C        C  216   4.377   2.970   3.398
    1C        C  217   4.338   2.915   3.522
    1C        C  218   4.443   3.100   3.642
    1C        C  219   4.380   2.974   3.643
    1C        C  220   4.470   3.170   3.762
    1C        C  221   4.445   3.105   3.885
    1C        C  222   4.507   3.305   4.007
    1C        C  223   4.475   3.168   4.008
    1C        C  224   4.517   3.380   4.127
    1C        C  225   4.510   3.311   4.250
    1C        C  226   4.520   3.525   4.369
    1C        C  227   4.516   3.384   4.371
    1C        C  228   4.517   3.600   4.489
    1C        C  229   4.528   3.531   4.612
    1C        C  230   4.508   3.744   4.731
    1C        C  231   4.541   3.606   4.731
    1C        C  232   4.498   3.821   4.848
    1C        C  233   4.551   3.758   4.962
    1C        C  234   4.016   2.614   2.065
    1C        C  235   3.899   2.539   2.067
    1C        C  236   4.084   2.653   2.181
    1C        C  237   4.029   2.608   2.303
    1C        C  238   4.201   2.738   2.423
    1C        C  239   4.085   2.655   2.424
    1C        C  240   4.253   2.787   2.545
    1C        C  241   4.203   2.740   2.669
    1C        C  242   4.344   2.903   2.787
    1C        C  243   4.257   2.792   2.789
    1C        C  244   4.385   2.962   2.909
    1C        C  245   4.342   2.905   3.031
    1C        C  246   4.442   3.094   3.154
    1C        C  247   4.377   2.968   3.153
    1C        C  248   4.464   3.161   3.276
    1C        C  249   4.433   3.099   3.399
    1C        C  250   4.497   3.304   3.516
    1C        C  251   4.464   3.167   3.519
    1C        C  252   4.511   3.373   3.638
    1C        C  253   4.507   3.306   3.762
    1C        C  254   4.521   3.517   3.881
    1C        C  255   4.518   3.375   3.885
    1C        C  256   4.519   3.591   4.001
    1C        C  257   4.523   3.521   4.124
    1C        C  258   4.487   3.731   4.243
    1C        C  259   4.514   3.593   4.245
    1C        C  260   4.470   3.803   4.364
    1C        C  261   4.492   3.739   4.488
    1C        C  262   4.430   3.942   4.606
    1C        C  263   4.478   3.809   4.609
    1C        C  264   4.400   4.012   4.725
    1C        C  265   4.434   3.947   4.846
    1C        C  266   4.322   4.132   4.962
    1C        C  267   4.395   4.014   4.963
    1C        C  268   4.266   2.774   2.065
    1C        C  269   4.199   2.735   2.182
    1C        C  270   4.351   2.889   2.300
    1C        C  271   4.257   2.782   2.301
    1C        C  272   4.389   2.951   2.421
    1C        C  273   4.346   2.893   2.543
    1C        C  274   4.448   3.083   2.663
    1C        C  275   4.385   2.957   2.663
    1C        C  276   4.473   3.153   2.784
    1C        C  277   4.445   3.090   2.907
    1C        C  278   4.502   3.293   3.028
    1C        C  279   4.466   3.157   3.030
    1C        C  280   4.512   3.365   3.149
    1C        C  281   4.502   3.297   3.273
    1C        C  282   4.522   3.512   3.392
    1C        C  283   4.516   3.371   3.393
    1C        C  284   4.518   3.585   3.513
    1C        C  285   4.522   3.514   3.636
    1C        C  286   4.497   3.725   3.757
    1C        C  287   4.520   3.586   3.758
    1C        C  288   4.480   3.797   3.878
    1C        C  289   4.494   3.730   4.001
    1C        C  290   4.422   3.933   4.119
    1C        C  291   4.474   3.802   4.121
    1C        C  292   4.390   3.998   4.241
    1C        C  293   4.419   3.935   4.363
    1C        C  294   4.331   4.129   4.482
    1C        C  295   4.402   4.007   4.484
    1C        C  296   4.284   4.188   4.601
    1C        C  297   4.328   4.135   4.725
    1C        C  298   4.201   4.313   4.844
    1C        C  299   4.291   4.202   4.844
    1C        C  300   4.171   4.403   4.952
    1C        C  301   4.350   2.886   2.065
    1C        C  302   4.475   3.067   2.181
    1C        C  303   4.406   2.942   2.181
    1C        C  304   4.490   3.139   2.302
    1C        C  305   4.453   3.077   2.423
    1C        C  306   4.508   3.287   2.540
    1C        C  307   4.477   3.149   2.542
    1C        C  308   4.519   3.361   2.660
    1C        C  309   4.505   3.290   2.781
    1C        C  310   4.517   3.501   2.901
    1C        C  311   4.513   3.360   2.904
    1C        C  312   4.516   3.575   3.022
    1C        C  313   4.517   3.506   3.145
    1C        C  314   4.492   3.717   3.266
    1C        C  315   4.517   3.578   3.267
    1C        C  316   4.472   3.787   3.387
    1C        C  317   4.487   3.722   3.512
    1C        C  318   4.422   3.923   3.629
    1C        C  319   4.471   3.791   3.635
    1C        C  320   4.386   3.984   3.751
    1C        C  321   4.417   3.924   3.876
    1C        C  322   4.315   4.114   3.994
    1C        C  323   4.387   3.992   3.996
    1C        C  324   4.276   4.174   4.115
    1C        C  325   4.318   4.119   4.239
    1C        C  326   4.187   4.286   4.358
    1C        C  327   4.283   4.183   4.360
    1C        C  328   4.139   4.344   4.477
    1C        C  329   4.192   4.295   4.598
    1C        C  330   4.030   4.435   4.718
    1C        C  331   4.141   4.346   4.720
    1C        C  332   3.972   4.494   4.832
    1C        C  333   4.056   4.483   4.943
    1C        C  334   4.545   3.270   2.063
    1C        C  335   4.535   3.130   2.066
    1C        C  336   4.537   3.350   2.177
    1C        C  337   4.517   3.279   2.297
    1C        C  338   4.530   3.494   2.413
    1C        C  339   4.529   3.353   2.417
    1C        C  340   4.521   3.569   2.533
    1C        C  341   4.520   3.502   2.657
    1C        C  342   4.489   3.711   2.778
    1C        C  343   4.512   3.572   2.779
    1C        C  344   4.470   3.783   2.898
    1C        C  345   4.484   3.712   3.019
    1C        C  346   4.418   3.912   3.141
    1C        C  347   4.468   3.780   3.142
    1C        C  348   4.389   3.980   3.262
    1C        C  349   4.423   3.919   3.385
    1C        C  350   4.311   4.102   3.506
    1C        C  351   4.389   3.984   3.506
    1C        C  352   4.272   4.164   3.627
    1C        C  353   4.314   4.105   3.748
    1C        C  354   4.178   4.270   3.871
    1C        C  355   4.270   4.163   3.869
    1C        C  356   4.124   4.320   3.991
    1C        C  357   4.176   4.273   4.114
    1C        C  358   4.016   4.411   4.234
    1C        C  359   4.131   4.328   4.236
    1C        C  360   3.956   4.453   4.355
    1C        C  361   4.022   4.424   4.477
    1C        C  362   3.832   4.520   4.595
    1C        C  363   3.963   4.467   4.598
    1C        C  364   3.767   4.550   4.717
    1C        C  365   3.841   4.547   4.837
    1C        C  366   3.633   4.599   4.951
    1C        C  367   3.771   4.579   4.954
    1C        C  368   4.504   3.564   2.053
    1C        C  369   4.530   3.491   2.170
    1C        C  370   4.505   3.704   2.289
    1C        C  371   4.523   3.564   2.291
    1C        C  372   4.485   3.777   2.409
    1C        C  373   4.500   3.709   2.532
    1C        C  374   4.425   3.909   2.651
    1C        C  375   4.474   3.776   2.653
    1C        C  376   4.386   3.972   2.771
    1C        C  377   4.419   3.915   2.896
    1C        C  378   4.318   4.099   3.016
    1C        C  379   4.389   3.977   3.019
    1C        C  380   4.271   4.153   3.137
    1C        C  381   4.308   4.095   3.261
    1C        C  382   4.179   4.264   3.380
    1C        C  383   4.271   4.158   3.383
    1C        C  384   4.128   4.316   3.502
    1C        C  385   4.176   4.268   3.625
    1C        C  386   4.011   4.399   3.747
    1C        C  387   4.125   4.316   3.748
    1C        C  388   3.947   4.435   3.868
    1C        C  389   4.009   4.403   3.991
    1C        C  390   3.823   4.502   4.107
    1C        C  391   3.954   4.449   4.113
    1C        C  392   3.755   4.518   4.230
    1C        C  393   3.825   4.503   4.352
    1C        C  394   3.622   4.562   4.474
    1C        C  395   3.761   4.536   4.474
    1C        C  396   3.552   4.571   4.596
    1C        C  397   3.627   4.567   4.716
    1C        C  398   3.415   4.557   4.843
    1C        C  399   3.555   4.576   4.837
    1C        C  400   3.349   4.517   4.960
    1C        C  401   4.503   3.703   2.052
    1C        C  402   4.453   3.914   2.169
    1C        C  403   4.490   3.778   2.169
    1C        C  404   4.411   3.977   2.287
    1C        C  405   4.434   3.908   2.409
    1C        C  406   4.324   4.094   2.528
    1C        C  407   4.396   3.973   2.528
    1C        C  408   4.276   4.151   2.648
    1C        C  409   4.312   4.092   2.771
    1C        C  410   4.179   4.258   2.890
    1C        C  411   4.273   4.153   2.893
    1C        C  412   4.124   4.303   3.012
    1C        C  413   4.175   4.257   3.135
    1C        C  414   4.008   4.388   3.256
    1C        C  415   4.123   4.306   3.257
    1C        C  416   3.948   4.423   3.379
    1C        C  417   4.011   4.396   3.502
    1C        C  418   3.819   4.485   3.621
    1C        C  419   3.950   4.433   3.624
    1C        C  420   3.752   4.514   3.742
    1C        C  421   3.817   4.490   3.865
    1C        C  422   3.613   4.548   3.989
    1C        C  423   3.751   4.518   3.987
    1C        C  424   3.544   4.549   4.112
    1C        C  425   3.616   4.545   4.233
    1C        C  426   3.406   4.559   4.359
    1C        C  427   3.547   4.563   4.355
    1C        C  428   3.336   4.554   4.481
    1C        C  429   3.411   4.557   4.601
    1C        C  430   3.201   4.520   4.727
    1C        C  431   3.341   4.548   4.723
    1C        C  432   3.130   4.498   4.848
    1C        C  433   3.211   4.500   4.963
    1C        C  434   4.385   4.123   2.054
    1C        C  435   4.448   3.998   2.057
    1C        C  436   4.306   4.165   2.166
    1C        C  437   4.336   4.098   2.288
    1C        C  438   4.183   4.252   2.404
    1C        C  439   4.288   4.157   2.407
    1C        C  440   4.129   4.301   2.525
    1C        C  441   4.181   4.255   2.648
    1C        C  442   4.008   4.382   2.768
    1C        C  443   4.125   4.304   2.768
    1C        C  444   3.948   4.423   2.890
    1C        C  445   4.007   4.383   3.012
    1C        C  446   3.818   4.480   3.134
    1C        C  447   3.948   4.423   3.133
    1C        C  448   3.752   4.500   3.257
    1C        C  449   3.820   4.483   3.379
    1C        C  450   3.612   4.537   3.498
    1C        C  451   3.750   4.508   3.500
    1C        C  452   3.543   4.549   3.621
    1C        C  453   3.615   4.546   3.743
    1C        C  454   3.403   4.549   3.865
    1C        C  455   3.544   4.557   3.865
    1C        C  456   3.335   4.539   3.988
    1C        C  457   3.403   4.541   4.112
    1C        C  458   3.199   4.509   4.239
    1C        C  459   3.337   4.542   4.237
    1C        C  460   3.133   4.494   4.363
    1C        C  461   3.200   4.516   4.485
    1C        C  462   3.005   4.434   4.605
    1C        C  463   3.132   4.496   4.607
    1C        C  464   2.939   4.403   4.726
    1C        C  465   2.996   4.449   4.848
    1C        C  466   2.807   4.342   4.959
    1C        C  467   2.917   4.429   4.966
    1C        C  468   4.130   4.293   2.045
    1C        C  469   4.193   4.253   2.163
    1C        C  470   4.013   4.379   2.282
    1C        C  471   4.132   4.301   2.282
    1C        C  472   3.947   4.411   2.403
    1C        C  473   4.011   4.379   2.525
    1C        C  474   3.819   4.477   2.645
    1C        C  475   3.948   4.418   2.645
    1C        C  476   3.750   4.497   2.766
    1C        C  477   3.819   4.480   2.889
    1C        C  478   3.613   4.529   3.013
    1C        C  479   3.752   4.503   3.011
    1C        C  480   3.542   4.540   3.134
    1C        C  481   3.612   4.523   3.255
    1C        C  482   3.399   4.535   3.379
    1C        C  483   3.540   4.534   3.376
    1C        C  484   3.329   4.533   3.502
    1C        C  485   3.402   4.549   3.621
    1C        C  486   3.196   4.499   3.748
    1C        C  487   3.332   4.538   3.744
    1C        C  488   3.133   4.475   3.872
    1C        C  489   3.199   4.501   3.994
    1C        C  490   3.010   4.412   4.120
    1C        C  491   3.133   4.481   4.118
    1C        C  492   2.949   4.383   4.244
    1C        C  493   3.009   4.426   4.364
    1C        C  494   2.836   4.300   4.486
    1C        C  495   2.946   4.389   4.485
    1C        C  496   2.780   4.257   4.608
    1C        C  497   2.831   4.310   4.729
    1C        C  498   2.671   4.166   4.847
    1C        C  499   2.760   4.275   4.845
    1C        C  500   2.599   4.121   4.959
    1C        C  501   4.009   4.362   2.046
    1C        C  502   3.817   4.467   2.159
    1C        C  503   3.944   4.405   2.162
    1C        C  504   3.746   4.483   2.280
    1C        C  505   3.818   4.467   2.401
    1C        C  506   3.610   4.512   2.524
    1C        C  507   3.750   4.491   2.523
    1C        C  508   3.538   4.521   2.644
    1C        C  509   3.611   4.522   2.765
    1C        C  510   3.403   4.528   2.891
    1C        C  511   3.544   4.532   2.889
    1C        C  512   3.330   4.526   3.012
    1C        C  513   3.401   4.535   3.134
    1C        C  514   3.193   4.495   3.256
    1C        C  515   3.330   4.529   3.256
    1C        C  516   3.127   4.471   3.379
    1C        C  517   3.192   4.499   3.502
    1C        C  518   3.008   4.403   3.630
    1C        C  519   3.129   4.477   3.626
    1C        C  520   2.950   4.367   3.753
    1C        C  521   3.008   4.408   3.875
    1C        C  522   2.843   4.279   3.998
    1C        C  523   2.951   4.370   3.999
    1C        C  524   2.793   4.234   4.122
    1C        C  525   2.839   4.294   4.242
    1C        C  526   2.700   4.136   4.368
    1C        C  527   2.785   4.249   4.364
    1C        C  528   2.656   4.079   4.490
    1C        C  529   2.691   4.148   4.608
    1C        C  530   2.583   3.965   4.733
    1C        C  531   2.640   4.095   4.729
    1C        C  532   2.542   3.905   4.855
    1C        C  533   2.533   3.997   4.964
    1C        C  534   3.619   4.556   2.042
    1C        C  535   3.754   4.518   2.045
    1C        C  536   3.537   4.538   2.158
    1C        C  537   3.607   4.511   2.279
    1C        C  538   3.398   4.521   2.400
    1C        C  539   3.539   4.522   2.402
    1C        C  540   3.327   4.512   2.523
    1C        C  541   3.396   4.523   2.645
    1C        C  542   3.193   4.485   2.767
    1C        C  543   3.331   4.517   2.770
    1C        C  544   3.127   4.462   2.890
    1C        C  545   3.194   4.487   3.012
    1C        C  546   3.002   4.400   3.136
    1C        C  547   3.125   4.469   3.135
    1C        C  548   2.944   4.367   3.261
    1C        C  549   3.003   4.405   3.384
    1C        C  550   2.837   4.277   3.508
    1C        C  551   2.948   4.365   3.508
    1C        C  552   2.787   4.228   3.631
    1C        C  553   2.838   4.281   3.752
    1C        C  554   2.700   4.124   3.880
    1C        C  555   2.788   4.234   3.875
    1C        C  556   2.658   4.067   4.002
    1C        C  557   2.700   4.127   4.123
    1C        C  558   2.603   3.944   4.248
    1C        C  559   2.665   4.071   4.248
    1C        C  560   2.572   3.883   4.372
    1C        C  561   2.593   3.953   4.493
    1C        C  562   2.530   3.751   4.618
    1C        C  563   2.566   3.888   4.615
    1C        C  564   2.518   3.684   4.742
    1C        C  565   2.530   3.762   4.860
    1C        C  566   2.541   3.552   4.981
    1C        C  567   2.527   3.690   4.980
    1C        C  568   3.331   4.474   2.043
    1C        C  569   3.396   4.517   2.159
    1C        C  570   3.184   4.482   2.283
    1C        C  571   3.323   4.512   2.281
    1C        C  572   3.118   4.458   2.406
    1C        C  573   3.189   4.483   2.525
    1C        C  574   2.992   4.407   2.652
    1C        C  575   3.121   4.464   2.648
    1C        C  576   2.932   4.365   2.773
    1C        C  577   3.001   4.400   2.892
    1C        C  578   2.830   4.275   3.019
    1C        C  579   2.942   4.361   3.015
    1C        C  580   2.786   4.222   3.143
    1C        C  581   2.837   4.275   3.264
    1C        C  582   2.700   4.115   3.388
    1C        C  583   2.788   4.226   3.387
    1C        C  584   2.661   4.059   3.512
    1C        C  585   2.698   4.119   3.635
    1C        C  586   2.597   3.936   3.759
    1C        C  587   2.660   4.062   3.759
    1C        C  588   2.575   3.873   3.883
    1C        C  589   2.595   3.941   4.005
    1C        C  590   2.532   3.740   4.132
    1C        C  591   2.568   3.877   4.129
    1C        C  592   2.517   3.675   4.256
    1C        C  593   2.531   3.748   4.376
    1C        C  594   2.519   3.536   4.502
    1C        C  595   2.523   3.678   4.498
    1C        C  596   2.518   3.464   4.624
    1C        C  597   2.516   3.541   4.742
    1C        C  598   2.540   3.332   4.865
    1C        C  599   2.534   3.474   4.865
    1C        C  600   2.532   3.251   4.979
    1C        C  601   3.198   4.438   2.048
    1C        C  602   2.981   4.400   2.161
    1C        C  603   3.118   4.442   2.164
    1C        C  604   2.925   4.367   2.288
    1C        C  605   2.989   4.400   2.410
    1C        C  606   2.821   4.274   2.531
    1C        C  607   2.930   4.363   2.533
    1C        C  608   2.769   4.225   2.654
    1C        C  609   2.825   4.274   2.774
    1C        C  610   2.687   4.116   2.899
    1C        C  611   2.779   4.223   2.898
    1C        C  612   2.654   4.052   3.021
    1C        C  613   2.701   4.109   3.142
    1C        C  614   2.593   3.932   3.267
    1C        C  615   2.659   4.057   3.266
    1C        C  616   2.566   3.872   3.392
    1C        C  617   2.593   3.935   3.515
    1C        C  618   2.526   3.734   3.642
    1C        C  619   2.569   3.869   3.638
    1C        C  620   2.514   3.668   3.766
    1C        C  621   2.529   3.739   3.887
    1C        C  622   2.512   3.529   4.012
    1C        C  623   2.520   3.670   4.010
    1C        C  624   2.515   3.461   4.136
    1C        C  625   2.512   3.533   4.258
    1C        C  626   2.535   3.324   4.380
    1C        C  627   2.517   3.464   4.381
    1C        C  628   2.555   3.255   4.501
    1C        C  629   2.538   3.324   4.623
    1C        C  630   2.602   3.124   4.746
    1C        C  631   2.554   3.257   4.747
    1C        C  632   2.621   3.056   4.870
    1C        C  633   2.562   3.114   4.986
    1C        C  634   2.782   4.310   2.059
    1C        C  635   2.892   4.397   2.050
    1C        C  636   2.746   4.236   2.172
    1C        C  637   2.810   4.284   2.289
    1C        C  638   2.687   4.110   2.415
    1C        C  639   2.769   4.224   2.410
    1C        C  640   2.646   4.049   2.535
    1C        C  641   2.683   4.113   2.655
    1C        C  642   2.589   3.925   2.780
    1C        C  643   2.646   4.055   2.778
    1C        C  644   2.561   3.860   2.902
    1C        C  645   2.591   3.926   3.024
    1C        C  646   2.522   3.729   3.153
    1C        C  647   2.560   3.865   3.147
    1C        C  648   2.515   3.661   3.277
    1C        C  649   2.529   3.735   3.396
    1C        C  650   2.513   3.525   3.521
    1C        C  651   2.518   3.666   3.519
    1C        C  652   2.520   3.457   3.645
    1C        C  653   2.513   3.526   3.767
    1C        C  654   2.539   3.317   3.894
    1C        C  655   2.515   3.457   3.890
    1C        C  656   2.552   3.251   4.018
    1C        C  657   2.535   3.322   4.139
    1C        C  658   2.615   3.123   4.259
    1C        C  659   2.558   3.252   4.260
    1C        C  660   2.640   3.059   4.383
    1C        C  661   2.605   3.123   4.503
    1C        C  662   2.716   2.942   4.628
    1C        C  663   2.636   3.059   4.625
    1C        C  664   2.757   2.884   4.750
    1C        C  665   2.707   2.941   4.870
    1C        C  666   2.746   2.873   4.986
    1C        C  667   2.680   4.029   2.057
    1C        C  668   2.688   4.107   2.173
    1C        C  669   2.583   3.920   2.296
    1C        C  670   2.651   4.045   2.294
    1C        C  671   2.556   3.853   2.418
    1C        C  672   2.588   3.920   2.538
    1C        C  673   2.518   3.721   2.664
    1C        C  674   2.561   3.856   2.661
    1C        C  675   2.503   3.654   2.787
    1C        C  676   2.517   3.726   2.908
    1C        C  677   2.498   3.517   3.034
    1C        C  678   2.507   3.658   3.032
    1C        C  679   2.509   3.448   3.156
    1C        C  680   2.510   3.520   3.278
    1C        C  681   2.531   3.311   3.404
    1C        C  682   2.510   3.450   3.401
    1C        C  683   2.555   3.246   3.527
    1C        C  684   2.536   3.316   3.648
    1C        C  685   2.613   3.122   3.774
    1C        C  686   2.551   3.249   3.771
    1C        C  687   2.647   3.060   3.897
    1C        C  688   2.610   3.122   4.018
    1C        C  689   2.720   2.937   4.141
    1C        C  690   2.643   3.056   4.139
    1C        C  691   2.763   2.884   4.265
    1C        C  692   2.714   2.938   4.386
    1C        C  693   2.758   2.881   4.508
    1C        C  694   2.637   3.896   2.067
    1C        C  695   2.526   3.708   2.180
    1C        C  696   2.575   3.840   2.180
    1C        C  697   2.507   3.642   2.303
    1C        C  698   2.518   3.717   2.422
    1C        C  699   2.485   3.509   2.547
    1C        C  700   2.494   3.650   2.544
    1C        C  701   2.498   3.438   2.669
    1C        C  702   2.493   3.513   2.789
    1C        C  703   2.527   3.306   2.914
    1C        C  704   2.500   3.445   2.913
    1C        C  705   2.554   3.241   3.037
    1C        C  706   2.538   3.310   3.159
    1C        C  707   2.606   3.111   3.281
    1C        C  708   2.551   3.242   3.282
    1C        C  709   2.638   3.052   3.405
    1C        C  710   2.609   3.115   3.528
    1C        C  711   2.718   2.936   3.652
    1C        C  712   2.643   3.056   3.652
    1C        C  713   2.763   2.882   3.775
    1C        C  714   2.723   2.941   3.897
    1C        C  715   2.765   2.883   4.018
    1C        C  716   2.457   3.504   2.066
    1C        C  717   2.498   3.638   2.062
    1C        C  718   2.470   3.426   2.186
    1C        C  719   2.487   3.501   2.306
    1C        C  720   2.518   3.294   2.430
    1C        C  721   2.490   3.432   2.429
    1C        C  722   2.542   3.225   2.551
    1C        C  723   2.530   3.301   2.670
    1C        C  724   2.597   3.103   2.795
    1C        C  725   2.544   3.235   2.794
    1C        C  726   2.627   3.041   2.919
    1C        C  727   2.599   3.107   3.041
    1C        C  728   2.710   2.923   3.163
    1C        C  729   2.636   3.043   3.161
    1C        C  730   2.760   2.877   3.287
    1C        C  731   2.718   2.936   3.409
    1C        C  732   2.761   2.879   3.531
    1C        C  733   2.499   3.203   2.076
    1C        C  734   2.493   3.285   2.189
    1C        C  735   2.590   3.092   2.309
    1C        C  736   2.530   3.221   2.310
    1C        C  737   2.622   3.027   2.431
    1C        C  738   2.596   3.094   2.552
    1C        C  739   2.705   2.916   2.673
    1C        C  740   2.625   3.033   2.676
    1C        C  741   2.748   2.864   2.797
    1C        C  742   2.710   2.927   2.918
    1C        C  743   2.759   2.875   3.040
    1C        C  744   2.551   3.074   2.079
    1C        C  745   2.691   2.900   2.188
    1C        C  746   2.613   3.018   2.191
    1C        C  747   2.732   2.842   2.310
    1C        C  748   2.692   2.904   2.430
    1C        C  749   2.745   2.856   2.552
    1C        C  750   2.729   2.835   2.070
    1C        C  751   3.666   2.309   1.998
    1C        O  752   3.677   2.196   2.052
    1C        O  753   3.687   2.318   1.859
    1C        C  754   4.633   3.064   1.977
    1C        O  755   4.590   3.027   1.865
    1C        O  756   4.728   2.977   2.030
    1C        C  757   4.455   4.226   1.974
    1C        O  758   4.505   4.327   2.030
    1C        O  759   4.427   4.238   1.837
    1C        C  760   3.581   4.664   1.949
    1C        O  761   3.615   4.783   1.971
    1C        O  762   3.556   4.652   1.811
    1C        C  763   2.892   4.504   1.948
    1C        O  764   2.948   4.503   1.835
    1C        O  765   2.837   4.629   1.979
    1C        C  766   2.347   3.480   1.971
    1C        O  767   2.369   3.484   1.847
    1C        O  768   2.215   3.514   2.004
    1C        C  769   4.700   3.594   5.058
    1C        O  770   4.700   3.591   5.184
    1C        O  771   4.829   3.644   5.036
    1C        C  772   4.282   4.448   5.040
    1C        O  773   4.263   4.484   5.159
    1C        O  774   4.386   4.529   4.994
    1C        C  775   4.142   2.503   5.066
    1C        O  776   4.180   2.399   5.004
    1C        O  777   4.227   2.554   5.165
    1C        C  778   2.921   4.530   5.074
    1C        O  779   2.844   4.628   5.058
    1C        O  780   2.963   4.502   5.205
    1C        C  781   2.489   3.048   5.097
    1C        O  782   2.403   2.959   5.074
    1C        O  783   2.557   3.025   5.216
    1C        C  784   2.414   3.995   5.052
    1C        O  785   2.307   4.023   4.993
    1C        O  786   2.410   4.046   5.183
    1C        C  787   2.951   2.446   1.989
    1C        O  788   2.959   2.483   1.869
    1C        O  789   2.854   2.352   2.023
    1C        C  790   3.173   2.364   5.049
    1C        O  791   3.108   2.265   5.006
    1C        O  792   3.142   2.370   5.185
    1C        H  793   4.261   3.039   5.048
    1C        H  794   4.178   2.812   5.075
    1C        H  795   4.496   3.131   5.064
    1C        H  796   4.470   3.378   5.061
    1C        H  797   4.619   3.818   5.019
    1C        H  798   4.425   3.970   5.056
    1C        H  799   4.281   4.171   5.054
    1C        H  800   4.004   4.501   5.035
    1C        H  801   3.824   4.607   5.042
    1C        H  802   3.596   4.675   5.016
    1C        H  803   3.410   4.500   5.046
    1C        H  804   3.164   4.511   5.058
    1C        H  805   3.883   2.514   5.076
    1C        H  806   3.677   2.444   5.076
    1C        H  807   3.010   2.570   5.069
    1C        H  808   3.450   2.526   5.070
    1C        H  809   2.901   2.773   5.080
    1C        H  810   2.669   2.860   5.059
    1C        H  811   2.485   3.295   5.064
    1C        H  812   2.529   3.506   5.076
    1C        H  813   2.518   3.743   5.073
    1C        H  814   2.608   4.177   5.050
    1C        H  815   2.749   4.334   5.049
    1C        H  816   2.657   2.820   1.993
    1C        H  817   2.884   2.734   1.983
    1C        H  818   3.220   2.452   1.988
    1C        H  819   3.434   2.439   1.977
    1C        H  820   3.861   2.506   1.972
    1C        H  821   4.074   2.607   1.976
    1C        H  822   4.291   2.696   1.997
    1C        H  823   4.325   2.956   1.989
    1C        H  824   4.519   3.313   1.969
    1C        H  825   4.446   3.525   1.972
    1C        H  826   4.544   3.753   1.966
    1C        H  827   3.788   4.484   1.949
    1C        H  828   3.940   4.324   1.973
    1C        H  829   4.186   4.299   1.954
    1C        H  830   4.526   3.983   1.984
    1C        H  831   2.667   3.832   1.988
    1C        H  832   2.711   4.073   1.964
    1C        H  833   2.705   4.319   1.985
    1C        H  834   3.368   4.510   1.949
    1C        H  835   3.157   4.391   1.961
    1C        H  836   2.529   3.011   1.994
    1C        H  837   2.462   3.241   1.983
    1C        H  838   2.490   3.691   1.969
    2V3OU   H29  839   2.810   3.551   6.002
    2V3OU   C27  840   2.786   3.506   6.101
    2V3OU   H27  841   2.732   3.573   6.173
    2V3OU   H28  842   2.731   3.409   6.087
    2V3OU   O11  843   2.914   3.476   6.159
    2V3OU   C15  844   2.921   3.403   6.277
    2V3OU   C13  845   3.055   3.378   6.313
    2V3OU   C14  846   3.079   3.268   6.396
    2V3OU   C16  847   2.976   3.186   6.440
    2V3OU    H6  848   3.000   3.101   6.505
    2V3OU   C12  849   3.215   3.240   6.449
    2V3OU    O2  850   3.248   3.130   6.499
    2V3OU   C10  851   3.325   3.312   6.384
    2V3OU    C8  852   3.457   3.277   6.411
    2V3OU   O10  853   3.493   3.161   6.472
    2V3OU   H26  854   3.409   3.114   6.484
    2V3OU    C6  855   3.569   3.355   6.369
    2V3OU    C5  856   3.538   3.473   6.302
    2V3OU    C4  857   3.708   3.300   6.365
    2V3OU    H4  858   3.728   3.230   6.451
    2V3OU    H5  859   3.717   3.234   6.273
    2V3OU    C2  860   3.821   3.402   6.370
    2V3OU    O6  861   3.809   3.474   6.493
    2V3OU   H21  862   3.768   3.557   6.464
    2V3OU    C3  863   3.786   3.497   6.256
    2V3OU    H2  864   3.865   3.576   6.258
    2V3OU    H3  865   3.787   3.439   6.161
    2V3OU   C25  866   3.957   3.333   6.352
    2V3OU    O7  867   4.008   3.305   6.244
    2V3OU   C26  868   4.034   3.295   6.478
    2V3OU   H22  869   4.059   3.388   6.535
    2V3OU   H23  870   4.126   3.237   6.448
    2V3OU    O8  871   3.969   3.209   6.568
    2V3OU   H24  872   3.926   3.263   6.636
    2V3OU    C1  873   3.651   3.566   6.268
    2V3OU    H1  874   3.631   3.620   6.171
    2V3OU    O3  875   3.659   3.662   6.373
    2V3OU   C19  876   3.619   3.796   6.342
    2V3OU    H9  877   3.523   3.802   6.283
    2V3OU    O4  878   3.719   3.849   6.258
    2V3OU   C20  879   3.848   3.882   6.311
    2V3OU   H10  880   3.898   3.782   6.324
    2V3OU   C24  881   3.611   3.860   6.481
    2V3OU   H16  882   3.542   3.801   6.547
    2V3OU   H17  883   3.570   3.964   6.471
    2V3OU   C23  884   3.751   3.880   6.538
    2V3OU   H15  885   3.792   3.775   6.554
    2V3OU    N1  886   3.740   3.958   6.660
    2V3OU   H19  887   3.803   3.931   6.733
    2V3OU   H20  888   3.652   3.925   6.695
    2V3OU   C21  889   3.849   3.957   6.444
    2V3OU   H11  890   3.959   3.937   6.466
    2V3OU    O5  891   3.831   4.098   6.448
    2V3OU   H18  892   3.788   4.111   6.534
    2V3OU   C22  893   3.916   3.958   6.199
    2V3OU   H12  894   3.864   4.055   6.175
    2V3OU   H13  895   3.915   3.898   6.104
    2V3OU   H14  896   4.025   3.968   6.225
    2V3OU   C11  897   3.160   3.475   6.280
    2V3OU    O1  898   3.129   3.590   6.241
    2V3OU    C9  899   3.297   3.434   6.317
    2V3OU    C7  900   3.404   3.511   6.273
    2V3OU    O9  901   3.386   3.619   6.188
    2V3OU   H25  902   3.290   3.630   6.185
    2V3OU   C17  903   2.820   3.321   6.332
    2V3OU    H7  904   2.720   3.343   6.295
    2V3OU   C18  905   2.842   3.208   6.410
    2V3OU    H8  906   2.761   3.146   6.450
    3SOL     OW  907   3.211   3.036   4.145
    3SOL    HW1  908   3.205   2.980   4.227
    3SOL    HW2  909   3.155   3.118   4.156
    4SOL     OW  910   0.790   6.485   0.689
    4SOL    HW1  911   0.818   6.446   0.777
    4SOL    HW2  912   0.728   6.561   0.704
    5SOL     OW  913   3.775   2.336   0.760
    5SOL    HW1  914   3.830   2.311   0.839
    5SOL    HW2  915   3.755   2.434   0.763
    6SOL     OW  916   3.849   1.728   2.648
    6SOL    HW1  917   3.778   1.782   2.602
    6SOL    HW2  918   3.895   1.669   2.582
    7SOL     OW  919   2.278   2.941   4.718
    7SOL    HW1  920   2.334   2.869   4.759
    7SOL    HW2  921   2.206   2.899   4.663
    8SOL     OW  922   1.025   2.359   5.916
    8SOL    HW1  923   0.950   2.294   5.907
    8SOL    HW2  924   1.109   2.316   5.881
    9SOL     OW  925   1.467   2.574   6.000
    9SOL    HW1  926   1.515   2.575   5.912
    9SOL    HW2  927   1.521   2.524   6.068
   10SOL     OW  928   5.629   5.044   1.456
   10SOL    HW1  929   5.633   5.023   1.554
   10SOL    HW2  930   5.586   4.968   1.407
   11SOL     OW  931   3.234   1.592   0.605
   11SOL    HW1  932   3.202   1.594   0.699
   11SOL    HW2  933   3.170   1.539   0.549
   12SOL     OW  934   5.343   5.252   1.765
   12SOL    HW1  935   5.272   5.309   1.724
   12SOL    HW2  936   5.312   5.221   1.855
   13SOL     OW  937   5.578   5.705   1.937
   13SOL    HW1  938   5.484   5.670   1.939
   13SOL    HW2  939   5.577   5.804   1.926
   14SOL     OW  940   3.646   6.036   0.642
   14SOL    HW1  941   3.730   6.042   0.695
   14SOL    HW2  942   3.643   6.112   0.577
   15SOL     OW  943   0.553   6.861   6.699
   15SOL    HW1  944   0.631   6.799   6.699
   15SOL    HW2  945   0.537   6.895   6.792
   16SOL     OW  946   1.856   5.735   4.832
   16SOL    HW1  947   1.873   5.815   4.775
   16SOL    HW2  948   1.912   5.740   4.915
   17SOL     OW  949   0.347   2.178   3.804
   17SOL    HW1  950   0.396   2.105   3.758
   17SOL    HW2  951   0.412   2.242   3.846
   18SOL     OW  952   2.629   1.896   5.667
   18SOL    HW1  953   2.668   1.946   5.589
   18SOL    HW2  954   2.657   1.941   5.752
   19SOL     OW  955   2.699   5.475   2.958
   19SOL    HW1  956   2.621   5.439   2.907
   19SOL    HW2  957   2.701   5.575   2.950
   20SOL     OW  958   6.841   1.624   5.520
   20SOL    HW1  959   6.859   1.553   5.451
   20SOL    HW2  960   6.926   1.674   5.538
   21SOL     OW  961   1.476   4.112   1.767
   21SOL    HW1  962   1.387   4.116   1.722
   21SOL    HW2  963   1.528   4.195   1.747
   22SOL     OW  964   0.743   1.166   0.202
   22SOL    HW1  965   0.678   1.179   0.276
   22SOL    HW2  966   0.725   1.231   0.128
   23SOL     OW  967   6.879   5.144   6.773
   23SOL    HW1  968   6.817   5.177   6.843
   23SOL    HW2  969   6.870   5.044   6.764
   24SOL     OW  970   5.149   1.083   6.824
   24SOL    HW1  971   5.141   1.129   6.735
   24SOL    HW2  972   5.235   1.110   6.867
   25SOL     OW  973   1.243   0.772   4.779
   25SOL    HW1  974   1.274   0.677   4.773
   25SOL    HW2  975   1.279   0.823   4.701
   26SOL     OW  976   2.300   0.217   5.703
   26SOL    HW1  977   2.277   0.226   5.800
   26SOL    HW2  978   2.223   0.176   5.654
   27SOL     OW  979   0.037   0.267   2.495
   27SOL    HW1  980   6.973   0.232   2.493
   27SOL    HW2  981   0.097   0.204   2.445
   28SOL     OW  982   1.742   0.836   5.951
   28SOL    HW1  983   1.702   0.924   5.927
   28SOL    HW2  984   1.681   0.762   5.922
   29SOL     OW  985   5.430   1.112   1.136
   29SOL    HW1  986   5.341   1.093   1.094
   29SOL    HW2  987   5.451   1.041   1.203
   30SOL     OW  988   4.909   0.218   4.651
   30SOL    HW1  989   4.914   0.313   4.683
   30SOL    HW2  990   4.813   0.188   4.652
   31SOL     OW  991   6.538   4.947   4.678
   31SOL    HW1  992   6.525   4.995   4.765
   31SOL    HW2  993   6.454   4.899   4.654
   32SOL     OW  994   3.384   1.220   1.018
   32SOL    HW1  995   3.357   1.210   1.114
   32SOL    HW2  996   3.374   1.132   0.971
   33SOL     OW  997   1.975   4.987   5.339
   33SOL    HW1  998   1.938   5.061   5.282
   33SOL    HW2  999   1.988   5.020   5.432
   34SOL     OW 1000   2.044   6.507   5.309
   34SOL    HW1 1001   2.047   6.407   5.308
   34SOL    HW2 1002   2.072   6.540   5.399
   35SOL     OW 1003   1.322   2.722   4.332
   35SOL    HW1 1004   1.313   2.637   4.384
   35SOL    HW2 1005   1.335   2.798   4.395
   36SOL     OW 1006   5.491   1.149   4.368
   36SOL    HW1 1007   5.455   1.235   4.331
   36SOL    HW2 1008   5.585   1.163   4.399
   37SOL     OW 1009   1.604   6.512   4.563
   37SOL    HW1 1010   1.674   6.516   4.634
   37SOL    HW2 1011   1.539   6.587   4.576
   38SOL     OW 1012   0.830   3.303   1.100
   38SOL    HW1 1013   0.822   3.225   1.037
   38SOL    HW2 1014   0.739   3.341   1.116
   39SOL     OW 1015   6.737   5.001   0.978
   39SOL    HW1 1016   6.790   4.918   0.993
   39SOL    HW2 1017   6.657   5.001   1.038
   40SOL     OW 1018   4.081   1.025   0.205
   40SOL    HW1 1019   4.164   1.017   0.260
   40SOL    HW2 1020   4.070   1.119   0.174
   41SOL     OW 1021   5.712   4.019   1.954
   41SOL    HW1 1022   5.680   4.111   1.932
   41SOL    HW2 1023   5.635   3.955   1.953
   42SOL     OW 1024   2.263   3.641   0.112
   42SOL    HW1 1025   2.239   3.546   0.094
   42SOL    HW2 1026   2.180   3.696   0.115
   43SOL     OW 1027   4.988   6.871   4.484
   43SOL    HW1 1028   4.968   6.933   4.408
   43SOL    HW2 1029   5.081   6.886   4.516
   44SOL     OW 1030   6.633   0.719   6.806
   44SOL    HW1 1031   6.596   0.808   6.831
   44SOL    HW2 1032   6.733   0.721   6.811
   45SOL     OW 1033   2.973   3.853   5.626
   45SOL    HW1 1034   2.980   3.923   5.697
   45SOL    HW2 1035   2.886   3.804   5.636
   46SOL     OW 1036   0.955   4.686   4.616
   46SOL    HW1 1037   0.975   4.783   4.603
   46SOL    HW2 1038   0.931   4.644   4.529
   47SOL     OW 1039   6.209   4.037   6.992
   47SOL    HW1 1040   6.164   3.983   6.921
   47SOL    HW2 1041   6.299   4.066   6.959
   48SOL     OW 1042   0.200   4.207   0.030
   48SOL    HW1 1043   0.133   4.202   6.985
   48SOL    HW2 1044   0.196   4.123   0.083
   49SOL     OW 1045   3.286   1.814   6.619
   49SOL    HW1 1046   3.249   1.847   6.706
   49SOL    HW2 1047   3.234   1.733   6.589
   50SOL     OW 1048   5.173   2.127   6.478
   50SOL    HW1 1049   5.128   2.200   6.529
   50SOL    HW2 1050   5.246   2.088   6.534
   51SOL     OW 1051   1.272   6.407   2.338
   51SOL    HW1 1052   1.271   6.450   2.248
   51SOL    HW2 1053   1.337   6.455   2.397
   52SOL     OW 1054   5.977   2.003   2.426
   52SOL    HW1 1055   5.969   2.083   2.368
   52SOL    HW2 1056   5.891   1.989   2.476
   53SOL     OW 1057   4.714   0.699   0.602
   53SOL    HW1 1058   4.616   0.719   0.596
   53SOL    HW2 1059   4.727   0.602   0.619
   54SOL     OW 1060   6.937   0.928   6.493
   54SOL    HW1 1061   6.952   0.991   6.416
   54SOL    HW2 1062   6.912   0.981   6.574
   55SOL     OW 1063   2.052   3.399   5.785
   55SOL    HW1 1064   2.121   3.466   5.759
   55SOL    HW2 1065   2.050   3.391   5.885
   56SOL     OW 1066   0.690   2.834   6.877
   56SOL    HW1 1067   0.646   2.922   6.857
   56SOL    HW2 1068   0.622   2.761   6.876
   57SOL     OW 1069   3.993   5.373   1.419
   57SOL    HW1 1070   4.029   5.407   1.332
   57SOL    HW2 1071   3.911   5.425   1.444
   58SOL     OW 1072   0.742   0.943   0.046
   58SOL    HW1 1073   0.750   1.015   0.115
   58SOL    HW2 1074   0.790   0.861   0.077
   59SOL     OW 1075   3.805   2.799   0.082
   59SOL    HW1 1076   3.802   2.703   0.110
   59SOL    HW2 1077   3.783   2.806   7.015
   60SOL     OW 1078   6.708   2.900   2.848
   60SOL    HW1 1079   6.785   2.859   2.898
   60SOL    HW2 1080   6.670   2.975   2.902
   61SOL     OW 1081   1.389   5.934   2.825
   61SOL    HW1 1082   1.377   5.916   2.727
   61SOL    HW2 1083   1.483   5.963   2.843
   62SOL     OW 1084   5.156   2.935   3.217
   62SOL    HW1 1085   5.153   2.935   3.317
   62SOL    HW2 1086   5.135   2.843   3.184
   63SOL     OW 1087   4.059   7.025   6.896
   63SOL    HW1 1088   4.013   6.960   6.957
   63SOL    HW2 1089   4.026   0.087   6.915
   64SOL     OW 1090   1.834   2.427   6.732
   64SOL    HW1 1091   1.836   2.492   6.656
   64SOL    HW2 1092   1.824   2.334   6.696
   65SOL     OW 1093   0.833   5.001   5.318
   65SOL    HW1 1094   0.894   4.967   5.247
   65SOL    HW2 1095   0.880   4.997   5.407
   66SOL     OW 1096   4.614   1.041   1.407
   66SOL    HW1 1097   4.549   1.114   1.386
   66SOL    HW2 1098   4.693   1.079   1.455
   67SOL     OW 1099   6.999   3.356   1.240
   67SOL    HW1 1100   0.027   3.376   1.319
   67SOL    HW2 1101   7.017   3.263   1.208
   68SOL     OW 1102   0.454   1.082   6.322
   68SOL    HW1 1103   0.433   1.145   6.397
   68SOL    HW2 1104   0.424   1.122   6.236
   69SOL     OW 1105   1.770   0.079   6.314
   69SOL    HW1 1106   1.688   0.080   6.372
   69SOL    HW2 1107   1.803   0.173   6.300
   70SOL     OW 1108   4.739   4.986   3.465
   70SOL    HW1 1109   4.689   4.900   3.465
   70SOL    HW2 1110   4.680   5.060   3.433
   71SOL     OW 1111   5.247   1.613   5.017
   71SOL    HW1 1112   5.152   1.619   5.046
   71SOL    HW2 1113   5.256   1.647   4.924
   72SOL     OW 1114   6.516   0.958   2.219
   72SOL    HW1 1115   6.603   0.924   2.253
   72SOL    HW2 1116   6.464   0.882   2.178
   73SOL     OW 1117   2.950   1.066   0.901
   73SOL    HW1 1118   3.003   1.096   0.822
   73SOL    HW2 1119   2.985   1.110   0.984
   74SOL     OW 1120   2.518   1.173   0.052
   74SOL    HW1 1121   2.595   1.162   7.020
   74SOL    HW2 1122   2.490   1.269   0.054
   75SOL     OW 1123   2.793   2.812   1.475
   75SOL    HW1 1124   2.840   2.738   1.428
   75SOL    HW2 1125   2.694   2.795   1.474
   76SOL     OW 1126   4.039   5.191   6.445
   76SOL    HW1 1127   3.971   5.214   6.515
   76SOL    HW2 1128   4.014   5.236   6.359
   77SOL     OW 1129   6.751   5.149   4.432
   77SOL    HW1 1130   6.847   5.133   4.456
   77SOL    HW2 1131   6.701   5.177   4.514
   78SOL     OW 1132   5.286   1.361   1.514
   78SOL    HW1 1133   5.272   1.272   1.471
   78SOL    HW2 1134   5.280   1.433   1.445
   79SOL     OW 1135   1.706   4.731   4.242
   79SOL    HW1 1136   1.804   4.722   4.226
   79SOL    HW2 1137   1.656   4.699   4.162
   80SOL     OW 1138   3.923   2.291   5.300
   80SOL    HW1 1139   3.879   2.380   5.315
   80SOL    HW2 1140   4.004   2.303   5.242
   81SOL     OW 1141   2.808   4.978   3.475
   81SOL    HW1 1142   2.834   5.048   3.542
   81SOL    HW2 1143   2.710   4.983   3.458
   82SOL     OW 1144   3.403   0.266   1.879
   82SOL    HW1 1145   3.462   0.226   1.949
   82SOL    HW2 1146   3.437   0.357   1.855
   83SOL     OW 1147   5.808   1.553   3.648
   83SOL    HW1 1148   5.852   1.623   3.592
   83SOL    HW2 1149   5.825   1.573   3.745
   84SOL     OW 1150   5.454   2.369   2.660
   84SOL    HW1 1151   5.411   2.384   2.571
   84SOL    HW2 1152   5.524   2.297   2.651
   85SOL     OW 1153   2.074   5.480   3.495
   85SOL    HW1 1154   2.032   5.497   3.584
   85SOL    HW2 1155   2.173   5.491   3.503
   86SOL     OW 1156   5.023   1.040   0.634
   86SOL    HW1 1157   4.951   0.976   0.661
   86SOL    HW2 1158   5.109   1.016   0.680
   87SOL     OW 1159   2.777   3.257   6.743
   87SOL    HW1 1160   2.762   3.335   6.682
   87SOL    HW2 1161   2.876   3.246   6.758
   88SOL     OW 1162   1.622   1.838   1.052
   88SOL    HW1 1163   1.530   1.801   1.068
   88SOL    HW2 1164   1.680   1.819   1.131
   89SOL     OW 1165   3.949   3.991   4.623
   89SOL    HW1 1166   4.002   3.970   4.705
   89SOL    HW2 1167   3.851   3.987   4.643
   90SOL     OW 1168   6.555   3.398   2.303
   90SOL    HW1 1169   6.490   3.460   2.347
   90SOL    HW2 1170   6.555   3.415   2.204
   91SOL     OW 1171   4.766   5.084   0.756
   91SOL    HW1 1172   4.777   5.168   0.810
   91SOL    HW2 1173   4.821   5.091   0.673
   92SOL     OW 1174   5.869   5.672   6.839
   92SOL    HW1 1175   5.839   5.601   6.775
   92SOL    HW2 1176   5.959   5.649   6.874
   93SOL     OW 1177   3.081   3.513   1.807
   93SOL    HW1 1178   3.156   3.545   1.866
   93SOL    HW2 1179   3.108   3.428   1.762
   94SOL     OW 1180   2.939   1.418   4.221
   94SOL    HW1 1181   2.924   1.397   4.318
   94SOL    HW2 1182   2.858   1.463   4.184
   95SOL     OW 1183   1.114   5.943   4.237
   95SOL    HW1 1184   1.167   5.872   4.283
   95SOL    HW2 1185   1.031   5.903   4.198
   96SOL     OW 1186   0.021   6.399   6.818
   96SOL    HW1 1187   6.986   6.350   6.761
   96SOL    HW2 1188   7.001   6.454   6.886
   97SOL     OW 1189   4.009   5.004   5.015
   97SOL    HW1 1190   4.025   4.913   4.976
   97SOL    HW2 1191   3.953   5.058   4.953
   98SOL     OW 1192   0.812   2.866   4.974
   98SOL    HW1 1193   0.907   2.844   4.996
   98SOL    HW2 1194   0.787   2.823   4.887
   99SOL     OW 1195   4.792   4.692   5.042
   99SOL    HW1 1196   4.706   4.644   5.027
   99SOL    HW2 1197   4.857   4.667   4.970
  100SOL     OW 1198   1.678   1.212   5.386
  100SOL    HW1 1199   1.652   1.123   5.351
  100SOL    HW2 1200   1.648   1.283   5.323
  101SOL     OW 1201   5.528   2.776   2.593
  101SOL    HW1 1202   5.593   2.836   2.546
  101SOL    HW2 1203   5.497   2.821   2.677
  102SOL     OW 1204   3.837   6.936   0.375
  102SOL    HW1 1205   3.873   6.845   0.357
  102SOL    HW2 1206   3.793   6.938   0.465
  103SOL     OW 1207   1.925   1.920   1.532
  103SOL    HW1 1208   1.940   1.858   1.454
  103SOL    HW2 1209   1.985   1.894   1.607
  104SOL     OW 1210   0.546   4.253   1.357
  104SOL    HW1 1211   0.567   4.345   1.393
  104SOL    HW2 1212   0.580   4.184   1.421
  105SOL     OW 1213   6.643   1.608   5.252
  105SOL    HW1 1214   6.617   1.588   5.347
  105SOL    HW2 1215   6.635   1.706   5.236
  106SOL     OW 1216   4.777   3.106   1.551
  106SOL    HW1 1217   4.765   3.079   1.647
  106SOL    HW2 1218   4.759   3.027   1.492
  107SOL     OW 1219   4.602   6.260   2.524
  107SOL    HW1 1220   4.508   6.242   2.498
  107SOL    HW2 1221   4.622   6.357   2.516
  108SOL     OW 1222   3.419   1.476   4.452
  108SOL    HW1 1223   3.323   1.464   4.476
  108SOL    HW2 1224   3.442   1.416   4.375
  109SOL     OW 1225   1.841   1.956   5.209
  109SOL    HW1 1226   1.752   1.916   5.231
  109SOL    HW2 1227   1.872   2.013   5.285
  110SOL     OW 1228   4.327   4.730   5.368
  110SOL    HW1 1229   4.230   4.732   5.343
  110SOL    HW2 1230   4.353   4.818   5.407
  111SOL     OW 1231   6.121   3.106   1.400
  111SOL    HW1 1232   6.066   3.148   1.472
  111SOL    HW2 1233   6.094   3.144   1.311
  112SOL     OW 1234   4.716   6.245   5.086
  112SOL    HW1 1235   4.702   6.322   5.148
  112SOL    HW2 1236   4.804   6.202   5.106
  113SOL     OW 1237   0.939   5.286   1.952
  113SOL    HW1 1238   1.025   5.297   1.901
  113SOL    HW2 1239   0.958   5.241   2.039
  114SOL     OW 1240   6.653   1.818   2.042
  114SOL    HW1 1241   6.713   1.739   2.052
  114SOL    HW2 1242   6.700   1.889   1.988
  115SOL     OW 1243   4.646   1.096   3.202
  115SOL    HW1 1244   4.550   1.111   3.179
  115SOL    HW2 1245   4.693   1.184   3.204
  116SOL     OW 1246   6.248   5.521   0.446
  116SOL    HW1 1247   6.204   5.531   0.356
  116SOL    HW2 1248   6.197   5.573   0.514
  117SOL     OW 1249   2.613   1.524   0.582
  117SOL    HW1 1250   2.540   1.569   0.532
  117SOL    HW2 1251   2.700   1.571   0.564
  118SOL     OW 1252   0.279   2.262   1.933
  118SOL    HW1 1253   0.191   2.303   1.955
  118SOL    HW2 1254   0.340   2.332   1.895
  119SOL     OW 1255   6.015   5.487   4.984
  119SOL    HW1 1256   5.926   5.519   5.016
  119SOL    HW2 1257   6.015   5.483   4.884
  120SOL     OW 1258   4.337   1.949   4.703
  120SOL    HW1 1259   4.326   1.913   4.796
  120SOL    HW2 1260   4.384   2.037   4.706
  121SOL     OW 1261   0.036   5.551   6.097
  121SOL    HW1 1262   0.094   5.537   6.017
  121SOL    HW2 1263   6.970   5.551   6.068
  122SOL     OW 1264   0.449   4.588   5.395
  122SOL    HW1 1265   0.375   4.617   5.333
  122SOL    HW2 1266   0.413   4.578   5.487
  123SOL     OW 1267   0.720   2.730   1.237
  123SOL    HW1 1268   0.726   2.633   1.213
  123SOL    HW2 1269   0.744   2.742   1.333
  124SOL     OW 1270   1.960   3.849   6.451
  124SOL    HW1 1271   1.902   3.768   6.457
  124SOL    HW2 1272   1.983   3.867   6.356
  125SOL     OW 1273   4.141   2.328   0.420
  125SOL    HW1 1274   4.044   2.314   0.442
  125SOL    HW2 1275   4.196   2.307   0.500
  126SOL     OW 1276   3.871   3.369   4.703
  126SOL    HW1 1277   3.848   3.288   4.649
  126SOL    HW2 1278   3.970   3.385   4.699
  127SOL     OW 1279   0.202   4.845   5.710
  127SOL    HW1 1280   0.122   4.886   5.667
  127SOL    HW2 1281   0.183   4.830   5.807
  128SOL     OW 1282   4.691   4.169   5.973
  128SOL    HW1 1283   4.653   4.097   6.031
  128SOL    HW2 1284   4.785   4.146   5.950
  129SOL     OW 1285   0.454   5.134   1.268
  129SOL    HW1 1286   0.548   5.101   1.264
  129SOL    HW2 1287   0.425   5.164   1.177
  130SOL     OW 1288   6.199   3.714   4.686
  130SOL    HW1 1289   6.158   3.660   4.760
  130SOL    HW2 1290   6.142   3.708   4.604
  131SOL     OW 1291   0.457   3.652   2.516
  131SOL    HW1 1292   0.550   3.690   2.511
  131SOL    HW2 1293   0.444   3.588   2.440
  132SOL     OW 1294   4.141   2.650   1.561
  132SOL    HW1 1295   4.041   2.649   1.559
  132SOL    HW2 1296   4.174   2.572   1.614
  133SOL     OW 1297   4.305   4.574   5.758
  133SOL    HW1 1298   4.396   4.534   5.744
  133SOL    HW2 1299   4.298   4.609   5.851
  134SOL     OW 1300   6.553   1.902   6.641
  134SOL    HW1 1301   6.587   1.832   6.578
  134SOL    HW2 1302   6.473   1.866   6.690
  135SOL     OW 1303   4.693   4.562   3.754
  135SOL    HW1 1304   4.626   4.620   3.800
  135SOL    HW2 1305   4.782   4.607   3.756
  136SOL     OW 1306   3.928   6.673   6.102
  136SOL    HW1 1307   3.989   6.664   6.022
  136SOL    HW2 1308   3.885   6.585   6.120
  137SOL     OW 1309   1.821   4.418   0.360
  137SOL    HW1 1310   1.915   4.431   0.391
  137SOL    HW2 1311   1.820   4.396   0.263
  138SOL     OW 1312   0.855   5.289   0.694
  138SOL    HW1 1313   0.950   5.268   0.716
  138SOL    HW2 1314   0.834   5.257   0.602
  139SOL     OW 1315   0.396   0.827   1.201
  139SOL    HW1 1316   0.388   0.926   1.193
  139SOL    HW2 1317   0.310   0.789   1.235
  140SOL     OW 1318   3.249   6.799   2.098
  140SOL    HW1 1319   3.272   6.729   2.166
  140SOL    HW2 1320   3.235   6.886   2.144
  141SOL     OW 1321   1.336   2.110   0.191
  141SOL    HW1 1322   1.333   2.069   0.100
  141SOL    HW2 1323   1.413   2.173   0.196
  142SOL     OW 1324   2.106   3.939   6.936
  142SOL    HW1 1325   2.094   3.915   0.002
  142SOL    HW2 1326   2.019   3.926   6.887
  143SOL     OW 1327   5.847   5.625   1.875
  143SOL    HW1 1328   5.856   5.574   1.790
  143SOL    HW2 1329   5.751   5.644   1.894
  144SOL     OW 1330   2.357   5.186   3.254
  144SOL    HW1 1331   2.415   5.174   3.174
  144SOL    HW2 1332   2.412   5.179   3.337
  145SOL     OW 1333   0.415   5.865   3.424
  145SOL    HW1 1334   0.328   5.815   3.434
  145SOL    HW2 1335   0.449   5.853   3.331
  146SOL     OW 1336   0.420   0.588   5.644
  146SOL    HW1 1337   0.327   0.612   5.673
  146SOL    HW2 1338   0.423   0.491   5.618
  147SOL     OW 1339   6.000   0.616   4.633
  147SOL    HW1 1340   5.998   0.571   4.543
  147SOL    HW2 1341   5.918   0.592   4.685
  148SOL     OW 1342   1.542   6.899   2.359
  148SOL    HW1 1343   1.451   6.905   2.400
  148SOL    HW2 1344   1.609   6.876   2.429
  149SOL     OW 1345   1.784   2.763   4.854
  149SOL    HW1 1346   1.848   2.840   4.853
  149SOL    HW2 1347   1.773   2.727   4.761
  150SOL     OW 1348   5.261   3.282   5.605
  150SOL    HW1 1349   5.170   3.291   5.566
  150SOL    HW2 1350   5.254   3.268   5.704
  151SOL     OW 1351   6.380   2.797   2.206
  151SOL    HW1 1352   6.291   2.838   2.225
  151SOL    HW2 1353   6.451   2.846   2.255
  152SOL     OW 1354   6.973   2.765   0.382
  152SOL    HW1 1355   6.891   2.714   0.412
  152SOL    HW2 1356   6.979   2.761   0.283
  153SOL     OW 1357   1.863   1.762   3.908
  153SOL    HW1 1358   1.865   1.808   3.996
  153SOL    HW2 1359   1.866   1.830   3.835
  154SOL     OW 1360   0.244   1.222   3.910
  154SOL    HW1 1361   0.313   1.156   3.939
  154SOL    HW2 1362   0.172   1.228   3.980
  155SOL     OW 1363   5.716   4.724   3.029
  155SOL    HW1 1364   5.726   4.625   3.036
  155SOL    HW2 1365   5.747   4.754   2.939
  156SOL     OW 1366   4.358   6.917   1.597
  156SOL    HW1 1367   4.324   6.822   1.598
  156SOL    HW2 1368   4.302   6.971   1.533
  157SOL     OW 1369   5.443   6.962   1.025
  157SOL    HW1 1370   5.467   6.881   0.970
  157SOL    HW2 1371   5.490   0.012   0.989
  158SOL     OW 1372   0.914   3.369   4.845
  158SOL    HW1 1373   0.897   3.334   4.752
  158SOL    HW2 1374   0.842   3.433   4.870
  159SOL     OW 1375   6.514   5.068   6.729
  159SOL    HW1 1376   6.414   5.064   6.731
  159SOL    HW2 1377   6.548   5.080   6.823
  160SOL     OW 1378   3.775   0.279   1.303
  160SOL    HW1 1379   3.790   0.364   1.252
  160SOL    HW2 1380   3.680   0.250   1.294
  161SOL     OW 1381   7.009   0.317   0.496
  161SOL    HW1 1382   0.041   0.326   0.575
  161SOL    HW2 1383   6.958   0.402   0.484
  162SOL     OW 1384   4.194   6.957   5.170
  162SOL    HW1 1385   4.256   6.927   5.098
  162SOL    HW2 1386   4.208   6.902   5.252
  163SOL     OW 1387   0.969   3.974   2.335
  163SOL    HW1 1388   1.066   3.950   2.333
  163SOL    HW2 1389   0.914   3.891   2.336
  164SOL     OW 1390   2.177   2.372   2.910
  164SOL    HW1 1391   2.219   2.361   2.821
  164SOL    HW2 1392   2.077   2.378   2.899
  165SOL     OW 1393   0.245   6.454   4.144
  165SOL    HW1 1394   0.317   6.523   4.136
  165SOL    HW2 1395   0.246   6.395   4.064
  166SOL     OW 1396   0.506   4.967   3.855
  166SOL    HW1 1397   0.441   4.959   3.931
  166SOL    HW2 1398   0.540   4.877   3.831
  167SOL     OW 1399   0.833   1.201   3.010
  167SOL    HW1 1400   0.784   1.283   2.982
  167SOL    HW2 1401   0.910   1.185   2.947
  168SOL     OW 1402   3.261   3.783   3.260
  168SOL    HW1 1403   3.171   3.793   3.303
  168SOL    HW2 1404   3.250   3.755   3.165
  169SOL     OW 1405   5.053   2.889   6.432
  169SOL    HW1 1406   5.074   2.973   6.381
  169SOL    HW2 1407   4.964   2.898   6.476
  170SOL     OW 1408   0.242   5.205   2.110
  170SOL    HW1 1409   0.264   5.107   2.116
  170SOL    HW2 1410   0.149   5.216   2.077
  171SOL     OW 1411   3.160   2.584   0.732
  171SOL    HW1 1412   3.136   2.509   0.794
  171SOL    HW2 1413   3.097   2.660   0.745
  172SOL     OW 1414   1.764   1.091   0.171
  172SOL    HW1 1415   1.741   1.174   0.221
  172SOL    HW2 1416   1.859   1.095   0.141
  173SOL     OW 1417   6.139   0.576   4.982
  173SOL    HW1 1418   6.070   0.646   4.963
  173SOL    HW2 1419   6.192   0.604   5.062
  174SOL     OW 1420   6.585   4.052   5.244
  174SOL    HW1 1421   6.572   4.013   5.153
  174SOL    HW2 1422   6.669   4.014   5.284
  175SOL     OW 1423   0.990   5.968   2.924
  175SOL    HW1 1424   0.958   5.924   2.840
  175SOL    HW2 1425   1.055   6.041   2.900
  176SOL     OW 1426   6.434   4.000   0.940
  176SOL    HW1 1427   6.516   4.037   0.896
  176SOL    HW2 1428   6.356   4.059   0.920
  177SOL     OW 1429   6.489   2.561   4.037
  177SOL    HW1 1430   6.457   2.542   3.944
  177SOL    HW2 1431   6.546   2.485   4.068
  178SOL     OW 1432   1.338   5.796   4.903
  178SOL    HW1 1433   1.428   5.757   4.885
  178SOL    HW2 1434   1.285   5.734   4.961
  179SOL     OW 1435   3.621   4.119   1.856
  179SOL    HW1 1436   3.527   4.143   1.833
  179SOL    HW2 1437   3.634   4.126   1.955
  180SOL     OW 1438   4.880   0.950   6.187
  180SOL    HW1 1439   4.788   0.987   6.201
  180SOL    HW2 1440   4.905   0.958   6.091
  181SOL     OW 1441   3.852   0.814   5.222
  181SOL    HW1 1442   3.813   0.786   5.134
  181SOL    HW2 1443   3.919   0.746   5.251
  182SOL     OW 1444   3.322   3.098   5.625
  182SOL    HW1 1445   3.296   3.152   5.705
  182SOL    HW2 1446   3.312   3.001   5.646
  183SOL     OW 1447   3.311   1.211   3.624
  183SOL    HW1 1448   3.306   1.257   3.536
  183SOL    HW2 1449   3.313   1.112   3.610
  184SOL     OW 1450   4.710   6.199   3.630
  184SOL    HW1 1451   4.643   6.236   3.566
  184SOL    HW2 1452   4.802   6.222   3.598
  185SOL     OW 1453   0.311   6.854   5.022
  185SOL    HW1 1454   0.355   6.783   4.968
  185SOL    HW2 1455   0.374   6.930   5.037
  186SOL     OW 1456   2.709   5.760   6.030
  186SOL    HW1 1457   2.676   5.673   6.067
  186SOL    HW2 1458   2.726   5.750   5.932
  187SOL     OW 1459   3.596   5.302   0.730
  187SOL    HW1 1460   3.522   5.355   0.689
  187SOL    HW2 1461   3.664   5.364   0.769
  188SOL     OW 1462   1.561   4.144   3.949
  188SOL    HW1 1463   1.563   4.101   3.859
  188SOL    HW2 1464   1.653   4.173   3.975
  189SOL     OW 1465   5.789   4.615   6.053
  189SOL    HW1 1466   5.873   4.668   6.044
  189SOL    HW2 1467   5.753   4.594   5.963
  190SOL     OW 1468   5.827   6.368   0.442
  190SOL    HW1 1469   5.815   6.337   0.347
  190SOL    HW2 1470   5.897   6.439   0.445
  191SOL     OW 1471   2.229   3.533   5.638
  191SOL    HW1 1472   2.293   3.504   5.709
  191SOL    HW2 1473   2.253   3.489   5.552
  192SOL     OW 1474   0.049   0.318   1.121
  192SOL    HW1 1475   0.031   0.385   1.193
  192SOL    HW2 1476   0.063   0.367   1.034
  193SOL     OW 1477   3.061   0.210   1.466
  193SOL    HW1 1478   3.023   0.122   1.438
  193SOL    HW2 1479   3.091   0.206   1.561
  194SOL     OW 1480   4.324   5.657   3.316
  194SOL    HW1 1481   4.401   5.599   3.344
  194SOL    HW2 1482   4.257   5.662   3.390
  195SOL     OW 1483   2.780   0.643   1.057
  195SOL    HW1 1484   2.826   0.692   0.983
  195SOL    HW2 1485   2.810   0.679   1.145
  196SOL     OW 1486   3.894   3.136   1.014
  196SOL    HW1 1487   3.806   3.092   0.997
  196SOL    HW2 1488   3.939   3.092   1.091
  197SOL     OW 1489   1.556   6.082   0.416
  197SOL    HW1 1490   1.482   6.093   0.482
  197SOL    HW2 1491   1.643   6.071   0.464
  198SOL     OW 1492   5.759   0.014   6.115
  198SOL    HW1 1493   5.796   7.017   6.026
  198SOL    HW2 1494   5.830   0.007   6.185
  199SOL     OW 1495   2.038   1.059   3.608
  199SOL    HW1 1496   2.018   0.965   3.582
  199SOL    HW2 1497   1.999   1.121   3.540
  200SOL     OW 1498   1.480   3.927   4.343
  200SOL    HW1 1499   1.447   4.020   4.328
  200SOL    HW2 1500   1.423   3.882   4.411
  201SOL     OW 1501   4.689   1.134   0.328
  201SOL    HW1 1502   4.693   1.087   0.417
  201SOL    HW2 1503   4.655   1.227   0.340
  202SOL     OW 1504   4.430   6.977   3.188
  202SOL    HW1 1505   4.452   7.030   3.270
  202SOL    HW2 1506   4.504   6.988   3.121
  203SOL     OW 1507   5.857   2.463   0.362
  203SOL    HW1 1508   5.819   2.373   0.342
  203SOL    HW2 1509   5.863   2.516   0.277
  204SOL     OW 1510   1.841   6.098   1.131
  204SOL    HW1 1511   1.774   6.076   1.061
  204SOL    HW2 1512   1.841   6.197   1.147
  205SOL     OW 1513   5.440   0.576   1.608
  205SOL    HW1 1514   5.430   0.557   1.510
  205SOL    HW2 1515   5.406   0.668   1.627
  206SOL     OW 1516   0.064   6.369   1.082
  206SOL    HW1 1517   6.999   6.399   1.093
  206SOL    HW2 1518   0.109   6.367   1.171
  207SOL     OW 1519   6.699   2.310   5.339
  207SOL    HW1 1520   6.630   2.252   5.383
  207SOL    HW2 1521   6.739   2.261   5.262
  208SOL     OW 1522   3.907   3.705   6.834
  208SOL    HW1 1523   3.980   3.708   6.766
  208SOL    HW2 1524   3.935   3.648   6.910
  209SOL     OW 1525   6.994   6.931   3.964
  209SOL    HW1 1526   6.956   6.991   4.034
  209SOL    HW2 1527   7.004   6.839   4.001
  210SOL     OW 1528   4.281   1.803   0.868
  210SOL    HW1 1529   4.289   1.864   0.947
  210SOL    HW2 1530   4.199   1.746   0.878
  211SOL     OW 1531   0.580   3.294   2.153
  211SOL    HW1 1532   0.499   3.236   2.160
  211SOL    HW2 1533   0.628   3.296   2.241
  212SOL     OW 1534   0.881   5.244   5.685
  212SOL    HW1 1535   0.814   5.287   5.625
  212SOL    HW2 1536   0.898   5.150   5.655
  213SOL     OW 1537   3.588   2.705   1.128
  213SOL    HW1 1538   3.572   2.791   1.081
  213SOL    HW2 1539   3.533   2.702   1.212
  214SOL     OW 1540   1.337   6.160   3.677
  214SOL    HW1 1541   1.252   6.135   3.722
  214SOL    HW2 1542   1.386   6.227   3.733
  215SOL     OW 1543   3.819   4.027   2.985
  215SOL    HW1 1544   3.910   3.986   2.996
  215SOL    HW2 1545   3.785   4.058   3.073
  216SOL     OW 1546   3.203   0.666   5.466
  216SOL    HW1 1547   3.133   0.696   5.400
  216SOL    HW2 1548   3.224   0.741   5.528
  217SOL     OW 1549   0.177   1.869   5.208
  217SOL    HW1 1550   0.176   1.775   5.174
  217SOL    HW2 1551   0.156   1.868   5.306
  218SOL     OW 1552   3.034   4.264   5.847
  218SOL    HW1 1553   2.972   4.297   5.775
  218SOL    HW2 1554   3.128   4.291   5.826
  219SOL     OW 1555   2.562   5.779   6.516
  219SOL    HW1 1556   2.633   5.768   6.447
  219SOL    HW2 1557   2.573   5.868   6.561
  220SOL     OW 1558   1.438   5.332   0.124
  220SOL    HW1 1559   1.459   5.331   0.026
  220SOL    HW2 1560   1.360   5.272   0.142
  221SOL     OW 1561   5.889   3.011   4.986
  221SOL    HW1 1562   5.894   2.933   4.924
  221SOL    HW2 1563   5.798   3.015   5.027
  222SOL     OW 1564   1.992   6.826   4.534
  222SOL    HW1 1565   2.008   6.751   4.469
  222SOL    HW2 1566   2.076   6.881   4.542
  223SOL     OW 1567   5.816   4.791   2.769
  223SOL    HW1 1568   5.894   4.836   2.724
  223SOL    HW2 1569   5.732   4.841   2.749
  224SOL     OW 1570   5.048   2.785   2.562
  224SOL    HW1 1571   4.966   2.840   2.575
  224SOL    HW2 1572   5.091   2.766   2.651
  225SOL     OW 1573   5.095   6.372   1.464
  225SOL    HW1 1574   5.123   6.308   1.392
  225SOL    HW2 1575   5.007   6.343   1.502
  226SOL     OW 1576   0.652   5.903   2.334
  226SOL    HW1 1577   0.563   5.857   2.333
  226SOL    HW2 1578   0.652   5.973   2.405
  227SOL     OW 1579   1.156   3.697   3.292
  227SOL    HW1 1580   1.152   3.645   3.207
  227SOL    HW2 1581   1.134   3.638   3.369
  228SOL     OW 1582   4.293   5.881   3.122
  228SOL    HW1 1583   4.319   5.798   3.170
  228SOL    HW2 1584   4.285   5.957   3.187
  229SOL     OW 1585   6.469   6.043   2.904
  229SOL    HW1 1586   6.404   5.981   2.947
  229SOL    HW2 1587   6.434   6.072   2.815
  230SOL     OW 1588   1.057   4.727   6.025
  230SOL    HW1 1589   1.002   4.647   6.002
  230SOL    HW2 1590   1.039   4.754   6.120
  231SOL     OW 1591   0.431   2.259   6.557
  231SOL    HW1 1592   0.502   2.228   6.621
  231SOL    HW2 1593   0.474   2.302   6.478
  232SOL     OW 1594   1.414   4.062   5.701
  232SOL    HW1 1595   1.373   4.153   5.702
  232SOL    HW2 1596   1.353   3.997   5.745
  233SOL     OW 1597   3.558   0.322   0.005
  233SOL    HW1 1598   3.490   0.250   0.022
  233SOL    HW2 1599   3.637   0.308   0.064
  234SOL     OW 1600   2.389   4.808   6.672
  234SOL    HW1 1601   2.299   4.774   6.644
  234SOL    HW2 1602   2.377   4.889   6.730
  235SOL     OW 1603   3.845   3.473   5.832
  235SOL    HW1 1604   3.832   3.493   5.735
  235SOL    HW2 1605   3.766   3.507   5.884
  236SOL     OW 1606   6.896   1.123   6.264
  236SOL    HW1 1607   6.990   1.155   6.270
  236SOL    HW2 1608   6.845   1.179   6.199
  237SOL     OW 1609   0.051   6.567   2.249
  237SOL    HW1 1610   0.032   6.510   2.169
  237SOL    HW2 1611   7.027   6.533   2.326
  238SOL     OW 1612   0.233   2.390   2.355
  238SOL    HW1 1613   0.149   2.443   2.371
  238SOL    HW2 1614   0.210   2.293   2.348
  239SOL     OW 1615   6.024   4.922   0.461
  239SOL    HW1 1616   6.038   4.824   0.447
  239SOL    HW2 1617   6.000   4.939   0.557
  240SOL     OW 1618   0.059   1.903   4.789
  240SOL    HW1 1619   0.103   1.815   4.768
  240SOL    HW2 1620   0.009   1.895   4.875
  241SOL     OW 1621   5.793   1.886   5.155
  241SOL    HW1 1622   5.877   1.840   5.126
  241SOL    HW2 1623   5.772   1.861   5.249
  242SOL     OW 1624   2.815   2.272   4.373
  242SOL    HW1 1625   2.847   2.250   4.280
  242SOL    HW2 1626   2.879   2.235   4.439
  243SOL     OW 1627   4.968   0.976   7.008
  243SOL    HW1 1628   4.950   1.006   0.072
  243SOL    HW2 1629   5.057   1.011   6.979
  244SOL     OW 1630   0.504   2.004   6.191
  244SOL    HW1 1631   0.488   1.984   6.288
  244SOL    HW2 1632   0.418   1.997   6.141
  245SOL     OW 1633   5.161   2.456   4.264
  245SOL    HW1 1634   5.171   2.482   4.360
  245SOL    HW2 1635   5.113   2.368   4.258
  246SOL     OW 1636   5.208   3.292   4.602
  246SOL    HW1 1637   5.292   3.343   4.619
  246SOL    HW2 1638   5.229   3.196   4.586
  247SOL     OW 1639   3.079   0.626   2.828
  247SOL    HW1 1640   3.141   0.685   2.879
  247SOL    HW2 1641   3.126   0.542   2.801
  248SOL     OW 1642   0.353   2.425   2.836
  248SOL    HW1 1643   0.425   2.412   2.903
  248SOL    HW2 1644   0.388   2.478   2.759
  249SOL     OW 1645   2.107   5.482   5.334
  249SOL    HW1 1646   2.093   5.402   5.393
  249SOL    HW2 1647   2.084   5.565   5.385
  250SOL     OW 1648   5.213   2.301   0.112
  250SOL    HW1 1649   5.219   2.389   0.065
  250SOL    HW2 1650   5.158   2.310   0.195
  251SOL     OW 1651   2.187   0.999   1.162
  251SOL    HW1 1652   2.182   0.911   1.114
  251SOL    HW2 1653   2.116   1.061   1.126
  252SOL     OW 1654   0.241   2.267   0.388
  252SOL    HW1 1655   0.307   2.227   0.450
  252SOL    HW2 1656   0.228   2.207   0.309
  253SOL     OW 1657   2.341   4.646   6.296
  253SOL    HW1 1658   2.371   4.556   6.266
  253SOL    HW2 1659   2.402   4.679   6.369
  254SOL     OW 1660   4.940   3.591   6.222
  254SOL    HW1 1661   5.005   3.516   6.214
  254SOL    HW2 1662   4.983   3.668   6.269
  255SOL     OW 1663   4.522   1.866   2.214
  255SOL    HW1 1664   4.519   1.953   2.164
  255SOL    HW2 1665   4.577   1.800   2.164
  256SOL     OW 1666   6.993   6.138   1.463
  256SOL    HW1 1667   6.995   6.222   1.410
  256SOL    HW2 1668   0.049   6.089   1.451
  257SOL     OW 1669   2.715   6.118   5.763
  257SOL    HW1 1670   2.790   6.078   5.816
  257SOL    HW2 1671   2.680   6.050   5.699
  258SOL     OW 1672   3.988   5.289   4.517
  258SOL    HW1 1673   3.900   5.261   4.478
  258SOL    HW2 1674   3.973   5.360   4.585
  259SOL     OW 1675   0.539   1.875   2.673
  259SOL    HW1 1676   0.525   1.926   2.588
  259SOL    HW2 1677   0.629   1.898   2.711
  260SOL     OW 1678   6.479   6.741   5.466
  260SOL    HW1 1679   6.435   6.656   5.436
  260SOL    HW2 1680   6.565   6.719   5.513
  261SOL     OW 1681   0.637   0.649   4.470
  261SOL    HW1 1682   0.538   0.641   4.472
  261SOL    HW2 1683   0.678   0.559   4.454
  262SOL     OW 1684   1.656   5.782   1.516
  262SOL    HW1 1685   1.673   5.870   1.472
  262SOL    HW2 1686   1.561   5.754   1.499
  263SOL     OW 1687   0.344   4.296   4.485
  263SOL    HW1 1688   0.347   4.289   4.385
  263SOL    HW2 1689   0.409   4.232   4.525
  264SOL     OW 1690   2.911   4.357   0.447
  264SOL    HW1 1691   2.998   4.401   0.469
  264SOL    HW2 1692   2.921   4.258   0.458
  265SOL     OW 1693   4.228   5.059   3.902
  265SOL    HW1 1694   4.197   5.026   3.991
  265SOL    HW2 1695   4.224   5.159   3.901
  266SOL     OW 1696   4.046   3.472   6.957
  266SOL    HW1 1697   4.134   3.515   6.938
  266SOL    HW2 1698   4.061   3.377   6.985
  267SOL     OW 1699   2.644   2.786   5.857
  267SOL    HW1 1700   2.708   2.749   5.923
  267SOL    HW2 1701   2.566   2.723   5.847
  268SOL     OW 1702   1.833   4.240   3.910
  268SOL    HW1 1703   1.849   4.312   3.977
  268SOL    HW2 1704   1.874   4.265   3.823
  269SOL     OW 1705   3.242   1.878   5.683
  269SOL    HW1 1706   3.315   1.819   5.648
  269SOL    HW2 1707   3.280   1.947   5.744
  270SOL     OW 1708   5.371   6.197   4.837
  270SOL    HW1 1709   5.373   6.256   4.918
  270SOL    HW2 1710   5.397   6.250   4.756
  271SOL     OW 1711   2.299   1.915   0.239
  271SOL    HW1 1712   2.340   1.831   0.202
  271SOL    HW2 1713   2.207   1.895   0.273
  272SOL     OW 1714   4.699   4.887   0.268
  272SOL    HW1 1715   4.656   4.802   0.296
  272SOL    HW2 1716   4.765   4.916   0.338
  273SOL     OW 1717   1.387   5.929   3.981
  273SOL    HW1 1718   1.376   6.007   4.043
  273SOL    HW2 1719   1.418   5.850   4.034
  274SOL     OW 1720   5.686   2.340   2.446
  274SOL    HW1 1721   5.714   2.283   2.523
  274SOL    HW2 1722   5.599   2.308   2.410
  275SOL     OW 1723   6.004   5.468   5.794
  275SOL    HW1 1724   5.927   5.413   5.760
  275SOL    HW2 1725   6.084   5.452   5.738
  276SOL     OW 1726   0.701   0.325   4.783
  276SOL    HW1 1727   0.796   0.299   4.768
  276SOL    HW2 1728   0.648   0.307   4.700
  277SOL     OW 1729   3.716   2.909   5.448
  277SOL    HW1 1730   3.667   2.993   5.470
  277SOL    HW2 1731   3.660   2.851   5.390
  278SOL     OW 1732   5.559   4.853   2.676
  278SOL    HW1 1733   5.529   4.768   2.721
  278SOL    HW2 1734   5.549   4.843   2.577
  279SOL     OW 1735   0.659   4.391   3.753
  279SOL    HW1 1736   0.718   4.315   3.726
  279SOL    HW2 1737   0.578   4.356   3.800
  280SOL     OW 1738   4.646   1.387   3.823
  280SOL    HW1 1739   4.581   1.426   3.758
  280SOL    HW2 1740   4.643   1.439   3.909
  281SOL     OW 1741   5.336   5.667   5.306
  281SOL    HW1 1742   5.303   5.606   5.234
  281SOL    HW2 1743   5.432   5.647   5.325
  282SOL     OW 1744   0.463   2.689   0.111
  282SOL    HW1 1745   0.472   2.722   0.205
  282SOL    HW2 1746   0.371   2.711   0.077
  283SOL     OW 1747   5.980   4.034   2.791
  283SOL    HW1 1748   5.959   3.937   2.776
  283SOL    HW2 1749   5.910   4.090   2.747
  284SOL     OW 1750   6.042   6.678   2.737
  284SOL    HW1 1751   5.945   6.693   2.718
  284SOL    HW2 1752   6.063   6.710   2.829
  285SOL     OW 1753   4.116   6.028   6.022
  285SOL    HW1 1754   4.196   5.985   6.065
  285SOL    HW2 1755   4.101   6.118   6.062
  286SOL     OW 1756   3.466   4.857   5.417
  286SOL    HW1 1757   3.542   4.920   5.402
  286SOL    HW2 1758   3.412   4.849   5.333
  287SOL     OW 1759   3.380   6.117   0.432
  287SOL    HW1 1760   3.336   6.029   0.414
  287SOL    HW2 1761   3.310   6.186   0.449
  288SOL     OW 1762   4.630   0.865   0.214
  288SOL    HW1 1763   4.713   0.814   0.235
  288SOL    HW2 1764   4.637   0.958   0.252
  289SOL     OW 1765   4.871   5.122   4.561
  289SOL    HW1 1766   4.904   5.213   4.588
  289SOL    HW2 1767   4.872   5.061   4.640
  290SOL     OW 1768   3.745   0.738   4.837
  290SOL    HW1 1769   3.835   0.781   4.839
  290SOL    HW2 1770   3.722   0.704   4.929
  291SOL     OW 1771   5.982   0.891   4.606
  291SOL    HW1 1772   5.972   0.798   4.641
  291SOL    HW2 1773   6.028   0.947   4.674
  292SOL     OW 1774   3.431   0.643   3.432
  292SOL    HW1 1775   3.350   0.696   3.406
  292SOL    HW2 1776   3.433   0.558   3.379
  293SOL     OW 1777   5.375   0.767   2.864
  293SOL    HW1 1778   5.349   0.674   2.839
  293SOL    HW2 1779   5.318   0.832   2.814
  294SOL     OW 1780   6.614   1.402   6.831
  294SOL    HW1 1781   6.648   1.480   6.884
  294SOL    HW2 1782   6.683   1.377   6.762
  295SOL     OW 1783   0.446   0.261   5.290
  295SOL    HW1 1784   0.489   0.334   5.342
  295SOL    HW2 1785   0.477   0.265   5.195
  296SOL     OW 1786   0.805   1.876   1.445
  296SOL    HW1 1787   0.855   1.825   1.515
  296SOL    HW2 1788   0.773   1.812   1.375
  297SOL     OW 1789   5.434   3.167   3.529
  297SOL    HW1 1790   5.466   3.203   3.441
  297SOL    HW2 1791   5.509   3.171   3.595
  298SOL     OW 1792   4.570   0.227   5.299
  298SOL    HW1 1793   4.614   0.305   5.343
  298SOL    HW2 1794   4.504   0.185   5.363
  299SOL     OW 1795   0.577   1.298   6.098
  299SOL    HW1 1796   0.651   1.280   6.163
  299SOL    HW2 1797   0.610   1.280   6.005
  300SOL     OW 1798   4.354   6.247   4.295
  300SOL    HW1 1799   4.300   6.174   4.254
  300SOL    HW2 1800   4.321   6.336   4.263
  301SOL     OW 1801   0.115   6.313   5.330
  301SOL    HW1 1802   0.064   6.357   5.404
  301SOL    HW2 1803   0.213   6.317   5.349
  302SOL     OW 1804   0.452   6.802   2.021
  302SOL    HW1 1805   0.426   6.712   2.054
  302SOL    HW2 1806   0.552   6.808   2.017
  303SOL     OW 1807   5.291   5.517   2.492
  303SOL    HW1 1808   5.333   5.607   2.487
  303SOL    HW2 1809   5.224   5.516   2.567
  304SOL     OW 1810   1.302   0.304   3.793
  304SOL    HW1 1811   1.364   0.283   3.717
  304SOL    HW2 1812   1.350   0.357   3.861
  305SOL     OW 1813   2.194   2.030   1.374
  305SOL    HW1 1814   2.282   1.993   1.344
  305SOL    HW2 1815   2.202   2.062   1.468
  306SOL     OW 1816   0.484   0.167   2.365
  306SOL    HW1 1817   0.552   0.111   2.316
  306SOL    HW2 1818   0.469   0.129   2.456
  307SOL     OW 1819   3.497   4.191   3.868
  307SOL    HW1 1820   3.538   4.243   3.942
  307SOL    HW2 1821   3.568   4.158   3.806
  308SOL     OW 1822   6.207   1.709   2.105
  308SOL    HW1 1823   6.254   1.674   2.024
  308SOL    HW2 1824   6.272   1.756   2.164
  309SOL     OW 1825   1.721   4.814   0.154
  309SOL    HW1 1826   1.766   4.856   0.233
  309SOL    HW2 1827   1.624   4.836   0.156
  310SOL     OW 1828   4.886   6.524   5.425
  310SOL    HW1 1829   4.845   6.457   5.487
  310SOL    HW2 1830   4.985   6.512   5.423
  311SOL     OW 1831   1.600   6.464   2.145
  311SOL    HW1 1832   1.572   6.523   2.070
  311SOL    HW2 1833   1.650   6.517   2.213
  312SOL     OW 1834   3.441   0.466   4.114
  312SOL    HW1 1835   3.467   0.555   4.076
  312SOL    HW2 1836   3.524   0.415   4.138
  313SOL     OW 1837   3.179   3.152   2.932
  313SOL    HW1 1838   3.160   3.249   2.948
  313SOL    HW2 1839   3.248   3.120   2.997
  314SOL     OW 1840   2.866   5.198   6.205
  314SOL    HW1 1841   2.935   5.207   6.277
  314SOL    HW2 1842   2.774   5.201   6.245
  315SOL     OW 1843   6.269   0.555   4.725
  315SOL    HW1 1844   6.260   0.515   4.816
  315SOL    HW2 1845   6.186   0.535   4.672
  316SOL     OW 1846   4.258   1.186   5.699
  316SOL    HW1 1847   4.224   1.209   5.790
  316SOL    HW2 1848   4.221   1.098   5.671
  317SOL     OW 1849   0.825   2.321   1.551
  317SOL    HW1 1850   0.797   2.357   1.640
  317SOL    HW2 1851   0.901   2.375   1.515
  318SOL     OW 1852   1.078   0.591   2.875
  318SOL    HW1 1853   1.077   0.691   2.869
  318SOL    HW2 1854   0.992   0.555   2.840
  319SOL     OW 1855   1.156   0.910   2.332
  319SOL    HW1 1856   1.076   0.890   2.388
  319SOL    HW2 1857   1.232   0.940   2.390
  320SOL     OW 1858   4.978   1.345   0.178
  320SOL    HW1 1859   4.950   1.426   0.229
  320SOL    HW2 1860   4.953   1.263   0.230
  321SOL     OW 1861   4.132   3.261   1.021
  321SOL    HW1 1862   4.035   3.247   0.998
  321SOL    HW2 1863   4.171   3.176   1.056
  322SOL     OW 1864   3.204   1.919   6.847
  322SOL    HW1 1865   3.105   1.929   6.848
  322SOL    HW2 1866   3.236   1.886   6.936
  323SOL     OW 1867   1.288   3.932   2.064
  323SOL    HW1 1868   1.367   3.886   2.023
  323SOL    HW2 1869   1.305   3.949   2.160
  324SOL     OW 1870   6.682   0.692   3.951
  324SOL    HW1 1871   6.737   0.637   4.014
  324SOL    HW2 1872   6.632   0.632   3.889
  325SOL     OW 1873   5.991   3.419   1.171
  325SOL    HW1 1874   6.040   3.488   1.224
  325SOL    HW2 1875   5.922   3.375   1.229
  326SOL     OW 1876   0.009   5.493   6.765
  326SOL    HW1 1877   6.941   5.512   6.763
  326SOL    HW2 1878   0.025   5.405   6.810
  327SOL     OW 1879   4.382   6.030   6.463
  327SOL    HW1 1880   4.347   6.021   6.556
  327SOL    HW2 1881   4.459   6.094   6.463
  328SOL     OW 1882   1.473   4.822   3.400
  328SOL    HW1 1883   1.379   4.845   3.373
  328SOL    HW2 1884   1.474   4.787   3.493
  329SOL     OW 1885   3.594   2.814   2.187
  329SOL    HW1 1886   3.556   2.722   2.175
  329SOL    HW2 1887   3.565   2.872   2.111
  330SOL     OW 1888   2.504   3.493   6.318
  330SOL    HW1 1889   2.470   3.512   6.226
  330SOL    HW2 1890   2.459   3.553   6.383
  331SOL     OW 1891   5.153   5.308   4.014
  331SOL    HW1 1892   5.075   5.299   3.952
  331SOL    HW2 1893   5.128   5.268   4.103
  332SOL     OW 1894   5.783   1.456   2.596
  332SOL    HW1 1895   5.744   1.383   2.541
  332SOL    HW2 1896   5.787   1.428   2.692
  333SOL     OW 1897   3.866   6.443   3.616
  333SOL    HW1 1898   3.857   6.459   3.714
  333SOL    HW2 1899   3.826   6.354   3.593
  334SOL     OW 1900   3.512   3.490   4.170
  334SOL    HW1 1901   3.528   3.486   4.268
  334SOL    HW2 1902   3.590   3.534   4.125
  335SOL     OW 1903   4.084   1.127   0.799
  335SOL    HW1 1904   4.097   1.141   0.701
  335SOL    HW2 1905   4.055   1.213   0.842
  336SOL     OW 1906   3.833   1.944   4.858
  336SOL    HW1 1907   3.736   1.920   4.865
  336SOL    HW2 1908   3.858   2.005   4.934
  337SOL     OW 1909   0.195   1.336   5.376
  337SOL    HW1 1910   0.271   1.271   5.384
  337SOL    HW2 1911   0.108   1.287   5.379
  338SOL     OW 1912   4.943   1.038   1.923
  338SOL    HW1 1913   5.032   1.066   1.957
  338SOL    HW2 1914   4.884   1.119   1.913
  339SOL     OW 1915   4.252   5.029   6.173
  339SOL    HW1 1916   4.278   4.964   6.244
  339SOL    HW2 1917   4.158   5.012   6.145
  340SOL     OW 1918   4.938   3.206   4.801
  340SOL    HW1 1919   4.955   3.300   4.830
  340SOL    HW2 1920   5.024   3.155   4.804
  341SOL     OW 1921   0.157   0.540   1.814
  341SOL    HW1 1922   0.092   0.497   1.752
  341SOL    HW2 1923   0.248   0.501   1.798
  342SOL     OW 1924   4.558   1.241   2.125
  342SOL    HW1 1925   4.505   1.157   2.116
  342SOL    HW2 1926   4.498   1.314   2.159
  343SOL     OW 1927   5.878   6.933   1.550
  343SOL    HW1 1928   5.835   6.919   1.639
  343SOL    HW2 1929   5.887   0.001   1.532
  344SOL     OW 1930   6.800   2.793   1.572
  344SOL    HW1 1931   6.799   2.756   1.479
  344SOL    HW2 1932   6.707   2.812   1.601
  345SOL     OW 1933   0.102   2.170   4.483
  345SOL    HW1 1934   0.130   2.260   4.447
  345SOL    HW2 1935   0.178   2.129   4.533
  346SOL     OW 1936   1.697   5.741   2.867
  346SOL    HW1 1937   1.713   5.717   2.771
  346SOL    HW2 1938   1.625   5.683   2.905
  347SOL     OW 1939   2.454   4.795   1.362
  347SOL    HW1 1940   2.508   4.863   1.312
  347SOL    HW2 1941   2.504   4.767   1.444
  348SOL     OW 1942   5.295   4.720   1.548
  348SOL    HW1 1943   5.243   4.692   1.467
  348SOL    HW2 1944   5.265   4.811   1.577
  349SOL     OW 1945   5.917   4.711   1.028
  349SOL    HW1 1946   5.902   4.797   1.076
  349SOL    HW2 1947   5.830   4.665   1.013
  350SOL     OW 1948   2.545   1.568   0.985
  350SOL    HW1 1949   2.618   1.621   0.943
  350SOL    HW2 1950   2.479   1.541   0.916
  351SOL     OW 1951   3.557   4.453   1.417
  351SOL    HW1 1952   3.606   4.376   1.375
  351SOL    HW2 1953   3.534   4.430   1.511
  352SOL     OW 1954   4.158   6.458   2.310
  352SOL    HW1 1955   4.189   6.374   2.354
  352SOL    HW2 1956   4.061   6.449   2.287
  353SOL     OW 1957   1.836   6.664   7.028
  353SOL    HW1 1958   1.832   6.762   7.010
  353SOL    HW2 1959   1.744   6.628   0.012
  354SOL     OW 1960   1.313   2.154   0.748
  354SOL    HW1 1961   1.406   2.187   0.734
  354SOL    HW2 1962   1.254   2.230   0.777
  355SOL     OW 1963   0.301   2.999   3.198
  355SOL    HW1 1964   0.294   3.003   3.098
  355SOL    HW2 1965   0.269   2.910   3.230
  356SOL     OW 1966   2.770   0.728   5.657
  356SOL    HW1 1967   2.747   0.824   5.674
  356SOL    HW2 1968   2.869   0.719   5.644
  357SOL     OW 1969   5.277   5.951   4.089
  357SOL    HW1 1970   5.314   5.931   4.180
  357SOL    HW2 1971   5.343   6.005   4.037
  358SOL     OW 1972   3.141   6.205   0.155
  358SOL    HW1 1973   3.165   6.122   0.105
  358SOL    HW2 1974   3.210   6.276   0.137
  359SOL     OW 1975   1.945   2.134   1.800
  359SOL    HW1 1976   1.910   2.041   1.793
  359SOL    HW2 1977   2.008   2.151   1.724
  360SOL     OW 1978   2.169   3.959   3.350
  360SOL    HW1 1979   2.196   4.043   3.301
  360SOL    HW2 1980   2.114   3.983   3.430
  361SOL     OW 1981   0.167   2.239   2.704
  361SOL    HW1 1982   0.234   2.296   2.751
  361SOL    HW2 1983   0.164   2.148   2.746
  362SOL     OW 1984   4.166   3.548   2.261
  362SOL    HW1 1985   4.148   3.583   2.169
  362SOL    HW2 1986   4.130   3.612   2.328
  363SOL     OW 1987   4.557   4.893   0.665
  363SOL    HW1 1988   4.603   4.978   0.691
  363SOL    HW2 1989   4.625   4.821   0.651
  364SOL     OW 1990   1.208   0.391   0.559
  364SOL    HW1 1991   1.171   0.432   0.642
  364SOL    HW2 1992   1.308   0.398   0.560
  365SOL     OW 1993   5.916   0.549   3.822
  365SOL    HW1 1994   5.912   0.628   3.761
  365SOL    HW2 1995   5.850   0.561   3.896
  366SOL     OW 1996   4.966   1.567   6.894
  366SOL    HW1 1997   4.885   1.511   6.884
  366SOL    HW2 1998   5.041   1.528   6.840
  367SOL     OW 1999   5.588   0.999   7.008
  367SOL    HW1 2000   5.593   1.032   0.072
  367SOL    HW2 2001   5.529   1.060   6.955
  368SOL     OW 2002   2.666   1.799   6.195
  368SOL    HW1 2003   2.660   1.745   6.279
  368SOL    HW2 2004   2.578   1.794   6.146
  369SOL     OW 2005   4.909   4.709   0.365
  369SOL    HW1 2006   4.981   4.646   0.394
  369SOL    HW2 2007   4.835   4.658   0.321
  370SOL     OW 2008   1.987   2.378   3.252
  370SOL    HW1 2009   2.075   2.347   3.289
  370SOL    HW2 2010   2.003   2.425   3.166
  371SOL     OW 2011   2.430   5.913   0.012
  371SOL    HW1 2012   2.451   5.995   6.989
  371SOL    HW2 2013   2.450   5.832   6.987
  372SOL     OW 2014   2.235   6.088   6.285
  372SOL    HW1 2015   2.317   6.144   6.287
  372SOL    HW2 2016   2.185   6.100   6.371
  373SOL     OW 2017   6.325   4.629   3.145
  373SOL    HW1 2018   6.239   4.654   3.189
  373SOL    HW2 2019   6.306   4.586   3.056
  374SOL     OW 2020   2.709   2.365   2.282
  374SOL    HW1 2021   2.610   2.381   2.279
  374SOL    HW2 2022   2.745   2.370   2.189
  375SOL     OW 2023   0.609   6.092   3.993
  375SOL    HW1 2024   0.639   6.114   4.085
  375SOL    HW2 2025   0.585   6.176   3.944
  376SOL     OW 2026   4.486   0.122   3.440
  376SOL    HW1 2027   4.563   0.078   3.484
  376SOL    HW2 2028   4.504   0.220   3.432
  377SOL     OW 2029   2.741   2.692   6.343
  377SOL    HW1 2030   2.756   2.773   6.287
  377SOL    HW2 2031   2.739   2.610   6.285
  378SOL     OW 2032   4.156   1.257   2.162
  378SOL    HW1 2033   4.256   1.265   2.169
  378SOL    HW2 2034   4.114   1.334   2.211
  379SOL     OW 2035   3.768   2.961   6.546
  379SOL    HW1 2036   3.799   3.049   6.582
  379SOL    HW2 2037   3.816   2.941   6.461
  380SOL     OW 2038   4.915   1.956   0.797
  380SOL    HW1 2039   4.994   1.988   0.848
  380SOL    HW2 2040   4.836   1.951   0.857
  381SOL     OW 2041   1.575   4.045   2.652
  381SOL    HW1 2042   1.645   4.058   2.581
  381SOL    HW2 2043   1.613   4.072   2.740
  382SOL     OW 2044   6.037   6.871   0.464
  382SOL    HW1 2045   6.033   6.967   0.434
  382SOL    HW2 2046   6.022   6.866   0.562
  383SOL     OW 2047   4.831   3.456   0.668
  383SOL    HW1 2048   4.858   3.374   0.618
  383SOL    HW2 2049   4.732   3.456   0.681
  384SOL     OW 2050   0.592   2.723   5.167
  384SOL    HW1 2051   0.553   2.778   5.241
  384SOL    HW2 2052   0.672   2.770   5.129
  385SOL     OW 2053   4.556   2.062   6.750
  385SOL    HW1 2054   4.604   2.131   6.805
  385SOL    HW2 2055   4.460   2.059   6.778
  386SOL     OW 2056   4.477   6.602   4.980
  386SOL    HW1 2057   4.554   6.557   5.027
  386SOL    HW2 2058   4.421   6.533   4.935
  387SOL     OW 2059   2.830   5.991   3.975
  387SOL    HW1 2060   2.821   6.074   4.029
  387SOL    HW2 2061   2.919   5.990   3.929
  388SOL     OW 2062   1.769   5.002   5.880
  388SOL    HW1 2063   1.680   4.959   5.898
  388SOL    HW2 2064   1.842   4.939   5.905
  389SOL     OW 2065   2.666   3.520   1.122
  389SOL    HW1 2066   2.696   3.425   1.112
  389SOL    HW2 2067   2.571   3.528   1.094
  390SOL     OW 2068   2.423   1.148   4.413
  390SOL    HW1 2069   2.337   1.098   4.399
  390SOL    HW2 2070   2.411   1.243   4.385
  391SOL     OW 2071   1.041   2.427   7.027
  391SOL    HW1 2072   1.081   2.481   0.071
  391SOL    HW2 2073   0.957   2.473   6.995
  392SOL     OW 2074   3.193   5.553   4.998
  392SOL    HW1 2075   3.187   5.646   5.036
  392SOL    HW2 2076   3.289   5.531   4.980
  393SOL     OW 2077   6.147   3.905   5.728
  393SOL    HW1 2078   6.055   3.943   5.716
  393SOL    HW2 2079   6.186   3.939   5.814
  394SOL     OW 2080   2.099   1.557   6.095
  394SOL    HW1 2081   2.005   1.532   6.116
  394SOL    HW2 2082   2.136   1.612   6.170
  395SOL     OW 2083   6.912   2.906   1.033
  395SOL    HW1 2084   6.992   2.871   1.081
  395SOL    HW2 2085   6.905   2.862   0.944
  396SOL     OW 2086   3.294   2.831   5.673
  396SOL    HW1 2087   3.337   2.791   5.754
  396SOL    HW2 2088   3.271   2.758   5.608
  397SOL     OW 2089   4.407   1.317   6.698
  397SOL    HW1 2090   4.326   1.274   6.658
  397SOL    HW2 2091   4.378   1.379   6.771
  398SOL     OW 2092   0.624   4.340   2.250
  398SOL    HW1 2093   0.654   4.424   2.204
  398SOL    HW2 2094   0.697   4.306   2.308
  399SOL     OW 2095   4.948   5.328   2.037
  399SOL    HW1 2096   4.878   5.256   2.041
  399SOL    HW2 2097   4.929   5.397   2.106
  400SOL     OW 2098   2.266   4.688   4.816
  400SOL    HW1 2099   2.342   4.625   4.798
  400SOL    HW2 2100   2.179   4.640   4.802
  401SOL     OW 2101   5.910   1.514   0.967
  401SOL    HW1 2102   5.856   1.590   1.003
  401SOL    HW2 2103   5.971   1.480   1.039
  402SOL     OW 2104   0.081   4.672   0.792
  402SOL    HW1 2105   7.028   4.667   0.735
  402SOL    HW2 2106   0.145   4.601   0.763
  403SOL     OW 2107   4.580   4.863   0.964
  403SOL    HW1 2108   4.495   4.819   0.995
  403SOL    HW2 2109   4.596   4.840   0.868
  404SOL     OW 2110   6.981   6.080   4.670
  404SOL    HW1 2111   6.981   6.060   4.768
  404SOL    HW2 2112   7.023   6.170   4.655
  405SOL     OW 2113   1.336   2.251   1.319
  405SOL    HW1 2114   1.427   2.250   1.278
  405SOL    HW2 2115   1.283   2.327   1.280
  406SOL     OW 2116   1.202   2.678   3.642
  406SOL    HW1 2117   1.294   2.706   3.613
  406SOL    HW2 2118   1.158   2.627   3.568
  407SOL     OW 2119   3.486   2.047   4.416
  407SOL    HW1 2120   3.414   2.073   4.480
  407SOL    HW2 2121   3.563   2.110   4.425
  408SOL     OW 2122   2.569   0.486   3.756
  408SOL    HW1 2123   2.639   0.481   3.828
  408SOL    HW2 2124   2.532   0.395   3.740
  409SOL     OW 2125   6.910   3.940   3.981
  409SOL    HW1 2126   6.972   3.932   4.058
  409SOL    HW2 2127   6.832   3.999   4.006
  410SOL     OW 2128   3.054   6.757   6.290
  410SOL    HW1 2129   2.997   6.827   6.334
  410SOL    HW2 2130   3.144   6.756   6.333
  411SOL     OW 2131   0.600   3.936   5.034
  411SOL    HW1 2132   0.581   3.957   4.938
  411SOL    HW2 2133   0.532   3.981   5.091
  412SOL     OW 2134   4.146   6.857   2.600
  412SOL    HW1 2135   4.158   6.945   2.646
  412SOL    HW2 2136   4.089   6.797   2.656
  413SOL     OW 2137   2.217   1.190   2.589
  413SOL    HW1 2138   2.249   1.095   2.587
  413SOL    HW2 2139   2.199   1.221   2.496
  414SOL     OW 2140   4.936   4.883   0.838
  414SOL    HW1 2141   4.903   4.971   0.802
  414SOL    HW2 2142   4.889   4.862   0.923
  415SOL     OW 2143   3.880   6.793   2.193
  415SOL    HW1 2144   3.968   6.777   2.238
  415SOL    HW2 2145   3.892   6.859   2.119
  416SOL     OW 2146   3.899   5.613   7.007
  416SOL    HW1 2147   3.880   5.516   7.020
  416SOL    HW2 2148   3.943   5.650   0.058
  417SOL     OW 2149   5.016   4.885   1.443
  417SOL    HW1 2150   5.081   4.903   1.517
  417SOL    HW2 2151   4.995   4.787   1.440
  418SOL     OW 2152   6.259   5.007   6.552
  418SOL    HW1 2153   6.246   4.956   6.467
  418SOL    HW2 2154   6.258   5.105   6.532
  419SOL     OW 2155   5.514   6.027   0.249
  419SOL    HW1 2156   5.435   6.042   0.190
  419SOL    HW2 2157   5.493   5.959   0.318
  420SOL     OW 2158   4.990   3.902   6.882
  420SOL    HW1 2159   4.904   3.947   6.858
  420SOL    HW2 2160   5.048   3.965   6.932
  421SOL     OW 2161   1.710   6.583   6.549
  421SOL    HW1 2162   1.686   6.591   6.452
  421SOL    HW2 2163   1.763   6.500   6.564
  422SOL     OW 2164   5.819   3.897   6.930
  422SOL    HW1 2165   5.770   3.811   6.913
  422SOL    HW2 2166   5.916   3.885   6.910
  423SOL     OW 2167   1.213   3.534   6.257
  423SOL    HW1 2168   1.277   3.482   6.200
  423SOL    HW2 2169   1.247   3.536   6.351
  424SOL     OW 2170   1.881   4.370   0.056
  424SOL    HW1 2171   1.962   4.312   0.052
  424SOL    HW2 2172   1.908   4.466   0.059
  425SOL     OW 2173   3.365   0.173   0.109
  425SOL    HW1 2174   3.415   0.188   0.194
  425SOL    HW2 2175   3.268   0.155   0.129
  426SOL     OW 2176   6.914   4.099   6.006
  426SOL    HW1 2177   6.823   4.063   6.029
  426SOL    HW2 2178   6.948   4.053   5.924
  427SOL     OW 2179   4.491   3.329   0.519
  427SOL    HW1 2180   4.552   3.251   0.503
  427SOL    HW2 2181   4.519   3.378   0.601
  428SOL     OW 2182   3.929   1.702   5.784
  428SOL    HW1 2183   4.004   1.636   5.781
  428SOL    HW2 2184   3.932   1.753   5.870
  429SOL     OW 2185   2.688   6.857   0.548
  429SOL    HW1 2186   2.723   6.914   0.474
  429SOL    HW2 2187   2.591   6.837   0.531
  430SOL     OW 2188   2.978   0.131   4.275
  430SOL    HW1 2189   2.985   0.031   4.267
  430SOL    HW2 2190   3.070   0.169   4.286
  431SOL     OW 2191   3.305   1.045   7.024
  431SOL    HW1 2192   3.357   1.104   0.056
  431SOL    HW2 2193   3.363   0.969   6.994
  432SOL     OW 2194   6.887   1.051   1.186
  432SOL    HW1 2195   6.879   1.063   1.285
  432SOL    HW2 2196   6.952   1.118   1.149
  433SOL     OW 2197   2.964   6.116   4.968
  433SOL    HW1 2198   2.970   6.215   4.981
  433SOL    HW2 2199   3.028   6.089   4.896
  434SOL     OW 2200   6.135   3.596   1.371
  434SOL    HW1 2201   6.157   3.504   1.403
  434SOL    HW2 2202   6.149   3.661   1.446
  435SOL     OW 2203   3.701   3.634   0.968
  435SOL    HW1 2204   3.702   3.534   0.968
  435SOL    HW2 2205   3.614   3.666   0.930
  436SOL     OW 2206   3.052   0.929   0.619
  436SOL    HW1 2207   3.079   0.889   0.531
  436SOL    HW2 2208   2.957   0.908   0.637
  437SOL     OW 2209   6.419   0.146   5.953
  437SOL    HW1 2210   6.443   0.237   5.987
  437SOL    HW2 2211   6.344   0.108   6.008
  438SOL     OW 2212   1.674   3.532   1.446
  438SOL    HW1 2213   1.707   3.451   1.493
  438SOL    HW2 2214   1.734   3.552   1.368
  439SOL     OW 2215   6.259   4.278   2.187
  439SOL    HW1 2216   6.167   4.312   2.168
  439SOL    HW2 2217   6.323   4.356   2.192
  440SOL     OW 2218   1.682   3.134   3.179
  440SOL    HW1 2219   1.661   3.230   3.201
  440SOL    HW2 2220   1.602   3.078   3.200
  441SOL     OW 2221   0.387   1.018   3.230
  441SOL    HW1 2222   0.397   1.079   3.309
  441SOL    HW2 2223   0.476   0.984   3.202
  442SOL     OW 2224   0.220   4.906   6.375
  442SOL    HW1 2225   0.295   4.970   6.358
  442SOL    HW2 2226   0.142   4.956   6.414
  443SOL     OW 2227   0.502   4.167   5.521
  443SOL    HW1 2228   0.496   4.212   5.432
  443SOL    HW2 2229   0.598   4.161   5.549
  444SOL     OW 2230   4.766   2.824   6.562
  444SOL    HW1 2231   4.772   2.859   6.655
  444SOL    HW2 2232   4.682   2.856   6.519
  445SOL     OW 2233   1.806   4.091   3.407
  445SOL    HW1 2234   1.872   4.059   3.475
  445SOL    HW2 2235   1.721   4.117   3.451
  446SOL     OW 2236   2.913   5.333   4.284
  446SOL    HW1 2237   2.880   5.248   4.325
  446SOL    HW2 2238   2.909   5.326   4.185
  447SOL     OW 2239   0.032   6.271   0.623
  447SOL    HW1 2240   0.114   6.215   0.641
  447SOL    HW2 2241   0.060   6.360   0.587
  448SOL     OW 2242   4.193   0.366   6.121
  448SOL    HW1 2243   4.218   0.454   6.080
  448SOL    HW2 2244   4.095   0.365   6.140
  449SOL     OW 2245   5.246   0.095   4.113
  449SOL    HW1 2246   5.303   0.093   4.031
  449SOL    HW2 2247   5.176   0.166   4.104
  450SOL     OW 2248   6.315   6.563   3.097
  450SOL    HW1 2249   6.352   6.655   3.109
  450SOL    HW2 2250   6.385   6.495   3.122
  451SOL     OW 2251   6.470   3.031   3.866
  451SOL    HW1 2252   6.512   2.948   3.903
  451SOL    HW2 2253   6.455   3.096   3.940
  452SOL     OW 2254   6.728   5.184   5.843
  452SOL    HW1 2255   6.651   5.134   5.882
  452SOL    HW2 2256   6.786   5.218   5.916
  453SOL     OW 2257   3.003   1.778   5.812
  453SOL    HW1 2258   2.956   1.742   5.731
  453SOL    HW2 2259   3.095   1.808   5.786
  454SOL     OW 2260   1.024   6.415   0.573
  454SOL    HW1 2261   1.103   6.430   0.632
  454SOL    HW2 2262   0.941   6.447   0.620
  455SOL     OW 2263   5.180   0.509   4.657
  455SOL    HW1 2264   5.129   0.554   4.730
  455SOL    HW2 2265   5.276   0.536   4.661
  456SOL     OW 2266   4.294   5.469   0.015
  456SOL    HW1 2267   4.331   5.517   6.965
  456SOL    HW2 2268   4.368   5.421   0.062
  457SOL     OW 2269   0.858   4.727   1.525
  457SOL    HW1 2270   0.944   4.702   1.481
  457SOL    HW2 2271   0.874   4.800   1.591
  458SOL     OW 2272   0.345   6.439   5.070
  458SOL    HW1 2273   0.352   6.518   5.130
  458SOL    HW2 2274   0.291   6.463   4.989
  459SOL     OW 2275   1.741   0.628   3.491
  459SOL    HW1 2276   1.680   0.688   3.543
  459SOL    HW2 2277   1.739   0.654   3.395
  460SOL     OW 2278   6.540   1.993   3.909
  460SOL    HW1 2279   6.509   1.964   3.818
  460SOL    HW2 2280   6.472   1.964   3.977
  461SOL     OW 2281   5.612   5.635   5.468
  461SOL    HW1 2282   5.685   5.571   5.447
  461SOL    HW2 2283   5.637   5.726   5.435
  462SOL     OW 2284   2.935   1.956   6.873
  462SOL    HW1 2285   2.881   2.008   6.940
  462SOL    HW2 2286   2.895   1.865   6.863
  463SOL     OW 2287   6.993   6.038   1.991
  463SOL    HW1 2288   6.950   6.098   2.058
  463SOL    HW2 2289   6.944   5.950   1.989
  464SOL     OW 2290   1.804   1.563   5.840
  464SOL    HW1 2291   1.895   1.601   5.849
  464SOL    HW2 2292   1.762   1.554   5.930
  465SOL     OW 2293   0.227   3.138   5.855
  465SOL    HW1 2294   0.192   3.164   5.765
  465SOL    HW2 2295   0.327   3.136   5.853
  466SOL     OW 2296   2.655   0.858   3.174
  466SOL    HW1 2297   2.717   0.792   3.216
  466SOL    HW2 2298   2.701   0.902   3.096
  467SOL     OW 2299   1.636   1.751   5.227
  467SOL    HW1 2300   1.539   1.770   5.209
  467SOL    HW2 2301   1.646   1.657   5.259
  468SOL     OW 2302   3.218   3.549   2.230
  468SOL    HW1 2303   3.281   3.619   2.198
  468SOL    HW2 2304   3.124   3.576   2.209
  469SOL     OW 2305   3.237   5.623   0.383
  469SOL    HW1 2306   3.296   5.562   0.436
  469SOL    HW2 2307   3.215   5.580   0.295
  470SOL     OW 2308   4.205   0.059   2.777
  470SOL    HW1 2309   4.193   0.107   2.690
  470SOL    HW2 2310   4.295   0.080   2.814
  471SOL     OW 2311   2.874   1.891   4.783
  471SOL    HW1 2312   2.971   1.918   4.780
  471SOL    HW2 2313   2.852   1.837   4.702
  472SOL     OW 2314   4.097   4.387   5.379
  472SOL    HW1 2315   4.041   4.314   5.339
  472SOL    HW2 2316   4.163   4.419   5.311
  473SOL     OW 2317   1.129   4.296   3.655
  473SOL    HW1 2318   1.167   4.389   3.664
  473SOL    HW2 2319   1.158   4.241   3.733
  474SOL     OW 2320   5.080   4.439   5.048
  474SOL    HW1 2321   5.024   4.444   5.131
  474SOL    HW2 2322   5.041   4.498   4.977
  475SOL     OW 2323   1.450   6.559   6.271
  475SOL    HW1 2324   1.489   6.471   6.244
  475SOL    HW2 2325   1.417   6.607   6.190
  476SOL     OW 2326   0.704   5.539   1.749
  476SOL    HW1 2327   0.721   5.583   1.837
  476SOL    HW2 2328   0.666   5.447   1.765
  477SOL     OW 2329   1.644   5.184   3.596
  477SOL    HW1 2330   1.679   5.271   3.561
  477SOL    HW2 2331   1.670   5.110   3.533
  478SOL     OW 2332   1.545   5.660   3.080
  478SOL    HW1 2333   1.520   5.607   3.161
  478SOL    HW2 2334   1.605   5.735   3.107
  479SOL     OW 2335   3.672   1.535   1.625
  479SOL    HW1 2336   3.663   1.572   1.718
  479SOL    HW2 2337   3.636   1.442   1.623
  480SOL     OW 2338   1.842   6.560   2.612
  480SOL    HW1 2339   1.792   6.628   2.558
  480SOL    HW2 2340   1.940   6.578   2.604
  481SOL     OW 2341   2.839   6.555   1.474
  481SOL    HW1 2342   2.780   6.474   1.472
  481SOL    HW2 2343   2.934   6.527   1.480
  482SOL     OW 2344   5.624   5.498   1.174
  482SOL    HW1 2345   5.565   5.543   1.108
  482SOL    HW2 2346   5.607   5.399   1.172
  483SOL     OW 2347   5.868   1.752   1.547
  483SOL    HW1 2348   5.782   1.718   1.509
  483SOL    HW2 2349   5.915   1.807   1.479
  484SOL     OW 2350   6.896   2.687   5.058
  484SOL    HW1 2351   6.940   2.678   4.968
  484SOL    HW2 2352   6.965   2.708   5.127
  485SOL     OW 2353   3.549   6.061   1.907
  485SOL    HW1 2354   3.523   5.986   1.968
  485SOL    HW2 2355   3.554   6.028   1.813
  486SOL     OW 2356   0.360   0.316   6.260
  486SOL    HW1 2357   0.265   0.284   6.267
  486SOL    HW2 2358   0.406   0.303   6.348
  487SOL     OW 2359   6.374   2.626   6.501
  487SOL    HW1 2360   6.407   2.700   6.560
  487SOL    HW2 2361   6.386   2.538   6.548
  488SOL     OW 2362   0.798   3.457   2.505
  488SOL    HW1 2363   0.768   3.365   2.481
  488SOL    HW2 2364   0.790   3.471   2.604
  489SOL     OW 2365   3.339   6.109   6.195
  489SOL    HW1 2366   3.342   6.193   6.249
  489SOL    HW2 2367   3.255   6.107   6.141
  490SOL     OW 2368   5.255   6.401   4.305
  490SOL    HW1 2369   5.172   6.453   4.328
  490SOL    HW2 2370   5.331   6.434   4.360
  491SOL     OW 2371   0.091   2.135   3.614
  491SOL    HW1 2372   0.164   2.132   3.683
  491SOL    HW2 2373   0.116   2.077   3.536
  492SOL     OW 2374   1.884   1.002   4.737
  492SOL    HW1 2375   1.979   1.029   4.722
  492SOL    HW2 2376   1.878   0.951   4.822
  493SOL     OW 2377   6.105   4.161   4.341
  493SOL    HW1 2378   6.173   4.100   4.299
  493SOL    HW2 2379   6.073   4.121   4.427
  494SOL     OW 2380   6.304   1.774   6.700
  494SOL    HW1 2381   6.222   1.782   6.642
  494SOL    HW2 2382   6.276   1.756   6.794
  495SOL     OW 2383   4.390   4.173   0.648
  495SOL    HW1 2384   4.304   4.125   0.662
  495SOL    HW2 2385   4.442   4.175   0.733
  496SOL     OW 2386   6.145   2.743   2.746
  496SOL    HW1 2387   6.111   2.660   2.790
  496SOL    HW2 2388   6.148   2.729   2.647
  497SOL     OW 2389   3.431   6.951   4.611
  497SOL    HW1 2390   3.502   7.015   4.583
  497SOL    HW2 2391   3.365   6.998   4.669
  498SOL     OW 2392   1.232   3.056   2.534
  498SOL    HW1 2393   1.243   3.063   2.435
  498SOL    HW2 2394   1.310   3.007   2.573
  499SOL     OW 2395   3.075   1.129   4.980
  499SOL    HW1 2396   3.007   1.140   4.908
  499SOL    HW2 2397   3.145   1.200   4.972
  500SOL     OW 2398   1.593   4.527   2.318
  500SOL    HW1 2399   1.564   4.439   2.278
  500SOL    HW2 2400   1.560   4.602   2.260
  501SOL     OW 2401   1.535   5.067   0.083
  501SOL    HW1 2402   1.436   5.064   0.099
  501SOL    HW2 2403   1.581   5.090   0.169
  502SOL     OW 2404   3.832   5.047   6.263
  502SOL    HW1 2405   3.886   5.003   6.190
  502SOL    HW2 2406   3.892   5.074   6.337
  503SOL     OW 2407   6.184   5.901   5.102
  503SOL    HW1 2408   6.198   5.950   5.188
  503SOL    HW2 2409   6.156   5.806   5.121
  504SOL     OW 2410   1.744   5.779   4.468
  504SOL    HW1 2411   1.841   5.763   4.451
  504SOL    HW2 2412   1.694   5.693   4.460
  505SOL     OW 2413   4.039   6.657   5.089
  505SOL    HW1 2414   4.099   6.659   5.009
  505SOL    HW2 2415   4.085   6.608   5.164
  506SOL     OW 2416   1.798   3.618   0.161
  506SOL    HW1 2417   1.846   3.602   0.075
  506SOL    HW2 2418   1.797   3.716   0.181
  507SOL     OW 2419   3.852   1.996   4.221
  507SOL    HW1 2420   3.789   2.054   4.275
  507SOL    HW2 2421   3.946   2.015   4.249
  508SOL     OW 2422   6.083   4.147   3.782
  508SOL    HW1 2423   6.083   4.047   3.785
  508SOL    HW2 2424   6.009   4.178   3.721
  509SOL     OW 2425   4.562   2.543   1.004
  509SOL    HW1 2426   4.595   2.492   1.083
  509SOL    HW2 2427   4.495   2.611   1.033
  510SOL     OW 2428   0.900   3.647   4.519
  510SOL    HW1 2429   0.948   3.718   4.571
  510SOL    HW2 2430   0.967   3.581   4.484
  511SOL     OW 2431   0.313   6.731   1.254
  511SOL    HW1 2432   0.257   6.752   1.334
  511SOL    HW2 2433   0.341   6.635   1.258
  512SOL     OW 2434   0.864   3.937   6.577
  512SOL    HW1 2435   0.786   3.904   6.524
  512SOL    HW2 2436   0.946   3.887   6.550
  513SOL     OW 2437   0.909   5.266   4.600
  513SOL    HW1 2438   0.867   5.183   4.564
  513SOL    HW2 2439   0.964   5.243   4.681
  514SOL     OW 2440   6.110   1.933   3.196
  514SOL    HW1 2441   6.107   1.992   3.276
  514SOL    HW2 2442   6.080   1.841   3.221
  515SOL     OW 2443   1.887   5.463   0.071
  515SOL    HW1 2444   1.917   5.412   0.152
  515SOL    HW2 2445   1.790   5.482   0.078
  516SOL     OW 2446   1.487   5.215   2.530
  516SOL    HW1 2447   1.533   5.289   2.579
  516SOL    HW2 2448   1.394   5.243   2.506
  517SOL     OW 2449   5.009   0.575   6.423
  517SOL    HW1 2450   5.074   0.624   6.481
  517SOL    HW2 2451   5.058   0.532   6.347
  518SOL     OW 2452   2.684   1.729   0.821
  518SOL    HW1 2453   2.712   1.701   0.729
  518SOL    HW2 2454   2.586   1.753   0.820
  519SOL     OW 2455   0.918   0.267   0.554
  519SOL    HW1 2456   1.013   0.291   0.533
  519SOL    HW2 2457   0.917   0.203   0.631
  520SOL     OW 2458   6.455   4.292   4.421
  520SOL    HW1 2459   6.508   4.218   4.463
  520SOL    HW2 2460   6.418   4.261   4.333
  521SOL     OW 2461   6.013   0.576   0.770
  521SOL    HW1 2462   6.011   0.676   0.763
  521SOL    HW2 2463   5.927   0.539   0.734
  522SOL     OW 2464   3.609   3.521   5.394
  522SOL    HW1 2465   3.605   3.533   5.494
  522SOL    HW2 2466   3.617   3.424   5.373
  523SOL     OW 2467   6.687   6.953   4.459
  523SOL    HW1 2468   6.633   7.027   4.498
  523SOL    HW2 2469   6.768   6.937   4.515
  524SOL     OW 2470   4.229   1.372   6.043
  524SOL    HW1 2471   4.247   1.281   6.006
  524SOL    HW2 2472   4.166   1.364   6.121
  525SOL     OW 2473   2.628   2.504   6.656
  525SOL    HW1 2474   2.609   2.501   6.558
  525SOL    HW2 2475   2.571   2.574   6.699
  526SOL     OW 2476   4.388   5.621   4.915
  526SOL    HW1 2477   4.440   5.640   4.832
  526SOL    HW2 2478   4.417   5.533   4.953
  527SOL     OW 2479   0.991   2.193   0.160
  527SOL    HW1 2480   1.008   2.252   0.081
  527SOL    HW2 2481   1.040   2.229   0.240
  528SOL     OW 2482   2.379   0.974   5.515
  528SOL    HW1 2483   2.392   0.878   5.493
  528SOL    HW2 2484   2.459   1.027   5.487
  529SOL     OW 2485   6.686   4.723   3.808
  529SOL    HW1 2486   6.624   4.801   3.812
  529SOL    HW2 2487   6.732   4.722   3.719
  530SOL     OW 2488   1.056   2.182   5.098
  530SOL    HW1 2489   1.005   2.265   5.076
  530SOL    HW2 2490   1.127   2.167   5.029
  531SOL     OW 2491   0.058   0.758   0.292
  531SOL    HW1 2492   0.082   0.706   0.210
  531SOL    HW2 2493   0.107   0.845   0.292
  532SOL     OW 2494   1.928   0.406   6.015
  532SOL    HW1 2495   1.963   0.444   5.930
  532SOL    HW2 2496   1.993   0.421   6.089
  533SOL     OW 2497   5.428   0.362   4.535
  533SOL    HW1 2498   5.342   0.339   4.490
  533SOL    HW2 2499   5.415   0.443   4.592
  534SOL     OW 2500   2.894   5.100   3.049
  534SOL    HW1 2501   2.979   5.052   3.028
  534SOL    HW2 2502   2.874   5.165   2.975
  535SOL     OW 2503   6.389   4.304   2.601
  535SOL    HW1 2504   6.343   4.321   2.689
  535SOL    HW2 2505   6.331   4.248   2.543
  536SOL     OW 2506   0.759   6.180   0.614
  536SOL    HW1 2507   0.795   6.260   0.566
  536SOL    HW2 2508   0.793   6.181   0.709
  537SOL     OW 2509   2.386   0.032   3.527
  537SOL    HW1 2510   2.350   6.986   3.581
  537SOL    HW2 2511   2.335   0.038   3.440
  538SOL     OW 2512   1.587   4.651   4.021
  538SOL    HW1 2513   1.512   4.715   4.040
  538SOL    HW2 2514   1.555   4.557   4.034
  539SOL     OW 2515   1.385   6.102   1.312
  539SOL    HW1 2516   1.427   6.011   1.301
  539SOL    HW2 2517   1.371   6.143   1.222
  540SOL     OW 2518   1.530   3.062   1.534
  540SOL    HW1 2519   1.499   3.083   1.626
  540SOL    HW2 2520   1.471   3.107   1.467
  541SOL     OW 2521   3.689   5.026   5.274
  541SOL    HW1 2522   3.782   5.029   5.237
  541SOL    HW2 2523   3.670   5.110   5.324
  542SOL     OW 2524   5.705   6.402   6.345
  542SOL    HW1 2525   5.617   6.434   6.311
  542SOL    HW2 2526   5.755   6.479   6.384
  543SOL     OW 2527   6.346   5.898   0.791
  543SOL    HW1 2528   6.324   5.995   0.775
  543SOL    HW2 2529   6.415   5.892   0.864
  544SOL     OW 2530   1.038   5.788   0.415
  544SOL    HW1 2531   1.127   5.826   0.388
  544SOL    HW2 2532   1.027   5.796   0.514
  545SOL     OW 2533   3.805   1.720   4.136
  545SOL    HW1 2534   3.775   1.812   4.161
  545SOL    HW2 2535   3.803   1.661   4.217
  546SOL     OW 2536   1.633   2.923   0.619
  546SOL    HW1 2537   1.647   2.875   0.532
  546SOL    HW2 2538   1.535   2.938   0.633
  547SOL     OW 2539   2.960   1.817   0.166
  547SOL    HW1 2540   2.977   1.722   0.189
  547SOL    HW2 2541   3.034   1.851   0.108
  548SOL     OW 2542   3.103   2.991   5.205
  548SOL    HW1 2543   3.149   3.053   5.269
  548SOL    HW2 2544   3.004   3.006   5.210
  549SOL     OW 2545   0.824   4.013   1.137
  549SOL    HW1 2546   0.886   4.077   1.182
  549SOL    HW2 2547   0.770   3.965   1.205
  550SOL     OW 2548   6.592   3.409   0.708
  550SOL    HW1 2549   6.601   3.445   0.801
  550SOL    HW2 2550   6.525   3.463   0.657
  551SOL     OW 2551   0.250   1.512   0.340
  551SOL    HW1 2552   0.265   1.448   0.265
  551SOL    HW2 2553   0.258   1.606   0.306
  552SOL     OW 2554   4.769   4.727   0.626
  552SOL    HW1 2555   4.838   4.697   0.561
  552SOL    HW2 2556   4.813   4.778   0.700
  553SOL     OW 2557   1.173   2.455   1.236
  553SOL    HW1 2558   1.083   2.448   1.194
  553SOL    HW2 2559   1.221   2.535   1.201
  554SOL     OW 2560   4.884   5.136   5.078
  554SOL    HW1 2561   4.954   5.202   5.051
  554SOL    HW2 2562   4.814   5.182   5.133
  555SOL     OW 2563   1.353   4.239   4.972
  555SOL    HW1 2564   1.320   4.247   5.066
  555SOL    HW2 2565   1.308   4.161   4.928
  556SOL     OW 2566   5.941   3.342   2.934
  556SOL    HW1 2567   6.014   3.409   2.919
  556SOL    HW2 2568   5.888   3.332   2.850
  557SOL     OW 2569   0.148   5.622   6.342
  557SOL    HW1 2570   0.083   5.604   6.267
  557SOL    HW2 2571   0.110   5.587   6.428
  558SOL     OW 2572   4.438   3.664   5.557
  558SOL    HW1 2573   4.339   3.678   5.545
  558SOL    HW2 2574   4.480   3.647   5.469
  559SOL     OW 2575   6.072   5.676   6.219
  559SOL    HW1 2576   6.099   5.759   6.171
  559SOL    HW2 2577   6.011   5.622   6.162
  560SOL     OW 2578   4.313   6.490   0.000
  560SOL    HW1 2579   4.283   6.454   6.942
  560SOL    HW2 2580   4.249   6.560   0.031
  561SOL     OW 2581   5.615   6.466   2.036
  561SOL    HW1 2582   5.542   6.412   1.995
  561SOL    HW2 2583   5.684   6.405   2.075
  562SOL     OW 2584   6.488   0.882   0.266
  562SOL    HW1 2585   6.499   0.784   0.286
  562SOL    HW2 2586   6.546   0.935   0.328
  563SOL     OW 2587   3.000   0.736   4.672
  563SOL    HW1 2588   3.073   0.792   4.633
  563SOL    HW2 2589   2.919   0.741   4.614
  564SOL     OW 2590   0.717   2.176   6.161
  564SOL    HW1 2591   0.754   2.167   6.069
  564SOL    HW2 2592   0.636   2.119   6.170
  565SOL     OW 2593   4.251   4.186   5.869
  565SOL    HW1 2594   4.338   4.158   5.830
  565SOL    HW2 2595   4.180   4.184   5.798
  566SOL     OW 2596   6.146   4.949   2.371
  566SOL    HW1 2597   6.058   4.991   2.348
  566SOL    HW2 2598   6.186   4.909   2.288
  567SOL     OW 2599   3.832   3.902   4.991
  567SOL    HW1 2600   3.788   3.884   5.078
  567SOL    HW2 2601   3.848   4.000   4.981
  568SOL     OW 2602   1.934   1.176   6.094
  568SOL    HW1 2603   2.002   1.116   6.051
  568SOL    HW2 2604   1.929   1.155   6.191
  569SOL     OW 2605   2.287   4.084   6.794
  569SOL    HW1 2606   2.232   4.057   6.873
  569SOL    HW2 2607   2.234   4.073   6.710
  570SOL     OW 2608   0.102   6.455   0.828
  570SOL    HW1 2609   0.197   6.429   0.812
  570SOL    HW2 2610   0.080   6.442   0.925
  571SOL     OW 2611   4.271   5.604   3.063
  571SOL    HW1 2612   4.270   5.616   3.162
  571SOL    HW2 2613   4.364   5.589   3.032
  572SOL     OW 2614   1.547   4.431   4.869
  572SOL    HW1 2615   1.541   4.511   4.928
  572SOL    HW2 2616   1.481   4.362   4.899
  573SOL     OW 2617   3.144   2.279   0.065
  573SOL    HW1 2618   3.161   2.192   0.111
  573SOL    HW2 2619   3.090   2.338   0.124
  574SOL     OW 2620   2.514   2.008   4.044
  574SOL    HW1 2621   2.479   2.096   4.078
  574SOL    HW2 2622   2.605   2.021   4.005
  575SOL     OW 2623   5.245   2.320   6.256
  575SOL    HW1 2624   5.217   2.256   6.328
  575SOL    HW2 2625   5.209   2.411   6.276
  576SOL     OW 2626   1.095   2.874   2.745
  576SOL    HW1 2627   1.093   2.922   2.657
  576SOL    HW2 2628   1.120   2.937   2.817
  577SOL     OW 2629   3.752   2.164   4.437
  577SOL    HW1 2630   3.741   2.074   4.478
  577SOL    HW2 2631   3.784   2.229   4.505
  578SOL     OW 2632   0.083   3.559   4.075
  578SOL    HW1 2633   0.099   3.473   4.122
  578SOL    HW2 2634   0.138   3.563   3.992
  579SOL     OW 2635   3.922   3.614   0.824
  579SOL    HW1 2636   3.897   3.602   0.728
  579SOL    HW2 2637   3.841   3.600   0.881
  580SOL     OW 2638   0.773   6.771   0.180
  580SOL    HW1 2639   0.803   6.681   0.212
  580SOL    HW2 2640   0.717   6.814   0.250
  581SOL     OW 2641   4.027   3.158   2.591
  581SOL    HW1 2642   3.988   3.069   2.566
  581SOL    HW2 2643   4.072   3.198   2.512
  582SOL     OW 2644   6.678   4.209   1.233
  582SOL    HW1 2645   6.773   4.215   1.202
  582SOL    HW2 2646   6.645   4.116   1.221
  583SOL     OW 2647   2.783   6.173   6.755
  583SOL    HW1 2648   2.833   6.098   6.800
  583SOL    HW2 2649   2.771   6.248   6.820
  584SOL     OW 2650   0.683   5.001   4.811
  584SOL    HW1 2651   0.596   4.964   4.779
  584SOL    HW2 2652   0.691   4.986   4.910
  585SOL     OW 2653   5.864   0.696   5.628
  585SOL    HW1 2654   5.860   0.796   5.626
  585SOL    HW2 2655   5.772   0.659   5.616
  586SOL     OW 2656   2.488   5.949   1.610
  586SOL    HW1 2657   2.460   5.855   1.632
  586SOL    HW2 2658   2.464   5.969   1.515
  587SOL     OW 2659   1.913   3.889   5.837
  587SOL    HW1 2660   1.876   3.839   5.759
  587SOL    HW2 2661   1.845   3.955   5.870
  588SOL     OW 2662   2.292   0.361   1.467
  588SOL    HW1 2663   2.194   0.362   1.487
  588SOL    HW2 2664   2.332   0.449   1.494
  589SOL     OW 2665   4.312   5.020   2.074
  589SOL    HW1 2666   4.249   5.092   2.105
  589SOL    HW2 2667   4.280   4.984   1.986
  590SOL     OW 2668   6.448   2.728   1.944
  590SOL    HW1 2669   6.548   2.729   1.945
  590SOL    HW2 2670   6.413   2.738   2.037
  591SOL     OW 2671   2.495   6.867   2.774
  591SOL    HW1 2672   2.540   6.786   2.736
  591SOL    HW2 2673   2.530   6.949   2.729
  592SOL     OW 2674   5.006   0.107   5.880
  592SOL    HW1 2675   5.022   0.009   5.871
  592SOL    HW2 2676   5.090   0.157   5.860
  593SOL     OW 2677   6.465   1.364   4.825
  593SOL    HW1 2678   6.528   1.399   4.894
  593SOL    HW2 2679   6.471   1.420   4.742
  594SOL     OW 2680   5.598   2.652   1.612
  594SOL    HW1 2681   5.567   2.649   1.517
  594SOL    HW2 2682   5.571   2.567   1.658
  595SOL     OW 2683   4.261   6.910   3.864
  595SOL    HW1 2684   4.280   6.836   3.800
  595SOL    HW2 2685   4.284   6.998   3.822
  596SOL     OW 2686   0.471   3.845   1.380
  596SOL    HW1 2687   0.530   3.915   1.420
  596SOL    HW2 2688   0.375   3.868   1.399
  597SOL     OW 2689   4.205   2.595   5.912
  597SOL    HW1 2690   4.124   2.618   5.858
  597SOL    HW2 2691   4.189   2.619   6.008
  598SOL     OW 2692   3.001   4.007   1.411
  598SOL    HW1 2693   2.905   3.981   1.410
  598SOL    HW2 2694   3.051   3.952   1.344
  599SOL     OW 2695   6.407   5.972   3.545
  599SOL    HW1 2696   6.335   6.030   3.506
  599SOL    HW2 2697   6.397   5.970   3.645
  600SOL     OW 2698   2.947   1.425   1.567
  600SOL    HW1 2699   2.874   1.479   1.525
  600SOL    HW2 2700   2.917   1.331   1.579
  601SOL     OW 2701   1.776   5.049   3.174
  601SOL    HW1 2702   1.864   5.093   3.192
  601SOL    HW2 2703   1.742   5.079   3.085
  602SOL     OW 2704   6.660   0.439   1.958
  602SOL    HW1 2705   6.735   0.401   2.011
  602SOL    HW2 2706   6.695   0.510   1.896
  603SOL     OW 2707   4.012   1.846   3.329
  603SOL    HW1 2708   4.022   1.862   3.428
  603SOL    HW2 2709   3.993   1.933   3.283
  604SOL     OW 2710   0.766   3.742   5.979
  604SOL    HW1 2711   0.843   3.694   5.938
  604SOL    HW2 2712   0.681   3.692   5.958
  605SOL     OW 2713   5.721   0.405   4.381
  605SOL    HW1 2714   5.732   0.306   4.396
  605SOL    HW2 2715   5.655   0.441   4.447
  606SOL     OW 2716   3.086   0.148   2.741
  606SOL    HW1 2717   3.160   0.115   2.682
  606SOL    HW2 2718   3.033   0.070   2.775
  607SOL     OW 2719   3.886   0.737   3.987
  607SOL    HW1 2720   3.929   0.826   3.974
  607SOL    HW2 2721   3.923   0.694   4.069
  608SOL     OW 2722   5.342   2.755   1.678
  608SOL    HW1 2723   5.436   2.720   1.674
  608SOL    HW2 2724   5.303   2.756   1.586
  609SOL     OW 2725   3.147   3.918   4.771
  609SOL    HW1 2726   3.070   3.917   4.835
  609SOL    HW2 2727   3.137   3.843   4.706
  610SOL     OW 2728   6.198   1.513   4.609
  610SOL    HW1 2729   6.101   1.509   4.631
  610SOL    HW2 2730   6.211   1.564   4.523
  611SOL     OW 2731   5.711   6.741   6.956
  611SOL    HW1 2732   5.679   6.815   7.015
  611SOL    HW2 2733   5.669   6.749   6.866
  612SOL     OW 2734   2.272   5.560   5.956
  612SOL    HW1 2735   2.228   5.494   5.894
  612SOL    HW2 2736   2.292   5.644   5.906
  613SOL     OW 2737   4.028   1.329   6.683
  613SOL    HW1 2738   3.950   1.314   6.622
  613SOL    HW2 2739   4.061   1.423   6.672
  614SOL     OW 2740   4.942   3.026   1.018
  614SOL    HW1 2741   5.025   3.051   0.969
  614SOL    HW2 2742   4.896   2.951   0.970
  615SOL     OW 2743   5.383   6.487   0.900
  615SOL    HW1 2744   5.458   6.440   0.854
  615SOL    HW2 2745   5.298   6.472   0.850
  616SOL     OW 2746   5.007   0.463   4.432
  616SOL    HW1 2747   4.961   0.541   4.389
  616SOL    HW2 2748   5.058   0.495   4.512
  617SOL     OW 2749   6.574   6.433   4.879
  617SOL    HW1 2750   6.503   6.369   4.849
  617SOL    HW2 2751   6.593   6.498   4.805
  618SOL     OW 2752   5.620   4.608   0.847
  618SOL    HW1 2753   5.553   4.681   0.858
  618SOL    HW2 2754   5.648   4.603   0.751
  619SOL     OW 2755   2.473   6.883   6.557
  619SOL    HW1 2756   2.495   6.797   6.511
  619SOL    HW2 2757   2.405   6.867   6.628
  620SOL     OW 2758   4.283   1.847   2.472
  620SOL    HW1 2759   4.278   1.947   2.478
  620SOL    HW2 2760   4.345   1.821   2.398
  621SOL     OW 2761   3.438   0.805   6.849
  621SOL    HW1 2762   3.351   0.792   6.802
  621SOL    HW2 2763   3.445   0.738   6.924
  622SOL     OW 2764   0.595   3.521   6.052
  622SOL    HW1 2765   0.509   3.478   6.079
  622SOL    HW2 2766   0.610   3.506   5.954
  623SOL     OW 2767   6.643   1.042   2.914
  623SOL    HW1 2768   6.605   1.015   2.825
  623SOL    HW2 2769   6.652   0.961   2.972
  624SOL     OW 2770   6.342   1.529   6.490
  624SOL    HW1 2771   6.310   1.596   6.558
  624SOL    HW2 2772   6.330   1.437   6.525
  625SOL     OW 2773   3.333   1.267   1.549
  625SOL    HW1 2774   3.286   1.352   1.573
  625SOL    HW2 2775   3.417   1.259   1.602
  626SOL     OW 2776   0.877   6.070   3.611
  626SOL    HW1 2777   0.932   6.082   3.694
  626SOL    HW2 2778   0.786   6.110   3.625
  627SOL     OW 2779   6.622   5.244   6.560
  627SOL    HW1 2780   6.567   5.252   6.477
  627SOL    HW2 2781   6.574   5.184   6.625
  628SOL     OW 2782   3.948   4.661   6.276
  628SOL    HW1 2783   3.915   4.596   6.344
  628SOL    HW2 2784   3.884   4.664   6.199
  629SOL     OW 2785   1.335   7.010   0.286
  629SOL    HW1 2786   1.261   6.978   0.346
  629SOL    HW2 2787   1.305   0.063   0.238
  630SOL     OW 2788   6.862   2.083   1.586
  630SOL    HW1 2789   6.859   2.162   1.524
  630SOL    HW2 2790   6.900   2.004   1.537
  631SOL     OW 2791   2.054   3.204   3.167
  631SOL    HW1 2792   2.010   3.192   3.079
  631SOL    HW2 2793   2.087   3.298   3.176
  632SOL     OW 2794   2.956   4.512   0.949
  632SOL    HW1 2795   2.858   4.494   0.961
  632SOL    HW2 2796   2.997   4.532   1.038
  633SOL     OW 2797   1.283   5.892   0.372
  633SOL    HW1 2798   1.343   5.858   0.445
  633SOL    HW2 2799   1.264   5.989   0.388
  634SOL     OW 2800   3.085   3.336   5.512
  634SOL    HW1 2801   3.052   3.407   5.451
  634SOL    HW2 2802   3.127   3.263   5.458
  635SOL     OW 2803   6.005   6.656   6.721
  635SOL    HW1 2804   6.052   6.589   6.779
  635SOL    HW2 2805   6.000   6.743   6.769
  636SOL     OW 2806   2.357   1.286   4.757
  636SOL    HW1 2807   2.335   1.284   4.659
  636SOL    HW2 2808   2.449   1.250   4.771
  637SOL     OW 2809   0.205   1.377   2.292
  637SOL    HW1 2810   0.166   1.469   2.281
  637SOL    HW2 2811   0.138   1.309   2.262
  638SOL     OW 2812   6.828   3.668   4.916
  638SOL    HW1 2813   6.832   3.749   4.973
  638SOL    HW2 2814   6.876   3.593   4.961
  639SOL     OW 2815   5.779   3.216   1.943
  639SOL    HW1 2816   5.684   3.212   1.973
  639SOL    HW2 2817   5.826   3.131   1.968
  640SOL     OW 2818   6.912   3.546   2.668
  640SOL    HW1 2819   6.837   3.555   2.603
  640SOL    HW2 2820   6.875   3.550   2.762
  641SOL     OW 2821   2.238   5.486   4.457
  641SOL    HW1 2822   2.257   5.576   4.497
  641SOL    HW2 2823   2.140   5.466   4.462
  642SOL     OW 2824   0.467   5.197   5.071
  642SOL    HW1 2825   0.548   5.139   5.081
  642SOL    HW2 2826   0.481   5.261   4.996
  643SOL     OW 2827   4.229   5.341   0.417
  643SOL    HW1 2828   4.310   5.362   0.472
  643SOL    HW2 2829   4.174   5.271   0.464
  644SOL     OW 2830   6.364   0.063   4.184
  644SOL    HW1 2831   6.364   7.005   4.231
  644SOL    HW2 2832   6.361   0.137   4.251
  645SOL     OW 2833   4.200   6.182   1.930
  645SOL    HW1 2834   4.216   6.280   1.919
  645SOL    HW2 2835   4.203   6.137   1.841
  646SOL     OW 2836   3.616   2.080   5.463
  646SOL    HW1 2837   3.713   2.103   5.468
  646SOL    HW2 2838   3.574   2.097   5.552
  647SOL     OW 2839   2.804   2.230   0.316
  647SOL    HW1 2840   2.884   2.176   0.291
  647SOL    HW2 2841   2.787   2.220   0.414
  648SOL     OW 2842   5.880   1.331   4.219
  648SOL    HW1 2843   5.978   1.330   4.243
  648SOL    HW2 2844   5.853   1.424   4.195
  649SOL     OW 2845   2.601   5.951   0.528
  649SOL    HW1 2846   2.664   5.897   0.471
  649SOL    HW2 2847   2.631   6.046   0.528
  650SOL     OW 2848   1.406   3.044   0.977
  650SOL    HW1 2849   1.439   3.019   0.886
  650SOL    HW2 2850   1.477   3.024   1.045
  651SOL     OW 2851   0.378   1.071   3.506
  651SOL    HW1 2852   0.442   1.137   3.545
  651SOL    HW2 2853   0.287   1.086   3.545
  652SOL     OW 2854   3.749   5.700   0.644
  652SOL    HW1 2855   3.652   5.724   0.647
  652SOL    HW2 2856   3.767   5.627   0.710
  653SOL     OW 2857   1.428   0.191   2.421
  653SOL    HW1 2858   1.376   0.180   2.337
  653SOL    HW2 2859   1.521   0.223   2.399
  654SOL     OW 2860   0.980   6.841   6.139
  654SOL    HW1 2861   1.044   6.915   6.157
  654SOL    HW2 2862   1.006   6.793   6.055
  655SOL     OW 2863   0.905   3.670   0.787
  655SOL    HW1 2864   0.970   3.747   0.782
  655SOL    HW2 2865   0.882   3.653   0.883
  656SOL     OW 2866   2.438   0.341   6.573
  656SOL    HW1 2867   2.356   0.320   6.626
  656SOL    HW2 2868   2.468   0.259   6.523
  657SOL     OW 2869   3.694   3.674   4.056
  657SOL    HW1 2870   3.787   3.676   4.019
  657SOL    HW2 2871   3.628   3.658   3.982
  658SOL     OW 2872   1.806   0.609   3.900
  658SOL    HW1 2873   1.821   0.608   3.999
  658SOL    HW2 2874   1.759   0.693   3.874
  659SOL     OW 2875   1.837   5.430   6.573
  659SOL    HW1 2876   1.837   5.527   6.597
  659SOL    HW2 2877   1.931   5.399   6.559
  660SOL     OW 2878   5.215   3.602   2.449
  660SOL    HW1 2879   5.171   3.577   2.363
  660SOL    HW2 2880   5.258   3.520   2.489
  661SOL     OW 2881   4.471   5.451   4.027
  661SOL    HW1 2882   4.502   5.535   3.982
  661SOL    HW2 2883   4.411   5.400   3.965
  662SOL     OW 2884   5.540   3.787   0.101
  662SOL    HW1 2885   5.590   3.853   0.045
  662SOL    HW2 2886   5.495   3.720   0.043
  663SOL     OW 2887   0.928   4.849   6.632
  663SOL    HW1 2888   0.992   4.922   6.610
  663SOL    HW2 2889   0.847   4.857   6.574
  664SOL     OW 2890   1.704   7.030   6.052
  664SOL    HW1 2891   1.753   6.944   6.037
  664SOL    HW2 2892   1.716   0.029   6.147
  665SOL     OW 2893   2.252   4.546   3.346
  665SOL    HW1 2894   2.186   4.616   3.320
  665SOL    HW2 2895   2.329   4.546   3.282
  666SOL     OW 2896   3.602   1.088   6.894
  666SOL    HW1 2897   3.591   1.047   6.803
  666SOL    HW2 2898   3.618   1.186   6.885
  667SOL     OW 2899   1.137   2.984   2.261
  667SOL    HW1 2900   1.196   2.906   2.240
  667SOL    HW2 2901   1.115   3.033   2.177
  668SOL     OW 2902   5.168   6.937   0.871
  668SOL    HW1 2903   5.209   6.940   0.780
  668SOL    HW2 2904   5.232   6.975   0.938
  669SOL     OW 2905   0.084   5.562   2.797
  669SOL    HW1 2906   7.017   5.541   2.806
  669SOL    HW2 2907   0.118   5.601   2.882
  670SOL     OW 2908   4.048   3.703   2.511
  670SOL    HW1 2909   4.021   3.724   2.605
  670SOL    HW2 2910   4.034   3.784   2.454
  671SOL     OW 2911   2.264   0.342   6.273
  671SOL    HW1 2912   2.274   0.252   6.315
  671SOL    HW2 2913   2.335   0.403   6.308
  672SOL     OW 2914   1.490   2.501   2.949
  672SOL    HW1 2915   1.582   2.462   2.944
  672SOL    HW2 2916   1.429   2.437   2.997
  673SOL     OW 2917   4.905   0.137   6.921
  673SOL    HW1 2918   4.938   0.227   6.950
  673SOL    HW2 2919   4.955   0.107   6.840
  674SOL     OW 2920   0.285   2.420   4.637
  674SOL    HW1 2921   0.311   2.462   4.724
  674SOL    HW2 2922   0.239   2.488   4.580
  675SOL     OW 2923   6.340   6.044   3.803
  675SOL    HW1 2924   6.258   6.088   3.766
  675SOL    HW2 2925   6.383   6.105   3.870
  676SOL     OW 2926   2.533   5.386   4.476
  676SOL    HW1 2927   2.555   5.388   4.378
  676SOL    HW2 2928   2.434   5.379   4.488
  677SOL     OW 2929   4.156   6.183   0.563
  677SOL    HW1 2930   4.220   6.253   0.595
  677SOL    HW2 2931   4.170   6.099   0.614
  678SOL     OW 2932   2.281   1.211   5.636
  678SOL    HW1 2933   2.334   1.142   5.588
  678SOL    HW2 2934   2.336   1.294   5.647
  679SOL     OW 2935   6.452   0.359   1.809
  679SOL    HW1 2936   6.527   0.399   1.860
  679SOL    HW2 2937   6.396   0.303   1.870
  680SOL     OW 2938   5.574   4.485   4.779
  680SOL    HW1 2939   5.580   4.559   4.712
  680SOL    HW2 2940   5.479   4.459   4.792
  681SOL     OW 2941   1.100   6.767   1.967
  681SOL    HW1 2942   1.003   6.747   1.948
  681SOL    HW2 2943   1.144   6.686   2.006
  682SOL     OW 2944   6.963   0.020   6.043
  682SOL    HW1 2945   6.919   7.003   6.120
  682SOL    HW2 2946   6.912   0.103   6.021
  683SOL     OW 2947   4.943   1.387   1.570
  683SOL    HW1 2948   4.926   1.484   1.553
  683SOL    HW2 2949   4.991   1.376   1.657
  684SOL     OW 2950   0.307   5.964   6.467
  684SOL    HW1 2951   0.360   5.892   6.511
  684SOL    HW2 2952   0.214   5.965   6.506
  685SOL     OW 2953   6.322   0.796   6.796
  685SOL    HW1 2954   6.336   0.772   6.892
  685SOL    HW2 2955   6.225   0.814   6.780
  686SOL     OW 2956   5.522   5.107   2.477
  686SOL    HW1 2957   5.583   5.028   2.479
  686SOL    HW2 2958   5.528   5.156   2.564
  687SOL     OW 2959   5.238   1.959   5.652
  687SOL    HW1 2960   5.156   1.904   5.666
  687SOL    HW2 2961   5.315   1.898   5.629
  688SOL     OW 2962   6.313   3.319   4.997
  688SOL    HW1 2963   6.308   3.220   5.011
  688SOL    HW2 2964   6.406   3.344   4.970
  689SOL     OW 2965   5.672   4.313   4.525
  689SOL    HW1 2966   5.608   4.254   4.475
  689SOL    HW2 2967   5.676   4.283   4.621
  690SOL     OW 2968   0.233   3.292   4.456
  690SOL    HW1 2969   0.234   3.391   4.473
  690SOL    HW2 2970   0.326   3.260   4.439
  691SOL     OW 2971   7.011   3.059   6.594
  691SOL    HW1 2972   7.012   2.960   6.580
  691SOL    HW2 2973   6.933   3.099   6.547
  692SOL     OW 2974   2.770   0.288   3.442
  692SOL    HW1 2975   2.677   0.271   3.475
  692SOL    HW2 2976   2.772   0.279   3.343
  693SOL     OW 2977   6.767   1.831   2.796
  693SOL    HW1 2978   6.806   1.827   2.703
  693SOL    HW2 2979   6.829   1.881   2.856
  694SOL     OW 2980   1.651   0.656   2.115
  694SOL    HW1 2981   1.670   0.654   2.017
  694SOL    HW2 2982   1.581   0.725   2.134
  695SOL     OW 2983   4.563   5.398   6.604
  695SOL    HW1 2984   4.543   5.335   6.679
  695SOL    HW2 2985   4.612   5.478   6.639
  696SOL     OW 2986   5.205   6.124   2.266
  696SOL    HW1 2987   5.129   6.135   2.202
  696SOL    HW2 2988   5.231   6.214   2.302
  697SOL     OW 2989   1.452   3.759   3.895
  697SOL    HW1 2990   1.522   3.829   3.912
  697SOL    HW2 2991   1.485   3.671   3.930
  698SOL     OW 2992   4.843   5.558   4.045
  698SOL    HW1 2993   4.820   5.480   4.104
  698SOL    HW2 2994   4.761   5.612   4.028
  699SOL     OW 2995   1.012   4.580   6.559
  699SOL    HW1 2996   0.999   4.671   6.600
  699SOL    HW2 2997   0.946   4.516   6.598
  700SOL     OW 2998   1.787   1.775   4.840
  700SOL    HW1 2999   1.775   1.834   4.760
  700SOL    HW2 3000   1.835   1.825   4.912
  701SOL     OW 3001   0.922   4.585   5.120
  701SOL    HW1 3002   0.993   4.523   5.087
  701SOL    HW2 3003   0.894   4.558   5.212
  702SOL     OW 3004   5.805   5.987   5.214
  702SOL    HW1 3005   5.892   6.035   5.204
  702SOL    HW2 3006   5.793   5.959   5.309
  703SOL     OW 3007   5.058   4.106   6.387
  703SOL    HW1 3008   4.970   4.129   6.344
  703SOL    HW2 3009   5.113   4.052   6.323
  704SOL     OW 3010   2.633   6.827   2.045
  704SOL    HW1 3011   2.534   6.816   2.046
  704SOL    HW2 3012   2.674   6.759   2.106
  705SOL     OW 3013   0.584   2.054   3.681
  705SOL    HW1 3014   0.645   2.128   3.708
  705SOL    HW2 3015   0.586   1.981   3.750
  706SOL     OW 3016   5.040   3.106   4.132
  706SOL    HW1 3017   5.070   3.138   4.222
  706SOL    HW2 3018   5.086   3.020   4.109
  707SOL     OW 3019   4.958   2.390   2.763
  707SOL    HW1 3020   5.015   2.406   2.844
  707SOL    HW2 3021   4.879   2.452   2.764
  708SOL     OW 3022   4.186   0.838   2.423
  708SOL    HW1 3023   4.197   0.790   2.510
  708SOL    HW2 3024   4.276   0.862   2.387
  709SOL     OW 3025   1.080   5.450   6.902
  709SOL    HW1 3026   1.084   5.375   6.837
  709SOL    HW2 3027   0.993   5.448   6.951
  710SOL     OW 3028   3.224   4.004   2.769
  710SOL    HW1 3029   3.183   3.991   2.860
  710SOL    HW2 3030   3.204   3.925   2.712
  711SOL     OW 3031   0.577   0.831   5.328
  711SOL    HW1 3032   0.598   0.929   5.325
  711SOL    HW2 3033   0.602   0.795   5.418
  712SOL     OW 3034   0.320   3.931   2.987
  712SOL    HW1 3035   0.246   3.982   2.944
  712SOL    HW2 3036   0.372   3.882   2.917
  713SOL     OW 3037   3.344   3.735   4.452
  713SOL    HW1 3038   3.434   3.770   4.478
  713SOL    HW2 3039   3.295   3.706   4.534
  714SOL     OW 3040   4.901   4.473   5.263
  714SOL    HW1 3041   4.866   4.564   5.281
  714SOL    HW2 3042   4.886   4.415   5.344
  715SOL     OW 3043   6.228   0.016   6.489
  715SOL    HW1 3044   6.134   0.045   6.473
  715SOL    HW2 3045   6.278   0.017   6.402
  716SOL     OW 3046   6.192   5.114   1.044
  716SOL    HW1 3047   6.204   5.168   1.128
  716SOL    HW2 3048   6.205   5.173   0.965
  717SOL     OW 3049   6.268   3.212   6.258
  717SOL    HW1 3050   6.227   3.242   6.344
  717SOL    HW2 3051   6.366   3.231   6.260
  718SOL     OW 3052   2.587   3.054   6.744
  718SOL    HW1 3053   2.662   3.118   6.757
  718SOL    HW2 3054   2.619   2.974   6.693
  719SOL     OW 3055   5.272   4.896   0.179
  719SOL    HW1 3056   5.248   4.811   0.131
  719SOL    HW2 3057   5.249   4.974   0.121
  720SOL     OW 3058   3.523   1.521   5.946
  720SOL    HW1 3059   3.568   1.588   6.005
  720SOL    HW2 3060   3.429   1.549   5.928
  721SOL     OW 3061   0.982   6.637   5.386
  721SOL    HW1 3062   1.065   6.656   5.439
  721SOL    HW2 3063   1.005   6.576   5.310
  722SOL     OW 3064   4.679   6.960   5.115
  722SOL    HW1 3065   4.659   0.028   5.114
  722SOL    HW2 3066   4.734   6.938   5.195
  723SOL     OW 3067   1.497   3.579   1.902
  723SOL    HW1 3068   1.445   3.518   1.842
  723SOL    HW2 3069   1.475   3.559   1.997
  724SOL     OW 3070   0.274   1.373   5.104
  724SOL    HW1 3071   0.220   1.351   5.184
  724SOL    HW2 3072   0.367   1.397   5.131
  725SOL     OW 3073   2.331   5.257   1.921
  725SOL    HW1 3074   2.269   5.192   1.879
  725SOL    HW2 3075   2.412   5.209   1.955
  726SOL     OW 3076   5.315   6.083   5.720
  726SOL    HW1 3077   5.281   5.995   5.753
  726SOL    HW2 3078   5.270   6.106   5.633
  727SOL     OW 3079   2.091   4.453   4.274
  727SOL    HW1 3080   2.092   4.551   4.252
  727SOL    HW2 3081   2.122   4.440   4.369
  728SOL     OW 3082   6.861   3.114   5.676
  728SOL    HW1 3083   6.785   3.081   5.621
  728SOL    HW2 3084   6.865   3.064   5.762
  729SOL     OW 3085   3.799   1.235   0.793
  729SOL    HW1 3086   3.726   1.303   0.780
  729SOL    HW2 3087   3.763   1.144   0.773
  730SOL     OW 3088   5.561   1.306   4.668
  730SOL    HW1 3089   5.504   1.224   4.675
  730SOL    HW2 3090   5.632   1.291   4.599
  731SOL     OW 3091   7.014   2.661   4.373
  731SOL    HW1 3092   6.934   2.603   4.374
  731SOL    HW2 3093   6.988   2.755   4.349
  732SOL     OW 3094   0.750   3.515   3.458
  732SOL    HW1 3095   0.782   3.602   3.496
  732SOL    HW2 3096   0.710   3.459   3.531
  733SOL     OW 3097   4.269   5.238   4.749
  733SOL    HW1 3098   4.279   5.319   4.806
  733SOL    HW2 3099   4.332   5.244   4.671
  734SOL     OW 3100   0.881   5.943   6.964
  734SOL    HW1 3101   0.892   6.042   6.971
  734SOL    HW2 3102   0.865   5.905   0.025
  735SOL     OW 3103   3.181   4.467   6.859
  735SOL    HW1 3104   3.215   4.375   6.837
  735SOL    HW2 3105   3.117   4.461   6.936
  736SOL     OW 3106   5.920   0.630   2.682
  736SOL    HW1 3107   5.876   0.686   2.612
  736SOL    HW2 3108   5.874   0.645   2.770
  737SOL     OW 3109   5.351   4.283   0.380
  737SOL    HW1 3110   5.449   4.285   0.362
  737SOL    HW2 3111   5.309   4.367   0.345
  738SOL     OW 3112   0.767   4.455   3.161
  738SOL    HW1 3113   0.829   4.379   3.139
  738SOL    HW2 3114   0.816   4.524   3.214
  739SOL     OW 3115   4.738   6.479   6.570
  739SOL    HW1 3116   4.785   6.489   6.657
  739SOL    HW2 3117   4.796   6.429   6.506
  740SOL     OW 3118   5.494   0.117   0.064
  740SOL    HW1 3119   5.594   0.120   0.056
  740SOL    HW2 3120   5.460   0.039   0.012
  741SOL     OW 3121   2.767   0.474   3.950
  741SOL    HW1 3122   2.772   0.523   4.037
  741SOL    HW2 3123   2.794   0.379   3.963
  742SOL     OW 3124   1.386   6.840   2.828
  742SOL    HW1 3125   1.362   6.899   2.751
  742SOL    HW2 3126   1.305   6.827   2.886
  743SOL     OW 3127   1.611   3.111   4.030
  743SOL    HW1 3128   1.710   3.121   4.026
  743SOL    HW2 3129   1.569   3.163   3.955
  744SOL     OW 3130   6.524   5.120   0.530
  744SOL    HW1 3131   6.580   5.197   0.499
  744SOL    HW2 3132   6.543   5.102   0.627
  745SOL     OW 3133   1.628   5.891   3.195
  745SOL    HW1 3134   1.622   5.981   3.152
  745SOL    HW2 3135   1.539   5.866   3.233
  746SOL     OW 3136   3.431   0.351   3.319
  746SOL    HW1 3137   3.513   0.303   3.351
  746SOL    HW2 3138   3.350   0.296   3.340
  747SOL     OW 3139   6.401   3.348   1.091
  747SOL    HW1 3140   6.339   3.283   1.136
  747SOL    HW2 3141   6.395   3.436   1.137
  748SOL     OW 3142   3.739   2.993   2.902
  748SOL    HW1 3143   3.751   2.981   2.803
  748SOL    HW2 3144   3.660   2.941   2.933
  749SOL     OW 3145   6.125   2.573   4.897
  749SOL    HW1 3146   6.103   2.666   4.868
  749SOL    HW2 3147   6.073   2.550   4.979
  750SOL     OW 3148   3.143   3.284   1.688
  750SOL    HW1 3149   3.158   3.330   1.601
  750SOL    HW2 3150   3.070   3.217   1.679
  751SOL     OW 3151   5.183   1.418   0.430
  751SOL    HW1 3152   5.274   1.428   0.390
  751SOL    HW2 3153   5.114   1.419   0.357
  752SOL     OW 3154   4.699   0.669   1.582
  752SOL    HW1 3155   4.662   0.577   1.595
  752SOL    HW2 3156   4.787   0.677   1.628
  753SOL     OW 3157   3.805   1.359   2.987
  753SOL    HW1 3158   3.791   1.414   2.906
  753SOL    HW2 3159   3.865   1.282   2.966
  754SOL     OW 3160   5.465   5.861   0.468
  754SOL    HW1 3161   5.488   5.764   0.452
  754SOL    HW2 3162   5.444   5.874   0.565
  755SOL     OW 3163   6.407   5.587   2.838
  755SOL    HW1 3164   6.484   5.621   2.892
  755SOL    HW2 3165   6.375   5.659   2.777
  756SOL     OW 3166   3.305   6.417   3.709
  756SOL    HW1 3167   3.238   6.490   3.700
  756SOL    HW2 3168   3.265   6.340   3.759
  757SOL     OW 3169   6.762   1.339   3.638
  757SOL    HW1 3170   6.779   1.301   3.729
  757SOL    HW2 3171   6.676   1.303   3.602
  758SOL     OW 3172   4.459   2.093   0.839
  758SOL    HW1 3173   4.476   2.031   0.762
  758SOL    HW2 3174   4.460   2.041   0.924
  759SOL     OW 3175   1.933   1.004   0.984
  759SOL    HW1 3176   1.945   1.084   1.043
  759SOL    HW2 3177   1.836   0.986   0.973
  760SOL     OW 3178   4.839   2.168   5.549
  760SOL    HW1 3179   4.787   2.117   5.480
  760SOL    HW2 3180   4.809   2.141   5.640
  761SOL     OW 3181   5.380   1.056   6.586
  761SOL    HW1 3182   5.289   1.097   6.577
  761SOL    HW2 3183   5.423   1.050   6.496
  762SOL     OW 3184   1.971   4.690   4.476
  762SOL    HW1 3185   1.894   4.743   4.511
  762SOL    HW2 3186   2.005   4.629   4.548
  763SOL     OW 3187   6.266   5.305   0.220
  763SOL    HW1 3188   6.191   5.299   0.154
  763SOL    HW2 3189   6.316   5.391   0.206
  764SOL     OW 3190   5.557   0.988   3.035
  764SOL    HW1 3191   5.478   0.974   2.976
  764SOL    HW2 3192   5.560   0.916   3.104
  765SOL     OW 3193   0.139   6.665   3.109
  765SOL    HW1 3194   0.161   6.636   3.016
  765SOL    HW2 3195   0.119   6.585   3.165
  766SOL     OW 3196   6.849   6.569   6.939
  766SOL    HW1 3197   6.859   6.669   6.937
  766SOL    HW2 3198   6.755   6.545   6.963
  767SOL     OW 3199   6.065   5.768   1.631
  767SOL    HW1 3200   6.085   5.674   1.658
  767SOL    HW2 3201   6.000   5.768   1.555
  768SOL     OW 3202   3.044   6.644   3.997
  768SOL    HW1 3203   3.063   6.728   3.945
  768SOL    HW2 3204   2.946   6.636   4.013
  769SOL     OW 3205   3.745   0.736   0.328
  769SOL    HW1 3206   3.752   0.824   0.281
  769SOL    HW2 3207   3.824   0.723   0.388
  770SOL     OW 3208   3.129   4.864   4.297
  770SOL    HW1 3209   3.144   4.947   4.244
  770SOL    HW2 3210   3.206   4.850   4.359
  771SOL     OW 3211   0.802   5.739   4.698
  771SOL    HW1 3212   0.885   5.698   4.736
  771SOL    HW2 3213   0.821   5.835   4.676
  772SOL     OW 3214   0.049   4.478   5.755
  772SOL    HW1 3215   0.126   4.487   5.691
  772SOL    HW2 3216   0.039   4.563   5.806
  773SOL     OW 3217   6.983   3.497   2.238
  773SOL    HW1 3218   0.043   3.479   2.279
  773SOL    HW2 3219   6.926   3.547   2.303
  774SOL     OW 3220   1.209   1.045   1.547
  774SOL    HW1 3221   1.258   1.097   1.616
  774SOL    HW2 3222   1.193   0.952   1.580
  775SOL     OW 3223   1.595   2.590   4.423
  775SOL    HW1 3224   1.644   2.545   4.349
  775SOL    HW2 3225   1.586   2.688   4.402
  776SOL     OW 3226   2.034   0.356   5.000
  776SOL    HW1 3227   2.049   0.259   5.023
  776SOL    HW2 3228   2.058   0.412   5.079
  777SOL     OW 3229   4.534   6.807   6.971
  777SOL    HW1 3230   4.434   6.812   6.970
  777SOL    HW2 3231   4.565   6.771   0.029
  778SOL     OW 3232   4.431   5.403   5.106
  778SOL    HW1 3233   4.412   5.433   5.200
  778SOL    HW2 3234   4.359   5.340   5.076
  779SOL     OW 3235   0.762   0.511   2.466
  779SOL    HW1 3236   0.794   0.511   2.371
  779SOL    HW2 3237   0.670   0.549   2.470
  780SOL     OW 3238   5.245   2.820   5.026
  780SOL    HW1 3239   5.191   2.838   5.108
  780SOL    HW2 3240   5.221   2.886   4.955
  781SOL     OW 3241   0.634   2.608   6.544
  781SOL    HW1 3242   0.575   2.577   6.619
  781SOL    HW2 3243   0.648   2.533   6.480
  782SOL     OW 3244   0.158   4.535   0.580
  782SOL    HW1 3245   0.124   4.453   0.534
  782SOL    HW2 3246   0.197   4.598   0.513
  783SOL     OW 3247   2.245   4.889   6.981
  783SOL    HW1 3248   2.176   4.940   6.930
  783SOL    HW2 3249   2.243   4.793   6.956
  784SOL     OW 3250   5.002   5.057   3.400
  784SOL    HW1 3251   4.943   5.037   3.478
  784SOL    HW2 3252   5.097   5.038   3.424
  785SOL     OW 3253   6.233   2.149   4.202
  785SOL    HW1 3254   6.278   2.060   4.189
  785SOL    HW2 3255   6.194   2.179   4.116
  786SOL     OW 3256   6.023   6.588   0.394
  786SOL    HW1 3257   6.010   6.679   0.433
  786SOL    HW2 3258   6.099   6.542   0.441
  787SOL     OW 3259   4.559   0.984   7.012
  787SOL    HW1 3260   4.594   0.938   0.063
  787SOL    HW2 3261   4.634   1.003   6.949
  788SOL     OW 3262   1.114   4.622   3.166
  788SOL    HW1 3263   1.029   4.669   3.141
  788SOL    HW2 3264   1.093   4.547   3.229
  789SOL     OW 3265   5.635   2.684   1.335
  789SOL    HW1 3266   5.569   2.722   1.271
  789SOL    HW2 3267   5.722   2.732   1.325
  790SOL     OW 3268   3.312   0.352   3.905
  790SOL    HW1 3269   3.362   0.271   3.875
  790SOL    HW2 3270   3.363   0.398   3.978
  791SOL     OW 3271   4.152   1.701   5.155
  791SOL    HW1 3272   4.174   1.625   5.215
  791SOL    HW2 3273   4.068   1.682   5.105
  792SOL     OW 3274   5.328   0.358   3.512
  792SOL    HW1 3275   5.234   0.376   3.541
  792SOL    HW2 3276   5.361   0.276   3.559
  793SOL     OW 3277   0.103   0.382   6.484
  793SOL    HW1 3278   0.047   0.319   6.538
  793SOL    HW2 3279   0.054   0.468   6.471
  794SOL     OW 3280   3.530   4.940   5.066
  794SOL    HW1 3281   3.440   4.904   5.091
  794SOL    HW2 3282   3.590   4.939   5.146
  795SOL     OW 3283   5.008   4.685   6.812
  795SOL    HW1 3284   5.026   4.751   6.739
  795SOL    HW2 3285   5.026   4.727   6.900
  796SOL     OW 3286   0.326   1.481   5.999
  796SOL    HW1 3287   0.236   1.449   5.970
  796SOL    HW2 3288   0.377   1.404   6.038
  797SOL     OW 3289   6.193   3.009   5.596
  797SOL    HW1 3290   6.136   3.071   5.650
  797SOL    HW2 3291   6.135   2.956   5.534
  798SOL     OW 3292   6.437   0.572   5.058
  798SOL    HW1 3293   6.379   0.553   5.137
  798SOL    HW2 3294   6.407   0.657   5.015
  799SOL     OW 3295   6.722   3.283   3.738
  799SOL    HW1 3296   6.665   3.260   3.659
  799SOL    HW2 3297   6.800   3.220   3.742
  800SOL     OW 3298   6.814   1.594   1.972
  800SOL    HW1 3299   6.743   1.539   1.929
  800SOL    HW2 3300   6.897   1.539   1.984
  801SOL     OW 3301   0.539   2.695   3.854
  801SOL    HW1 3302   0.485   2.764   3.903
  801SOL    HW2 3303   0.586   2.738   3.777
  802SOL     OW 3304   6.085   1.788   1.710
  802SOL    HW1 3305   5.994   1.811   1.677
  802SOL    HW2 3306   6.092   1.809   1.808
  803SOL     OW 3307   1.446   0.150   5.006
  803SOL    HW1 3308   1.424   0.091   5.084
  803SOL    HW2 3309   1.543   0.172   5.007
  804SOL     OW 3310   6.372   6.811   0.775
  804SOL    HW1 3311   6.471   6.821   0.773
  804SOL    HW2 3312   6.329   6.902   0.776
  805SOL     OW 3313   1.612   2.982   5.513
  805SOL    HW1 3314   1.673   3.056   5.540
  805SOL    HW2 3315   1.548   2.962   5.587
  806SOL     OW 3316   5.081   0.352   0.268
  806SOL    HW1 3317   5.116   0.427   0.213
  806SOL    HW2 3318   5.151   0.322   0.333
  807SOL     OW 3319   1.071   0.011   2.950
  807SOL    HW1 3320   1.088   0.099   2.905
  807SOL    HW2 3321   0.976   0.009   2.982
  808SOL     OW 3322   5.906   3.798   5.119
  808SOL    HW1 3323   5.824   3.855   5.126
  808SOL    HW2 3324   5.978   3.849   5.071
  809SOL     OW 3325   0.741   5.480   6.123
  809SOL    HW1 3326   0.834   5.488   6.158
  809SOL    HW2 3327   0.741   5.493   6.024
  810SOL     OW 3328   6.521   5.325   6.279
  810SOL    HW1 3329   6.454   5.252   6.268
  810SOL    HW2 3330   6.475   5.414   6.272
  811SOL     OW 3331   3.886   5.310   3.527
  811SOL    HW1 3332   3.849   5.235   3.582
  811SOL    HW2 3333   3.834   5.393   3.546
  812SOL     OW 3334   0.111   0.526   2.388
  812SOL    HW1 3335   0.125   0.518   2.290
  812SOL    HW2 3336   0.060   0.446   2.421
  813SOL     OW 3337   5.686   5.445   2.010
  813SOL    HW1 3338   5.626   5.508   2.060
  813SOL    HW2 3339   5.756   5.497   1.962
  814SOL     OW 3340   5.307   5.361   1.440
  814SOL    HW1 3341   5.403   5.339   1.419
  814SOL    HW2 3342   5.247   5.314   1.376
  815SOL     OW 3343   0.729   1.097   0.541
  815SOL    HW1 3344   0.665   1.146   0.482
  815SOL    HW2 3345   0.749   1.007   0.502
  816SOL     OW 3346   5.428   0.391   1.823
  816SOL    HW1 3347   5.396   0.436   1.739
  816SOL    HW2 3348   5.504   0.330   1.801
  817SOL     OW 3349   0.458   2.088   2.118
  817SOL    HW1 3350   0.414   2.150   2.053
  817SOL    HW2 3351   0.529   2.138   2.168
  818SOL     OW 3352   5.387   1.589   2.421
  818SOL    HW1 3353   5.475   1.630   2.446
  818SOL    HW2 3354   5.348   1.641   2.345
  819SOL     OW 3355   0.114   5.537   2.163
  819SOL    HW1 3356   0.134   5.494   2.251
  819SOL    HW2 3357   0.173   5.498   2.092
  820SOL     OW 3358   1.497   2.502   4.887
  820SOL    HW1 3359   1.412   2.507   4.939
  820SOL    HW2 3360   1.559   2.575   4.917
  821SOL     OW 3361   0.839   4.122   0.429
  821SOL    HW1 3362   0.815   4.047   0.367
  821SOL    HW2 3363   0.895   4.087   0.504
  822SOL     OW 3364   1.494   3.332   4.752
  822SOL    HW1 3365   1.405   3.358   4.716
  822SOL    HW2 3366   1.564   3.349   4.682
  823SOL     OW 3367   3.498   3.657   1.472
  823SOL    HW1 3368   3.519   3.730   1.538
  823SOL    HW2 3369   3.580   3.600   1.460
  824SOL     OW 3370   6.315   2.545   6.071
  824SOL    HW1 3371   6.228   2.573   6.030
  824SOL    HW2 3372   6.361   2.479   6.010
  825SOL     OW 3373   1.214   4.044   1.635
  825SOL    HW1 3374   1.192   4.131   1.679
  825SOL    HW2 3375   1.188   4.049   1.538
  826SOL     OW 3376   1.291   3.708   5.593
  826SOL    HW1 3377   1.208   3.663   5.559
  826SOL    HW2 3378   1.370   3.673   5.543
  827SOL     OW 3379   3.264   4.992   0.768
  827SOL    HW1 3380   3.169   5.007   0.793
  827SOL    HW2 3381   3.281   4.894   0.756
  828SOL     OW 3382   6.405   0.376   6.161
  828SOL    HW1 3383   6.431   0.463   6.119
  828SOL    HW2 3384   6.307   0.376   6.179
  829SOL     OW 3385   3.242   3.388   5.079
  829SOL    HW1 3386   3.222   3.411   4.983
  829SOL    HW2 3387   3.256   3.472   5.131
  830SOL     OW 3388   4.277   3.817   6.173
  830SOL    HW1 3389   4.291   3.897   6.115
  830SOL    HW2 3390   4.256   3.738   6.115
  831SOL     OW 3391   6.061   0.202   4.071
  831SOL    HW1 3392   6.130   0.152   4.018
  831SOL    HW2 3393   6.098   0.226   4.160
  832SOL     OW 3394   2.048   1.523   5.632
  832SOL    HW1 3395   2.128   1.545   5.577
  832SOL    HW2 3396   2.030   1.598   5.696
  833SOL     OW 3397   0.811   0.382   5.772
  833SOL    HW1 3398   0.772   0.348   5.858
  833SOL    HW2 3399   0.821   0.306   5.708
  834SOL     OW 3400   3.241   4.496   5.919
  834SOL    HW1 3401   3.183   4.540   5.988
  834SOL    HW2 3402   3.302   4.430   5.963
  835SOL     OW 3403   4.296   0.845   3.258
  835SOL    HW1 3404   4.311   0.876   3.164
  835SOL    HW2 3405   4.287   0.925   3.318
  836SOL     OW 3406   2.420   0.968   6.449
  836SOL    HW1 3407   2.451   0.890   6.394
  836SOL    HW2 3408   2.323   0.984   6.432
  837SOL     OW 3409   4.028   1.613   4.866
  837SOL    HW1 3410   4.076   1.669   4.798
  837SOL    HW2 3411   4.078   1.528   4.881
  838SOL     OW 3412   0.865   6.288   2.042
  838SOL    HW1 3413   0.928   6.216   2.013
  838SOL    HW2 3414   0.907   6.377   2.026
  839SOL     OW 3415   3.134   1.411   1.936
  839SOL    HW1 3416   3.138   1.419   1.836
  839SOL    HW2 3417   3.117   1.316   1.962
  840SOL     OW 3418   0.447   1.505   5.589
  840SOL    HW1 3419   0.355   1.494   5.625
  840SOL    HW2 3420   0.496   1.418   5.595
  841SOL     OW 3421   0.293   3.394   0.951
  841SOL    HW1 3422   0.371   3.416   0.892
  841SOL    HW2 3423   0.304   3.440   1.039
  842SOL     OW 3424   3.293   5.315   3.866
  842SOL    HW1 3425   3.275   5.340   3.961
  842SOL    HW2 3426   3.387   5.282   3.857
  843SOL     OW 3427   0.160   3.909   1.851
  843SOL    HW1 3428   0.214   3.933   1.932
  843SOL    HW2 3429   0.077   3.965   1.848
  844SOL     OW 3430   5.824   4.717   6.675
  844SOL    HW1 3431   5.864   4.808   6.681
  844SOL    HW2 3432   5.826   4.673   6.765
  845SOL     OW 3433   1.660   5.042   5.519
  845SOL    HW1 3434   1.719   5.091   5.454
  845SOL    HW2 3435   1.641   5.101   5.597
  846SOL     OW 3436   4.621   2.651   6.846
  846SOL    HW1 3437   4.662   2.740   6.827
  846SOL    HW2 3438   4.634   2.590   6.768
  847SOL     OW 3439   5.241   4.311   2.118
  847SOL    HW1 3440   5.161   4.270   2.161
  847SOL    HW2 3441   5.269   4.256   2.039
  848SOL     OW 3442   6.130   6.837   5.266
  848SOL    HW1 3443   6.195   6.909   5.245
  848SOL    HW2 3444   6.127   6.823   5.365
  849SOL     OW 3445   0.955   5.752   3.933
  849SOL    HW1 3446   0.911   5.811   4.001
  849SOL    HW2 3447   0.905   5.756   3.847
  850SOL     OW 3448   4.192   0.390   3.260
  850SOL    HW1 3449   4.153   0.422   3.346
  850SOL    HW2 3450   4.177   0.291   3.252
  851SOL     OW 3451   6.906   0.797   5.973
  851SOL    HW1 3452   6.837   0.776   5.904
  851SOL    HW2 3453   6.860   0.815   6.061
  852SOL     OW 3454   2.875   4.368   5.616
  852SOL    HW1 3455   2.875   4.468   5.615
  852SOL    HW2 3456   2.782   4.334   5.629
  853SOL     OW 3457   0.711   3.958   0.664
  853SOL    HW1 3458   0.722   3.861   0.641
  853SOL    HW2 3459   0.798   4.005   0.653
  854SOL     OW 3460   6.253   5.168   1.460
  854SOL    HW1 3461   6.204   5.214   1.534
  854SOL    HW2 3462   6.191   5.154   1.382
  855SOL     OW 3463   5.385   0.310   0.405
  855SOL    HW1 3464   5.476   0.333   0.371
  855SOL    HW2 3465   5.356   0.223   0.365
  856SOL     OW 3466   1.189   0.470   5.039
  856SOL    HW1 3467   1.177   0.569   5.043
  856SOL    HW2 3468   1.239   0.446   4.956
  857SOL     OW 3469   5.693   3.239   1.610
  857SOL    HW1 3470   5.695   3.310   1.681
  857SOL    HW2 3471   5.599   3.206   1.598
  858SOL     OW 3472   3.847   3.519   1.795
  858SOL    HW1 3473   3.764   3.464   1.804
  858SOL    HW2 3474   3.909   3.499   1.871
  859SOL     OW 3475   6.781   4.492   0.824
  859SOL    HW1 3476   6.754   4.587   0.836
  859SOL    HW2 3477   6.871   4.477   0.865
  860SOL     OW 3478   1.677   4.288   6.721
  860SOL    HW1 3479   1.728   4.359   6.673
  860SOL    HW2 3480   1.728   4.203   6.720
  861SOL     OW 3481   3.463   4.643   5.627
  861SOL    HW1 3482   3.559   4.619   5.610
  861SOL    HW2 3483   3.432   4.705   5.555
  862SOL     OW 3484   4.626   4.316   3.160
  862SOL    HW1 3485   4.537   4.326   3.115
  862SOL    HW2 3486   4.641   4.394   3.221
  863SOL     OW 3487   5.921   2.315   1.134
  863SOL    HW1 3488   5.921   2.287   1.230
  863SOL    HW2 3489   5.904   2.235   1.076
  864SOL     OW 3490   0.042   5.232   3.204
  864SOL    HW1 3491   0.055   5.167   3.279
  864SOL    HW2 3492   0.075   5.322   3.230
  865SOL     OW 3493   1.943   0.822   3.581
  865SOL    HW1 3494   1.909   0.779   3.665
  865SOL    HW2 3495   1.897   0.783   3.502
  866SOL     OW 3496   4.933   1.286   1.162
  866SOL    HW1 3497   4.859   1.294   1.094
  866SOL    HW2 3498   4.931   1.195   1.202
  867SOL     OW 3499   2.484   1.457   6.452
  867SOL    HW1 3500   2.564   1.507   6.483
  867SOL    HW2 3501   2.423   1.439   6.529
  868SOL     OW 3502   5.545   2.084   3.302
  868SOL    HW1 3503   5.526   2.015   3.233
  868SOL    HW2 3504   5.476   2.157   3.296
  869SOL     OW 3505   6.659   3.794   1.200
  869SOL    HW1 3506   6.574   3.836   1.169
  869SOL    HW2 3507   6.700   3.743   1.125
  870SOL     OW 3508   6.569   2.218   0.233
  870SOL    HW1 3509   6.638   2.290   0.240
  870SOL    HW2 3510   6.580   2.154   0.309
  871SOL     OW 3511   5.891   4.398   0.580
  871SOL    HW1 3512   5.900   4.362   0.487
  871SOL    HW2 3513   5.809   4.359   0.623
  872SOL     OW 3514   0.154   2.002   1.879
  872SOL    HW1 3515   0.217   2.077   1.859
  872SOL    HW2 3516   0.066   2.019   1.836
  873SOL     OW 3517   3.463   6.819   5.018
  873SOL    HW1 3518   3.410   6.814   4.933
  873SOL    HW2 3519   3.514   6.904   5.021
  874SOL     OW 3520   0.372   4.172   6.608
  874SOL    HW1 3521   0.454   4.219   6.577
  874SOL    HW2 3522   0.334   4.220   6.687
  875SOL     OW 3523   6.321   5.517   6.284
  875SOL    HW1 3524   6.272   5.463   6.216
  875SOL    HW2 3525   6.336   5.610   6.249
  876SOL     OW 3526   1.950   2.103   1.248
  876SOL    HW1 3527   2.027   2.041   1.265
  876SOL    HW2 3528   1.938   2.163   1.328
  877SOL     OW 3529   5.084   5.494   0.039
  877SOL    HW1 3530   5.030   5.480   6.986
  877SOL    HW2 3531   5.137   5.578   0.030
  878SOL     OW 3532   3.825   2.793   0.909
  878SOL    HW1 3533   3.777   2.714   0.871
  878SOL    HW2 3534   3.760   2.869   0.921
  879SOL     OW 3535   4.845   2.802   3.002
  879SOL    HW1 3536   4.799   2.879   3.046
  879SOL    HW2 3537   4.893   2.748   3.072
  880SOL     OW 3538   4.375   5.653   1.600
  880SOL    HW1 3539   4.460   5.706   1.597
  880SOL    HW2 3540   4.341   5.639   1.507
  881SOL     OW 3541   5.185   4.786   3.089
  881SOL    HW1 3542   5.266   4.839   3.112
  881SOL    HW2 3543   5.185   4.701   3.142
  882SOL     OW 3544   0.703   2.004   4.489
  882SOL    HW1 3545   0.774   1.951   4.442
  882SOL    HW2 3546   0.745   2.083   4.534
  883SOL     OW 3547   3.181   4.783   0.001
  883SOL    HW1 3548   3.147   4.758   0.092
  883SOL    HW2 3549   3.170   4.882   7.018
  884SOL     OW 3550   4.028   4.152   1.626
  884SOL    HW1 3551   3.956   4.085   1.644
  884SOL    HW2 3552   3.988   4.243   1.624
  885SOL     OW 3553   4.790   5.788   5.423
  885SOL    HW1 3554   4.824   5.748   5.338
  885SOL    HW2 3555   4.712   5.848   5.403
  886SOL     OW 3556   4.073   2.037   6.628
  886SOL    HW1 3557   4.081   2.056   6.530
  886SOL    HW2 3558   3.980   2.057   6.659
  887SOL     OW 3559   6.002   5.805   4.900
  887SOL    HW1 3560   6.090   5.807   4.947
  887SOL    HW2 3561   5.934   5.851   4.957
  888SOL     OW 3562   6.273   0.317   3.397
  888SOL    HW1 3563   6.243   0.370   3.477
  888SOL    HW2 3564   6.294   0.223   3.426
  889SOL     OW 3565   0.544   0.367   4.580
  889SOL    HW1 3566   0.534   0.433   4.655
  889SOL    HW2 3567   0.458   0.360   4.530
  890SOL     OW 3568   1.558   3.843   2.212
  890SOL    HW1 3569   1.655   3.820   2.226
  890SOL    HW2 3570   1.540   3.856   2.115
  891SOL     OW 3571   5.611   3.843   6.608
  891SOL    HW1 3572   5.568   3.764   6.564
  891SOL    HW2 3573   5.709   3.844   6.584
  892SOL     OW 3574   1.960   5.681   1.867
  892SOL    HW1 3575   1.915   5.759   1.824
  892SOL    HW2 3576   2.024   5.713   1.937
  893SOL     OW 3577   2.105   0.410   2.181
  893SOL    HW1 3578   2.167   0.421   2.258
  893SOL    HW2 3579   2.156   0.380   2.101
  894SOL     OW 3580   1.277   5.455   4.423
  894SOL    HW1 3581   1.309   5.550   4.418
  894SOL    HW2 3582   1.192   5.446   4.372
  895SOL     OW 3583   2.388   0.783   4.608
  895SOL    HW1 3584   2.328   0.715   4.566
  895SOL    HW2 3585   2.411   0.853   4.540
  896SOL     OW 3586   5.088   6.485   3.455
  896SOL    HW1 3587   5.046   6.482   3.546
  896SOL    HW2 3588   5.187   6.475   3.463
  897SOL     OW 3589   5.344   1.577   6.207
  897SOL    HW1 3590   5.281   1.644   6.247
  897SOL    HW2 3591   5.293   1.516   6.147
  898SOL     OW 3592   5.684   6.533   3.406
  898SOL    HW1 3593   5.652   6.514   3.313
  898SOL    HW2 3594   5.662   6.628   3.430
  899SOL     OW 3595   1.636   4.318   6.975
  899SOL    HW1 3596   1.623   4.329   6.877
  899SOL    HW2 3597   1.732   4.334   6.998
  900SOL     OW 3598   0.382   5.065   3.396
  900SOL    HW1 3599   0.406   5.063   3.299
  900SOL    HW2 3600   0.282   5.068   3.406
  901SOL     OW 3601   5.991   1.983   4.062
  901SOL    HW1 3602   6.044   2.040   4.000
  901SOL    HW2 3603   5.895   1.981   4.033
  902SOL     OW 3604   1.230   6.526   0.153
  902SOL    HW1 3605   1.246   6.428   0.160
  902SOL    HW2 3606   1.298   6.575   0.208
  903SOL     OW 3607   0.701   4.896   6.452
  903SOL    HW1 3608   0.701   4.870   6.355
  903SOL    HW2 3609   0.669   4.990   6.461
  904SOL     OW 3610   2.195   1.027   4.370
  904SOL    HW1 3611   2.182   1.105   4.308
  904SOL    HW2 3612   2.111   0.973   4.372
  905SOL     OW 3613   6.222   3.049   4.265
  905SOL    HW1 3614   6.196   2.968   4.212
  905SOL    HW2 3615   6.170   3.128   4.233
  906SOL     OW 3616   6.422   3.904   5.620
  906SOL    HW1 3617   6.409   3.930   5.524
  906SOL    HW2 3618   6.333   3.903   5.666
  907SOL     OW 3619   0.172   3.394   2.371
  907SOL    HW1 3620   0.223   3.309   2.387
  907SOL    HW2 3621   0.137   3.430   2.458
  908SOL     OW 3622   2.750   1.205   3.729
  908SOL    HW1 3623   2.737   1.217   3.631
  908SOL    HW2 3624   2.819   1.135   3.745
  909SOL     OW 3625   3.860   6.495   1.126
  909SOL    HW1 3626   3.867   6.437   1.045
  909SOL    HW2 3627   3.874   6.591   1.099
  910SOL     OW 3628   1.786   1.271   1.841
  910SOL    HW1 3629   1.844   1.261   1.921
  910SOL    HW2 3630   1.838   1.311   1.766
  911SOL     OW 3631   0.512   3.224   0.734
  911SOL    HW1 3632   0.518   3.184   0.825
  911SOL    HW2 3633   0.603   3.251   0.703
  912SOL     OW 3634   1.691   1.019   6.744
  912SOL    HW1 3635   1.654   1.092   6.802
  912SOL    HW2 3636   1.790   1.029   6.738
  913SOL     OW 3637   2.086   1.619   2.613
  913SOL    HW1 3638   2.064   1.624   2.516
  913SOL    HW2 3639   2.183   1.637   2.627
  914SOL     OW 3640   2.601   5.460   1.915
  914SOL    HW1 3641   2.678   5.396   1.909
  914SOL    HW2 3642   2.608   5.527   1.842
  915SOL     OW 3643   2.342   2.391   0.805
  915SOL    HW1 3644   2.347   2.334   0.886
  915SOL    HW2 3645   2.288   2.345   0.735
  916SOL     OW 3646   1.382   3.280   2.640
  916SOL    HW1 3647   1.413   3.291   2.545
  916SOL    HW2 3648   1.318   3.204   2.646
  917SOL     OW 3649   3.759   1.058   6.382
  917SOL    HW1 3650   3.783   0.974   6.430
  917SOL    HW2 3651   3.669   1.049   6.340
  918SOL     OW 3652   0.515   1.890   4.671
  918SOL    HW1 3653   0.586   1.834   4.712
  918SOL    HW2 3654   0.551   1.935   4.589
  919SOL     OW 3655   1.434   0.410   1.026
  919SOL    HW1 3656   1.449   0.508   1.015
  919SOL    HW2 3657   1.517   0.367   1.062
  920SOL     OW 3658   1.575   1.438   2.937
  920SOL    HW1 3659   1.541   1.402   2.850
  920SOL    HW2 3660   1.582   1.538   2.931
  921SOL     OW 3661   3.619   4.440   0.366
  921SOL    HW1 3662   3.595   4.344   0.357
  921SOL    HW2 3663   3.621   4.465   0.463
  922SOL     OW 3664   2.512   6.071   6.846
  922SOL    HW1 3665   2.496   6.167   6.867
  922SOL    HW2 3666   2.456   6.044   6.768
  923SOL     OW 3667   4.142   1.267   0.093
  923SOL    HW1 3668   4.148   1.365   0.111
  923SOL    HW2 3669   4.233   1.231   0.074
  924SOL     OW 3670   6.316   5.108   2.557
  924SOL    HW1 3671   6.256   5.037   2.519
  924SOL    HW2 3672   6.381   5.065   2.621
  925SOL     OW 3673   6.974   1.803   2.288
  925SOL    HW1 3674   0.030   1.757   2.312
  925SOL    HW2 3675   6.993   1.878   2.226
  926SOL     OW 3676   3.503   5.640   1.308
  926SOL    HW1 3677   3.420   5.609   1.353
  926SOL    HW2 3678   3.488   5.731   1.269
  927SOL     OW 3679   4.721   5.540   4.946
  927SOL    HW1 3680   4.718   5.590   4.860
  927SOL    HW2 3681   4.672   5.593   5.016
  928SOL     OW 3682   0.493   1.675   1.505
  928SOL    HW1 3683   0.496   1.769   1.537
  928SOL    HW2 3684   0.427   1.623   1.560
  929SOL     OW 3685   0.137   2.132   2.381
  929SOL    HW1 3686   0.132   2.043   2.426
  929SOL    HW2 3687   0.046   2.157   2.347
  930SOL     OW 3688   5.986   4.861   2.020
  930SOL    HW1 3689   6.065   4.817   1.977
  930SOL    HW2 3690   5.999   4.960   2.017
  931SOL     OW 3691   1.147   3.110   1.788
  931SOL    HW1 3692   1.200   3.061   1.857
  931SOL    HW2 3693   1.139   3.054   1.705
  932SOL     OW 3694   4.612   5.734   1.461
  932SOL    HW1 3695   4.610   5.641   1.426
  932SOL    HW2 3696   4.549   5.791   1.408
  933SOL     OW 3697   1.001   6.628   3.100
  933SOL    HW1 3698   0.932   6.559   3.078
  933SOL    HW2 3699   0.963   6.694   3.164
  934SOL     OW 3700   3.302   1.303   5.513
  934SOL    HW1 3701   3.203   1.287   5.511
  934SOL    HW2 3702   3.336   1.313   5.420
  935SOL     OW 3703   1.474   4.283   4.592
  935SOL    HW1 3704   1.468   4.229   4.676
  935SOL    HW2 3705   1.568   4.284   4.558
  936SOL     OW 3706   1.407   1.699   1.794
  936SOL    HW1 3707   1.387   1.607   1.760
  936SOL    HW2 3708   1.468   1.692   1.873
  937SOL     OW 3709   5.084   1.931   3.202
  937SOL    HW1 3710   5.173   1.893   3.227
  937SOL    HW2 3711   5.013   1.891   3.259
  938SOL     OW 3712   0.653   1.158   6.616
  938SOL    HW1 3713   0.703   1.233   6.573
  938SOL    HW2 3714   0.711   1.112   6.683
  939SOL     OW 3715   6.062   1.041   5.300
  939SOL    HW1 3716   6.108   1.031   5.212
  939SOL    HW2 3717   5.964   1.030   5.288
  940SOL     OW 3718   6.901   0.515   4.102
  940SOL    HW1 3719   6.922   0.520   4.005
  940SOL    HW2 3720   6.985   0.522   4.155
  941SOL     OW 3721   5.881   2.448   5.316
  941SOL    HW1 3722   5.847   2.491   5.233
  941SOL    HW2 3723   5.844   2.496   5.396
  942SOL     OW 3724   4.660   0.092   4.774
  942SOL    HW1 3725   4.690   0.031   4.847
  942SOL    HW2 3726   4.572   0.133   4.798
  943SOL     OW 3727   5.106   2.285   0.419
  943SOL    HW1 3728   5.179   2.351   0.400
  943SOL    HW2 3729   5.132   2.229   0.498
  944SOL     OW 3730   4.937   4.309   4.291
  944SOL    HW1 3731   4.959   4.337   4.197
  944SOL    HW2 3732   5.006   4.346   4.353
  945SOL     OW 3733   5.517   3.618   6.457
  945SOL    HW1 3734   5.462   3.540   6.487
  945SOL    HW2 3735   5.570   3.592   6.376
  946SOL     OW 3736   5.638   3.687   6.872
  946SOL    HW1 3737   5.545   3.656   6.894
  946SOL    HW2 3738   5.645   3.706   6.774
  947SOL     OW 3739   0.652   2.427   5.486
  947SOL    HW1 3740   0.707   2.350   5.519
  947SOL    HW2 3741   0.555   2.402   5.488
  948SOL     OW 3742   3.929   1.242   1.054
  948SOL    HW1 3743   3.910   1.335   1.087
  948SOL    HW2 3744   3.874   1.223   0.974
  949SOL     OW 3745   5.434   6.480   6.417
  949SOL    HW1 3746   5.470   6.452   6.506
  949SOL    HW2 3747   5.472   6.421   6.346
  950SOL     OW 3748   3.358   5.417   0.553
  950SOL    HW1 3749   3.328   5.479   0.626
  950SOL    HW2 3750   3.307   5.331   0.559
  951SOL     OW 3751   1.190   3.111   3.588
  951SOL    HW1 3752   1.219   3.207   3.598
  951SOL    HW2 3753   1.162   3.075   3.677
  952SOL     OW 3754   5.048   1.532   1.228
  952SOL    HW1 3755   5.020   1.588   1.150
  952SOL    HW2 3756   5.009   1.440   1.218
  953SOL     OW 3757   4.089   6.584   5.800
  953SOL    HW1 3758   4.028   6.506   5.816
  953SOL    HW2 3759   4.170   6.552   5.750
  954SOL     OW 3760   6.383   0.575   1.095
  954SOL    HW1 3761   6.481   0.593   1.086
  954SOL    HW2 3762   6.332   0.638   1.037
  955SOL     OW 3763   0.879   5.873   2.689
  955SOL    HW1 3764   0.844   5.948   2.632
  955SOL    HW2 3765   0.804   5.812   2.713
  956SOL     OW 3766   1.513   2.626   0.683
  956SOL    HW1 3767   1.460   2.559   0.632
  956SOL    HW2 3768   1.506   2.715   0.638
  957SOL     OW 3769   1.974   6.578   4.965
  957SOL    HW1 3770   1.894   6.548   4.914
  957SOL    HW2 3771   2.017   6.499   5.009
  958SOL     OW 3772   4.736   2.689   0.088
  958SOL    HW1 3773   4.679   2.647   0.017
  958SOL    HW2 3774   4.801   2.752   0.045
  959SOL     OW 3775   1.495   3.585   1.078
  959SOL    HW1 3776   1.591   3.564   1.065
  959SOL    HW2 3777   1.483   3.685   1.082
  960SOL     OW 3778   2.025   5.114   5.582
  960SOL    HW1 3779   2.120   5.124   5.550
  960SOL    HW2 3780   2.024   5.109   5.682
  961SOL     OW 3781   3.385   6.913   0.082
  961SOL    HW1 3782   3.388   7.010   0.060
  961SOL    HW2 3783   3.437   6.861   0.014
  962SOL     OW 3784   1.418   0.033   3.330
  962SOL    HW1 3785   1.438   7.013   3.415
  962SOL    HW2 3786   1.354   7.009   3.275
  963SOL     OW 3787   5.528   6.979   1.797
  963SOL    HW1 3788   5.522   6.992   1.698
  963SOL    HW2 3789   5.438   6.955   1.833
  964SOL     OW 3790   6.006   3.503   1.685
  964SOL    HW1 3791   6.004   3.517   1.784
  964SOL    HW2 3792   5.947   3.570   1.640
  965SOL     OW 3793   1.710   1.519   0.447
  965SOL    HW1 3794   1.633   1.464   0.481
  965SOL    HW2 3795   1.775   1.534   0.522
  966SOL     OW 3796   6.441   2.585   2.534
  966SOL    HW1 3797   6.495   2.609   2.614
  966SOL    HW2 3798   6.370   2.519   2.559
  967SOL     OW 3799   1.347   5.624   2.207
  967SOL    HW1 3800   1.327   5.569   2.126
  967SOL    HW2 3801   1.292   5.707   2.206
  968SOL     OW 3802   6.831   4.212   0.611
  968SOL    HW1 3803   6.896   4.181   0.542
  968SOL    HW2 3804   6.809   4.309   0.595
  969SOL     OW 3805   4.099   6.408   6.306
  969SOL    HW1 3806   4.091   6.493   6.358
  969SOL    HW2 3807   4.113   6.331   6.369
  970SOL     OW 3808   5.287   3.304   5.905
  970SOL    HW1 3809   5.196   3.325   5.940
  970SOL    HW2 3810   5.306   3.207   5.918
  971SOL     OW 3811   0.293   2.933   6.879
  971SOL    HW1 3812   0.255   3.026   6.876
  971SOL    HW2 3813   0.389   2.937   6.852
  972SOL     OW 3814   5.157   6.404   0.727
  972SOL    HW1 3815   5.069   6.388   0.682
  972SOL    HW2 3816   5.194   6.493   0.699
  973SOL     OW 3817   6.065   3.592   6.502
  973SOL    HW1 3818   6.150   3.567   6.456
  973SOL    HW2 3819   6.079   3.595   6.601
  974SOL     OW 3820   1.956   0.515   4.547
  974SOL    HW1 3821   1.870   0.565   4.539
  974SOL    HW2 3822   1.939   0.420   4.570
  975SOL     OW 3823   2.807   0.215   5.221
  975SOL    HW1 3824   2.810   0.273   5.303
  975SOL    HW2 3825   2.716   0.176   5.211
  976SOL     OW 3826   0.311   4.465   3.549
  976SOL    HW1 3827   0.339   4.369   3.552
  976SOL    HW2 3828   0.226   4.473   3.496
  977SOL     OW 3829   1.014   2.286   2.389
  977SOL    HW1 3830   0.942   2.246   2.445
  977SOL    HW2 3831   0.998   2.264   2.293
  978SOL     OW 3832   5.391   2.964   4.676
  978SOL    HW1 3833   5.321   2.999   4.614
  978SOL    HW2 3834   5.476   3.014   4.662
  979SOL     OW 3835   5.853   1.538   3.065
  979SOL    HW1 3836   5.870   1.546   3.163
  979SOL    HW2 3837   5.940   1.541   3.016
  980SOL     OW 3838   0.060   0.191   5.417
  980SOL    HW1 3839   0.069   0.096   5.388
  980SOL    HW2 3840   0.079   0.199   5.515
  981SOL     OW 3841   6.451   2.834   6.057
  981SOL    HW1 3842   6.401   2.757   6.095
  981SOL    HW2 3843   6.499   2.883   6.130
  982SOL     OW 3844   1.131   4.293   0.891
  982SOL    HW1 3845   1.171   4.202   0.904
  982SOL    HW2 3846   1.067   4.290   0.815
  983SOL     OW 3847   5.403   1.662   3.616
  983SOL    HW1 3848   5.441   1.625   3.531
  983SOL    HW2 3849   5.304   1.669   3.608
  984SOL     OW 3850   4.880   2.627   5.332
  984SOL    HW1 3851   4.875   2.723   5.358
  984SOL    HW2 3852   4.835   2.613   5.244
  985SOL     OW 3853   1.675   4.628   0.451
  985SOL    HW1 3854   1.714   4.544   0.413
  985SOL    HW2 3855   1.577   4.615   0.467
  986SOL     OW 3856   4.707   4.130   6.299
  986SOL    HW1 3857   4.732   4.077   6.380
  986SOL    HW2 3858   4.707   4.228   6.323
  987SOL     OW 3859   3.931   6.703   2.728
  987SOL    HW1 3860   3.875   6.785   2.720
  987SOL    HW2 3861   3.891   6.630   2.672
  988SOL     OW 3862   3.437   2.886   1.366
  988SOL    HW1 3863   3.372   2.949   1.408
  988SOL    HW2 3864   3.459   2.813   1.431
  989SOL     OW 3865   0.662   0.587   4.890
  989SOL    HW1 3866   0.562   0.584   4.886
  989SOL    HW2 3867   0.699   0.500   4.857
  990SOL     OW 3868   5.436   6.324   1.854
  990SOL    HW1 3869   5.500   6.287   1.786
  990SOL    HW2 3870   5.352   6.269   1.853
  991SOL     OW 3871   5.804   1.873   5.409
  991SOL    HW1 3872   5.837   1.960   5.446
  991SOL    HW2 3873   5.859   1.798   5.445
  992SOL     OW 3874   6.801   3.158   1.317
  992SOL    HW1 3875   6.808   3.253   1.287
  992SOL    HW2 3876   6.891   3.115   1.310
  993SOL     OW 3877   3.789   6.623   4.945
  993SOL    HW1 3878   3.705   6.650   4.992
  993SOL    HW2 3879   3.838   6.556   4.999
  994SOL     OW 3880   3.039   3.230   2.622
  994SOL    HW1 3881   2.985   3.279   2.691
  994SOL    HW2 3882   2.997   3.141   2.604
  995SOL     OW 3883   0.534   1.134   4.645
  995SOL    HW1 3884   0.556   1.074   4.568
  995SOL    HW2 3885   0.597   1.213   4.644
  996SOL     OW 3886   0.744   3.401   0.261
  996SOL    HW1 3887   0.818   3.439   0.317
  996SOL    HW2 3888   0.781   3.332   0.199
  997SOL     OW 3889   0.091   2.007   0.775
  997SOL    HW1 3890   0.059   2.013   0.869
  997SOL    HW2 3891   0.190   1.999   0.773
  998SOL     OW 3892   5.484   6.999   3.294
  998SOL    HW1 3893   5.413   6.932   3.270
  998SOL    HW2 3894   5.460   0.058   3.257
  999SOL     OW 3895   6.147   5.476   1.578
  999SOL    HW1 3896   6.065   5.419   1.590
  999SOL    HW2 3897   6.139   5.527   1.492
 1000SOL     OW 3898   4.507   2.171   4.704
 1000SOL    HW1 3899   4.588   2.151   4.760
 1000SOL    HW2 3900   4.535   2.187   4.609
 1001SOL     OW 3901   4.633   1.145   5.389
 1001SOL    HW1 3902   4.668   1.060   5.350
 1001SOL    HW2 3903   4.589   1.127   5.476
 1002SOL     OW 3904   0.419   1.590   0.565
 1002SOL    HW1 3905   0.361   1.574   0.485
 1002SOL    HW2 3906   0.362   1.619   0.642
 1003SOL     OW 3907   3.996   5.184   2.844
 1003SOL    HW1 3908   3.940   5.127   2.905
 1003SOL    HW2 3909   4.057   5.126   2.790
 1004SOL     OW 3910   5.970   5.835   0.087
 1004SOL    HW1 3911   6.058   5.882   0.086
 1004SOL    HW2 3912   5.985   5.736   0.080
 1005SOL     OW 3913   6.679   5.652   3.412
 1005SOL    HW1 3914   6.652   5.749   3.410
 1005SOL    HW2 3915   6.640   5.608   3.493
 1006SOL     OW 3916   1.945   4.595   6.810
 1006SOL    HW1 3917   2.042   4.572   6.807
 1006SOL    HW2 3918   1.917   4.608   6.906
 1007SOL     OW 3919   0.656   0.935   3.115
 1007SOL    HW1 3920   0.721   0.858   3.111
 1007SOL    HW2 3921   0.705   1.021   3.102
 1008SOL     OW 3922   2.874   2.341   5.216
 1008SOL    HW1 3923   2.969   2.351   5.187
 1008SOL    HW2 3924   2.845   2.424   5.263
 1009SOL     OW 3925   2.937   5.993   5.892
 1009SOL    HW1 3926   2.957   5.895   5.897
 1009SOL    HW2 3927   2.987   6.041   5.964
 1010SOL     OW 3928   5.301   0.048   5.263
 1010SOL    HW1 3929   5.207   0.059   5.230
 1010SOL    HW2 3930   5.346   7.007   5.209
 1011SOL     OW 3931   3.101   5.763   3.934
 1011SOL    HW1 3932   3.147   5.695   3.877
 1011SOL    HW2 3933   3.167   5.803   3.998
 1012SOL     OW 3934   3.490   5.785   0.560
 1012SOL    HW1 3935   3.536   5.873   0.575
 1012SOL    HW2 3936   3.391   5.798   0.568
 1013SOL     OW 3937   0.656   0.633   0.085
 1013SOL    HW1 3938   0.685   0.625   0.180
 1013SOL    HW2 3939   0.735   0.619   0.025
 1014SOL     OW 3940   5.847   6.864   5.922
 1014SOL    HW1 3941   5.758   6.835   5.957
 1014SOL    HW2 3942   5.904   6.783   5.906
 1015SOL     OW 3943   2.835   0.593   4.851
 1015SOL    HW1 3944   2.921   0.600   4.801
 1015SOL    HW2 3945   2.758   0.595   4.786
 1016SOL     OW 3946   4.434   2.594   1.623
 1016SOL    HW1 3947   4.442   2.681   1.672
 1016SOL    HW2 3948   4.457   2.519   1.684
 1017SOL     OW 3949   5.108   0.455   6.060
 1017SOL    HW1 3950   5.191   0.459   6.115
 1017SOL    HW2 3951   5.059   0.542   6.067
 1018SOL     OW 3952   1.546   2.778   1.563
 1018SOL    HW1 3953   1.624   2.736   1.517
 1018SOL    HW2 3954   1.549   2.877   1.550
 1019SOL     OW 3955   6.453   1.761   0.845
 1019SOL    HW1 3956   6.372   1.745   0.788
 1019SOL    HW2 3957   6.514   1.825   0.798
 1020SOL     OW 3958   3.638   2.122   1.694
 1020SOL    HW1 3959   3.657   2.206   1.744
 1020SOL    HW2 3960   3.570   2.067   1.744
 1021SOL     OW 3961   6.406   1.386   1.160
 1021SOL    HW1 3962   6.482   1.331   1.195
 1021SOL    HW2 3963   6.426   1.483   1.174
 1022SOL     OW 3964   2.987   2.872   6.943
 1022SOL    HW1 3965   2.990   2.831   6.852
 1022SOL    HW2 3966   3.005   2.802   7.012
 1023SOL     OW 3967   6.752   0.867   4.713
 1023SOL    HW1 3968   6.707   0.780   4.689
 1023SOL    HW2 3969   6.818   0.852   4.786
 1024SOL     OW 3970   6.465   1.934   4.391
 1024SOL    HW1 3971   6.395   1.947   4.461
 1024SOL    HW2 3972   6.545   1.989   4.414
 1025SOL     OW 3973   3.013   4.757   1.465
 1025SOL    HW1 3974   2.989   4.676   1.518
 1025SOL    HW2 3975   2.930   4.797   1.426
 1026SOL     OW 3976   0.783   2.574   6.260
 1026SOL    HW1 3977   0.729   2.655   6.236
 1026SOL    HW2 3978   0.860   2.566   6.198
 1027SOL     OW 3979   2.086   5.105   1.036
 1027SOL    HW1 3980   2.172   5.151   1.057
 1027SOL    HW2 3981   2.102   5.006   1.031
 1028SOL     OW 3982   0.127   5.130   0.179
 1028SOL    HW1 3983   0.152   5.104   0.272
 1028SOL    HW2 3984   0.041   5.182   0.181
 1029SOL     OW 3985   3.670   0.636   5.072
 1029SOL    HW1 3986   3.574   0.648   5.047
 1029SOL    HW2 3987   3.690   0.539   5.086
 1030SOL     OW 3988   4.022   4.978   5.296
 1030SOL    HW1 3989   4.030   4.991   5.197
 1030SOL    HW2 3990   4.057   4.888   5.321
 1031SOL     OW 3991   2.640   5.589   0.679
 1031SOL    HW1 3992   2.611   5.517   0.615
 1031SOL    HW2 3993   2.572   5.663   0.678
 1032SOL     OW 3994   1.077   1.403   4.797
 1032SOL    HW1 3995   1.174   1.391   4.817
 1032SOL    HW2 3996   1.028   1.320   4.822
 1033SOL     OW 3997   2.346   6.761   2.413
 1033SOL    HW1 3998   2.320   6.744   2.318
 1033SOL    HW2 3999   2.445   6.750   2.424
 1034SOL     OW 4000   0.760   0.110   1.588
 1034SOL    HW1 4001   0.856   0.133   1.571
 1034SOL    HW2 4002   0.738   0.130   1.684
 1035SOL     OW 4003   3.716   1.677   2.879
 1035SOL    HW1 4004   3.769   1.671   2.963
 1035SOL    HW2 4005   3.775   1.702   2.803
 1036SOL     OW 4006   4.809   6.651   7.013
 1036SOL    HW1 4007   4.793   6.556   6.986
 1036SOL    HW2 4008   4.746   6.675   0.057
 1037SOL     OW 4009   3.414   1.800   6.218
 1037SOL    HW1 4010   3.439   1.822   6.313
 1037SOL    HW2 4011   3.361   1.876   6.180
 1038SOL     OW 4012   2.418   1.841   5.377
 1038SOL    HW1 4013   2.467   1.867   5.294
 1038SOL    HW2 4014   2.432   1.910   5.447
 1039SOL     OW 4015   4.395   1.850   3.575
 1039SOL    HW1 4016   4.401   1.941   3.535
 1039SOL    HW2 4017   4.342   1.854   3.660
 1040SOL     OW 4018   6.305   3.605   4.385
 1040SOL    HW1 4019   6.383   3.630   4.441
 1040SOL    HW2 4020   6.334   3.594   4.290
 1041SOL     OW 4021   1.673   6.860   4.233
 1041SOL    HW1 4022   1.679   6.906   4.144
 1041SOL    HW2 4023   1.720   6.771   4.227
 1042SOL     OW 4024   4.591   3.766   0.780
 1042SOL    HW1 4025   4.637   3.850   0.751
 1042SOL    HW2 4026   4.496   3.785   0.803
 1043SOL     OW 4027   4.024   0.813   0.049
 1043SOL    HW1 4028   4.045   0.882   0.118
 1043SOL    HW2 4029   3.928   0.822   0.021
 1044SOL     OW 4030   4.084   3.345   2.899
 1044SOL    HW1 4031   4.067   3.250   2.872
 1044SOL    HW2 4032   4.084   3.403   2.818
 1045SOL     OW 4033   4.440   0.503   3.304
 1045SOL    HW1 4034   4.454   0.545   3.394
 1045SOL    HW2 4035   4.343   0.480   3.293
 1046SOL     OW 4036   3.622   0.725   2.342
 1046SOL    HW1 4037   3.658   0.817   2.352
 1046SOL    HW2 4038   3.622   0.679   2.431
 1047SOL     OW 4039   0.596   5.920   1.834
 1047SOL    HW1 4040   0.687   5.908   1.793
 1047SOL    HW2 4041   0.587   6.013   1.868
 1048SOL     OW 4042   6.344   3.919   5.360
 1048SOL    HW1 4043   6.430   3.950   5.321
 1048SOL    HW2 4044   6.282   3.890   5.287
 1049SOL     OW 4045   0.410   3.002   5.650
 1049SOL    HW1 4046   0.368   2.925   5.603
 1049SOL    HW2 4047   0.499   3.022   5.607
 1050SOL     OW 4048   2.773   0.849   0.636
 1050SOL    HW1 4049   2.738   0.926   0.689
 1050SOL    HW2 4050   2.728   0.847   0.546
 1051SOL     OW 4051   4.985   4.508   2.001
 1051SOL    HW1 4052   4.895   4.529   1.963
 1051SOL    HW2 4053   5.033   4.594   2.021
 1052SOL     OW 4054   3.678   0.177   3.902
 1052SOL    HW1 4055   3.683   0.211   3.996
 1052SOL    HW2 4056   3.696   0.252   3.839
 1053SOL     OW 4057   3.191   4.923   3.839
 1053SOL    HW1 4058   3.291   4.925   3.844
 1053SOL    HW2 4059   3.159   5.007   3.794
 1054SOL     OW 4060   4.237   5.872   5.178
 1054SOL    HW1 4061   4.265   5.855   5.273
 1054SOL    HW2 4062   4.177   5.798   5.147
 1055SOL     OW 4063   3.658   4.947   4.476
 1055SOL    HW1 4064   3.604   4.947   4.560
 1055SOL    HW2 4065   3.606   4.903   4.403
 1056SOL     OW 4066   2.679   6.125   6.520
 1056SOL    HW1 4067   2.702   6.140   6.617
 1056SOL    HW2 4068   2.751   6.071   6.477
 1057SOL     OW 4069   3.671   4.246   1.267
 1057SOL    HW1 4070   3.728   4.178   1.312
 1057SOL    HW2 4071   3.714   4.276   1.182
 1058SOL     OW 4072   2.746   6.631   2.194
 1058SOL    HW1 4073   2.826   6.599   2.143
 1058SOL    HW2 4074   2.691   6.552   2.222
 1059SOL     OW 4075   3.481   0.659   0.320
 1059SOL    HW1 4076   3.439   0.685   0.233
 1059SOL    HW2 4077   3.577   0.687   0.320
 1060SOL     OW 4078   2.947   1.184   4.065
 1060SOL    HW1 4079   2.993   1.214   3.982
 1060SOL    HW2 4080   2.955   1.255   4.135
 1061SOL     OW 4081   2.431   6.056   1.337
 1061SOL    HW1 4082   2.393   6.148   1.341
 1061SOL    HW2 4083   2.372   5.998   1.281
 1062SOL     OW 4084   5.085   4.503   4.458
 1062SOL    HW1 4085   5.182   4.493   4.437
 1062SOL    HW2 4086   5.054   4.425   4.512
 1063SOL     OW 4087   2.739   2.291   5.784
 1063SOL    HW1 4088   2.734   2.210   5.727
 1063SOL    HW2 4089   2.751   2.372   5.727
 1064SOL     OW 4090   0.472   3.118   1.825
 1064SOL    HW1 4091   0.414   3.181   1.875
 1064SOL    HW2 4092   0.421   3.034   1.804
 1065SOL     OW 4093   4.644   5.256   5.834
 1065SOL    HW1 4094   4.579   5.315   5.881
 1065SOL    HW2 4095   4.609   5.162   5.831
 1066SOL     OW 4096   5.029   6.928   3.618
 1066SOL    HW1 4097   4.980   7.012   3.641
 1066SOL    HW2 4098   4.970   6.849   3.632
 1067SOL     OW 4099   2.740   3.643   0.553
 1067SOL    HW1 4100   2.661   3.582   0.554
 1067SOL    HW2 4101   2.746   3.692   0.640
 1068SOL     OW 4102   0.348   4.768   1.083
 1068SOL    HW1 4103   0.363   4.690   1.143
 1068SOL    HW2 4104   0.279   4.829   1.122
 1069SOL     OW 4105   3.819   2.937   2.630
 1069SOL    HW1 4106   3.831   2.838   2.622
 1069SOL    HW2 4107   3.763   2.969   2.554
 1070SOL     OW 4108   2.294   7.020   0.618
 1070SOL    HW1 4109   2.246   0.074   0.642
 1070SOL    HW2 4110   2.228   6.947   0.602
 1071SOL     OW 4111   5.110   5.390   3.533
 1071SOL    HW1 4112   5.069   5.314   3.482
 1071SOL    HW2 4113   5.040   5.436   3.587
 1072SOL     OW 4114   3.962   5.479   3.312
 1072SOL    HW1 4115   3.925   5.394   3.349
 1072SOL    HW2 4116   4.003   5.462   3.222
 1073SOL     OW 4117   2.815   5.552   3.421
 1073SOL    HW1 4118   2.719   5.544   3.393
 1073SOL    HW2 4119   2.862   5.464   3.406
 1074SOL     OW 4120   1.880   5.384   3.093
 1074SOL    HW1 4121   1.878   5.437   3.178
 1074SOL    HW2 4122   1.972   5.349   3.078
 1075SOL     OW 4123   0.658   4.063   2.789
 1075SOL    HW1 4124   0.590   4.131   2.761
 1075SOL    HW2 4125   0.654   4.051   2.888
 1076SOL     OW 4126   6.540   4.376   2.865
 1076SOL    HW1 4127   6.530   4.277   2.867
 1076SOL    HW2 4128   6.456   4.419   2.898
 1077SOL     OW 4129   4.493   6.947   1.881
 1077SOL    HW1 4130   4.498   6.852   1.910
 1077SOL    HW2 4131   4.489   6.951   1.781
 1078SOL     OW 4132   0.245   2.953   2.049
 1078SOL    HW1 4133   0.210   2.868   2.087
 1078SOL    HW2 4134   0.214   2.962   1.954
 1079SOL     OW 4135   1.706   4.956   3.443
 1079SOL    HW1 4136   1.754   4.982   3.359
 1079SOL    HW2 4137   1.619   4.913   3.419
 1080SOL     OW 4138   1.745   5.431   4.120
 1080SOL    HW1 4139   1.828   5.482   4.143
 1080SOL    HW2 4140   1.764   5.369   4.044
 1081SOL     OW 4141   1.253   0.639   0.080
 1081SOL    HW1 4142   1.220   0.596   7.026
 1081SOL    HW2 4143   1.342   0.600   0.105
 1082SOL     OW 4144   2.161   0.195   1.089
 1082SOL    HW1 4145   2.121   0.143   1.014
 1082SOL    HW2 4146   2.135   0.292   1.081
 1083SOL     OW 4147   3.654   2.539   1.735
 1083SOL    HW1 4148   3.684   2.612   1.796
 1083SOL    HW2 4149   3.655   2.452   1.784
 1084SOL     OW 4150   6.980   3.867   0.732
 1084SOL    HW1 4151   7.017   3.774   0.733
 1084SOL    HW2 4152   6.896   3.869   0.786
 1085SOL     OW 4153   1.708   5.732   4.039
 1085SOL    HW1 4154   1.678   5.783   4.120
 1085SOL    HW2 4155   1.687   5.635   4.050
 1086SOL     OW 4156   2.635   5.736   2.389
 1086SOL    HW1 4157   2.674   5.660   2.441
 1086SOL    HW2 4158   2.591   5.702   2.306
 1087SOL     OW 4159   3.947   3.052   4.859
 1087SOL    HW1 4160   4.010   2.974   4.869
 1087SOL    HW2 4161   3.937   3.074   4.762
 1088SOL     OW 4162   0.100   4.476   2.446
 1088SOL    HW1 4163   0.076   4.492   2.350
 1088SOL    HW2 4164   0.016   4.464   2.500
 1089SOL     OW 4165   6.828   0.023   3.145
 1089SOL    HW1 4166   6.827   6.991   3.067
 1089SOL    HW2 4167   6.906   0.002   3.203
 1090SOL     OW 4168   1.547   2.500   6.567
 1090SOL    HW1 4169   1.468   2.546   6.527
 1090SOL    HW2 4170   1.520   2.457   6.653
 1091SOL     OW 4171   1.274   2.417   5.794
 1091SOL    HW1 4172   1.312   2.495   5.843
 1091SOL    HW2 4173   1.265   2.440   5.697
 1092SOL     OW 4174   2.253   4.944   1.479
 1092SOL    HW1 4175   2.187   4.938   1.404
 1092SOL    HW2 4176   2.333   4.888   1.458
 1093SOL     OW 4177   0.028   2.851   1.587
 1093SOL    HW1 4178   6.960   2.832   1.591
 1093SOL    HW2 4179   0.050   2.925   1.651
 1094SOL     OW 4180   1.082   6.659   2.531
 1094SOL    HW1 4181   1.026   6.621   2.457
 1094SOL    HW2 4182   1.142   6.587   2.567
 1095SOL     OW 4183   0.685   3.596   6.286
 1095SOL    HW1 4184   0.651   3.577   6.194
 1095SOL    HW2 4185   0.785   3.587   6.288
 1096SOL     OW 4186   3.750   3.016   1.581
 1096SOL    HW1 4187   3.693   3.094   1.606
 1096SOL    HW2 4188   3.843   3.031   1.613
 1097SOL     OW 4189   2.839   4.795   6.111
 1097SOL    HW1 4190   2.754   4.746   6.094
 1097SOL    HW2 4191   2.830   4.890   6.080
 1098SOL     OW 4192   3.910   0.363   2.628
 1098SOL    HW1 4193   3.909   0.459   2.653
 1098SOL    HW2 4194   3.881   0.307   2.706
 1099SOL     OW 4195   3.552   0.046   2.391
 1099SOL    HW1 4196   3.527   6.988   2.433
 1099SOL    HW2 4197   3.643   0.073   2.421
 1100SOL     OW 4198   6.530   1.321   0.051
 1100SOL    HW1 4199   6.579   1.365   7.006
 1100SOL    HW2 4200   6.595   1.271   0.108
 1101SOL     OW 4201   5.431   2.810   1.183
 1101SOL    HW1 4202   5.397   2.899   1.213
 1101SOL    HW2 4203   5.475   2.820   1.093
 1102SOL     OW 4204   0.192   3.524   3.824
 1102SOL    HW1 4205   0.272   3.465   3.834
 1102SOL    HW2 4206   0.121   3.475   3.774
 1103SOL     OW 4207   6.897   3.243   0.006
 1103SOL    HW1 4208   6.940   3.299   0.075
 1103SOL    HW2 4209   6.954   3.241   6.953
 1104SOL     OW 4210   2.525   5.685   5.681
 1104SOL    HW1 4211   2.472   5.706   5.763
 1104SOL    HW2 4212   2.497   5.597   5.645
 1105SOL     OW 4213   3.863   5.023   0.972
 1105SOL    HW1 4214   3.815   5.002   1.057
 1105SOL    HW2 4215   3.820   4.974   0.896
 1106SOL     OW 4216   1.362   1.487   6.859
 1106SOL    HW1 4217   1.411   1.552   6.916
 1106SOL    HW2 4218   1.277   1.460   6.905
 1107SOL     OW 4219   6.940   0.486   1.275
 1107SOL    HW1 4220   6.844   0.503   1.297
 1107SOL    HW2 4221   6.989   0.573   1.273
 1108SOL     OW 4222   1.680   1.222   6.918
 1108SOL    HW1 4223   1.610   1.252   6.984
 1108SOL    HW2 4224   1.770   1.248   6.951
 1109SOL     OW 4225   4.565   0.657   4.038
 1109SOL    HW1 4226   4.474   0.620   4.056
 1109SOL    HW2 4227   4.586   0.728   4.105
 1110SOL     OW 4228   3.509   2.867   2.923
 1110SOL    HW1 4229   3.497   2.853   2.825
 1110SOL    HW2 4230   3.453   2.944   2.953
 1111SOL     OW 4231   4.609   6.679   0.163
 1111SOL    HW1 4232   4.663   6.731   0.228
 1111SOL    HW2 4233   4.569   6.600   0.208
 1112SOL     OW 4234   1.007   1.465   2.132
 1112SOL    HW1 4235   0.975   1.370   2.130
 1112SOL    HW2 4236   0.953   1.516   2.198
 1113SOL     OW 4237   6.246   3.386   1.532
 1113SOL    HW1 4238   6.213   3.445   1.606
 1113SOL    HW2 4239   6.271   3.297   1.569
 1114SOL     OW 4240   6.120   1.212   5.548
 1114SOL    HW1 4241   6.085   1.172   5.464
 1114SOL    HW2 4242   6.200   1.270   5.527
 1115SOL     OW 4243   2.132   4.676   0.540
 1115SOL    HW1 4244   2.080   4.736   0.600
 1115SOL    HW2 4245   2.195   4.730   0.485
 1116SOL     OW 4246   3.868   6.460   6.631
 1116SOL    HW1 4247   3.805   6.510   6.571
 1116SOL    HW2 4248   3.942   6.522   6.660
 1117SOL     OW 4249   2.200   3.115   0.937
 1117SOL    HW1 4250   2.140   3.141   0.861
 1117SOL    HW2 4251   2.215   3.194   0.996
 1118SOL     OW 4252   1.891   3.353   1.638
 1118SOL    HW1 4253   1.938   3.439   1.656
 1118SOL    HW2 4254   1.907   3.288   1.713
 1119SOL     OW 4255   2.910   3.611   3.112
 1119SOL    HW1 4256   2.908   3.557   3.027
 1119SOL    HW2 4257   2.963   3.694   3.096
 1120SOL     OW 4258   4.283   0.929   3.969
 1120SOL    HW1 4259   4.362   0.946   3.909
 1120SOL    HW2 4260   4.242   0.840   3.945
 1121SOL     OW 4261   5.330   3.372   3.166
 1121SOL    HW1 4262   5.279   3.287   3.174
 1121SOL    HW2 4263   5.421   3.361   3.207
 1122SOL     OW 4264   4.769   5.354   6.410
 1122SOL    HW1 4265   4.859   5.361   6.454
 1122SOL    HW2 4266   4.698   5.345   6.481
 1123SOL     OW 4267   4.064   1.161   1.915
 1123SOL    HW1 4268   4.112   1.180   2.000
 1123SOL    HW2 4269   3.978   1.212   1.913
 1124SOL     OW 4270   1.737   5.138   4.163
 1124SOL    HW1 4271   1.742   5.238   4.172
 1124SOL    HW2 4272   1.667   5.114   4.095
 1125SOL     OW 4273   3.055   3.335   4.831
 1125SOL    HW1 4274   3.086   3.431   4.832
 1125SOL    HW2 4275   3.076   3.294   4.743
 1126SOL     OW 4276   6.524   0.479   2.188
 1126SOL    HW1 4277   6.515   0.390   2.232
 1126SOL    HW2 4278   6.575   0.470   2.103
 1127SOL     OW 4279   2.122   5.994   6.052
 1127SOL    HW1 4280   2.103   6.074   5.994
 1127SOL    HW2 4281   2.172   6.023   6.133
 1128SOL     OW 4282   2.501   2.494   4.375
 1128SOL    HW1 4283   2.446   2.418   4.411
 1128SOL    HW2 4284   2.583   2.506   4.431
 1129SOL     OW 4285   4.353   6.513   6.212
 1129SOL    HW1 4286   4.421   6.466   6.156
 1129SOL    HW2 4287   4.274   6.454   6.227
 1130SOL     OW 4288   0.173   5.494   5.892
 1130SOL    HW1 4289   0.130   5.530   5.809
 1130SOL    HW2 4290   0.271   5.481   5.876
 1131SOL     OW 4291   0.155   5.195   5.527
 1131SOL    HW1 4292   0.214   5.227   5.453
 1131SOL    HW2 4293   0.106   5.113   5.498
 1132SOL     OW 4294   5.658   6.228   4.769
 1132SOL    HW1 4295   5.623   6.319   4.745
 1132SOL    HW2 4296   5.621   6.202   4.859
 1133SOL     OW 4297   6.763   2.668   6.652
 1133SOL    HW1 4298   6.756   2.687   6.750
 1133SOL    HW2 4299   6.737   2.573   6.634
 1134SOL     OW 4300   6.947   2.407   5.944
 1134SOL    HW1 4301   6.985   2.470   5.876
 1134SOL    HW2 4302   6.979   2.433   6.035
 1135SOL     OW 4303   6.882   1.392   4.557
 1135SOL    HW1 4304   6.830   1.473   4.529
 1135SOL    HW2 4305   6.886   1.327   4.482
 1136SOL     OW 4306   3.409   5.261   4.336
 1136SOL    HW1 4307   3.502   5.283   4.309
 1136SOL    HW2 4308   3.344   5.301   4.271
 1137SOL     OW 4309   1.544   1.178   6.532
 1137SOL    HW1 4310   1.566   1.269   6.568
 1137SOL    HW2 4311   1.582   1.108   6.593
 1138SOL     OW 4312   1.254   3.871   5.818
 1138SOL    HW1 4313   1.211   3.820   5.893
 1138SOL    HW2 4314   1.252   3.816   5.735
 1139SOL     OW 4315   0.834   0.511   2.763
 1139SOL    HW1 4316   0.836   0.412   2.776
 1139SOL    HW2 4317   0.803   0.531   2.669
 1140SOL     OW 4318   3.449   2.021   3.257
 1140SOL    HW1 4319   3.479   1.999   3.164
 1140SOL    HW2 4320   3.528   2.046   3.312
 1141SOL     OW 4321   6.778   5.728   6.040
 1141SOL    HW1 4322   6.788   5.706   6.137
 1141SOL    HW2 4323   6.866   5.757   6.003
 1142SOL     OW 4324   0.090   0.611   4.801
 1142SOL    HW1 4325   0.015   0.558   4.761
 1142SOL    HW2 4326   0.107   0.578   4.894
 1143SOL     OW 4327   4.499   1.916   1.321
 1143SOL    HW1 4328   4.438   1.938   1.397
 1143SOL    HW2 4329   4.573   1.982   1.318
 1144SOL     OW 4330   0.965   6.111   4.845
 1144SOL    HW1 4331   0.989   6.205   4.821
 1144SOL    HW2 4332   1.021   6.082   4.923
 1145SOL     OW 4333   1.881   4.954   5.043
 1145SOL    HW1 4334   1.853   4.883   4.978
 1145SOL    HW2 4335   1.856   4.926   5.136
 1146SOL     OW 4336   6.095   1.832   1.371
 1146SOL    HW1 4337   6.185   1.804   1.406
 1146SOL    HW2 4338   6.105   1.861   1.275
 1147SOL     OW 4339   6.460   3.152   2.252
 1147SOL    HW1 4340   6.481   3.241   2.292
 1147SOL    HW2 4341   6.446   3.162   2.154
 1148SOL     OW 4342   5.559   0.893   6.337
 1148SOL    HW1 4343   5.486   0.896   6.269
 1148SOL    HW2 4344   5.643   0.930   6.298
 1149SOL     OW 4345   5.602   2.715   2.978
 1149SOL    HW1 4346   5.650   2.803   2.988
 1149SOL    HW2 4347   5.646   2.661   2.906
 1150SOL     OW 4348   1.363   5.510   5.758
 1150SOL    HW1 4349   1.363   5.606   5.730
 1150SOL    HW2 4350   1.269   5.479   5.771
 1151SOL     OW 4351   2.564   5.219   0.247
 1151SOL    HW1 4352   2.656   5.186   0.228
 1151SOL    HW2 4353   2.498   5.147   0.225
 1152SOL     OW 4354   0.864   1.001   3.734
 1152SOL    HW1 4355   0.868   0.957   3.644
 1152SOL    HW2 4356   0.772   1.038   3.748
 1153SOL     OW 4357   2.330   4.471   2.596
 1153SOL    HW1 4358   2.428   4.487   2.588
 1153SOL    HW2 4359   2.314   4.396   2.660
 1154SOL     OW 4360   1.441   4.292   2.229
 1154SOL    HW1 4361   1.361   4.287   2.170
 1154SOL    HW2 4362   1.449   4.208   2.283
 1155SOL     OW 4363   4.067   0.200   2.350
 1155SOL    HW1 4364   4.097   0.247   2.267
 1155SOL    HW2 4365   4.130   0.126   2.371
 1156SOL     OW 4366   1.828   1.116   3.957
 1156SOL    HW1 4367   1.842   1.185   4.028
 1156SOL    HW2 4368   1.815   1.161   3.869
 1157SOL     OW 4369   1.786   2.891   4.167
 1157SOL    HW1 4370   1.877   2.882   4.127
 1157SOL    HW2 4371   1.736   2.963   4.119
 1158SOL     OW 4372   4.313   5.951   6.208
 1158SOL    HW1 4373   4.331   5.991   6.298
 1158SOL    HW2 4374   4.372   5.993   6.140
 1159SOL     OW 4375   6.087   4.502   2.601
 1159SOL    HW1 4376   6.095   4.546   2.511
 1159SOL    HW2 4377   5.991   4.501   2.628
 1160SOL     OW 4378   2.470   3.095   1.230
 1160SOL    HW1 4379   2.552   3.145   1.259
 1160SOL    HW2 4380   2.489   3.048   1.144
 1161SOL     OW 4381   4.178   0.711   3.838
 1161SOL    HW1 4382   4.153   0.622   3.874
 1161SOL    HW2 4383   4.109   0.742   3.772
 1162SOL     OW 4384   3.642   5.144   1.473
 1162SOL    HW1 4385   3.547   5.116   1.483
 1162SOL    HW2 4386   3.648   5.243   1.472
 1163SOL     OW 4387   5.073   0.082   2.369
 1163SOL    HW1 4388   5.138   0.129   2.429
 1163SOL    HW2 4389   5.056   7.020   2.404
 1164SOL     OW 4390   6.414   3.809   4.850
 1164SOL    HW1 4391   6.478   3.741   4.887
 1164SOL    HW2 4392   6.349   3.764   4.789
 1165SOL     OW 4393   1.122   4.885   1.988
 1165SOL    HW1 4394   1.068   4.821   1.934
 1165SOL    HW2 4395   1.202   4.914   1.935
 1166SOL     OW 4396   3.208   1.516   7.014
 1166SOL    HW1 4397   3.204   1.454   6.936
 1166SOL    HW2 4398   3.136   1.585   7.005
 1167SOL     OW 4399   4.154   1.995   5.729
 1167SOL    HW1 4400   4.072   1.940   5.712
 1167SOL    HW2 4401   4.177   2.047   5.646
 1168SOL     OW 4402   6.056   0.569   3.411
 1168SOL    HW1 4403   6.085   0.598   3.502
 1168SOL    HW2 4404   6.007   0.481   3.418
 1169SOL     OW 4405   1.076   2.932   1.194
 1169SOL    HW1 4406   1.044   2.971   1.280
 1169SOL    HW2 4407   1.000   2.886   1.148
 1170SOL     OW 4408   2.654   1.035   1.252
 1170SOL    HW1 4409   2.724   1.105   1.247
 1170SOL    HW2 4410   2.571   1.068   1.207
 1171SOL     OW 4411   3.416   0.884   0.467
 1171SOL    HW1 4412   3.429   0.790   0.434
 1171SOL    HW2 4413   3.359   0.934   0.402
 1172SOL     OW 4414   3.126   3.630   5.324
 1172SOL    HW1 4415   3.125   3.712   5.382
 1172SOL    HW2 4416   3.220   3.608   5.298
 1173SOL     OW 4417   5.373   6.869   5.804
 1173SOL    HW1 4418   5.406   6.929   5.731
 1173SOL    HW2 4419   5.289   6.908   5.843
 1174SOL     OW 4420   3.945   5.925   6.617
 1174SOL    HW1 4421   3.944   6.020   6.646
 1174SOL    HW2 4422   3.988   5.918   6.526
 1175SOL     OW 4423   0.002   5.121   4.471
 1175SOL    HW1 4424   0.015   5.057   4.547
 1175SOL    HW2 4425   0.079   5.114   4.408
 1176SOL     OW 4426   6.064   2.600   1.116
 1176SOL    HW1 4427   5.979   2.560   1.152
 1176SOL    HW2 4428   6.077   2.691   1.156
 1177SOL     OW 4429   6.286   3.440   6.872
 1177SOL    HW1 4430   6.268   3.363   6.933
 1177SOL    HW2 4431   6.359   3.417   6.809
 1178SOL     OW 4432   5.368   4.405   2.711
 1178SOL    HW1 4433   5.397   4.382   2.618
 1178SOL    HW2 4434   5.269   4.418   2.713
 1179SOL     OW 4435   1.716   5.488   6.121
 1179SOL    HW1 4436   1.730   5.585   6.140
 1179SOL    HW2 4437   1.684   5.442   6.203
 1180SOL     OW 4438   2.225   0.540   4.064
 1180SOL    HW1 4439   2.252   0.636   4.058
 1180SOL    HW2 4440   2.155   0.521   3.994
 1181SOL     OW 4441   1.771   4.831   2.185
 1181SOL    HW1 4442   1.825   4.900   2.137
 1181SOL    HW2 4443   1.770   4.853   2.283
 1182SOL     OW 4444   1.672   3.863   4.100
 1182SOL    HW1 4445   1.608   3.906   4.163
 1182SOL    HW2 4446   1.689   3.769   4.128
 1183SOL     OW 4447   4.135   5.593   1.171
 1183SOL    HW1 4448   4.124   5.660   1.097
 1183SOL    HW2 4449   4.104   5.503   1.140
 1184SOL     OW 4450   3.338   2.635   6.430
 1184SOL    HW1 4451   3.414   2.698   6.446
 1184SOL    HW2 4452   3.329   2.573   6.508
 1185SOL     OW 4453   2.750   1.015   6.524
 1185SOL    HW1 4454   2.670   1.073   6.543
 1185SOL    HW2 4455   2.831   1.072   6.513
 1186SOL     OW 4456   3.921   1.343   5.189
 1186SOL    HW1 4457   3.888   1.312   5.278
 1186SOL    HW2 4458   3.862   1.306   5.117
 1187SOL     OW 4459   1.223   1.842   4.789
 1187SOL    HW1 4460   1.151   1.787   4.746
 1187SOL    HW2 4461   1.278   1.784   4.849
 1188SOL     OW 4462   1.792   0.595   5.551
 1188SOL    HW1 4463   1.839   0.672   5.508
 1188SOL    HW2 4464   1.832   0.577   5.641
 1189SOL     OW 4465   0.335   0.785   1.510
 1189SOL    HW1 4466   0.326   0.686   1.496
 1189SOL    HW2 4467   0.368   0.802   1.602
 1190SOL     OW 4468   3.851   5.517   2.058
 1190SOL    HW1 4469   3.888   5.476   1.973
 1190SOL    HW2 4470   3.838   5.445   2.126
 1191SOL     OW 4471   2.596   4.649   1.596
 1191SOL    HW1 4472   2.679   4.593   1.600
 1191SOL    HW2 4473   2.516   4.589   1.596
 1192SOL     OW 4474   3.828   5.230   3.094
 1192SOL    HW1 4475   3.902   5.297   3.099
 1192SOL    HW2 4476   3.866   5.138   3.102
 1193SOL     OW 4477   3.234   0.145   4.236
 1193SOL    HW1 4478   3.209   0.173   4.144
 1193SOL    HW2 4479   3.320   0.094   4.233
 1194SOL     OW 4480   6.002   1.867   1.972
 1194SOL    HW1 4481   5.911   1.859   2.012
 1194SOL    HW2 4482   6.064   1.805   2.020
 1195SOL     OW 4483   3.004   6.612   0.080
 1195SOL    HW1 4484   3.074   6.650   0.140
 1195SOL    HW2 4485   2.992   6.671   0.000
 1196SOL     OW 4486   1.222   5.666   3.369
 1196SOL    HW1 4487   1.169   5.639   3.449
 1196SOL    HW2 4488   1.180   5.747   3.326
 1197SOL     OW 4489   3.683   4.735   6.975
 1197SOL    HW1 4490   3.685   4.830   7.006
 1197SOL    HW2 4491   3.654   4.676   0.020
 1198SOL     OW 4492   3.641   0.609   2.594
 1198SOL    HW1 4493   3.587   0.578   2.672
 1198SOL    HW2 4494   3.738   0.604   2.616
 1199SOL     OW 4495   3.013   3.830   3.624
 1199SOL    HW1 4496   3.035   3.898   3.694
 1199SOL    HW2 4497   2.921   3.794   3.640
 1200SOL     OW 4498   4.918   3.261   1.307
 1200SOL    HW1 4499   4.947   3.176   1.263
 1200SOL    HW2 4500   4.888   3.241   1.401
 1201SOL     OW 4501   1.382   1.614   4.979
 1201SOL    HW1 4502   1.471   1.641   5.016
 1201SOL    HW2 4503   1.310   1.646   5.041
 1202SOL     OW 4504   6.565   0.123   4.600
 1202SOL    HW1 4505   6.468   0.128   4.624
 1202SOL    HW2 4506   6.616   0.083   4.675
 1203SOL     OW 4507   6.531   0.162   2.604
 1203SOL    HW1 4508   6.581   0.209   2.677
 1203SOL    HW2 4509   6.453   0.113   2.643
 1204SOL     OW 4510   1.321   0.221   0.158
 1204SOL    HW1 4511   1.360   0.231   0.066
 1204SOL    HW2 4512   1.267   0.302   0.180
 1205SOL     OW 4513   0.766   2.663   5.577
 1205SOL    HW1 4514   0.863   2.654   5.556
 1205SOL    HW2 4515   0.715   2.591   5.530
 1206SOL     OW 4516   6.907   1.345   4.259
 1206SOL    HW1 4517   6.996   1.303   4.246
 1206SOL    HW2 4518   6.836   1.274   4.258
 1207SOL     OW 4519   6.230   6.368   6.371
 1207SOL    HW1 4520   6.214   6.464   6.350
 1207SOL    HW2 4521   6.311   6.336   6.322
 1208SOL     OW 4522   3.755   3.656   2.824
 1208SOL    HW1 4523   3.673   3.602   2.843
 1208SOL    HW2 4524   3.765   3.668   2.725
 1209SOL     OW 4525   6.774   3.925   4.587
 1209SOL    HW1 4526   6.777   3.854   4.658
 1209SOL    HW2 4527   6.822   3.892   4.506
 1210SOL     OW 4528   2.495   0.337   2.638
 1210SOL    HW1 4529   2.438   0.419   2.645
 1210SOL    HW2 4530   2.452   0.262   2.689
 1211SOL     OW 4531   1.015   3.036   3.248
 1211SOL    HW1 4532   1.060   3.061   3.162
 1211SOL    HW2 4533   0.999   3.118   3.303
 1212SOL     OW 4534   1.178   4.759   3.485
 1212SOL    HW1 4535   1.203   4.673   3.439
 1212SOL    HW2 4536   1.079   4.773   3.478
 1213SOL     OW 4537   5.464   4.073   5.266
 1213SOL    HW1 4538   5.387   4.010   5.277
 1213SOL    HW2 4539   5.456   4.121   5.179
 1214SOL     OW 4540   1.698   1.838   1.631
 1214SOL    HW1 4541   1.771   1.881   1.579
 1214SOL    HW2 4542   1.611   1.886   1.614
 1215SOL     OW 4543   0.391   5.374   1.931
 1215SOL    HW1 4544   0.352   5.324   2.008
 1215SOL    HW2 4545   0.490   5.359   1.929
 1216SOL     OW 4546   2.386   0.171   1.286
 1216SOL    HW1 4547   2.336   0.205   1.207
 1216SOL    HW2 4548   2.369   0.232   1.364
 1217SOL     OW 4549   1.830   2.948   3.011
 1217SOL    HW1 4550   1.898   3.016   2.985
 1217SOL    HW2 4551   1.777   2.981   3.089
 1218SOL     OW 4552   0.781   3.424   3.198
 1218SOL    HW1 4553   0.773   3.453   3.293
 1218SOL    HW2 4554   0.704   3.365   3.175
 1219SOL     OW 4555   2.762   5.994   3.298
 1219SOL    HW1 4556   2.854   6.033   3.309
 1219SOL    HW2 4557   2.770   5.898   3.274
 1220SOL     OW 4558   6.455   4.799   2.600
 1220SOL    HW1 4559   6.541   4.843   2.626
 1220SOL    HW2 4560   6.471   4.703   2.581
 1221SOL     OW 4561   4.981   4.581   5.633
 1221SOL    HW1 4562   4.943   4.673   5.627
 1221SOL    HW2 4563   5.071   4.585   5.675
 1222SOL     OW 4564   6.797   4.363   1.488
 1222SOL    HW1 4565   6.865   4.409   1.431
 1222SOL    HW2 4566   6.827   4.269   1.507
 1223SOL     OW 4567   6.937   4.743   4.773
 1223SOL    HW1 4568   6.839   4.727   4.758
 1223SOL    HW2 4569   6.970   4.682   4.845
 1224SOL     OW 4570   4.002   4.366   1.010
 1224SOL    HW1 4571   4.048   4.455   1.013
 1224SOL    HW2 4572   3.951   4.358   0.924
 1225SOL     OW 4573   4.264   1.522   0.191
 1225SOL    HW1 4574   4.195   1.595   0.186
 1225SOL    HW2 4575   4.324   1.538   0.269
 1226SOL     OW 4576   6.021   5.709   0.900
 1226SOL    HW1 4577   6.083   5.749   0.832
 1226SOL    HW2 4578   6.059   5.720   0.991
 1227SOL     OW 4579   4.739   4.318   6.920
 1227SOL    HW1 4580   4.796   4.276   6.849
 1227SOL    HW2 4581   4.724   4.414   6.898
 1228SOL     OW 4582   3.620   4.153   4.202
 1228SOL    HW1 4583   3.684   4.142   4.278
 1228SOL    HW2 4584   3.598   4.063   4.164
 1229SOL     OW 4585   2.506   5.412   2.761
 1229SOL    HW1 4586   2.457   5.497   2.778
 1229SOL    HW2 4587   2.441   5.336   2.752
 1230SOL     OW 4588   4.397   4.404   0.897
 1230SOL    HW1 4589   4.496   4.399   0.888
 1230SOL    HW2 4590   4.358   4.441   0.813
 1231SOL     OW 4591   2.199   1.592   0.267
 1231SOL    HW1 4592   2.162   1.514   0.318
 1231SOL    HW2 4593   2.142   1.672   0.284
 1232SOL     OW 4594   2.382   2.018   5.589
 1232SOL    HW1 4595   2.446   1.986   5.659
 1232SOL    HW2 4596   2.398   2.115   5.572
 1233SOL     OW 4597   0.310   5.058   4.646
 1233SOL    HW1 4598   0.357   5.143   4.624
 1233SOL    HW2 4599   0.270   5.064   4.738
 1234SOL     OW 4600   6.240   4.331   6.770
 1234SOL    HW1 4601   6.316   4.278   6.808
 1234SOL    HW2 4602   6.183   4.365   6.845
 1235SOL     OW 4603   6.087   4.706   0.805
 1235SOL    HW1 4604   6.119   4.800   0.794
 1235SOL    HW2 4605   6.014   4.703   0.874
 1236SOL     OW 4606   0.714   0.792   2.736
 1236SOL    HW1 4607   0.634   0.841   2.701
 1236SOL    HW2 4608   0.790   0.802   2.671
 1237SOL     OW 4609   1.273   0.500   4.219
 1237SOL    HW1 4610   1.182   0.465   4.197
 1237SOL    HW2 4611   1.326   0.429   4.266
 1238SOL     OW 4612   0.579   0.692   4.189
 1238SOL    HW1 4613   0.636   0.631   4.245
 1238SOL    HW2 4614   0.495   0.644   4.163
 1239SOL     OW 4615   4.981   4.355   3.990
 1239SOL    HW1 4616   4.925   4.436   3.975
 1239SOL    HW2 4617   5.011   4.318   3.903
 1240SOL     OW 4618   0.440   3.553   0.749
 1240SOL    HW1 4619   0.529   3.569   0.706
 1240SOL    HW2 4620   0.373   3.533   0.678
 1241SOL     OW 4621   3.509   5.107   6.003
 1241SOL    HW1 4622   3.497   5.160   5.919
 1241SOL    HW2 4623   3.580   5.150   6.060
 1242SOL     OW 4624   1.992   5.359   0.557
 1242SOL    HW1 4625   2.079   5.335   0.599
 1242SOL    HW2 4626   1.929   5.393   0.626
 1243SOL     OW 4627   0.525   3.794   3.411
 1243SOL    HW1 4628   0.475   3.718   3.452
 1243SOL    HW2 4629   0.507   3.796   3.313
 1244SOL     OW 4630   6.729   6.682   4.947
 1244SOL    HW1 4631   6.750   6.776   4.973
 1244SOL    HW2 4632   6.721   6.675   4.848
 1245SOL     OW 4633   4.772   6.361   1.365
 1245SOL    HW1 4634   4.862   6.319   1.356
 1245SOL    HW2 4635   4.763   6.403   1.455
 1246SOL     OW 4636   6.004   2.165   1.785
 1246SOL    HW1 4637   5.934   2.103   1.822
 1246SOL    HW2 4638   6.016   2.149   1.687
 1247SOL     OW 4639   4.984   6.867   2.464
 1247SOL    HW1 4640   4.898   6.819   2.447
 1247SOL    HW2 4641   5.059   6.800   2.469
 1248SOL     OW 4642   0.575   6.932   4.799
 1248SOL    HW1 4643   0.534   6.841   4.796
 1248SOL    HW2 4644   0.619   6.945   4.888
 1249SOL     OW 4645   6.094   6.363   6.629
 1249SOL    HW1 4646   6.123   6.367   6.533
 1249SOL    HW2 4647   6.146   6.430   6.682
 1250SOL     OW 4648   0.465   4.444   4.744
 1250SOL    HW1 4649   0.388   4.410   4.690
 1250SOL    HW2 4650   0.516   4.366   4.780
 1251SOL     OW 4651   3.001   0.390   2.642
 1251SOL    HW1 4652   2.994   0.376   2.543
 1251SOL    HW2 4653   3.020   0.303   2.687
 1252SOL     OW 4654   2.467   5.355   6.567
 1252SOL    HW1 4655   2.387   5.360   6.626
 1252SOL    HW2 4656   2.477   5.262   6.531
 1253SOL     OW 4657   2.659   5.968   0.170
 1253SOL    HW1 4658   2.673   6.067   0.178
 1253SOL    HW2 4659   2.747   5.921   0.174
 1254SOL     OW 4660   6.181   1.386   4.227
 1254SOL    HW1 4661   6.194   1.354   4.133
 1254SOL    HW2 4662   6.264   1.433   4.257
 1255SOL     OW 4663   6.035   1.965   5.793
 1255SOL    HW1 4664   6.037   1.875   5.837
 1255SOL    HW2 4665   6.059   1.954   5.696
 1256SOL     OW 4666   6.965   5.564   4.966
 1256SOL    HW1 4667   7.016   5.634   5.016
 1256SOL    HW2 4668   7.020   5.481   4.958
 1257SOL     OW 4669   0.309   6.227   3.491
 1257SOL    HW1 4670   0.349   6.171   3.563
 1257SOL    HW2 4671   0.348   6.319   3.495
 1258SOL     OW 4672   4.091   5.514   6.588
 1258SOL    HW1 4673   4.103   5.449   6.663
 1258SOL    HW2 4674   4.162   5.499   6.520
 1259SOL     OW 4675   5.092   6.501   5.080
 1259SOL    HW1 4676   5.031   6.580   5.090
 1259SOL    HW2 4677   5.187   6.532   5.081
 1260SOL     OW 4678   3.041   1.416   0.833
 1260SOL    HW1 4679   2.942   1.426   0.840
 1260SOL    HW2 4680   3.062   1.343   0.767
 1261SOL     OW 4681   6.921   4.138   4.248
 1261SOL    HW1 4682   6.838   4.166   4.200
 1261SOL    HW2 4683   6.988   4.211   4.246
 1262SOL     OW 4684   3.771   5.739   1.619
 1262SOL    HW1 4685   3.838   5.799   1.575
 1262SOL    HW2 4686   3.752   5.773   1.711
 1263SOL     OW 4687   6.817   1.487   1.616
 1263SOL    HW1 4688   6.797   1.427   1.539
 1263SOL    HW2 4689   6.799   1.438   1.702
 1264SOL     OW 4690   6.347   2.059   4.650
 1264SOL    HW1 4691   6.302   1.970   4.661
 1264SOL    HW2 4692   6.341   2.110   4.736
 1265SOL     OW 4693   6.344   5.754   4.916
 1265SOL    HW1 4694   6.380   5.734   5.007
 1265SOL    HW2 4695   6.331   5.669   4.865
 1266SOL     OW 4696   3.299   0.688   3.919
 1266SOL    HW1 4697   3.285   0.752   3.994
 1266SOL    HW2 4698   3.285   0.595   3.952
 1267SOL     OW 4699   0.400   4.646   2.379
 1267SOL    HW1 4700   0.426   4.739   2.405
 1267SOL    HW2 4701   0.407   4.586   2.459
 1268SOL     OW 4702   5.810   4.598   6.922
 1268SOL    HW1 4703   5.893   4.543   6.927
 1268SOL    HW2 4704   5.759   4.589   7.008
 1269SOL     OW 4705   6.776   4.936   6.517
 1269SOL    HW1 4706   6.703   4.967   6.456
 1269SOL    HW2 4707   6.747   4.949   6.612
 1270SOL     OW 4708   1.242   1.750   4.171
 1270SOL    HW1 4709   1.282   1.719   4.258
 1270SOL    HW2 4710   1.281   1.696   4.096
 1271SOL     OW 4711   5.464   2.951   3.277
 1271SOL    HW1 4712   5.529   2.953   3.201
 1271SOL    HW2 4713   5.380   2.906   3.247
 1272SOL     OW 4714   6.075   6.414   0.084
 1272SOL    HW1 4715   6.113   6.465   0.161
 1272SOL    HW2 4716   5.981   6.386   0.106
 1273SOL     OW 4717   2.541   0.075   4.973
 1273SOL    HW1 4718   2.564   7.008   4.966
 1273SOL    HW2 4719   2.471   0.097   4.906
 1274SOL     OW 4720   6.012   2.263   2.289
 1274SOL    HW1 4721   6.028   2.295   2.195
 1274SOL    HW2 4722   6.053   2.327   2.354
 1275SOL     OW 4723   4.079   1.734   4.155
 1275SOL    HW1 4724   3.980   1.726   4.148
 1275SOL    HW2 4725   4.123   1.669   4.094
 1276SOL     OW 4726   6.166   0.184   2.280
 1276SOL    HW1 4727   6.250   0.175   2.227
 1276SOL    HW2 4728   6.182   0.241   2.360
 1277SOL     OW 4729   1.070   1.642   4.660
 1277SOL    HW1 4730   1.056   1.560   4.715
 1277SOL    HW2 4731   0.992   1.655   4.599
 1278SOL     OW 4732   3.023   1.597   5.305
 1278SOL    HW1 4733   2.994   1.689   5.334
 1278SOL    HW2 4734   2.944   1.536   5.302
 1279SOL     OW 4735   2.286   5.395   0.449
 1279SOL    HW1 4736   2.308   5.370   0.543
 1279SOL    HW2 4737   2.264   5.492   0.444
 1280SOL     OW 4738   1.198   6.120   2.858
 1280SOL    HW1 4739   1.225   6.209   2.896
 1280SOL    HW2 4740   1.280   6.064   2.844
 1281SOL     OW 4741   0.602   6.891   3.874
 1281SOL    HW1 4742   0.680   6.837   3.842
 1281SOL    HW2 4743   0.579   6.960   3.806
 1282SOL     OW 4744   1.240   6.550   2.771
 1282SOL    HW1 4745   1.158   6.496   2.787
 1282SOL    HW2 4746   1.220   6.647   2.785
 1283SOL     OW 4747   5.101   4.058   5.007
 1283SOL    HW1 4748   5.141   3.977   4.964
 1283SOL    HW2 4749   5.124   4.139   4.952
 1284SOL     OW 4750   3.295   1.781   2.765
 1284SOL    HW1 4751   3.220   1.839   2.797
 1284SOL    HW2 4752   3.375   1.796   2.823
 1285SOL     OW 4753   5.811   2.980   6.205
 1285SOL    HW1 4754   5.744   2.987   6.132
 1285SOL    HW2 4755   5.901   2.959   6.166
 1286SOL     OW 4756   6.305   5.900   1.633
 1286SOL    HW1 4757   6.218   5.851   1.630
 1286SOL    HW2 4758   6.303   5.975   1.566
 1287SOL     OW 4759   6.592   3.966   5.822
 1287SOL    HW1 4760   6.661   4.027   5.784
 1287SOL    HW2 4761   6.534   3.931   5.748
 1288SOL     OW 4762   6.416   3.189   4.075
 1288SOL    HW1 4763   6.513   3.180   4.101
 1288SOL    HW2 4764   6.359   3.144   4.144
 1289SOL     OW 4765   0.459   5.180   2.717
 1289SOL    HW1 4766   0.388   5.115   2.743
 1289SOL    HW2 4767   0.430   5.272   2.742
 1290SOL     OW 4768   0.583   0.210   1.066
 1290SOL    HW1 4769   0.604   0.120   1.028
 1290SOL    HW2 4770   0.490   0.210   1.103
 1291SOL     OW 4771   1.767   6.390   1.082
 1291SOL    HW1 4772   1.668   6.392   1.073
 1291SOL    HW2 4773   1.797   6.466   1.141
 1292SOL     OW 4774   1.200   6.330   6.719
 1292SOL    HW1 4775   1.189   6.424   6.752
 1292SOL    HW2 4776   1.111   6.289   6.703
 1293SOL     OW 4777   6.096   2.384   6.274
 1293SOL    HW1 4778   6.026   2.406   6.341
 1293SOL    HW2 4779   6.130   2.468   6.232
 1294SOL     OW 4780   0.603   1.314   3.334
 1294SOL    HW1 4781   0.697   1.287   3.314
 1294SOL    HW2 4782   0.575   1.387   3.272
 1295SOL     OW 4783   5.023   3.382   1.093
 1295SOL    HW1 4784   5.092   3.450   1.115
 1295SOL    HW2 4785   4.993   3.337   1.177
 1296SOL     OW 4786   3.433   2.091   0.033
 1296SOL    HW1 4787   3.455   2.081   6.966
 1296SOL    HW2 4788   3.500   2.041   0.088
 1297SOL     OW 4789   6.595   0.505   6.526
 1297SOL    HW1 4790   6.641   0.531   6.611
 1297SOL    HW2 4791   6.636   0.554   6.449
 1298SOL     OW 4792   6.748   2.547   3.698
 1298SOL    HW1 4793   6.736   2.506   3.608
 1298SOL    HW2 4794   6.816   2.496   3.750
 1299SOL     OW 4795   1.613   2.866   4.373
 1299SOL    HW1 4796   1.564   2.946   4.409
 1299SOL    HW2 4797   1.685   2.897   4.311
 1300SOL     OW 4798   3.867   3.445   2.300
 1300SOL    HW1 4799   3.949   3.454   2.357
 1300SOL    HW2 4800   3.849   3.349   2.282
 1301SOL     OW 4801   1.274   1.449   2.102
 1301SOL    HW1 4802   1.318   1.359   2.099
 1301SOL    HW2 4803   1.175   1.437   2.117
 1302SOL     OW 4804   2.596   6.367   5.517
 1302SOL    HW1 4805   2.630   6.323   5.433
 1302SOL    HW2 4806   2.672   6.380   5.581
 1303SOL     OW 4807   3.172   0.553   1.363
 1303SOL    HW1 4808   3.201   0.631   1.308
 1303SOL    HW2 4809   3.098   0.505   1.316
 1304SOL     OW 4810   3.482   1.370   6.190
 1304SOL    HW1 4811   3.490   1.385   6.091
 1304SOL    HW2 4812   3.550   1.304   6.220
 1305SOL     OW 4813   6.109   6.408   3.597
 1305SOL    HW1 4814   6.169   6.430   3.520
 1305SOL    HW2 4815   6.016   6.440   3.576
 1306SOL     OW 4816   1.487   5.351   4.606
 1306SOL    HW1 4817   1.430   5.285   4.656
 1306SOL    HW2 4818   1.448   5.367   4.516
 1307SOL     OW 4819   1.076   1.125   4.215
 1307SOL    HW1 4820   1.004   1.149   4.149
 1307SOL    HW2 4821   1.160   1.174   4.192
 1308SOL     OW 4822   4.701   6.001   3.304
 1308SOL    HW1 4823   4.659   5.914   3.329
 1308SOL    HW2 4824   4.641   6.052   3.243
 1309SOL     OW 4825   5.204   3.002   4.498
 1309SOL    HW1 4826   5.222   2.956   4.411
 1309SOL    HW2 4827   5.131   2.954   4.546
 1310SOL     OW 4828   5.047   3.708   5.641
 1310SOL    HW1 4829   5.101   3.686   5.722
 1310SOL    HW2 4830   5.056   3.805   5.620
 1311SOL     OW 4831   5.048   4.953   5.217
 1311SOL    HW1 4832   4.991   5.007   5.155
 1311SOL    HW2 4833   5.118   5.011   5.257
 1312SOL     OW 4834   6.181   0.236   1.574
 1312SOL    HW1 4835   6.259   0.269   1.626
 1312SOL    HW2 4836   6.156   0.144   1.606
 1313SOL     OW 4837   3.206   5.071   5.047
 1313SOL    HW1 4838   3.230   5.137   5.118
 1313SOL    HW2 4839   3.107   5.072   5.033
 1314SOL     OW 4840   6.434   1.290   6.048
 1314SOL    HW1 4841   6.339   1.293   6.079
 1314SOL    HW2 4842   6.449   1.365   5.983
 1315SOL     OW 4843   1.614   7.023   3.707
 1315SOL    HW1 4844   1.550   6.973   3.649
 1315SOL    HW2 4845   1.655   0.068   3.656
 1316SOL     OW 4846   3.538   6.213   3.161
 1316SOL    HW1 4847   3.480   6.138   3.192
 1316SOL    HW2 4848   3.629   6.178   3.137
 1317SOL     OW 4849   0.394   3.332   3.887
 1317SOL    HW1 4850   0.345   3.338   3.974
 1317SOL    HW2 4851   0.440   3.243   3.881
 1318SOL     OW 4852   1.124   6.392   1.486
 1318SOL    HW1 4853   1.121   6.293   1.470
 1318SOL    HW2 4854   1.055   6.437   1.429
 1319SOL     OW 4855   6.318   0.556   0.434
 1319SOL    HW1 4856   6.398   0.545   0.375
 1319SOL    HW2 4857   6.290   0.467   0.469
 1320SOL     OW 4858   4.958   5.808   4.948
 1320SOL    HW1 4859   4.948   5.881   5.017
 1320SOL    HW2 4860   5.055   5.794   4.929
 1321SOL     OW 4861   3.315   1.314   0.403
 1321SOL    HW1 4862   3.306   1.222   0.441
 1321SOL    HW2 4863   3.334   1.308   0.305
 1322SOL     OW 4864   4.890   1.489   6.264
 1322SOL    HW1 4865   4.921   1.527   6.177
 1322SOL    HW2 4866   4.799   1.525   6.286
 1323SOL     OW 4867   7.009   1.109   4.071
 1323SOL    HW1 4868   6.954   1.039   4.025
 1323SOL    HW2 4869   0.040   1.066   4.137
 1324SOL     OW 4870   1.259   2.656   0.495
 1324SOL    HW1 4871   1.259   2.560   0.521
 1324SOL    HW2 4872   1.190   2.671   0.423
 1325SOL     OW 4873   4.276   5.343   3.851
 1325SOL    HW1 4874   4.177   5.347   3.856
 1325SOL    HW2 4875   4.305   5.348   3.756
 1326SOL     OW 4876   5.730   4.195   4.766
 1326SOL    HW1 4877   5.653   4.133   4.756
 1326SOL    HW2 4878   5.712   4.260   4.840
 1327SOL     OW 4879   2.618   6.197   4.400
 1327SOL    HW1 4880   2.521   6.213   4.385
 1327SOL    HW2 4881   2.671   6.245   4.330
 1328SOL     OW 4882   2.439   1.373   1.140
 1328SOL    HW1 4883   2.446   1.406   1.234
 1328SOL    HW2 4884   2.494   1.431   1.080
 1329SOL     OW 4885   0.881   6.804   1.732
 1329SOL    HW1 4886   0.949   6.867   1.694
 1329SOL    HW2 4887   0.912   6.710   1.719
 1330SOL     OW 4888   4.604   6.104   0.991
 1330SOL    HW1 4889   4.517   6.061   1.017
 1330SOL    HW2 4890   4.605   6.198   1.024
 1331SOL     OW 4891   0.677   2.223   2.218
 1331SOL    HW1 4892   0.727   2.310   2.211
 1331SOL    HW2 4893   0.711   2.171   2.296
 1332SOL     OW 4894   4.325   1.966   1.104
 1332SOL    HW1 4895   4.238   2.005   1.136
 1332SOL    HW2 4896   4.380   1.937   1.182
 1333SOL     OW 4897   4.061   3.625   4.514
 1333SOL    HW1 4898   4.078   3.529   4.535
 1333SOL    HW2 4899   4.007   3.632   4.430
 1334SOL     OW 4900   0.905   3.669   3.858
 1334SOL    HW1 4901   0.908   3.757   3.906
 1334SOL    HW2 4902   0.882   3.597   3.924
 1335SOL     OW 4903   2.158   6.031   3.171
 1335SOL    HW1 4904   2.066   6.043   3.133
 1335SOL    HW2 4905   2.151   6.019   3.270
 1336SOL     OW 4906   0.172   0.353   5.214
 1336SOL    HW1 4907   0.270   0.337   5.228
 1336SOL    HW2 4908   0.121   0.313   5.291
 1337SOL     OW 4909   3.770   0.260   0.183
 1337SOL    HW1 4910   3.763   0.179   0.125
 1337SOL    HW2 4911   3.775   0.232   0.279
 1338SOL     OW 4912   2.974   5.257   1.494
 1338SOL    HW1 4913   3.028   5.178   1.468
 1338SOL    HW2 4914   2.968   5.321   1.417
 1339SOL     OW 4915   0.121   4.461   6.496
 1339SOL    HW1 4916   0.132   4.538   6.559
 1339SOL    HW2 4917   0.211   4.430   6.465
 1340SOL     OW 4918   2.254   1.296   6.124
 1340SOL    HW1 4919   2.236   1.393   6.106
 1340SOL    HW2 4920   2.222   1.241   6.047
 1341SOL     OW 4921   5.712   2.609   4.506
 1341SOL    HW1 4922   5.806   2.622   4.475
 1341SOL    HW2 4923   5.687   2.683   4.569
 1342SOL     OW 4924   0.861   6.814   1.248
 1342SOL    HW1 4925   0.781   6.859   1.288
 1342SOL    HW2 4926   0.933   6.808   1.317
 1343SOL     OW 4927   2.822   5.791   4.143
 1343SOL    HW1 4928   2.760   5.718   4.115
 1343SOL    HW2 4929   2.820   5.865   4.076
 1344SOL     OW 4930   5.120   1.454   3.276
 1344SOL    HW1 4931   5.038   1.505   3.249
 1344SOL    HW2 4932   5.143   1.475   3.371
 1345SOL     OW 4933   0.620   5.430   2.641
 1345SOL    HW1 4934   0.564   5.441   2.559
 1345SOL    HW2 4935   0.713   5.462   2.623
 1346SOL     OW 4936   0.120   1.321   3.361
 1346SOL    HW1 4937   0.077   1.373   3.434
 1346SOL    HW2 4938   0.204   1.367   3.332
 1347SOL     OW 4939   4.395   0.575   3.656
 1347SOL    HW1 4940   4.316   0.523   3.624
 1347SOL    HW2 4941   4.364   0.658   3.703
 1348SOL     OW 4942   4.380   5.742   4.506
 1348SOL    HW1 4943   4.324   5.823   4.491
 1348SOL    HW2 4944   4.420   5.713   4.419
 1349SOL     OW 4945   4.565   2.338   0.156
 1349SOL    HW1 4946   4.568   2.251   0.205
 1349SOL    HW2 4947   4.614   2.407   0.209
 1350SOL     OW 4948   3.092   0.879   5.121
 1350SOL    HW1 4949   3.001   0.837   5.130
 1350SOL    HW2 4950   3.086   0.957   5.058
 1351SOL     OW 4951   1.613   1.589   3.843
 1351SOL    HW1 4952   1.618   1.573   3.744
 1351SOL    HW2 4953   1.703   1.619   3.876
 1352SOL     OW 4954   0.961   6.387   4.201
 1352SOL    HW1 4955   1.016   6.470   4.188
 1352SOL    HW2 4956   0.871   6.400   4.158
 1353SOL     OW 4957   2.266   3.054   5.559
 1353SOL    HW1 4958   2.200   3.071   5.632
 1353SOL    HW2 4959   2.218   3.028   5.475
 1354SOL     OW 4960   0.362   6.927   0.118
 1354SOL    HW1 4961   0.272   6.916   0.161
 1354SOL    HW2 4962   0.412   6.841   0.124
 1355SOL     OW 4963   3.800   2.882   6.831
 1355SOL    HW1 4964   3.738   2.868   6.754
 1355SOL    HW2 4965   3.787   2.975   6.867
 1356SOL     OW 4966   3.255   3.013   1.541
 1356SOL    HW1 4967   3.272   2.954   1.620
 1356SOL    HW2 4968   3.161   3.048   1.545
 1357SOL     OW 4969   3.034   2.763   5.764
 1357SOL    HW1 4970   3.081   2.741   5.850
 1357SOL    HW2 4971   3.039   2.861   5.748
 1358SOL     OW 4972   1.700   4.041   5.926
 1358SOL    HW1 4973   1.698   4.135   5.890
 1358SOL    HW2 4974   1.697   4.044   6.026
 1359SOL     OW 4975   0.157   1.756   6.432
 1359SOL    HW1 4976   0.203   1.760   6.520
 1359SOL    HW2 4977   0.224   1.750   6.358
 1360SOL     OW 4978   3.139   3.279   3.898
 1360SOL    HW1 4979   3.074   3.354   3.882
 1360SOL    HW2 4980   3.227   3.317   3.928
 1361SOL     OW 4981   0.693   6.091   1.131
 1361SOL    HW1 4982   0.731   6.028   1.063
 1361SOL    HW2 4983   0.659   6.038   1.209
 1362SOL     OW 4984   3.475   1.728   0.238
 1362SOL    HW1 4985   3.533   1.694   0.163
 1362SOL    HW2 4986   3.487   1.670   0.318
 1363SOL     OW 4987   6.967   6.627   1.285
 1363SOL    HW1 4988   6.887   6.669   1.328
 1363SOL    HW2 4989   6.993   6.679   1.203
 1364SOL     OW 4990   1.099   4.021   0.947
 1364SOL    HW1 4991   1.002   4.025   0.920
 1364SOL    HW2 4992   1.110   3.961   1.026
 1365SOL     OW 4993   1.163   3.671   5.978
 1365SOL    HW1 4994   1.128   3.620   5.900
 1365SOL    HW2 4995   1.114   3.644   6.061
 1366SOL     OW 4996   3.594   0.386   1.617
 1366SOL    HW1 4997   3.521   0.420   1.557
 1366SOL    HW2 4998   3.683   0.416   1.583
 1367SOL     OW 4999   1.307   0.230   4.321
 1367SOL    HW1 5000   1.351   0.219   4.411
 1367SOL    HW2 5001   1.208   0.230   4.333
 1368SOL     OW 5002   1.465   6.353   4.791
 1368SOL    HW1 5003   1.479   6.382   4.697
 1368SOL    HW2 5004   1.553   6.356   4.840
 1369SOL     OW 5005   2.028   5.509   3.761
 1369SOL    HW1 5006   1.942   5.470   3.793
 1369SOL    HW2 5007   2.094   5.511   3.837
 1370SOL     OW 5008   6.904   2.674   3.211
 1370SOL    HW1 5009   6.964   2.596   3.231
 1370SOL    HW2 5010   6.875   2.716   3.297
 1371SOL     OW 5011   6.154   1.919   5.497
 1371SOL    HW1 5012   6.218   1.996   5.499
 1371SOL    HW2 5013   6.071   1.946   5.449
 1372SOL     OW 5014   5.779   2.833   1.603
 1372SOL    HW1 5015   5.715   2.757   1.599
 1372SOL    HW2 5016   5.828   2.839   1.516
 1373SOL     OW 5017   6.112   3.106   1.931
 1373SOL    HW1 5018   6.076   3.153   2.011
 1373SOL    HW2 5019   6.039   3.052   1.889
 1374SOL     OW 5020   4.064   3.094   2.185
 1374SOL    HW1 5021   4.157   3.057   2.187
 1374SOL    HW2 5022   4.014   3.054   2.108
 1375SOL     OW 5023   5.137   4.912   4.422
 1375SOL    HW1 5024   5.065   4.843   4.423
 1375SOL    HW2 5025   5.218   4.875   4.376
 1376SOL     OW 5026   3.266   4.366   5.419
 1376SOL    HW1 5027   3.172   4.336   5.401
 1376SOL    HW2 5028   3.275   4.389   5.516
 1377SOL     OW 5029   1.242   1.788   2.830
 1377SOL    HW1 5030   1.152   1.785   2.874
 1377SOL    HW2 5031   1.300   1.855   2.878
 1378SOL     OW 5032   5.006   2.217   4.270
 1378SOL    HW1 5033   5.010   2.217   4.170
 1378SOL    HW2 5034   5.080   2.160   4.306
 1379SOL     OW 5035   4.453   5.382   0.198
 1379SOL    HW1 5036   4.537   5.422   0.235
 1379SOL    HW2 5037   4.420   5.311   0.261
 1380SOL     OW 5038   0.620   6.149   3.627
 1380SOL    HW1 5039   0.606   6.187   3.536
 1380SOL    HW2 5040   0.546   6.086   3.649
 1381SOL     OW 5041   6.540   2.477   5.641
 1381SOL    HW1 5042   6.614   2.412   5.623
 1381SOL    HW2 5043   6.511   2.468   5.737
 1382SOL     OW 5044   4.246   2.369   6.841
 1382SOL    HW1 5045   4.242   2.451   6.784
 1382SOL    HW2 5046   4.298   2.298   6.794
 1383SOL     OW 5047   6.691   0.423   0.477
 1383SOL    HW1 5048   6.700   0.388   0.570
 1383SOL    HW2 5049   6.600   0.400   0.441
 1384SOL     OW 5050   6.365   2.377   2.101
 1384SOL    HW1 5051   6.337   2.299   2.156
 1384SOL    HW2 5052   6.428   2.434   2.155
 1385SOL     OW 5053   0.338   6.124   1.660
 1385SOL    HW1 5054   0.423   6.086   1.623
 1385SOL    HW2 5055   0.280   6.050   1.693
 1386SOL     OW 5056   2.091   6.190   3.978
 1386SOL    HW1 5057   2.035   6.141   4.045
 1386SOL    HW2 5058   2.061   6.166   3.886
 1387SOL     OW 5059   2.151   5.997   2.062
 1387SOL    HW1 5060   2.061   5.989   2.020
 1387SOL    HW2 5061   2.142   6.044   2.150
 1388SOL     OW 5062   6.284   0.586   1.547
 1388SOL    HW1 5063   6.314   0.620   1.636
 1388SOL    HW2 5064   6.362   0.551   1.496
 1389SOL     OW 5065   6.214   0.566   1.930
 1389SOL    HW1 5066   6.301   0.572   1.979
 1389SOL    HW2 5067   6.152   0.637   1.963
 1390SOL     OW 5068   1.287   1.694   4.445
 1390SOL    HW1 5069   1.224   1.772   4.444
 1390SOL    HW2 5070   1.241   1.615   4.486
 1391SOL     OW 5071   0.526   3.125   3.303
 1391SOL    HW1 5072   0.500   3.221   3.316
 1391SOL    HW2 5073   0.447   3.073   3.271
 1392SOL     OW 5074   5.356   4.433   4.433
 1392SOL    HW1 5075   5.408   4.347   4.434
 1392SOL    HW2 5076   5.413   4.505   4.393
 1393SOL     OW 5077   3.715   5.131   6.764
 1393SOL    HW1 5078   3.698   5.043   6.721
 1393SOL    HW2 5079   3.731   5.200   6.693
 1394SOL     OW 5080   1.704   6.347   6.917
 1394SOL    HW1 5081   1.706   6.416   6.989
 1394SOL    HW2 5082   1.627   6.285   6.932
 1395SOL     OW 5083   4.327   4.793   5.968
 1395SOL    HW1 5084   4.307   4.865   6.035
 1395SOL    HW2 5085   4.356   4.710   6.015
 1396SOL     OW 5086   6.212   6.143   3.425
 1396SOL    HW1 5087   6.177   6.139   3.332
 1396SOL    HW2 5088   6.176   6.224   3.472
 1397SOL     OW 5089   4.751   6.229   5.456
 1397SOL    HW1 5090   4.816   6.228   5.380
 1397SOL    HW2 5091   4.732   6.135   5.485
 1398SOL     OW 5092   1.944   0.933   4.346
 1398SOL    HW1 5093   1.893   1.012   4.314
 1398SOL    HW2 5094   1.896   0.891   4.423
 1399SOL     OW 5095   2.550   5.370   2.177
 1399SOL    HW1 5096   2.538   5.417   2.089
 1399SOL    HW2 5097   2.520   5.275   2.169
 1400SOL     OW 5098   1.525   0.162   2.730
 1400SOL    HW1 5099   1.485   0.252   2.748
 1400SOL    HW2 5100   1.457   0.104   2.684
 1401SOL     OW 5101   6.662   1.838   4.149
 1401SOL    HW1 5102   6.752   1.875   4.169
 1401SOL    HW2 5103   6.621   1.889   4.073
 1402SOL     OW 5104   6.211   3.268   0.058
 1402SOL    HW1 5105   6.167   3.188   0.099
 1402SOL    HW2 5106   6.172   3.351   0.099
 1403SOL     OW 5107   3.722   0.278   1.874
 1403SOL    HW1 5108   3.698   0.274   1.971
 1403SOL    HW2 5109   3.671   0.352   1.830
 1404SOL     OW 5110   4.760   1.722   0.136
 1404SOL    HW1 5111   4.782   1.782   0.059
 1404SOL    HW2 5112   4.662   1.728   0.155
 1405SOL     OW 5113   3.178   2.990   1.138
 1405SOL    HW1 5114   3.082   3.011   1.158
 1405SOL    HW2 5115   3.197   2.895   1.162
 1406SOL     OW 5116   1.336   4.548   1.505
 1406SOL    HW1 5117   1.389   4.612   1.561
 1406SOL    HW2 5118   1.385   4.531   1.419
 1407SOL     OW 5119   6.585   2.104   2.890
 1407SOL    HW1 5120   6.676   2.105   2.932
 1407SOL    HW2 5121   6.521   2.155   2.947
 1408SOL     OW 5122   6.449   6.271   6.211
 1408SOL    HW1 5123   6.529   6.254   6.268
 1408SOL    HW2 5124   6.477   6.314   6.125
 1409SOL     OW 5125   0.530   1.311   3.610
 1409SOL    HW1 5126   0.514   1.408   3.622
 1409SOL    HW2 5127   0.573   1.294   3.521
 1410SOL     OW 5128   6.373   2.559   6.841
 1410SOL    HW1 5129   6.426   2.637   6.807
 1410SOL    HW2 5130   6.430   2.505   6.902
 1411SOL     OW 5131   2.018   0.634   2.079
 1411SOL    HW1 5132   2.016   0.558   2.144
 1411SOL    HW2 5133   2.107   0.635   2.032
 1412SOL     OW 5134   1.181   2.725   6.757
 1412SOL    HW1 5135   1.175   2.739   6.658
 1412SOL    HW2 5136   1.256   2.780   6.794
 1413SOL     OW 5137   2.945   6.739   3.463
 1413SOL    HW1 5138   2.895   6.710   3.544
 1413SOL    HW2 5139   2.885   6.790   3.402
 1414SOL     OW 5140   2.962   0.874   1.930
 1414SOL    HW1 5141   2.946   0.872   1.831
 1414SOL    HW2 5142   3.050   0.831   1.951
 1415SOL     OW 5143   4.660   5.963   5.233
 1415SOL    HW1 5144   4.619   6.046   5.195
 1415SOL    HW2 5145   4.757   5.960   5.209
 1416SOL     OW 5146   4.233   5.424   3.588
 1416SOL    HW1 5147   4.170   5.493   3.625
 1416SOL    HW2 5148   4.207   5.403   3.494
 1417SOL     OW 5149   3.186   2.880   6.502
 1417SOL    HW1 5150   3.260   2.812   6.499
 1417SOL    HW2 5151   3.225   2.971   6.518
 1418SOL     OW 5152   3.729   4.076   2.742
 1418SOL    HW1 5153   3.773   4.006   2.686
 1418SOL    HW2 5154   3.769   4.075   2.834
 1419SOL     OW 5155   4.085   6.365   4.057
 1419SOL    HW1 5156   3.993   6.338   4.086
 1419SOL    HW2 5157   4.109   6.315   3.973
 1420SOL     OW 5158   0.389   5.703   1.583
 1420SOL    HW1 5159   0.422   5.767   1.653
 1420SOL    HW2 5160   0.336   5.630   1.627
 1421SOL     OW 5161   4.040   0.911   2.696
 1421SOL    HW1 5162   4.127   0.863   2.691
 1421SOL    HW2 5163   4.056   1.008   2.715
 1422SOL     OW 5164   2.718   0.420   0.204
 1422SOL    HW1 5165   2.748   0.417   0.299
 1422SOL    HW2 5166   2.626   0.380   0.196
 1423SOL     OW 5167   5.206   0.476   2.280
 1423SOL    HW1 5168   5.261   0.404   2.323
 1423SOL    HW2 5169   5.240   0.566   2.309
 1424SOL     OW 5170   0.064   5.056   2.449
 1424SOL    HW1 5171   0.084   5.036   2.353
 1424SOL    HW2 5172   0.011   5.140   2.455
 1425SOL     OW 5173   1.841   0.034   4.478
 1425SOL    HW1 5174   1.892   0.103   4.427
 1425SOL    HW2 5175   1.897   6.982   4.489
 1426SOL     OW 5176   1.925   1.022   5.693
 1426SOL    HW1 5177   1.938   1.112   5.652
 1426SOL    HW2 5178   1.843   1.024   5.751
 1427SOL     OW 5179   5.925   0.757   5.009
 1427SOL    HW1 5180   5.834   0.717   4.998
 1427SOL    HW2 5181   5.943   0.775   5.105
 1428SOL     OW 5182   5.407   1.309   0.121
 1428SOL    HW1 5183   5.348   1.341   0.047
 1428SOL    HW2 5184   5.395   1.368   0.201
 1429SOL     OW 5185   5.764   6.480   6.755
 1429SOL    HW1 5186   5.844   6.535   6.731
 1429SOL    HW2 5187   5.765   6.461   6.853
 1430SOL     OW 5188   1.851   4.171   3.139
 1430SOL    HW1 5189   1.832   4.127   3.227
 1430SOL    HW2 5190   1.940   4.142   3.105
 1431SOL     OW 5191   1.206   0.481   1.402
 1431SOL    HW1 5192   1.181   0.541   1.326
 1431SOL    HW2 5193   1.305   0.474   1.408
 1432SOL     OW 5194   2.729   0.078   1.005
 1432SOL    HW1 5195   2.657   0.042   1.064
 1432SOL    HW2 5196   2.718   0.041   0.912
 1433SOL     OW 5197   4.116   0.495   4.604
 1433SOL    HW1 5198   4.140   0.474   4.509
 1433SOL    HW2 5199   4.017   0.489   4.615
 1434SOL     OW 5200   0.954   0.987   5.226
 1434SOL    HW1 5201   0.933   0.900   5.182
 1434SOL    HW2 5202   0.959   1.059   5.157
 1435SOL     OW 5203   6.778   1.794   3.203
 1435SOL    HW1 5204   6.770   1.836   3.294
 1435SOL    HW2 5205   6.714   1.839   3.141
 1436SOL     OW 5206   4.257   3.933   0.942
 1436SOL    HW1 5207   4.270   4.032   0.948
 1436SOL    HW2 5208   4.159   3.912   0.951
 1437SOL     OW 5209   4.389   1.422   2.249
 1437SOL    HW1 5210   4.382   1.446   2.346
 1437SOL    HW2 5211   4.368   1.503   2.193
 1438SOL     OW 5212   2.638   0.792   1.617
 1438SOL    HW1 5213   2.575   0.746   1.679
 1438SOL    HW2 5214   2.617   0.767   1.523
 1439SOL     OW 5215   0.499   5.709   1.980
 1439SOL    HW1 5216   0.517   5.791   1.925
 1439SOL    HW2 5217   0.411   5.669   1.952
 1440SOL     OW 5218   2.270   3.062   1.836
 1440SOL    HW1 5219   2.230   3.138   1.887
 1440SOL    HW2 5220   2.348   3.095   1.783
 1441SOL     OW 5221   5.073   6.060   0.553
 1441SOL    HW1 5222   5.156   6.039   0.605
 1441SOL    HW2 5223   5.049   5.982   0.497
 1442SOL     OW 5224   5.168   5.590   0.602
 1442SOL    HW1 5225   5.256   5.619   0.641
 1442SOL    HW2 5226   5.093   5.623   0.659
 1443SOL     OW 5227   0.735   2.539   2.590
 1443SOL    HW1 5228   0.652   2.533   2.534
 1443SOL    HW2 5229   0.813   2.565   2.532
 1444SOL     OW 5230   0.729   5.138   6.131
 1444SOL    HW1 5231   0.707   5.041   6.135
 1444SOL    HW2 5232   0.651   5.191   6.163
 1445SOL     OW 5233   0.958   3.485   1.469
 1445SOL    HW1 5234   1.050   3.498   1.506
 1445SOL    HW2 5235   0.910   3.573   1.467
 1446SOL     OW 5236   6.621   5.968   0.933
 1446SOL    HW1 5237   6.663   5.935   0.848
 1446SOL    HW2 5238   6.689   5.966   1.006
 1447SOL     OW 5239   6.210   5.728   4.462
 1447SOL    HW1 5240   6.179   5.716   4.556
 1447SOL    HW2 5241   6.207   5.640   4.415
 1448SOL     OW 5242   1.089   1.942   6.299
 1448SOL    HW1 5243   1.182   1.975   6.314
 1448SOL    HW2 5244   1.032   2.017   6.266
 1449SOL     OW 5245   2.008   3.466   2.813
 1449SOL    HW1 5246   2.031   3.506   2.902
 1449SOL    HW2 5247   1.943   3.526   2.766
 1450SOL     OW 5248   2.981   2.271   4.134
 1450SOL    HW1 5249   3.013   2.360   4.102
 1450SOL    HW2 5250   3.058   2.207   4.135
 1451SOL     OW 5251   3.425   1.379   2.732
 1451SOL    HW1 5252   3.476   1.418   2.656
 1451SOL    HW2 5253   3.329   1.407   2.727
 1452SOL     OW 5254   4.111   2.964   6.590
 1452SOL    HW1 5255   4.078   2.900   6.660
 1452SOL    HW2 5256   4.041   3.034   6.574
 1453SOL     OW 5257   0.371   3.903   5.532
 1453SOL    HW1 5258   0.405   3.988   5.492
 1453SOL    HW2 5259   0.380   3.907   5.632
 1454SOL     OW 5260   3.520   2.071   2.955
 1454SOL    HW1 5261   3.515   2.150   3.017
 1454SOL    HW2 5262   3.582   2.093   2.879
 1455SOL     OW 5263   0.508   5.611   2.227
 1455SOL    HW1 5264   0.448   5.670   2.281
 1455SOL    HW2 5265   0.517   5.648   2.135
 1456SOL     OW 5266   6.474   5.166   3.857
 1456SOL    HW1 5267   6.406   5.118   3.913
 1456SOL    HW2 5268   6.564   5.125   3.871
 1457SOL     OW 5269   1.593   5.296   6.270
 1457SOL    HW1 5270   1.582   5.226   6.199
 1457SOL    HW2 5271   1.633   5.254   6.352
 1458SOL     OW 5272   5.797   5.537   5.138
 1458SOL    HW1 5273   5.709   5.493   5.119
 1458SOL    HW2 5274   5.826   5.514   5.231
 1459SOL     OW 5275   6.418   6.471   5.357
 1459SOL    HW1 5276   6.440   6.487   5.261
 1459SOL    HW2 5277   6.433   6.375   5.379
 1460SOL     OW 5278   1.651   6.509   5.025
 1460SOL    HW1 5279   1.659   6.430   4.965
 1460SOL    HW2 5280   1.710   6.496   5.105
 1461SOL     OW 5281   6.004   2.883   3.917
 1461SOL    HW1 5282   6.058   2.964   3.942
 1461SOL    HW2 5283   5.994   2.880   3.817
 1462SOL     OW 5284   0.320   1.570   1.696
 1462SOL    HW1 5285   0.251   1.499   1.686
 1462SOL    HW2 5286   0.294   1.632   1.771
 1463SOL     OW 5287   1.618   6.034   6.503
 1463SOL    HW1 5288   1.677   6.053   6.581
 1463SOL    HW2 5289   1.570   5.948   6.517
 1464SOL     OW 5290   1.104   4.458   4.084
 1464SOL    HW1 5291   1.130   4.468   3.988
 1464SOL    HW2 5292   1.183   4.480   4.143
 1465SOL     OW 5293   1.313   2.913   4.553
 1465SOL    HW1 5294   1.375   2.921   4.631
 1465SOL    HW2 5295   1.229   2.965   4.572
 1466SOL     OW 5296   5.513   1.263   2.774
 1466SOL    HW1 5297   5.573   1.327   2.821
 1466SOL    HW2 5298   5.462   1.209   2.842
 1467SOL     OW 5299   0.391   0.353   3.668
 1467SOL    HW1 5300   0.322   0.397   3.725
 1467SOL    HW2 5301   0.427   0.420   3.602
 1468SOL     OW 5302   3.101   5.469   2.800
 1468SOL    HW1 5303   3.038   5.521   2.743
 1468SOL    HW2 5304   3.051   5.397   2.849
 1469SOL     OW 5305   5.640   4.029   3.126
 1469SOL    HW1 5306   5.554   3.982   3.144
 1469SOL    HW2 5307   5.627   4.128   3.139
 1470SOL     OW 5308   6.049   1.758   2.330
 1470SOL    HW1 5309   6.098   1.747   2.243
 1470SOL    HW2 5310   6.042   1.855   2.352
 1471SOL     OW 5311   5.019   6.750   0.648
 1471SOL    HW1 5312   4.979   6.706   0.728
 1471SOL    HW2 5313   5.010   6.849   0.656
 1472SOL     OW 5314   1.976   0.826   6.614
 1472SOL    HW1 5315   1.891   0.774   6.621
 1472SOL    HW2 5316   1.986   0.863   6.522
 1473SOL     OW 5317   1.761   6.092   3.504
 1473SOL    HW1 5318   1.756   6.188   3.529
 1473SOL    HW2 5319   1.697   6.039   3.561
 1474SOL     OW 5320   2.448   5.110   1.613
 1474SOL    HW1 5321   2.359   5.066   1.606
 1474SOL    HW2 5322   2.472   5.151   1.525
 1475SOL     OW 5323   6.166   0.345   6.438
 1475SOL    HW1 5324   6.100   0.284   6.481
 1475SOL    HW2 5325   6.257   0.305   6.442
 1476SOL     OW 5326   5.195   0.089   6.520
 1476SOL    HW1 5327   5.144   0.172   6.543
 1476SOL    HW2 5328   5.216   0.089   6.422
 1477SOL     OW 5329   3.405   4.197   1.714
 1477SOL    HW1 5330   3.385   4.294   1.728
 1477SOL    HW2 5331   3.329   4.154   1.664
 1478SOL     OW 5332   4.635   4.816   6.753
 1478SOL    HW1 5333   4.690   4.767   6.686
 1478SOL    HW2 5334   4.634   4.914   6.730
 1479SOL     OW 5335   4.606   3.440   1.325
 1479SOL    HW1 5336   4.608   3.519   1.386
 1479SOL    HW2 5337   4.700   3.411   1.304
 1480SOL     OW 5338   2.628   0.504   4.447
 1480SOL    HW1 5339   2.623   0.510   4.348
 1480SOL    HW2 5340   2.655   0.412   4.474
 1481SOL     OW 5341   4.595   2.561   6.027
 1481SOL    HW1 5342   4.527   2.511   5.974
 1481SOL    HW2 5343   4.682   2.564   5.976
 1482SOL     OW 5344   6.053   1.453   1.415
 1482SOL    HW1 5345   6.027   1.389   1.487
 1482SOL    HW2 5346   5.989   1.529   1.412
 1483SOL     OW 5347   5.936   0.823   0.278
 1483SOL    HW1 5348   5.927   0.751   0.210
 1483SOL    HW2 5349   5.914   0.787   0.368
 1484SOL     OW 5350   3.727   5.742   5.353
 1484SOL    HW1 5351   3.651   5.723   5.415
 1484SOL    HW2 5352   3.716   5.833   5.314
 1485SOL     OW 5353   4.987   3.604   3.342
 1485SOL    HW1 5354   4.944   3.630   3.256
 1485SOL    HW2 5355   4.965   3.509   3.364
 1486SOL     OW 5356   4.436   5.719   4.179
 1486SOL    HW1 5357   4.508   5.761   4.124
 1486SOL    HW2 5358   4.438   5.620   4.168
 1487SOL     OW 5359   6.512   1.503   0.818
 1487SOL    HW1 5360   6.525   1.502   0.719
 1487SOL    HW2 5361   6.496   1.597   0.849
 1488SOL     OW 5362   6.495   2.201   2.649
 1488SOL    HW1 5363   6.581   2.219   2.603
 1488SOL    HW2 5364   6.512   2.155   2.736
 1489SOL     OW 5365   2.973   4.967   6.981
 1489SOL    HW1 5366   2.996   4.959   6.884
 1489SOL    HW2 5367   2.981   5.063   7.008
 1490SOL     OW 5368   6.156   3.022   2.765
 1490SOL    HW1 5369   6.173   2.926   2.745
 1490SOL    HW2 5370   6.243   3.069   2.777
 1491SOL     OW 5371   5.857   2.533   3.734
 1491SOL    HW1 5372   5.793   2.585   3.790
 1491SOL    HW2 5373   5.830   2.539   3.637
 1492SOL     OW 5374   0.144   1.899   2.526
 1492SOL    HW1 5375   0.237   1.867   2.543
 1492SOL    HW2 5376   0.079   1.843   2.577
 1493SOL     OW 5377   5.930   1.939   6.126
 1493SOL    HW1 5378   5.932   2.039   6.117
 1493SOL    HW2 5379   6.023   1.904   6.134
 1494SOL     OW 5380   0.270   4.667   6.281
 1494SOL    HW1 5381   0.254   4.754   6.329
 1494SOL    HW2 5382   0.183   4.621   6.265
 1495SOL     OW 5383   6.606   3.862   4.350
 1495SOL    HW1 5384   6.587   3.769   4.381
 1495SOL    HW2 5385   6.559   3.927   4.409
 1496SOL     OW 5386   6.599   6.388   5.713
 1496SOL    HW1 5387   6.646   6.472   5.687
 1496SOL    HW2 5388   6.645   6.309   5.673
 1497SOL     OW 5389   6.100   2.478   2.422
 1497SOL    HW1 5390   6.152   2.430   2.493
 1497SOL    HW2 5391   6.130   2.573   2.418
 1498SOL     OW 5392   3.359   4.101   0.505
 1498SOL    HW1 5393   3.293   4.108   0.430
 1498SOL    HW2 5394   3.338   4.021   0.561
 1499SOL     OW 5395   0.036   4.366   4.308
 1499SOL    HW1 5396   0.022   4.376   4.407
 1499SOL    HW2 5397   0.117   4.419   4.280
 1500SOL     OW 5398   1.550   5.798   1.971
 1500SOL    HW1 5399   1.595   5.726   2.025
 1500SOL    HW2 5400   1.513   5.867   2.033
 1501SOL     OW 5401   6.678   1.894   0.734
 1501SOL    HW1 5402   6.704   1.991   0.742
 1501SOL    HW2 5403   6.741   1.848   0.672
 1502SOL     OW 5404   7.007   6.812   6.547
 1502SOL    HW1 5405   0.044   6.738   6.539
 1502SOL    HW2 5406   6.931   6.795   6.484
 1503SOL     OW 5407   0.467   4.572   1.715
 1503SOL    HW1 5408   0.497   4.536   1.627
 1503SOL    HW2 5409   0.383   4.625   1.703
 1504SOL     OW 5410   1.937   6.940   2.933
 1504SOL    HW1 5411   1.887   7.027   2.943
 1504SOL    HW2 5412   1.993   6.925   3.015
 1505SOL     OW 5413   6.225   5.320   5.054
 1505SOL    HW1 5414   6.294   5.331   4.982
 1505SOL    HW2 5415   6.144   5.372   5.030
 1506SOL     OW 5416   1.144   0.804   0.510
 1506SOL    HW1 5417   1.090   0.846   0.583
 1506SOL    HW2 5418   1.109   0.834   0.421
 1507SOL     OW 5419   2.784   2.219   3.581
 1507SOL    HW1 5420   2.738   2.146   3.633
 1507SOL    HW2 5421   2.797   2.190   3.486
 1508SOL     OW 5422   2.057   0.456   1.661
 1508SOL    HW1 5423   1.986   0.421   1.722
 1508SOL    HW2 5424   2.053   0.556   1.659
 1509SOL     OW 5425   5.219   0.919   3.976
 1509SOL    HW1 5426   5.262   0.842   3.930
 1509SOL    HW2 5427   5.194   0.892   4.069
 1510SOL     OW 5428   3.604   6.004   5.247
 1510SOL    HW1 5429   3.556   5.994   5.334
 1510SOL    HW2 5430   3.689   6.054   5.262
 1511SOL     OW 5431   3.084   3.612   4.879
 1511SOL    HW1 5432   3.015   3.607   4.950
 1511SOL    HW2 5433   3.147   3.687   4.898
 1512SOL     OW 5434   5.430   6.087   0.969
 1512SOL    HW1 5435   5.348   6.101   0.914
 1512SOL    HW2 5436   5.420   6.134   1.057
 1513SOL     OW 5437   2.632   0.759   5.382
 1513SOL    HW1 5438   2.715   0.724   5.425
 1513SOL    HW2 5439   2.554   0.743   5.444
 1514SOL     OW 5440   3.109   2.410   6.518
 1514SOL    HW1 5441   3.126   2.365   6.606
 1514SOL    HW2 5442   3.031   2.471   6.527
 1515SOL     OW 5443   3.901   0.654   2.629
 1515SOL    HW1 5444   3.932   0.741   2.590
 1515SOL    HW2 5445   3.935   0.645   2.722
 1516SOL     OW 5446   6.247   6.818   5.867
 1516SOL    HW1 5447   6.312   6.840   5.794
 1516SOL    HW2 5448   6.159   6.792   5.827
 1517SOL     OW 5449   3.166   5.902   3.496
 1517SOL    HW1 5450   3.094   5.881   3.562
 1517SOL    HW2 5451   3.133   5.883   3.404
 1518SOL     OW 5452   0.656   3.141   6.554
 1518SOL    HW1 5453   0.663   3.058   6.499
 1518SOL    HW2 5454   0.614   3.214   6.500
 1519SOL     OW 5455   0.139   4.473   6.811
 1519SOL    HW1 5456   0.156   4.557   6.761
 1519SOL    HW2 5457   0.046   4.474   6.848
 1520SOL     OW 5458   0.283   6.628   3.598
 1520SOL    HW1 5459   0.244   6.706   3.549
 1520SOL    HW2 5460   0.209   6.570   3.633
 1521SOL     OW 5461   2.178   5.179   6.271
 1521SOL    HW1 5462   2.104   5.224   6.221
 1521SOL    HW2 5463   2.264   5.192   6.222
 1522SOL     OW 5464   5.500   6.091   4.003
 1522SOL    HW1 5465   5.570   6.080   4.074
 1522SOL    HW2 5466   5.517   6.176   3.953
 1523SOL     OW 5467   2.835   6.643   0.667
 1523SOL    HW1 5468   2.863   6.693   0.750
 1523SOL    HW2 5469   2.824   6.708   0.592
 1524SOL     OW 5470   2.197   1.383   3.648
 1524SOL    HW1 5471   2.222   1.339   3.562
 1524SOL    HW2 5472   2.146   1.468   3.629
 1525SOL     OW 5473   5.283   4.319   6.521
 1525SOL    HW1 5474   5.204   4.270   6.484
 1525SOL    HW2 5475   5.252   4.388   6.586
 1526SOL     OW 5476   1.122   1.696   1.360
 1526SOL    HW1 5477   1.163   1.787   1.352
 1526SOL    HW2 5478   1.086   1.668   1.271
 1527SOL     OW 5479   5.044   1.690   4.525
 1527SOL    HW1 5480   4.948   1.709   4.549
 1527SOL    HW2 5481   5.057   1.591   4.519
 1528SOL     OW 5482   3.520   3.472   2.137
 1528SOL    HW1 5483   3.555   3.539   2.202
 1528SOL    HW2 5484   3.437   3.508   2.093
 1529SOL     OW 5485   4.630   1.784   6.015
 1529SOL    HW1 5486   4.575   1.744   6.088
 1529SOL    HW2 5487   4.648   1.716   5.945
 1530SOL     OW 5488   2.284   6.926   0.961
 1530SOL    HW1 5489   2.304   6.852   0.896
 1530SOL    HW2 5490   2.235   6.999   0.913
 1531SOL     OW 5491   4.725   5.820   4.420
 1531SOL    HW1 5492   4.702   5.723   4.421
 1531SOL    HW2 5493   4.649   5.872   4.380
 1532SOL     OW 5494   2.655   5.760   1.109
 1532SOL    HW1 5495   2.701   5.682   1.066
 1532SOL    HW2 5496   2.578   5.789   1.053
 1533SOL     OW 5497   5.564   5.872   1.079
 1533SOL    HW1 5498   5.628   5.818   1.024
 1533SOL    HW2 5499   5.515   5.936   1.019
 1534SOL     OW 5500   2.891   5.086   6.579
 1534SOL    HW1 5501   2.836   5.012   6.617
 1534SOL    HW2 5502   2.946   5.051   6.504
 1535SOL     OW 5503   5.445   4.180   3.739
 1535SOL    HW1 5504   5.484   4.240   3.669
 1535SOL    HW2 5505   5.350   4.160   3.716
 1536SOL     OW 5506   4.274   3.658   6.897
 1536SOL    HW1 5507   4.264   3.721   6.974
 1536SOL    HW2 5508   4.370   3.655   6.869
 1537SOL     OW 5509   2.874   5.173   2.583
 1537SOL    HW1 5510   2.949   5.108   2.597
 1537SOL    HW2 5511   2.892   5.227   2.501
 1538SOL     OW 5512   2.807   1.246   0.542
 1538SOL    HW1 5513   2.761   1.188   0.608
 1538SOL    HW2 5514   2.770   1.229   0.451
 1539SOL     OW 5515   6.077   3.147   0.859
 1539SOL    HW1 5516   6.101   3.050   0.854
 1539SOL    HW2 5517   5.978   3.157   0.863
 1540SOL     OW 5518   3.538   6.650   3.175
 1540SOL    HW1 5519   3.606   6.654   3.247
 1540SOL    HW2 5520   3.497   6.559   3.172
 1541SOL     OW 5521   4.318   2.860   5.688
 1541SOL    HW1 5522   4.370   2.840   5.771
 1541SOL    HW2 5523   4.370   2.829   5.608
 1542SOL     OW 5524   6.880   5.276   3.031
 1542SOL    HW1 5525   6.909   5.331   2.952
 1542SOL    HW2 5526   6.953   5.276   3.099
 1543SOL     OW 5527   3.118   5.489   0.169
 1543SOL    HW1 5528   3.044   5.548   0.138
 1543SOL    HW2 5529   3.192   5.492   0.102
 1544SOL     OW 5530   3.696   3.434   3.899
 1544SOL    HW1 5531   3.688   3.452   3.801
 1544SOL    HW2 5532   3.707   3.335   3.913
 1545SOL     OW 5533   5.559   5.400   1.653
 1545SOL    HW1 5534   5.486   5.357   1.706
 1545SOL    HW2 5535   5.566   5.355   1.563
 1546SOL     OW 5536   5.917   6.095   5.682
 1546SOL    HW1 5537   5.895   6.076   5.586
 1546SOL    HW2 5538   5.839   6.138   5.726
 1547SOL     OW 5539   2.370   3.533   6.078
 1547SOL    HW1 5540   2.415   3.525   5.989
 1547SOL    HW2 5541   2.271   3.536   6.065
 1548SOL     OW 5542   6.936   2.331   0.945
 1548SOL    HW1 5543   6.966   2.256   1.004
 1548SOL    HW2 5544   6.892   2.401   1.002
 1549SOL     OW 5545   5.036   0.631   4.855
 1549SOL    HW1 5546   4.941   0.601   4.867
 1549SOL    HW2 5547   5.056   0.703   4.921
 1550SOL     OW 5548   3.659   3.163   3.970
 1550SOL    HW1 5549   3.722   3.135   4.042
 1550SOL    HW2 5550   3.585   3.097   3.963
 1551SOL     OW 5551   6.994   4.904   5.536
 1551SOL    HW1 5552   6.976   4.806   5.526
 1551SOL    HW2 5553   6.921   4.947   5.589
 1552SOL     OW 5554   1.794   4.229   1.493
 1552SOL    HW1 5555   1.888   4.259   1.506
 1552SOL    HW2 5556   1.790   4.129   1.495
 1553SOL     OW 5557   1.997   2.161   6.375
 1553SOL    HW1 5558   1.977   2.161   6.277
 1553SOL    HW2 5559   2.091   2.191   6.390
 1554SOL     OW 5560   4.018   1.846   3.594
 1554SOL    HW1 5561   4.114   1.862   3.617
 1554SOL    HW2 5562   3.961   1.879   3.669
 1555SOL     OW 5563   6.040   4.965   5.290
 1555SOL    HW1 5564   6.104   4.957   5.366
 1555SOL    HW2 5565   6.001   4.875   5.269
 1556SOL     OW 5566   2.040   0.809   5.882
 1556SOL    HW1 5567   1.947   0.814   5.917
 1556SOL    HW2 5568   2.048   0.867   5.800
 1557SOL     OW 5569   0.604   1.891   5.004
 1557SOL    HW1 5570   0.628   1.855   4.914
 1557SOL    HW2 5571   0.661   1.970   5.025
 1558SOL     OW 5572   0.014   6.516   4.722
 1558SOL    HW1 5573   0.011   6.457   4.642
 1558SOL    HW2 5574   6.951   6.539   4.751
 1559SOL     OW 5575   1.540   1.545   5.724
 1559SOL    HW1 5576   1.632   1.550   5.762
 1559SOL    HW2 5577   1.545   1.509   5.631
 1560SOL     OW 5578   6.896   0.715   6.859
 1560SOL    HW1 5579   6.909   0.616   6.865
 1560SOL    HW2 5580   6.964   0.754   6.796
 1561SOL     OW 5581   5.918   6.139   2.330
 1561SOL    HW1 5582   5.883   6.125   2.423
 1561SOL    HW2 5583   6.016   6.157   2.334
 1562SOL     OW 5584   5.824   0.856   3.899
 1562SOL    HW1 5585   5.802   0.953   3.916
 1562SOL    HW2 5586   5.923   0.844   3.897
 1563SOL     OW 5587   3.221   0.074   5.809
 1563SOL    HW1 5588   3.287   0.001   5.824
 1563SOL    HW2 5589   3.129   0.039   5.821
 1564SOL     OW 5590   0.857   2.014   3.320
 1564SOL    HW1 5591   0.880   1.976   3.409
 1564SOL    HW2 5592   0.763   2.049   3.321
 1565SOL     OW 5593   6.344   4.023   1.610
 1565SOL    HW1 5594   6.406   4.097   1.583
 1565SOL    HW2 5595   6.397   3.945   1.642
 1566SOL     OW 5596   5.765   4.211   2.704
 1566SOL    HW1 5597   5.830   4.277   2.665
 1566SOL    HW2 5598   5.744   4.141   2.636
 1567SOL     OW 5599   6.463   5.945   5.318
 1567SOL    HW1 5600   6.526   5.874   5.349
 1567SOL    HW2 5601   6.492   5.979   5.228
 1568SOL     OW 5602   6.942   0.057   6.952
 1568SOL    HW1 5603   0.011   0.065   6.955
 1568SOL    HW2 5604   6.901   0.129   7.008
 1569SOL     OW 5605   3.245   6.227   5.025
 1569SOL    HW1 5606   3.188   6.259   5.101
 1569SOL    HW2 5607   3.217   6.273   4.941
 1570SOL     OW 5608   3.007   2.204   1.789
 1570SOL    HW1 5609   2.983   2.277   1.853
 1570SOL    HW2 5610   3.018   2.242   1.698
 1571SOL     OW 5611   0.253   3.462   0.556
 1571SOL    HW1 5612   0.268   3.363   0.561
 1571SOL    HW2 5613   0.285   3.496   0.468
 1572SOL     OW 5614   1.117   5.540   2.653
 1572SOL    HW1 5615   1.158   5.464   2.602
 1572SOL    HW2 5616   1.050   5.503   2.718
 1573SOL     OW 5617   4.261   6.870   7.026
 1573SOL    HW1 5618   4.207   6.874   6.942
 1573SOL    HW2 5619   4.268   6.961   0.037
 1574SOL     OW 5620   5.467   2.185   2.230
 1574SOL    HW1 5621   5.549   2.191   2.173
 1574SOL    HW2 5622   5.396   2.135   2.181
 1575SOL     OW 5623   3.511   1.567   0.488
 1575SOL    HW1 5624   3.423   1.565   0.536
 1575SOL    HW2 5625   3.541   1.474   0.469
 1576SOL     OW 5626   6.008   5.534   3.322
 1576SOL    HW1 5627   6.028   5.525   3.419
 1576SOL    HW2 5628   6.000   5.443   3.281
 1577SOL     OW 5629   1.209   0.415   0.292
 1577SOL    HW1 5630   1.211   0.385   0.387
 1577SOL    HW2 5631   1.267   0.495   0.280
 1578SOL     OW 5632   5.921   5.450   4.704
 1578SOL    HW1 5633   5.854   5.481   4.637
 1578SOL    HW2 5634   5.950   5.357   4.681
 1579SOL     OW 5635   0.084   0.081   2.870
 1579SOL    HW1 5636   7.024   0.116   2.846
 1579SOL    HW2 5637   0.148   0.158   2.879
 1580SOL     OW 5638   3.109   3.655   5.689
 1580SOL    HW1 5639   3.044   3.589   5.729
 1580SOL    HW2 5640   3.059   3.736   5.659
 1581SOL     OW 5641   6.428   3.481   4.714
 1581SOL    HW1 5642   6.483   3.528   4.783
 1581SOL    HW2 5643   6.383   3.548   4.655
 1582SOL     OW 5644   6.072   6.281   4.959
 1582SOL    HW1 5645   6.071   6.381   4.966
 1582SOL    HW2 5646   6.034   6.254   4.871
 1583SOL     OW 5647   2.261   1.996   2.306
 1583SOL    HW1 5648   2.201   1.998   2.226
 1583SOL    HW2 5649   2.354   2.020   2.277
 1584SOL     OW 5650   2.465   0.781   6.281
 1584SOL    HW1 5651   2.551   0.826   6.257
 1584SOL    HW2 5652   2.483   0.685   6.305
 1585SOL     OW 5653   5.788   1.078   5.768
 1585SOL    HW1 5654   5.770   1.177   5.769
 1585SOL    HW2 5655   5.717   1.031   5.821
 1586SOL     OW 5656   4.103   3.597   3.052
 1586SOL    HW1 5657   4.117   3.589   3.151
 1586SOL    HW2 5658   4.127   3.511   3.008
 1587SOL     OW 5659   2.688   6.956   6.262
 1587SOL    HW1 5660   2.639   6.883   6.215
 1587SOL    HW2 5661   2.623   7.019   6.303
 1588SOL     OW 5662   5.902   3.744   1.614
 1588SOL    HW1 5663   6.002   3.752   1.610
 1588SOL    HW2 5664   5.861   3.834   1.603
 1589SOL     OW 5665   4.922   4.786   3.366
 1589SOL    HW1 5666   4.831   4.825   3.374
 1589SOL    HW2 5667   4.987   4.859   3.344
 1590SOL     OW 5668   1.920   6.783   5.213
 1590SOL    HW1 5669   1.853   6.730   5.161
 1590SOL    HW2 5670   1.992   6.722   5.245
 1591SOL     OW 5671   1.152   3.815   0.767
 1591SOL    HW1 5672   1.189   3.865   0.845
 1591SOL    HW2 5673   1.214   3.741   0.742
 1592SOL     OW 5674   3.367   3.983   3.688
 1592SOL    HW1 5675   3.316   4.036   3.755
 1592SOL    HW2 5676   3.378   3.889   3.721
 1593SOL     OW 5677   1.710   5.053   4.439
 1593SOL    HW1 5678   1.723   5.086   4.346
 1593SOL    HW2 5679   1.618   5.016   4.448
 1594SOL     OW 5680   1.397   5.237   3.286
 1594SOL    HW1 5681   1.348   5.161   3.328
 1594SOL    HW2 5682   1.334   5.290   3.229
 1595SOL     OW 5683   6.833   4.571   5.122
 1595SOL    HW1 5684   6.899   4.552   5.049
 1595SOL    HW2 5685   6.761   4.631   5.086
 1596SOL     OW 5686   2.825   5.576   0.099
 1596SOL    HW1 5687   2.789   5.523   0.023
 1596SOL    HW2 5688   2.782   5.544   0.184
 1597SOL     OW 5689   2.241   0.196   0.272
 1597SOL    HW1 5690   2.160   0.163   0.320
 1597SOL    HW2 5691   2.314   0.127   0.279
 1598SOL     OW 5692   6.562   5.321   1.470
 1598SOL    HW1 5693   6.604   5.246   1.419
 1598SOL    HW2 5694   6.630   5.363   1.530
 1599SOL     OW 5695   2.850   5.163   0.212
 1599SOL    HW1 5696   2.883   5.209   0.130
 1599SOL    HW2 5697   2.925   5.153   0.278
 1600SOL     OW 5698   3.128   1.258   5.293
 1600SOL    HW1 5699   3.158   1.173   5.251
 1600SOL    HW2 5700   3.114   1.327   5.222
 1601SOL     OW 5701   1.360   5.262   4.997
 1601SOL    HW1 5702   1.279   5.232   5.048
 1601SOL    HW2 5703   1.426   5.187   4.993
 1602SOL     OW 5704   0.849   3.665   2.334
 1602SOL    HW1 5705   0.786   3.742   2.344
 1602SOL    HW2 5706   0.828   3.595   2.402
 1603SOL     OW 5707   5.588   6.495   0.563
 1603SOL    HW1 5708   5.548   6.425   0.622
 1603SOL    HW2 5709   5.664   6.456   0.511
 1604SOL     OW 5710   0.483   5.725   4.878
 1604SOL    HW1 5711   0.581   5.728   4.896
 1604SOL    HW2 5712   0.467   5.741   4.780
 1605SOL     OW 5713   5.330   6.137   2.785
 1605SOL    HW1 5714   5.282   6.052   2.802
 1605SOL    HW2 5715   5.371   6.171   2.870
 1606SOL     OW 5716   5.590   6.218   5.066
 1606SOL    HW1 5717   5.574   6.302   5.117
 1606SOL    HW2 5718   5.628   6.149   5.127
 1607SOL     OW 5719   4.572   3.063   0.976
 1607SOL    HW1 5720   4.638   3.134   1.000
 1607SOL    HW2 5721   4.565   2.998   1.052
 1608SOL     OW 5722   2.733   0.912   0.338
 1608SOL    HW1 5723   2.754   0.966   0.257
 1608SOL    HW2 5724   2.649   0.948   0.381
 1609SOL     OW 5725   5.261   0.819   5.654
 1609SOL    HW1 5726   5.233   0.740   5.599
 1609SOL    HW2 5727   5.245   0.903   5.601
 1610SOL     OW 5728   5.128   6.357   2.997
 1610SOL    HW1 5729   5.210   6.325   3.045
 1610SOL    HW2 5730   5.059   6.286   2.997
 1611SOL     OW 5731   4.228   2.908   1.621
 1611SOL    HW1 5732   4.196   2.813   1.615
 1611SOL    HW2 5733   4.233   2.947   1.529
 1612SOL     OW 5734   3.612   0.903   4.523
 1612SOL    HW1 5735   3.581   0.843   4.596
 1612SOL    HW2 5736   3.609   0.998   4.554
 1613SOL     OW 5737   1.711   0.254   0.792
 1613SOL    HW1 5738   1.661   0.186   0.738
 1613SOL    HW2 5739   1.726   0.219   0.884
 1614SOL     OW 5740   0.427   2.327   5.620
 1614SOL    HW1 5741   0.329   2.336   5.602
 1614SOL    HW2 5742   0.449   2.369   5.708
 1615SOL     OW 5743   6.468   4.866   5.707
 1615SOL    HW1 5744   6.493   4.777   5.669
 1615SOL    HW2 5745   6.492   4.938   5.643
 1616SOL     OW 5746   2.493   2.126   6.137
 1616SOL    HW1 5747   2.395   2.111   6.137
 1616SOL    HW2 5748   2.538   2.061   6.075
 1617SOL     OW 5749   4.130   0.396   4.321
 1617SOL    HW1 5750   4.201   0.337   4.283
 1617SOL    HW2 5751   4.052   0.340   4.351
 1618SOL     OW 5752   5.431   2.766   2.046
 1618SOL    HW1 5753   5.343   2.720   2.036
 1618SOL    HW2 5754   5.471   2.781   1.956
 1619SOL     OW 5755   1.944   3.014   4.396
 1619SOL    HW1 5756   1.849   3.022   4.364
 1619SOL    HW2 5757   1.995   3.095   4.369
 1620SOL     OW 5758   3.515   5.864   1.700
 1620SOL    HW1 5759   3.550   5.793   1.761
 1620SOL    HW2 5760   3.433   5.830   1.654
 1621SOL     OW 5761   2.076   1.590   1.983
 1621SOL    HW1 5762   2.130   1.664   2.024
 1621SOL    HW2 5763   2.138   1.525   1.938
 1622SOL     OW 5764   2.181   2.422   4.763
 1622SOL    HW1 5765   2.227   2.397   4.848
 1622SOL    HW2 5766   2.100   2.365   4.751
 1623SOL     OW 5767   2.158   2.123   4.698
 1623SOL    HW1 5768   2.231   2.116   4.766
 1623SOL    HW2 5769   2.194   2.098   4.608
 1624SOL     OW 5770   2.325   1.021   0.704
 1624SOL    HW1 5771   2.400   0.993   0.764
 1624SOL    HW2 5772   2.266   0.942   0.686
 1625SOL     OW 5773   0.587   5.881   1.308
 1625SOL    HW1 5774   0.638   5.820   1.369
 1625SOL    HW2 5775   0.533   5.825   1.244
 1626SOL     OW 5776   2.211   2.933   5.906
 1626SOL    HW1 5777   2.157   3.004   5.861
 1626SOL    HW2 5778   2.308   2.947   5.887
 1627SOL     OW 5779   4.966   3.385   3.822
 1627SOL    HW1 5780   4.997   3.467   3.774
 1627SOL    HW2 5781   4.900   3.409   3.892
 1628SOL     OW 5782   2.775   3.454   0.181
 1628SOL    HW1 5783   2.835   3.383   0.218
 1628SOL    HW2 5784   2.707   3.413   0.121
 1629SOL     OW 5785   3.378   2.134   2.700
 1629SOL    HW1 5786   3.469   2.109   2.669
 1629SOL    HW2 5787   3.369   2.116   2.798
 1630SOL     OW 5788   6.269   4.882   4.550
 1630SOL    HW1 5789   6.206   4.927   4.487
 1630SOL    HW2 5790   6.304   4.798   4.508
 1631SOL     OW 5791   0.584   7.000   5.596
 1631SOL    HW1 5792   0.633   0.009   5.518
 1631SOL    HW2 5793   0.641   7.005   5.678
 1632SOL     OW 5794   4.738   6.898   0.325
 1632SOL    HW1 5795   4.767   6.950   0.246
 1632SOL    HW2 5796   4.807   6.829   0.347
 1633SOL     OW 5797   5.944   3.482   3.694
 1633SOL    HW1 5798   5.869   3.525   3.645
 1633SOL    HW2 5799   6.020   3.466   3.632
 1634SOL     OW 5800   4.299   0.723   0.815
 1634SOL    HW1 5801   4.309   0.801   0.877
 1634SOL    HW2 5802   4.244   0.652   0.859
 1635SOL     OW 5803   0.955   4.902   3.850
 1635SOL    HW1 5804   0.908   4.815   3.861
 1635SOL    HW2 5805   0.907   4.958   3.782
 1636SOL     OW 5806   2.446   6.487   0.500
 1636SOL    HW1 5807   2.543   6.511   0.491
 1636SOL    HW2 5808   2.431   6.396   0.463
 1637SOL     OW 5809   0.799   2.477   2.857
 1637SOL    HW1 5810   0.848   2.557   2.893
 1637SOL    HW2 5811   0.776   2.493   2.761
 1638SOL     OW 5812   1.279   2.720   5.782
 1638SOL    HW1 5813   1.289   2.713   5.882
 1638SOL    HW2 5814   1.296   2.814   5.753
 1639SOL     OW 5815   4.500   5.090   2.823
 1639SOL    HW1 5816   4.595   5.090   2.792
 1639SOL    HW2 5817   4.471   4.997   2.843
 1640SOL     OW 5818   5.430   0.408   0.949
 1640SOL    HW1 5819   5.483   0.493   0.939
 1640SOL    HW2 5820   5.398   0.379   0.860
 1641SOL     OW 5821   6.640   2.933   5.120
 1641SOL    HW1 5822   6.647   2.916   5.219
 1641SOL    HW2 5823   6.635   2.845   5.072
 1642SOL     OW 5824   0.579   2.554   1.444
 1642SOL    HW1 5825   0.670   2.596   1.452
 1642SOL    HW2 5826   0.542   2.536   1.535
 1643SOL     OW 5827   3.867   0.863   5.820
 1643SOL    HW1 5828   3.771   0.842   5.841
 1643SOL    HW2 5829   3.873   0.955   5.782
 1644SOL     OW 5830   4.086   1.055   0.516
 1644SOL    HW1 5831   4.028   0.977   0.495
 1644SOL    HW2 5832   4.165   1.054   0.455
 1645SOL     OW 5833   1.981   6.461   6.052
 1645SOL    HW1 5834   1.935   6.386   6.101
 1645SOL    HW2 5835   1.966   6.450   5.954
 1646SOL     OW 5836   1.765   3.916   0.195
 1646SOL    HW1 5837   1.710   3.869   0.265
 1646SOL    HW2 5838   1.704   3.955   0.126
 1647SOL     OW 5839   5.821   2.876   2.729
 1647SOL    HW1 5840   5.856   2.860   2.637
 1647SOL    HW2 5841   5.892   2.854   2.796
 1648SOL     OW 5842   3.771   6.912   2.640
 1648SOL    HW1 5843   3.728   7.001   2.656
 1648SOL    HW2 5844   3.775   6.893   2.542
 1649SOL     OW 5845   2.518   0.118   3.087
 1649SOL    HW1 5846   2.603   0.091   3.042
 1649SOL    HW2 5847   2.512   0.218   3.089
 1650SOL     OW 5848   3.082   6.873   3.790
 1650SOL    HW1 5849   3.085   6.969   3.818
 1650SOL    HW2 5850   3.168   6.847   3.747
 1651SOL     OW 5851   1.477   0.538   1.859
 1651SOL    HW1 5852   1.384   0.560   1.832
 1651SOL    HW2 5853   1.476   0.459   1.921
 1652SOL     OW 5854   2.856   3.155   1.868
 1652SOL    HW1 5855   2.836   3.170   1.771
 1652SOL    HW2 5856   2.771   3.132   1.916
 1653SOL     OW 5857   1.582   5.037   0.690
 1653SOL    HW1 5858   1.527   4.976   0.747
 1653SOL    HW2 5859   1.525   5.074   0.616
 1654SOL     OW 5860   0.371   1.587   3.567
 1654SOL    HW1 5861   0.441   1.658   3.564
 1654SOL    HW2 5862   0.307   1.607   3.642
 1655SOL     OW 5863   4.622   4.369   5.600
 1655SOL    HW1 5864   4.601   4.465   5.622
 1655SOL    HW2 5865   4.589   4.310   5.674
 1656SOL     OW 5866   0.287   4.011   2.573
 1656SOL    HW1 5867   0.259   4.061   2.491
 1656SOL    HW2 5868   0.319   4.075   2.643
 1657SOL     OW 5869   1.021   0.265   5.127
 1657SOL    HW1 5870   1.100   0.316   5.092
 1657SOL    HW2 5871   0.939   0.322   5.119
 1658SOL     OW 5872   6.529   6.340   2.762
 1658SOL    HW1 5873   6.546   6.412   2.694
 1658SOL    HW2 5874   6.616   6.312   2.802
 1659SOL     OW 5875   4.981   1.985   6.389
 1659SOL    HW1 5876   5.065   2.034   6.411
 1659SOL    HW2 5877   4.905   2.026   6.439
 1660SOL     OW 5878   2.726   6.327   3.091
 1660SOL    HW1 5879   2.745   6.406   3.148
 1660SOL    HW2 5880   2.649   6.276   3.130
 1661SOL     OW 5881   3.063   0.354   3.189
 1661SOL    HW1 5882   3.091   0.316   3.101
 1661SOL    HW2 5883   3.133   0.333   3.258
 1662SOL     OW 5884   6.492   0.963   2.668
 1662SOL    HW1 5885   6.403   1.004   2.688
 1662SOL    HW2 5886   6.527   1.000   2.582
 1663SOL     OW 5887   1.974   0.399   3.800
 1663SOL    HW1 5888   1.911   0.471   3.828
 1663SOL    HW2 5889   2.058   0.440   3.764
 1664SOL     OW 5890   2.429   4.923   4.647
 1664SOL    HW1 5891   2.355   4.966   4.596
 1664SOL    HW2 5892   2.401   4.912   4.743
 1665SOL     OW 5893   1.267   0.709   3.729
 1665SOL    HW1 5894   1.174   0.728   3.760
 1665SOL    HW2 5895   1.313   0.648   3.794
 1666SOL     OW 5896   5.578   3.223   5.929
 1666SOL    HW1 5897   5.585   3.139   5.875
 1666SOL    HW2 5898   5.486   3.230   5.968
 1667SOL     OW 5899   6.652   1.086   6.909
 1667SOL    HW1 5900   6.607   1.080   6.998
 1667SOL    HW2 5901   6.649   1.181   6.877
 1668SOL     OW 5902   1.686   0.447   5.041
 1668SOL    HW1 5903   1.729   0.526   5.085
 1668SOL    HW2 5904   1.676   0.464   4.943
 1669SOL     OW 5905   5.830   5.966   6.296
 1669SOL    HW1 5906   5.775   5.927   6.370
 1669SOL    HW2 5907   5.927   5.963   6.321
 1670SOL     OW 5908   6.491   3.767   6.625
 1670SOL    HW1 5909   6.409   3.812   6.589
 1670SOL    HW2 5910   6.465   3.686   6.676
 1671SOL     OW 5911   5.831   5.110   0.375
 1671SOL    HW1 5912   5.902   5.045   0.403
 1671SOL    HW2 5913   5.809   5.170   0.452
 1672SOL     OW 5914   2.143   5.309   2.115
 1672SOL    HW1 5915   2.161   5.316   2.214
 1672SOL    HW2 5916   2.228   5.325   2.065
 1673SOL     OW 5917   6.547   2.392   3.442
 1673SOL    HW1 5918   6.584   2.468   3.388
 1673SOL    HW2 5919   6.462   2.360   3.400
 1674SOL     OW 5920   2.231   5.689   6.838
 1674SOL    HW1 5921   2.259   5.758   6.772
 1674SOL    HW2 5922   2.135   5.702   6.862
 1675SOL     OW 5923   4.599   2.304   0.578
 1675SOL    HW1 5924   4.582   2.396   0.541
 1675SOL    HW2 5925   4.512   2.254   0.582
 1676SOL     OW 5926   2.758   1.008   4.056
 1676SOL    HW1 5927   2.727   0.977   4.146
 1676SOL    HW2 5928   2.845   1.056   4.065
 1677SOL     OW 5929   5.986   0.474   5.626
 1677SOL    HW1 5930   5.936   0.560   5.633
 1677SOL    HW2 5931   6.069   0.479   5.680
 1678SOL     OW 5932   4.999   0.371   1.633
 1678SOL    HW1 5933   5.062   0.364   1.556
 1678SOL    HW2 5934   4.917   0.316   1.615
 1679SOL     OW 5935   5.276   4.538   0.289
 1679SOL    HW1 5936   5.276   4.604   0.213
 1679SOL    HW2 5937   5.236   4.581   0.370
 1680SOL     OW 5938   1.342   2.396   5.120
 1680SOL    HW1 5939   1.411   2.401   5.192
 1680SOL    HW2 5940   1.301   2.304   5.120
 1681SOL     OW 5941   4.723   5.435   0.277
 1681SOL    HW1 5942   4.780   5.353   0.283
 1681SOL    HW2 5943   4.708   5.472   0.369
 1682SOL     OW 5944   6.836   3.506   5.316
 1682SOL    HW1 5945   6.847   3.601   5.346
 1682SOL    HW2 5946   6.804   3.451   5.392
 1683SOL     OW 5947   5.450   5.611   5.952
 1683SOL    HW1 5948   5.481   5.700   5.919
 1683SOL    HW2 5949   5.364   5.587   5.906
 1684SOL     OW 5950   0.438   6.622   4.060
 1684SOL    HW1 5951   0.511   6.652   4.121
 1684SOL    HW2 5952   0.453   6.661   3.969
 1685SOL     OW 5953   1.266   1.396   0.331
 1685SOL    HW1 5954   1.189   1.377   0.270
 1685SOL    HW2 5955   1.253   1.486   0.373
 1686SOL     OW 5956   2.306   6.512   6.534
 1686SOL    HW1 5957   2.344   6.422   6.555
 1686SOL    HW2 5958   2.374   6.567   6.487
 1687SOL     OW 5959   2.615   6.233   2.414
 1687SOL    HW1 5960   2.669   6.164   2.365
 1687SOL    HW2 5961   2.577   6.298   2.348
 1688SOL     OW 5962   0.868   1.253   3.273
 1688SOL    HW1 5963   0.845   1.256   3.176
 1688SOL    HW2 5964   0.964   1.278   3.285
 1689SOL     OW 5965   3.333   1.841   2.133
 1689SOL    HW1 5966   3.309   1.936   2.115
 1689SOL    HW2 5967   3.296   1.782   2.061
 1690SOL     OW 5968   1.043   2.564   0.777
 1690SOL    HW1 5969   0.953   2.538   0.813
 1690SOL    HW2 5970   1.036   2.578   0.678
 1691SOL     OW 5971   4.125   4.991   2.690
 1691SOL    HW1 5972   4.065   4.912   2.676
 1691SOL    HW2 5973   4.208   4.979   2.635
 1692SOL     OW 5974   1.803   6.966   3.275
 1692SOL    HW1 5975   1.749   7.010   3.203
 1692SOL    HW2 5976   1.768   6.874   3.293
 1693SOL     OW 5977   3.386   1.721   3.864
 1693SOL    HW1 5978   3.433   1.809   3.860
 1693SOL    HW2 5979   3.446   1.649   3.829
 1694SOL     OW 5980   5.806   5.920   5.480
 1694SOL    HW1 5981   5.734   5.886   5.541
 1694SOL    HW2 5982   5.892   5.874   5.501
 1695SOL     OW 5983   3.889   1.190   6.153
 1695SOL    HW1 5984   3.977   1.215   6.193
 1695SOL    HW2 5985   3.834   1.141   6.221
 1696SOL     OW 5986   3.164   5.803   1.975
 1696SOL    HW1 5987   3.177   5.896   1.940
 1696SOL    HW2 5988   3.121   5.746   1.904
 1697SOL     OW 5989   1.161   1.809   1.830
 1697SOL    HW1 5990   1.234   1.741   1.828
 1697SOL    HW2 5991   1.092   1.781   1.897
 1698SOL     OW 5992   4.941   2.293   0.784
 1698SOL    HW1 5993   4.962   2.195   0.785
 1698SOL    HW2 5994   4.843   2.307   0.799
 1699SOL     OW 5995   2.576   4.790   0.581
 1699SOL    HW1 5996   2.544   4.711   0.632
 1699SOL    HW2 5997   2.674   4.782   0.564
 1700SOL     OW 5998   6.522   2.435   4.664
 1700SOL    HW1 5999   6.493   2.530   4.653
 1700SOL    HW2 6000   6.486   2.380   4.588
 1701SOL     OW 6001   6.243   3.035   5.012
 1701SOL    HW1 6002   6.163   3.042   5.071
 1701SOL    HW2 6003   6.300   2.958   5.041
 1702SOL     OW 6004   4.658   2.740   1.937
 1702SOL    HW1 6005   4.563   2.736   1.904
 1702SOL    HW2 6006   4.686   2.835   1.946
 1703SOL     OW 6007   1.503   3.774   0.066
 1703SOL    HW1 6008   1.457   3.732   0.145
 1703SOL    HW2 6009   1.456   3.859   0.042
 1704SOL     OW 6010   0.142   1.060   1.797
 1704SOL    HW1 6011   0.109   1.143   1.842
 1704SOL    HW2 6012   0.228   1.031   1.840
 1705SOL     OW 6013   4.008   3.092   2.892
 1705SOL    HW1 6014   4.012   3.071   2.794
 1705SOL    HW2 6015   3.920   3.063   2.929
 1706SOL     OW 6016   2.496   0.522   6.374
 1706SOL    HW1 6017   2.460   0.453   6.437
 1706SOL    HW2 6018   2.587   0.550   6.404
 1707SOL     OW 6019   4.938   1.283   2.866
 1707SOL    HW1 6020   4.910   1.237   2.782
 1707SOL    HW2 6021   4.937   1.218   2.942
 1708SOL     OW 6022   0.060   4.457   1.518
 1708SOL    HW1 6023   0.155   4.454   1.486
 1708SOL    HW2 6024   7.029   4.469   1.440
 1709SOL     OW 6025   2.529   5.294   5.002
 1709SOL    HW1 6026   2.524   5.277   5.101
 1709SOL    HW2 6027   2.625   5.312   4.977
 1710SOL     OW 6028   6.799   5.314   4.078
 1710SOL    HW1 6029   6.819   5.357   4.166
 1710SOL    HW2 6030   6.713   5.351   4.042
 1711SOL     OW 6031   1.770   4.195   5.353
 1711SOL    HW1 6032   1.857   4.163   5.316
 1711SOL    HW2 6033   1.698   4.182   5.284
 1712SOL     OW 6034   2.069   4.871   1.644
 1712SOL    HW1 6035   2.143   4.912   1.591
 1712SOL    HW2 6036   1.981   4.895   1.603
 1713SOL     OW 6037   1.784   3.207   0.887
 1713SOL    HW1 6038   1.843   3.215   0.807
 1713SOL    HW2 6039   1.816   3.132   0.944
 1714SOL     OW 6040   4.100   1.002   1.693
 1714SOL    HW1 6041   4.185   0.986   1.643
 1714SOL    HW2 6042   4.119   1.057   1.775
 1715SOL     OW 6043   0.536   3.093   3.607
 1715SOL    HW1 6044   0.624   3.117   3.649
 1715SOL    HW2 6045   0.534   3.123   3.512
 1716SOL     OW 6046   0.466   0.297   6.998
 1716SOL    HW1 6047   0.418   0.250   6.923
 1716SOL    HW2 6048   0.503   0.383   6.964
 1717SOL     OW 6049   3.086   0.046   6.891
 1717SOL    HW1 6050   3.110   0.036   6.988
 1717SOL    HW2 6051   3.098   0.141   6.864
 1718SOL     OW 6052   1.788   4.501   5.182
 1718SOL    HW1 6053   1.830   4.461   5.101
 1718SOL    HW2 6054   1.689   4.494   5.175
 1719SOL     OW 6055   2.134   3.709   1.504
 1719SOL    HW1 6056   2.188   3.669   1.429
 1719SOL    HW2 6057   2.041   3.727   1.472
 1720SOL     OW 6058   6.706   1.649   2.358
 1720SOL    HW1 6059   6.804   1.670   2.357
 1720SOL    HW2 6060   6.659   1.712   2.420
 1721SOL     OW 6061   1.532   6.207   4.322
 1721SOL    HW1 6062   1.593   6.280   4.293
 1721SOL    HW2 6063   1.564   6.120   4.284
 1722SOL     OW 6064   5.669   0.231   1.798
 1722SOL    HW1 6065   5.765   0.222   1.822
 1722SOL    HW2 6066   5.624   0.142   1.808
 1723SOL     OW 6067   5.757   1.089   2.614
 1723SOL    HW1 6068   5.820   1.104   2.690
 1723SOL    HW2 6069   5.678   1.038   2.646
 1724SOL     OW 6070   5.438   0.389   0.097
 1724SOL    HW1 6071   5.344   0.413   0.120
 1724SOL    HW2 6072   5.448   0.290   0.094
 1725SOL     OW 6073   3.634   5.650   2.152
 1725SOL    HW1 6074   3.708   5.583   2.146
 1725SOL    HW2 6075   3.599   5.652   2.245
 1726SOL     OW 6076   6.744   3.627   4.671
 1726SOL    HW1 6077   6.825   3.590   4.625
 1726SOL    HW2 6078   6.762   3.636   4.769
 1727SOL     OW 6079   2.759   3.420   5.302
 1727SOL    HW1 6080   2.751   3.518   5.318
 1727SOL    HW2 6081   2.844   3.402   5.253
 1728SOL     OW 6082   4.335   5.054   3.649
 1728SOL    HW1 6083   4.341   4.954   3.647
 1728SOL    HW2 6084   4.310   5.084   3.741
 1729SOL     OW 6085   1.451   3.566   2.173
 1729SOL    HW1 6086   1.541   3.523   2.170
 1729SOL    HW2 6087   1.460   3.659   2.211
 1730SOL     OW 6088   5.644   2.152   4.664
 1730SOL    HW1 6089   5.548   2.124   4.676
 1730SOL    HW2 6090   5.653   2.249   4.684
 1731SOL     OW 6091   0.089   6.689   0.709
 1731SOL    HW1 6092   0.089   6.771   0.766
 1731SOL    HW2 6093   0.078   6.608   0.766
 1732SOL     OW 6094   0.598   4.408   6.823
 1732SOL    HW1 6095   0.637   4.371   6.739
 1732SOL    HW2 6096   0.511   4.363   6.842
 1733SOL     OW 6097   0.888   3.919   7.022
 1733SOL    HW1 6098   0.863   3.951   0.083
 1733SOL    HW2 6099   0.842   3.831   7.004
 1734SOL     OW 6100   5.014   3.935   1.540
 1734SOL    HW1 6101   4.934   3.940   1.481
 1734SOL    HW2 6102   5.076   3.864   1.508
 1735SOL     OW 6103   5.174   5.827   0.376
 1735SOL    HW1 6104   5.151   5.761   0.304
 1735SOL    HW2 6105   5.273   5.832   0.386
 1736SOL     OW 6106   2.997   3.594   0.175
 1736SOL    HW1 6107   3.045   3.552   0.252
 1736SOL    HW2 6108   2.909   3.549   0.161
 1737SOL     OW 6109   0.646   5.462   3.496
 1737SOL    HW1 6110   0.642   5.562   3.494
 1737SOL    HW2 6111   0.740   5.432   3.510
 1738SOL     OW 6112   1.132   1.480   1.790
 1738SOL    HW1 6113   1.054   1.517   1.841
 1738SOL    HW2 6114   1.155   1.390   1.826
 1739SOL     OW 6115   4.152   2.554   6.221
 1739SOL    HW1 6116   4.237   2.573   6.270
 1739SOL    HW2 6117   4.074   2.572   6.282
 1740SOL     OW 6118   0.796   1.271   5.521
 1740SOL    HW1 6119   0.842   1.360   5.518
 1740SOL    HW2 6120   0.851   1.205   5.470
 1741SOL     OW 6121   2.180   1.280   2.310
 1741SOL    HW1 6122   2.198   1.196   2.258
 1741SOL    HW2 6123   2.260   1.340   2.303
 1742SOL     OW 6124   5.768   6.519   4.158
 1742SOL    HW1 6125   5.696   6.547   4.094
 1742SOL    HW2 6126   5.842   6.474   4.107
 1743SOL     OW 6127   4.832   1.217   0.635
 1743SOL    HW1 6128   4.768   1.143   0.616
 1743SOL    HW2 6129   4.924   1.179   0.644
 1744SOL     OW 6130   3.129   6.059   1.869
 1744SOL    HW1 6131   3.187   6.114   1.810
 1744SOL    HW2 6132   3.033   6.079   1.850
 1745SOL     OW 6133   6.949   3.460   5.045
 1745SOL    HW1 6134   0.010   3.421   5.061
 1745SOL    HW2 6135   6.912   3.494   5.131
 1746SOL     OW 6136   2.673   0.963   5.788
 1746SOL    HW1 6137   2.643   1.058   5.778
 1746SOL    HW2 6138   2.646   0.928   5.877
 1747SOL     OW 6139   5.161   6.488   5.371
 1747SOL    HW1 6140   5.224   6.519   5.300
 1747SOL    HW2 6141   5.184   6.394   5.398
 1748SOL     OW 6142   5.660   1.243   1.271
 1748SOL    HW1 6143   5.607   1.213   1.192
 1748SOL    HW2 6144   5.753   1.206   1.265
 1749SOL     OW 6145   4.526   6.804   6.082
 1749SOL    HW1 6146   4.596   6.735   6.100
 1749SOL    HW2 6147   4.442   6.759   6.053
 1750SOL     OW 6148   4.961   0.116   4.377
 1750SOL    HW1 6149   5.060   0.118   4.361
 1750SOL    HW2 6150   4.939   0.167   4.460
 1751SOL     OW 6151   2.006   5.844   4.099
 1751SOL    HW1 6152   1.920   5.795   4.116
 1751SOL    HW2 6153   2.024   5.847   4.001
 1752SOL     OW 6154   6.914   1.846   6.319
 1752SOL    HW1 6155   6.898   1.901   6.237
 1752SOL    HW2 6156   6.992   1.785   6.305
 1753SOL     OW 6157   2.836   6.364   2.511
 1753SOL    HW1 6158   2.763   6.303   2.480
 1753SOL    HW2 6159   2.841   6.361   2.611
 1754SOL     OW 6160   3.543   2.911   1.945
 1754SOL    HW1 6161   3.457   2.904   1.896
 1754SOL    HW2 6162   3.613   2.856   1.900
 1755SOL     OW 6163   6.176   4.297   0.394
 1755SOL    HW1 6164   6.238   4.364   0.355
 1755SOL    HW2 6165   6.194   4.288   0.492
 1756SOL     OW 6166   5.720   5.589   4.573
 1756SOL    HW1 6167   5.701   5.662   4.638
 1756SOL    HW2 6168   5.648   5.585   4.505
 1757SOL     OW 6169   3.516   0.731   5.312
 1757SOL    HW1 6170   3.502   0.814   5.365
 1757SOL    HW2 6171   3.613   0.722   5.287
 1758SOL     OW 6172   3.120   1.794   3.298
 1758SOL    HW1 6173   3.211   1.753   3.302
 1758SOL    HW2 6174   3.065   1.748   3.229
 1759SOL     OW 6175   0.514   5.320   6.193
 1759SOL    HW1 6176   0.593   5.377   6.169
 1759SOL    HW2 6177   0.454   5.371   6.254
 1760SOL     OW 6178   4.714   0.009   2.147
 1760SOL    HW1 6179   4.737   0.097   2.104
 1760SOL    HW2 6180   4.722   6.966   2.080
 1761SOL     OW 6181   5.956   2.975   1.764
 1761SOL    HW1 6182   5.946   3.067   1.726
 1761SOL    HW2 6183   5.895   2.912   1.717
 1762SOL     OW 6184   5.561   2.994   0.569
 1762SOL    HW1 6185   5.480   2.938   0.589
 1762SOL    HW2 6186   5.643   2.941   0.589
 1763SOL     OW 6187   1.979   2.945   3.835
 1763SOL    HW1 6188   1.972   2.864   3.776
 1763SOL    HW2 6189   2.015   2.918   3.924
 1764SOL     OW 6190   6.530   3.371   4.397
 1764SOL    HW1 6191   6.441   3.326   4.400
 1764SOL    HW2 6192   6.593   3.317   4.340
 1765SOL     OW 6193   2.380   3.990   6.064
 1765SOL    HW1 6194   2.296   3.987   6.009
 1765SOL    HW2 6195   2.365   3.942   6.150
 1766SOL     OW 6196   5.838   3.347   6.009
 1766SOL    HW1 6197   5.859   3.252   5.984
 1766SOL    HW2 6198   5.900   3.376   6.082
 1767SOL     OW 6199   6.426   4.687   1.778
 1767SOL    HW1 6200   6.512   4.675   1.827
 1767SOL    HW2 6201   6.443   4.739   1.694
 1768SOL     OW 6202   6.458   6.817   3.257
 1768SOL    HW1 6203   6.436   6.812   3.354
 1768SOL    HW2 6204   6.393   6.877   3.211
 1769SOL     OW 6205   5.199   0.738   3.518
 1769SOL    HW1 6206   5.106   0.701   3.510
 1769SOL    HW2 6207   5.259   0.668   3.557
 1770SOL     OW 6208   3.451   5.711   5.392
 1770SOL    HW1 6209   3.447   5.745   5.299
 1770SOL    HW2 6210   3.359   5.695   5.427
 1771SOL     OW 6211   4.537   6.749   6.697
 1771SOL    HW1 6212   4.513   6.652   6.700
 1771SOL    HW2 6213   4.556   6.781   6.789
 1772SOL     OW 6214   3.380   6.001   3.214
 1772SOL    HW1 6215   3.293   6.013   3.166
 1772SOL    HW2 6216   3.371   6.032   3.309
 1773SOL     OW 6217   0.723   0.068   0.412
 1773SOL    HW1 6218   0.676   0.145   0.454
 1773SOL    HW2 6219   0.814   0.096   0.383
 1774SOL     OW 6220   2.714   4.821   2.656
 1774SOL    HW1 6221   2.793   4.841   2.713
 1774SOL    HW2 6222   2.637   4.877   2.685
 1775SOL     OW 6223   0.607   4.047   1.546
 1775SOL    HW1 6224   0.679   4.011   1.487
 1775SOL    HW2 6225   0.604   3.993   1.631
 1776SOL     OW 6226   3.041   6.643   5.744
 1776SOL    HW1 6227   2.952   6.682   5.723
 1776SOL    HW2 6228   3.045   6.619   5.841
 1777SOL     OW 6229   3.230   6.343   0.429
 1777SOL    HW1 6230   3.144   6.292   0.431
 1777SOL    HW2 6231   3.242   6.386   0.339
 1778SOL     OW 6232   0.003   3.420   5.747
 1778SOL    HW1 6233   0.059   3.440   5.827
 1778SOL    HW2 6234   0.032   3.333   5.707
 1779SOL     OW 6235   4.000   0.511   5.617
 1779SOL    HW1 6236   3.986   0.557   5.705
 1779SOL    HW2 6237   3.921   0.528   5.559
 1780SOL     OW 6238   2.987   3.555   6.600
 1780SOL    HW1 6239   2.895   3.536   6.565
 1780SOL    HW2 6240   2.982   3.627   6.669
 1781SOL     OW 6241   3.185   5.559   3.768
 1781SOL    HW1 6242   3.225   5.589   3.682
 1781SOL    HW2 6243   3.239   5.485   3.806
 1782SOL     OW 6244   3.122   1.742   4.427
 1782SOL    HW1 6245   3.170   1.686   4.359
 1782SOL    HW2 6246   3.096   1.829   4.386
 1783SOL     OW 6247   1.890   5.780   6.392
 1783SOL    HW1 6248   1.988   5.798   6.386
 1783SOL    HW2 6249   1.873   5.683   6.378
 1784SOL     OW 6250   3.398   0.486   6.196
 1784SOL    HW1 6251   3.480   0.430   6.187
 1784SOL    HW2 6252   3.412   0.574   6.150
 1785SOL     OW 6253   6.759   5.146   1.778
 1785SOL    HW1 6254   6.667   5.108   1.780
 1785SOL    HW2 6255   6.763   5.226   1.838
 1786SOL     OW 6256   4.079   2.366   1.353
 1786SOL    HW1 6257   4.027   2.448   1.328
 1786SOL    HW2 6258   4.154   2.354   1.288
 1787SOL     OW 6259   3.840   0.915   5.487
 1787SOL    HW1 6260   3.771   0.868   5.542
 1787SOL    HW2 6261   3.853   0.866   5.401
 1788SOL     OW 6262   1.544   4.861   5.919
 1788SOL    HW1 6263   1.526   4.768   5.952
 1788SOL    HW2 6264   1.457   4.907   5.899
 1789SOL     OW 6265   5.741   0.037   0.294
 1789SOL    HW1 6266   5.819   7.026   0.248
 1789SOL    HW2 6267   5.686   0.087   0.228
 1790SOL     OW 6268   2.991   6.651   2.930
 1790SOL    HW1 6269   3.073   6.679   2.980
 1790SOL    HW2 6270   3.016   6.585   2.859
 1791SOL     OW 6271   0.279   6.440   2.623
 1791SOL    HW1 6272   0.254   6.353   2.580
 1791SOL    HW2 6273   0.262   6.515   2.559
 1792SOL     OW 6274   1.144   3.766   4.325
 1792SOL    HW1 6275   1.120   3.808   4.237
 1792SOL    HW2 6276   1.153   3.837   4.395
 1793SOL     OW 6277   6.946   0.866   3.335
 1793SOL    HW1 6278   7.029   0.920   3.317
 1793SOL    HW2 6279   6.879   0.922   3.383
 1794SOL     OW 6280   4.327   5.457   6.453
 1794SOL    HW1 6281   4.412   5.454   6.505
 1794SOL    HW2 6282   4.347   5.476   6.357
 1795SOL     OW 6283   0.803   2.789   0.112
 1795SOL    HW1 6284   0.747   2.809   0.193
 1795SOL    HW2 6285   0.743   2.777   0.032
 1796SOL     OW 6286   3.856   0.806   6.256
 1796SOL    HW1 6287   3.775   0.750   6.237
 1796SOL    HW2 6288   3.891   0.784   6.347
 1797SOL     OW 6289   0.584   1.024   1.459
 1797SOL    HW1 6290   0.681   1.007   1.440
 1797SOL    HW2 6291   0.529   0.951   1.418
 1798SOL     OW 6292   5.575   1.862   3.128
 1798SOL    HW1 6293   5.633   1.876   3.048
 1798SOL    HW2 6294   5.482   1.892   3.107
 1799SOL     OW 6295   2.278   2.170   0.108
 1799SOL    HW1 6296   2.282   2.089   0.167
 1799SOL    HW2 6297   2.360   2.172   0.050
 1800SOL     OW 6298   3.059   4.970   2.603
 1800SOL    HW1 6299   3.139   5.024   2.629
 1800SOL    HW2 6300   3.019   4.928   2.685
 1801SOL     OW 6301   5.518   6.737   0.629
 1801SOL    HW1 6302   5.570   6.817   0.597
 1801SOL    HW2 6303   5.567   6.653   0.606
 1802SOL     OW 6304   5.925   4.916   3.684
 1802SOL    HW1 6305   5.928   4.839   3.621
 1802SOL    HW2 6306   5.851   4.978   3.658
 1803SOL     OW 6307   5.563   5.291   1.389
 1803SOL    HW1 6308   5.612   5.314   1.304
 1803SOL    HW2 6309   5.602   5.207   1.427
 1804SOL     OW 6310   3.448   3.298   5.996
 1804SOL    HW1 6311   3.386   3.229   5.959
 1804SOL    HW2 6312   3.530   3.253   6.032
 1805SOL     OW 6313   5.766   3.316   6.584
 1805SOL    HW1 6314   5.760   3.219   6.606
 1805SOL    HW2 6315   5.805   3.327   6.492
 1806SOL     OW 6316   7.016   0.615   0.531
 1806SOL    HW1 6317   6.929   0.641   0.571
 1806SOL    HW2 6318   0.004   0.671   0.450
 1807SOL     OW 6319   6.191   2.232   5.710
 1807SOL    HW1 6320   6.277   2.183   5.696
 1807SOL    HW2 6321   6.121   2.167   5.742
 1808SOL     OW 6322   1.998   4.701   4.171
 1808SOL    HW1 6323   1.993   4.789   4.122
 1808SOL    HW2 6324   1.999   4.718   4.269
 1809SOL     OW 6325   3.822   0.820   6.562
 1809SOL    HW1 6326   3.784   0.733   6.530
 1809SOL    HW2 6327   3.845   0.812   6.659
 1810SOL     OW 6328   3.606   6.165   2.773
 1810SOL    HW1 6329   3.508   6.167   2.758
 1810SOL    HW2 6330   3.649   6.108   2.703
 1811SOL     OW 6331   6.062   5.792   2.573
 1811SOL    HW1 6332   6.114   5.815   2.656
 1811SOL    HW2 6333   6.041   5.694   2.573
 1812SOL     OW 6334   4.672   5.155   6.238
 1812SOL    HW1 6335   4.719   5.214   6.303
 1812SOL    HW2 6336   4.635   5.075   6.285
 1813SOL     OW 6337   6.799   5.362   5.205
 1813SOL    HW1 6338   6.882   5.417   5.201
 1813SOL    HW2 6339   6.820   5.273   5.245
 1814SOL     OW 6340   4.799   6.672   2.371
 1814SOL    HW1 6341   4.727   6.707   2.310
 1814SOL    HW2 6342   4.762   6.596   2.425
 1815SOL     OW 6343   0.388   1.218   2.423
 1815SOL    HW1 6344   0.316   1.280   2.393
 1815SOL    HW2 6345   0.410   1.237   2.519
 1816SOL     OW 6346   1.148   4.917   0.726
 1816SOL    HW1 6347   1.075   4.852   0.745
 1816SOL    HW2 6348   1.237   4.872   0.738
 1817SOL     OW 6349   1.355   5.867   1.727
 1817SOL    HW1 6350   1.320   5.960   1.739
 1817SOL    HW2 6351   1.404   5.838   1.810
 1818SOL     OW 6352   1.276   1.530   2.899
 1818SOL    HW1 6353   1.324   1.515   2.985
 1818SOL    HW2 6354   1.269   1.628   2.881
 1819SOL     OW 6355   0.685   4.082   2.501
 1819SOL    HW1 6356   0.669   4.125   2.589
 1819SOL    HW2 6357   0.740   4.142   2.443
 1820SOL     OW 6358   5.992   0.366   2.657
 1820SOL    HW1 6359   6.034   0.355   2.746
 1820SOL    HW2 6360   5.962   0.461   2.646
 1821SOL     OW 6361   1.747   1.817   3.552
 1821SOL    HW1 6362   1.791   1.736   3.514
 1821SOL    HW2 6363   1.816   1.871   3.601
 1822SOL     OW 6364   3.346   3.582   1.899
 1822SOL    HW1 6365   3.391   3.508   1.848
 1822SOL    HW2 6366   3.382   3.670   1.867
 1823SOL     OW 6367   4.158   0.299   2.617
 1823SOL    HW1 6368   4.167   0.251   2.530
 1823SOL    HW2 6369   4.065   0.337   2.624
 1824SOL     OW 6370   4.911   2.105   1.488
 1824SOL    HW1 6371   4.872   2.122   1.579
 1824SOL    HW2 6372   4.973   2.180   1.464
 1825SOL     OW 6373   0.996   0.678   1.752
 1825SOL    HW1 6374   0.978   0.719   1.663
 1825SOL    HW2 6375   1.082   0.628   1.749
 1826SOL     OW 6376   2.812   5.996   6.174
 1826SOL    HW1 6377   2.809   5.951   6.263
 1826SOL    HW2 6378   2.797   5.930   6.102
 1827SOL     OW 6379   6.337   0.018   1.409
 1827SOL    HW1 6380   6.247   0.060   1.415
 1827SOL    HW2 6381   6.327   6.951   1.390
 1828SOL     OW 6382   1.814   2.638   0.090
 1828SOL    HW1 6383   1.810   2.691   0.005
 1828SOL    HW2 6384   1.721   2.610   0.115
 1829SOL     OW 6385   6.118   5.103   2.070
 1829SOL    HW1 6386   6.122   5.189   2.018
 1829SOL    HW2 6387   6.200   5.095   2.127
 1830SOL     OW 6388   5.200   6.268   3.812
 1830SOL    HW1 6389   5.143   6.350   3.821
 1830SOL    HW2 6390   5.154   6.190   3.855
 1831SOL     OW 6391   5.454   0.586   3.631
 1831SOL    HW1 6392   5.537   0.633   3.600
 1831SOL    HW2 6393   5.471   0.488   3.636
 1832SOL     OW 6394   4.799   2.493   0.270
 1832SOL    HW1 6395   4.849   2.531   0.348
 1832SOL    HW2 6396   4.826   2.540   0.186
 1833SOL     OW 6397   5.479   1.669   5.772
 1833SOL    HW1 6398   5.488   1.680   5.871
 1833SOL    HW2 6399   5.560   1.705   5.726
 1834SOL     OW 6400   2.670   4.172   0.558
 1834SOL    HW1 6401   2.580   4.206   0.585
 1834SOL    HW2 6402   2.726   4.154   0.639
 1835SOL     OW 6403   1.367   4.900   6.649
 1835SOL    HW1 6404   1.315   4.885   6.733
 1835SOL    HW2 6405   1.459   4.865   6.661
 1836SOL     OW 6406   0.998   6.555   0.334
 1836SOL    HW1 6407   1.005   6.497   0.415
 1836SOL    HW2 6408   1.081   6.547   0.280
 1837SOL     OW 6409   0.908   2.419   5.076
 1837SOL    HW1 6410   0.848   2.453   5.003
 1837SOL    HW2 6411   0.893   2.473   5.158
 1838SOL     OW 6412   1.166   2.675   4.627
 1838SOL    HW1 6413   1.233   2.602   4.612
 1838SOL    HW2 6414   1.201   2.761   4.591
 1839SOL     OW 6415   0.405   1.211   6.542
 1839SOL    HW1 6416   0.496   1.183   6.573
 1839SOL    HW2 6417   0.392   1.308   6.561
 1840SOL     OW 6418   1.140   5.199   0.726
 1840SOL    HW1 6419   1.191   5.228   0.807
 1840SOL    HW2 6420   1.137   5.100   0.721
 1841SOL     OW 6421   1.504   2.944   3.252
 1841SOL    HW1 6422   1.487   2.864   3.195
 1841SOL    HW2 6423   1.426   2.960   3.312
 1842SOL     OW 6424   1.063   5.410   6.437
 1842SOL    HW1 6425   1.061   5.362   6.349
 1842SOL    HW2 6426   1.086   5.506   6.421
 1843SOL     OW 6427   4.158   2.270   4.772
 1843SOL    HW1 6428   4.063   2.251   4.750
 1843SOL    HW2 6429   4.163   2.320   4.859
 1844SOL     OW 6430   5.483   3.572   3.804
 1844SOL    HW1 6431   5.503   3.657   3.852
 1844SOL    HW2 6432   5.390   3.575   3.768
 1845SOL     OW 6433   4.410   6.433   0.679
 1845SOL    HW1 6434   4.430   6.337   0.695
 1845SOL    HW2 6435   4.327   6.459   0.729
 1846SOL     OW 6436   3.687   1.646   5.639
 1846SOL    HW1 6437   3.696   1.637   5.539
 1846SOL    HW2 6438   3.777   1.634   5.681
 1847SOL     OW 6439   1.461   6.789   6.956
 1847SOL    HW1 6440   1.449   6.728   6.878
 1847SOL    HW2 6441   1.520   6.745   7.024
 1848SOL     OW 6442   2.368   0.173   2.816
 1848SOL    HW1 6443   2.311   0.241   2.862
 1848SOL    HW2 6444   2.408   0.112   2.884
 1849SOL     OW 6445   3.165   0.822   6.731
 1849SOL    HW1 6446   3.077   0.792   6.765
 1849SOL    HW2 6447   3.195   0.762   6.657
 1850SOL     OW 6448   5.093   1.826   1.753
 1850SOL    HW1 6449   5.022   1.800   1.819
 1850SOL    HW2 6450   5.162   1.754   1.747
 1851SOL     OW 6451   6.327   3.800   3.111
 1851SOL    HW1 6452   6.273   3.872   3.155
 1851SOL    HW2 6453   6.304   3.795   3.014
 1852SOL     OW 6454   4.837   2.513   5.913
 1852SOL    HW1 6455   4.881   2.468   5.990
 1852SOL    HW2 6456   4.878   2.481   5.828
 1853SOL     OW 6457   1.085   4.389   0.573
 1853SOL    HW1 6458   1.061   4.422   0.481
 1853SOL    HW2 6459   1.001   4.369   0.624
 1854SOL     OW 6460   2.747   5.388   3.857
 1854SOL    HW1 6461   2.783   5.479   3.876
 1854SOL    HW2 6462   2.651   5.384   3.882
 1855SOL     OW 6463   6.060   4.604   2.349
 1855SOL    HW1 6464   6.047   4.524   2.290
 1855SOL    HW2 6465   6.016   4.683   2.307
 1856SOL     OW 6466   5.049   3.209   6.685
 1856SOL    HW1 6467   5.057   3.215   6.585
 1856SOL    HW2 6468   4.961   3.247   6.713
 1857SOL     OW 6469   4.585   1.364   3.459
 1857SOL    HW1 6470   4.532   1.378   3.543
 1857SOL    HW2 6471   4.671   1.414   3.465
 1858SOL     OW 6472   5.783   3.637   2.950
 1858SOL    HW1 6473   5.686   3.636   2.924
 1858SOL    HW2 6474   5.801   3.714   3.011
 1859SOL     OW 6475   5.730   1.366   2.880
 1859SOL    HW1 6476   5.755   1.438   2.945
 1859SOL    HW2 6477   5.806   1.303   2.869
 1860SOL     OW 6478   3.832   2.082   5.120
 1860SOL    HW1 6479   3.817   2.179   5.137
 1860SOL    HW2 6480   3.929   2.061   5.133
 1861SOL     OW 6481   5.590   5.884   2.266
 1861SOL    HW1 6482   5.684   5.848   2.266
 1861SOL    HW2 6483   5.569   5.922   2.176
 1862SOL     OW 6484   1.963   1.757   0.553
 1862SOL    HW1 6485   1.934   1.673   0.597
 1862SOL    HW2 6486   1.913   1.835   0.592
 1863SOL     OW 6487   2.112   2.631   1.420
 1863SOL    HW1 6488   2.175   2.587   1.484
 1863SOL    HW2 6489   2.069   2.561   1.361
 1864SOL     OW 6490   0.678   6.714   3.028
 1864SOL    HW1 6491   0.741   6.695   3.104
 1864SOL    HW2 6492   0.726   6.767   2.958
 1865SOL     OW 6493   5.060   2.357   6.798
 1865SOL    HW1 6494   5.072   2.428   6.868
 1865SOL    HW2 6495   5.090   2.269   6.834
 1866SOL     OW 6496   5.015   5.204   2.604
 1866SOL    HW1 6497   4.966   5.177   2.521
 1866SOL    HW2 6498   5.039   5.123   2.657
 1867SOL     OW 6499   0.633   4.902   6.734
 1867SOL    HW1 6500   0.647   4.816   6.783
 1867SOL    HW2 6501   0.687   4.902   6.650
 1868SOL     OW 6502   6.767   4.128   5.694
 1868SOL    HW1 6503   6.841   4.060   5.698
 1868SOL    HW2 6504   6.789   4.196   5.625
 1869SOL     OW 6505   6.478   1.571   4.627
 1869SOL    HW1 6506   6.506   1.583   4.531
 1869SOL    HW2 6507   6.380   1.590   4.636
 1870SOL     OW 6508   2.421   4.417   4.544
 1870SOL    HW1 6509   2.455   4.337   4.593
 1870SOL    HW2 6510   2.460   4.500   4.584
 1871SOL     OW 6511   1.490   0.397   0.689
 1871SOL    HW1 6512   1.582   0.387   0.726
 1871SOL    HW2 6513   1.423   0.361   0.754
 1872SOL     OW 6514   2.473   5.059   6.775
 1872SOL    HW1 6515   2.570   5.041   6.762
 1872SOL    HW2 6516   2.450   5.054   6.872
 1873SOL     OW 6517   5.346   0.604   0.404
 1873SOL    HW1 6518   5.436   0.644   0.420
 1873SOL    HW2 6519   5.354   0.504   0.404
 1874SOL     OW 6520   0.864   4.231   2.372
 1874SOL    HW1 6521   0.898   4.139   2.353
 1874SOL    HW2 6522   0.942   4.292   2.389
 1875SOL     OW 6523   1.263   0.186   1.437
 1875SOL    HW1 6524   1.179   0.207   1.386
 1875SOL    HW2 6525   1.320   0.267   1.441
 1876SOL     OW 6526   2.283   6.933   3.943
 1876SOL    HW1 6527   2.204   6.884   3.980
 1876SOL    HW2 6528   2.255   7.025   3.916
 1877SOL     OW 6529   0.284   0.057   3.570
 1877SOL    HW1 6530   0.232   0.038   3.653
 1877SOL    HW2 6531   0.327   0.147   3.578
 1878SOL     OW 6532   6.088   2.559   5.729
 1878SOL    HW1 6533   6.085   2.531   5.633
 1878SOL    HW2 6534   6.073   2.658   5.735
 1879SOL     OW 6535   1.928   4.738   5.853
 1879SOL    HW1 6536   1.900   4.772   5.763
 1879SOL    HW2 6537   1.915   4.639   5.856
 1880SOL     OW 6538   6.156   0.318   4.980
 1880SOL    HW1 6539   6.123   0.303   5.073
 1880SOL    HW2 6540   6.159   0.417   4.962
 1881SOL     OW 6541   0.202   2.752   0.015
 1881SOL    HW1 6542   0.236   2.804   6.967
 1881SOL    HW2 6543   0.141   2.810   0.070
 1882SOL     OW 6544   1.400   6.417   6.938
 1882SOL    HW1 6545   1.348   6.375   6.864
 1882SOL    HW2 6546   1.348   6.408   7.023
 1883SOL     OW 6547   0.485   1.995   4.064
 1883SOL    HW1 6548   0.523   2.081   4.030
 1883SOL    HW2 6549   0.394   2.013   4.103
 1884SOL     OW 6550   0.361   2.197   1.244
 1884SOL    HW1 6551   0.263   2.179   1.249
 1884SOL    HW2 6552   0.377   2.296   1.244
 1885SOL     OW 6553   2.127   1.134   4.671
 1885SOL    HW1 6554   2.154   1.130   4.574
 1885SOL    HW2 6555   2.166   1.216   4.713
 1886SOL     OW 6556   0.602   6.535   3.399
 1886SOL    HW1 6557   0.597   6.625   3.441
 1886SOL    HW2 6558   0.520   6.519   3.344
 1887SOL     OW 6559   2.842   6.278   6.134
 1887SOL    HW1 6560   2.938   6.303   6.146
 1887SOL    HW2 6561   2.834   6.178   6.133
 1888SOL     OW 6562   2.730   0.569   3.499
 1888SOL    HW1 6563   2.732   0.469   3.498
 1888SOL    HW2 6564   2.646   0.600   3.544
 1889SOL     OW 6565   0.591   3.554   2.801
 1889SOL    HW1 6566   0.508   3.564   2.746
 1889SOL    HW2 6567   0.569   3.570   2.897
 1890SOL     OW 6568   1.235   6.230   4.882
 1890SOL    HW1 6569   1.271   6.170   4.954
 1890SOL    HW2 6570   1.311   6.283   4.842
 1891SOL     OW 6571   3.170   3.446   3.295
 1891SOL    HW1 6572   3.171   3.506   3.375
 1891SOL    HW2 6573   3.075   3.423   3.271
 1892SOL     OW 6574   0.913   0.286   2.557
 1892SOL    HW1 6575   0.888   0.190   2.564
 1892SOL    HW2 6576   0.831   0.341   2.541
 1893SOL     OW 6577   4.162   3.428   4.305
 1893SOL    HW1 6578   4.083   3.461   4.253
 1893SOL    HW2 6579   4.189   3.497   4.373
 1894SOL     OW 6580   3.274   3.660   4.205
 1894SOL    HW1 6581   3.341   3.586   4.214
 1894SOL    HW2 6582   3.257   3.701   4.294
 1895SOL     OW 6583   1.950   5.931   6.932
 1895SOL    HW1 6584   1.972   5.839   6.900
 1895SOL    HW2 6585   1.869   5.964   6.884
 1896SOL     OW 6586   6.536   2.411   1.667
 1896SOL    HW1 6587   6.467   2.481   1.649
 1896SOL    HW2 6588   6.540   2.348   1.589
 1897SOL     OW 6589   1.331   4.561   4.234
 1897SOL    HW1 6590   1.380   4.561   4.147
 1897SOL    HW2 6591   1.297   4.654   4.252
 1898SOL     OW 6592   1.627   6.144   3.026
 1898SOL    HW1 6593   1.614   6.234   2.985
 1898SOL    HW2 6594   1.662   6.080   2.958
 1899SOL     OW 6595   0.103   1.094   2.407
 1899SOL    HW1 6596   0.048   1.054   2.480
 1899SOL    HW2 6597   0.173   1.028   2.378
 1900SOL     OW 6598   2.728   6.933   6.667
 1900SOL    HW1 6599   2.790   6.926   6.589
 1900SOL    HW2 6600   2.634   6.939   6.634
 1901SOL     OW 6601   2.807   3.545   1.853
 1901SOL    HW1 6602   2.768   3.630   1.818
 1901SOL    HW2 6603   2.902   3.537   1.822
 1902SOL     OW 6604   1.249   6.702   4.898
 1902SOL    HW1 6605   1.313   6.740   4.964
 1902SOL    HW2 6606   1.297   6.640   4.836
 1903SOL     OW 6607   0.936   1.883   4.379
 1903SOL    HW1 6608   0.948   1.852   4.284
 1903SOL    HW2 6609   1.025   1.913   4.415
 1904SOL     OW 6610   5.671   5.972   1.813
 1904SOL    HW1 6611   5.673   5.957   1.714
 1904SOL    HW2 6612   5.764   5.983   1.847
 1905SOL     OW 6613   0.747   1.613   3.989
 1905SOL    HW1 6614   0.718   1.520   3.969
 1905SOL    HW2 6615   0.825   1.612   4.052
 1906SOL     OW 6616   0.959   6.131   4.405
 1906SOL    HW1 6617   0.945   6.206   4.341
 1906SOL    HW2 6618   0.989   6.049   4.355
 1907SOL     OW 6619   5.229   3.200   0.592
 1907SOL    HW1 6620   5.261   3.144   0.516
 1907SOL    HW2 6621   5.302   3.210   0.659
 1908SOL     OW 6622   3.843   0.510   1.598
 1908SOL    HW1 6623   3.883   0.555   1.519
 1908SOL    HW2 6624   3.822   0.578   1.668
 1909SOL     OW 6625   6.396   5.548   4.682
 1909SOL    HW1 6626   6.464   5.576   4.613
 1909SOL    HW2 6627   6.304   5.574   4.650
 1910SOL     OW 6628   0.502   6.362   5.772
 1910SOL    HW1 6629   0.588   6.343   5.821
 1910SOL    HW2 6630   0.458   6.443   5.813
 1911SOL     OW 6631   5.990   6.088   4.088
 1911SOL    HW1 6632   6.077   6.130   4.111
 1911SOL    HW2 6633   6.003   6.020   4.016
 1912SOL     OW 6634   3.620   4.928   2.251
 1912SOL    HW1 6635   3.621   5.024   2.280
 1912SOL    HW2 6636   3.540   4.912   2.193
 1913SOL     OW 6637   3.236   4.216   6.729
 1913SOL    HW1 6638   3.226   4.135   6.787
 1913SOL    HW2 6639   3.182   4.205   6.646
 1914SOL     OW 6640   3.661   4.050   0.064
 1914SOL    HW1 6641   3.654   3.985   0.140
 1914SOL    HW2 6642   3.614   4.013   7.014
 1915SOL     OW 6643   3.229   3.088   6.855
 1915SOL    HW1 6644   3.165   3.045   6.917
 1915SOL    HW2 6645   3.186   3.167   6.812
 1916SOL     OW 6646   4.508   0.676   2.421
 1916SOL    HW1 6647   4.435   0.608   2.421
 1916SOL    HW2 6648   4.534   0.697   2.327
 1917SOL     OW 6649   2.007   4.363   1.585
 1917SOL    HW1 6650   2.030   4.310   1.667
 1917SOL    HW2 6651   1.963   4.449   1.611
 1918SOL     OW 6652   5.643   2.357   3.623
 1918SOL    HW1 6653   5.643   2.377   3.525
 1918SOL    HW2 6654   5.733   2.324   3.651
 1919SOL     OW 6655   6.040   2.192   6.103
 1919SOL    HW1 6656   6.133   2.181   6.069
 1919SOL    HW2 6657   6.038   2.264   6.172
 1920SOL     OW 6658   4.395   2.902   0.513
 1920SOL    HW1 6659   4.418   2.885   0.417
 1920SOL    HW2 6660   4.477   2.929   0.562
 1921SOL     OW 6661   2.378   2.094   0.427
 1921SOL    HW1 6662   2.356   2.019   0.364
 1921SOL    HW2 6663   2.317   2.090   0.507
 1922SOL     OW 6664   3.170   3.024   3.828
 1922SOL    HW1 6665   3.134   3.115   3.848
 1922SOL    HW2 6666   3.130   2.958   3.891
 1923SOL     OW 6667   3.179   0.509   4.208
 1923SOL    HW1 6668   3.171   0.602   4.173
 1923SOL    HW2 6669   3.273   0.477   4.200
 1924SOL     OW 6670   5.212   0.953   0.823
 1924SOL    HW1 6671   5.268   1.021   0.776
 1924SOL    HW2 6672   5.264   0.868   0.832
 1925SOL     OW 6673   1.013   4.221   1.152
 1925SOL    HW1 6674   1.029   4.248   1.057
 1925SOL    HW2 6675   1.078   4.269   1.211
 1926SOL     OW 6676   3.799   7.003   1.569
 1926SOL    HW1 6677   3.845   0.049   1.614
 1926SOL    HW2 6678   3.855   6.971   1.492
 1927SOL     OW 6679   2.226   5.785   1.312
 1927SOL    HW1 6680   2.176   5.867   1.284
 1927SOL    HW2 6681   2.162   5.708   1.316
 1928SOL     OW 6682   6.796   4.767   2.311
 1928SOL    HW1 6683   6.750   4.771   2.222
 1928SOL    HW2 6684   6.802   4.672   2.342
 1929SOL     OW 6685   3.522   7.011   3.302
 1929SOL    HW1 6686   3.573   6.970   3.378
 1929SOL    HW2 6687   3.495   0.074   3.325
 1930SOL     OW 6688   3.554   3.167   0.335
 1930SOL    HW1 6689   3.564   3.158   0.236
 1930SOL    HW2 6690   3.645   3.179   0.376
 1931SOL     OW 6691   6.932   2.766   4.036
 1931SOL    HW1 6692   6.896   2.679   4.069
 1931SOL    HW2 6693   7.022   2.752   3.994
 1932SOL     OW 6694   4.698   1.189   2.335
 1932SOL    HW1 6695   4.642   1.233   2.405
 1932SOL    HW2 6696   4.660   1.208   2.245
 1933SOL     OW 6697   1.558   1.190   1.220
 1933SOL    HW1 6698   1.605   1.157   1.302
 1933SOL    HW2 6699   1.516   1.113   1.172
 1934SOL     OW 6700   6.931   1.110   0.035
 1934SOL    HW1 6701   6.917   1.180   6.995
 1934SOL    HW2 6702   7.004   1.048   0.007
 1935SOL     OW 6703   5.809   5.284   3.549
 1935SOL    HW1 6704   5.786   5.331   3.464
 1935SOL    HW2 6705   5.769   5.192   3.548
 1936SOL     OW 6706   4.950   3.303   5.987
 1936SOL    HW1 6707   5.016   3.308   6.062
 1936SOL    HW2 6708   4.934   3.394   5.950
 1937SOL     OW 6709   6.753   4.854   6.783
 1937SOL    HW1 6710   6.665   4.900   6.789
 1937SOL    HW2 6711   6.778   4.816   6.872
 1938SOL     OW 6712   6.976   2.508   6.848
 1938SOL    HW1 6713   6.946   2.580   6.786
 1938SOL    HW2 6714   6.914   2.429   6.841
 1939SOL     OW 6715   0.497   0.239   4.262
 1939SOL    HW1 6716   0.441   0.230   4.345
 1939SOL    HW2 6717   0.438   0.260   4.185
 1940SOL     OW 6718   0.611   5.101   0.846
 1940SOL    HW1 6719   0.652   5.033   0.785
 1940SOL    HW2 6720   0.667   5.184   0.846
 1941SOL     OW 6721   5.972   1.176   4.737
 1941SOL    HW1 6722   5.906   1.165   4.663
 1941SOL    HW2 6723   5.974   1.272   4.767
 1942SOL     OW 6724   0.310   4.888   1.755
 1942SOL    HW1 6725   0.253   4.826   1.701
 1942SOL    HW2 6726   0.393   4.910   1.704
 1943SOL     OW 6727   0.829   3.187   3.696
 1943SOL    HW1 6728   0.864   3.150   3.611
 1943SOL    HW2 6729   0.874   3.143   3.774
 1944SOL     OW 6730   0.958   2.984   3.508
 1944SOL    HW1 6731   1.044   3.025   3.535
 1944SOL    HW2 6732   0.957   2.971   3.409
 1945SOL     OW 6733   5.277   1.635   1.688
 1945SOL    HW1 6734   5.320   1.622   1.778
 1945SOL    HW2 6735   5.279   1.549   1.638
 1946SOL     OW 6736   5.980   5.454   0.839
 1946SOL    HW1 6737   5.997   5.551   0.859
 1946SOL    HW2 6738   5.889   5.443   0.799
 1947SOL     OW 6739   6.112   5.137   2.866
 1947SOL    HW1 6740   6.014   5.135   2.850
 1947SOL    HW2 6741   6.135   5.076   2.942
 1948SOL     OW 6742   5.231   3.344   3.577
 1948SOL    HW1 6743   5.162   3.325   3.507
 1948SOL    HW2 6744   5.319   3.306   3.547
 1949SOL     OW 6745   3.517   4.187   6.709
 1949SOL    HW1 6746   3.417   4.179   6.717
 1949SOL    HW2 6747   3.559   4.097   6.724
 1950SOL     OW 6748   3.902   4.010   3.412
 1950SOL    HW1 6749   3.937   3.940   3.474
 1950SOL    HW2 6750   3.976   4.072   3.386
 1951SOL     OW 6751   6.221   5.437   5.659
 1951SOL    HW1 6752   6.231   5.380   5.578
 1951SOL    HW2 6753   6.306   5.489   5.674
 1952SOL     OW 6754   5.585   4.337   6.773
 1952SOL    HW1 6755   5.547   4.260   6.721
 1952SOL    HW2 6756   5.611   4.410   6.710
 1953SOL     OW 6757   0.991   0.923   0.282
 1953SOL    HW1 6758   1.003   1.019   0.258
 1953SOL    HW2 6759   1.047   0.867   0.220
 1954SOL     OW 6760   3.598   6.394   2.237
 1954SOL    HW1 6761   3.651   6.415   2.319
 1954SOL    HW2 6762   3.555   6.304   2.248
 1955SOL     OW 6763   6.369   2.536   4.372
 1955SOL    HW1 6764   6.303   2.503   4.304
 1955SOL    HW2 6765   6.429   2.604   4.330
 1956SOL     OW 6766   4.825   1.161   1.525
 1956SOL    HW1 6767   4.867   1.247   1.553
 1956SOL    HW2 6768   4.865   1.086   1.578
 1957SOL     OW 6769   6.483   2.740   4.583
 1957SOL    HW1 6770   6.492   2.733   4.484
 1957SOL    HW2 6771   6.544   2.811   4.617
 1958SOL     OW 6772   3.868   1.867   0.727
 1958SOL    HW1 6773   3.934   1.934   0.693
 1958SOL    HW2 6774   3.816   1.830   0.651
 1959SOL     OW 6775   1.412   1.487   5.948
 1959SOL    HW1 6776   1.480   1.500   6.020
 1959SOL    HW2 6777   1.441   1.533   5.865
 1960SOL     OW 6778   5.297   4.019   2.913
 1960SOL    HW1 6779   5.319   4.003   2.816
 1960SOL    HW2 6780   5.214   4.075   2.919
 1961SOL     OW 6781   0.467   3.816   4.330
 1961SOL    HW1 6782   0.555   3.796   4.287
 1961SOL    HW2 6783   0.414   3.876   4.270
 1962SOL     OW 6784   0.650   7.026   2.225
 1962SOL    HW1 6785   0.616   7.014   2.132
 1962SOL    HW2 6786   0.744   0.032   2.222
 1963SOL     OW 6787   0.946   3.003   7.024
 1963SOL    HW1 6788   0.945   2.977   6.928
 1963SOL    HW2 6789   0.919   2.925   0.051
 1964SOL     OW 6790   5.408   3.338   0.897
 1964SOL    HW1 6791   5.437   3.319   0.803
 1964SOL    HW2 6792   5.436   3.430   0.923
 1965SOL     OW 6793   6.151   4.394   3.862
 1965SOL    HW1 6794   6.123   4.300   3.842
 1965SOL    HW2 6795   6.238   4.413   3.816
 1966SOL     OW 6796   0.833   5.290   6.696
 1966SOL    HW1 6797   0.849   5.376   6.648
 1966SOL    HW2 6798   0.785   5.307   6.781
 1967SOL     OW 6799   6.865   3.141   5.367
 1967SOL    HW1 6800   6.768   3.122   5.386
 1967SOL    HW2 6801   6.881   3.239   5.376
 1968SOL     OW 6802   2.232   1.121   5.905
 1968SOL    HW1 6803   2.230   1.130   5.805
 1968SOL    HW2 6804   2.323   1.091   5.933
 1969SOL     OW 6805   1.012   5.566   0.813
 1969SOL    HW1 6806   1.081   5.551   0.742
 1969SOL    HW2 6807   0.922   5.574   0.771
 1970SOL     OW 6808   5.540   4.355   3.928
 1970SOL    HW1 6809   5.467   4.424   3.933
 1970SOL    HW2 6810   5.505   4.274   3.882
 1971SOL     OW 6811   1.725   4.820   4.605
 1971SOL    HW1 6812   1.732   4.909   4.561
 1971SOL    HW2 6813   1.641   4.775   4.576
 1972SOL     OW 6814   6.268   2.384   2.618
 1972SOL    HW1 6815   6.222   2.399   2.705
 1972SOL    HW2 6816   6.319   2.298   2.620
 1973SOL     OW 6817   3.461   2.192   1.061
 1973SOL    HW1 6818   3.507   2.203   0.973
 1973SOL    HW2 6819   3.425   2.099   1.068
 1974SOL     OW 6820   2.398   6.733   4.949
 1974SOL    HW1 6821   2.352   6.729   4.860
 1974SOL    HW2 6822   2.335   6.768   5.018
 1975SOL     OW 6823   1.875   2.898   2.508
 1975SOL    HW1 6824   1.885   2.849   2.421
 1975SOL    HW2 6825   1.959   2.947   2.528
 1976SOL     OW 6826   1.533   0.738   5.178
 1976SOL    HW1 6827   1.559   0.645   5.205
 1976SOL    HW2 6828   1.531   0.744   5.079
 1977SOL     OW 6829   1.119   3.765   6.536
 1977SOL    HW1 6830   1.092   3.808   6.450
 1977SOL    HW2 6831   1.163   3.833   6.595
 1978SOL     OW 6832   3.204   0.184   2.038
 1978SOL    HW1 6833   3.116   0.183   1.990
 1978SOL    HW2 6834   3.278   0.198   1.973
 1979SOL     OW 6835   5.536   4.362   6.436
 1979SOL    HW1 6836   5.443   4.355   6.473
 1979SOL    HW2 6837   5.548   4.453   6.395
 1980SOL     OW 6838   4.058   0.282   0.997
 1980SOL    HW1 6839   3.967   0.264   1.034
 1980SOL    HW2 6840   4.109   0.196   0.992
 1981SOL     OW 6841   4.295   2.126   2.439
 1981SOL    HW1 6842   4.304   2.225   2.429
 1981SOL    HW2 6843   4.230   2.091   2.372
 1982SOL     OW 6844   1.469   3.061   6.192
 1982SOL    HW1 6845   1.398   3.061   6.122
 1982SOL    HW2 6846   1.452   3.135   6.257
 1983SOL     OW 6847   0.024   1.295   1.912
 1983SOL    HW1 6848   6.966   1.262   1.879
 1983SOL    HW2 6849   0.026   1.290   2.012
 1984SOL     OW 6850   4.815   3.806   5.883
 1984SOL    HW1 6851   4.860   3.875   5.826
 1984SOL    HW2 6852   4.848   3.814   5.977
 1985SOL     OW 6853   6.244   4.303   4.118
 1985SOL    HW1 6854   6.202   4.354   4.043
 1985SOL    HW2 6855   6.173   4.271   4.180
 1986SOL     OW 6856   2.821   3.490   2.132
 1986SOL    HW1 6857   2.748   3.475   2.198
 1986SOL    HW2 6858   2.781   3.513   2.043
 1987SOL     OW 6859   2.514   0.940   2.137
 1987SOL    HW1 6860   2.558   0.959   2.224
 1987SOL    HW2 6861   2.534   1.014   2.072
 1988SOL     OW 6862   0.767   1.987   2.760
 1988SOL    HW1 6863   0.839   2.056   2.753
 1988SOL    HW2 6864   0.707   2.010   2.836
 1989SOL     OW 6865   2.909   5.527   4.983
 1989SOL    HW1 6866   3.009   5.520   4.992
 1989SOL    HW2 6867   2.878   5.611   5.026
 1990SOL     OW 6868   4.406   6.803   0.368
 1990SOL    HW1 6869   4.415   6.902   0.364
 1990SOL    HW2 6870   4.373   6.769   0.280
 1991SOL     OW 6871   2.069   5.640   2.114
 1991SOL    HW1 6872   2.067   5.556   2.168
 1991SOL    HW2 6873   2.148   5.638   2.053
 1992SOL     OW 6874   1.142   6.789   2.919
 1992SOL    HW1 6875   1.118   6.882   2.947
 1992SOL    HW2 6876   1.097   6.724   2.980
 1993SOL     OW 6877   1.858   1.842   2.525
 1993SOL    HW1 6878   1.903   1.753   2.516
 1993SOL    HW2 6879   1.926   1.915   2.518
 1994SOL     OW 6880   3.731   3.552   1.486
 1994SOL    HW1 6881   3.769   3.461   1.472
 1994SOL    HW2 6882   3.805   3.616   1.508
 1995SOL     OW 6883   5.958   1.645   4.320
 1995SOL    HW1 6884   6.052   1.646   4.285
 1995SOL    HW2 6885   5.912   1.729   4.292
 1996SOL     OW 6886   5.026   0.710   0.462
 1996SOL    HW1 6887   4.997   0.758   0.545
 1996SOL    HW2 6888   5.117   0.671   0.476
 1997SOL     OW 6889   3.873   1.164   3.744
 1997SOL    HW1 6890   3.945   1.154   3.674
 1997SOL    HW2 6891   3.784   1.172   3.699
 1998SOL     OW 6892   2.522   3.810   1.342
 1998SOL    HW1 6893   2.511   3.728   1.285
 1998SOL    HW2 6894   2.437   3.863   1.340
 1999SOL     OW 6895   0.801   0.008   6.635
 1999SOL    HW1 6896   0.712   6.992   6.631
 1999SOL    HW2 6897   0.819   0.039   6.728
 2000SOL     OW 6898   4.251   4.387   6.050
 2000SOL    HW1 6899   4.257   4.340   5.962
 2000SOL    HW2 6900   4.331   4.363   6.106
 2001SOL     OW 6901   1.461   2.330   0.958
 2001SOL    HW1 6902   1.432   2.248   1.007
 2001SOL    HW2 6903   1.557   2.348   0.978
 2002SOL     OW 6904   6.215   5.270   0.813
 2002SOL    HW1 6905   6.233   5.243   0.719
 2002SOL    HW2 6906   6.135   5.329   0.817
 2003SOL     OW 6907   6.084   5.561   1.300
 2003SOL    HW1 6908   5.984   5.564   1.301
 2003SOL    HW2 6909   6.120   5.652   1.279
 2004SOL     OW 6910   3.966   6.946   3.426
 2004SOL    HW1 6911   4.055   6.973   3.461
 2004SOL    HW2 6912   3.971   6.853   3.390
 2005SOL     OW 6913   1.450   6.605   0.294
 2005SOL    HW1 6914   1.482   6.688   0.247
 2005SOL    HW2 6915   1.500   6.594   0.380
 2006SOL     OW 6916   5.978   0.184   2.068
 2006SOL    HW1 6917   5.893   0.133   2.081
 2006SOL    HW2 6918   6.035   0.175   2.150
 2007SOL     OW 6919   5.706   5.087   5.920
 2007SOL    HW1 6920   5.716   5.033   6.003
 2007SOL    HW2 6921   5.608   5.098   5.899
 2008SOL     OW 6922   1.658   3.238   2.497
 2008SOL    HW1 6923   1.726   3.274   2.433
 2008SOL    HW2 6924   1.635   3.144   2.471
 2009SOL     OW 6925   6.279   0.024   2.622
 2009SOL    HW1 6926   6.271   0.112   2.576
 2009SOL    HW2 6927   6.206   0.015   2.690
 2010SOL     OW 6928   0.274   1.341   1.467
 2010SOL    HW1 6929   0.350   1.333   1.531
 2010SOL    HW2 6930   0.279   1.428   1.419
 2011SOL     OW 6931   0.854   6.942   4.736
 2011SOL    HW1 6932   0.898   6.967   4.822
 2011SOL    HW2 6933   0.755   6.955   4.745
 2012SOL     OW 6934   0.323   2.661   1.017
 2012SOL    HW1 6935   0.251   2.692   0.955
 2012SOL    HW2 6936   0.394   2.614   0.964
 2013SOL     OW 6937   0.917   2.599   2.398
 2013SOL    HW1 6938   1.015   2.584   2.412
 2013SOL    HW2 6939   0.885   2.543   2.321
 2014SOL     OW 6940   3.673   1.533   4.015
 2014SOL    HW1 6941   3.644   1.484   4.097
 2014SOL    HW2 6942   3.723   1.615   4.041
 2015SOL     OW 6943   3.701   6.258   2.005
 2015SOL    HW1 6944   3.643   6.330   2.043
 2015SOL    HW2 6945   3.645   6.193   1.954
 2016SOL     OW 6946   1.900   0.833   5.474
 2016SOL    HW1 6947   1.990   0.822   5.431
 2016SOL    HW2 6948   1.909   0.891   5.555
 2017SOL     OW 6949   2.746   6.421   4.226
 2017SOL    HW1 6950   2.689   6.501   4.242
 2017SOL    HW2 6951   2.737   6.392   4.131
 2018SOL     OW 6952   0.333   0.234   4.477
 2018SOL    HW1 6953   0.240   0.264   4.498
 2018SOL    HW2 6954   0.357   0.156   4.535
 2019SOL     OW 6955   6.562   4.966   7.009
 2019SOL    HW1 6956   6.527   5.002   0.065
 2019SOL    HW2 6957   6.523   4.875   6.992
 2020SOL     OW 6958   1.827   6.895   1.010
 2020SOL    HW1 6959   1.798   6.841   1.089
 2020SOL    HW2 6960   1.858   6.985   1.040
 2021SOL     OW 6961   0.302   5.959   4.092
 2021SOL    HW1 6962   0.246   5.945   4.011
 2021SOL    HW2 6963   0.364   5.882   4.104
 2022SOL     OW 6964   1.264   3.195   4.309
 2022SOL    HW1 6965   1.168   3.216   4.324
 2022SOL    HW2 6966   1.275   3.146   4.223
 2023SOL     OW 6967   6.772   5.578   6.719
 2023SOL    HW1 6968   6.678   5.542   6.725
 2023SOL    HW2 6969   6.770   5.677   6.720
 2024SOL     OW 6970   6.928   5.416   3.618
 2024SOL    HW1 6971   6.842   5.433   3.570
 2024SOL    HW2 6972   6.934   5.475   3.698
 2025SOL     OW 6973   1.835   6.551   4.724
 2025SOL    HW1 6974   1.859   6.645   4.748
 2025SOL    HW2 6975   1.914   6.506   4.681
 2026SOL     OW 6976   1.365   7.008   5.245
 2026SOL    HW1 6977   1.382   0.060   5.300
 2026SOL    HW2 6978   1.302   6.947   5.293
 2027SOL     OW 6979   6.810   5.926   2.406
 2027SOL    HW1 6980   6.789   5.981   2.487
 2027SOL    HW2 6981   6.727   5.913   2.352
 2028SOL     OW 6982   2.568   5.818   5.052
 2028SOL    HW1 6983   2.615   5.741   5.096
 2028SOL    HW2 6984   2.635   5.881   5.013
 2029SOL     OW 6985   6.221   2.268   6.779
 2029SOL    HW1 6986   6.261   2.233   6.864
 2029SOL    HW2 6987   6.160   2.199   6.740
 2030SOL     OW 6988   1.949   6.926   2.669
 2030SOL    HW1 6989   1.930   6.936   2.766
 2030SOL    HW2 6990   2.047   6.936   2.652
 2031SOL     OW 6991   0.391   6.299   5.394
 2031SOL    HW1 6992   0.400   6.398   5.401
 2031SOL    HW2 6993   0.422   6.257   5.480
 2032SOL     OW 6994   2.270   3.215   6.030
 2032SOL    HW1 6995   2.302   3.194   5.938
 2032SOL    HW2 6996   2.333   3.177   6.097
 2033SOL     OW 6997   2.431   1.111   1.106
 2033SOL    HW1 6998   2.436   1.210   1.117
 2033SOL    HW2 6999   2.339   1.079   1.129
 2034SOL     OW 7000   0.597   4.515   5.040
 2034SOL    HW1 7001   0.680   4.554   5.001
 2034SOL    HW2 7002   0.542   4.475   4.966
 2035SOL     OW 7003   5.653   5.517   2.731
 2035SOL    HW1 7004   5.676   5.463   2.812
 2035SOL    HW2 7005   5.622   5.608   2.759
 2036SOL     OW 7006   0.263   4.087   6.381
 2036SOL    HW1 7007   0.275   4.105   6.479
 2036SOL    HW2 7008   0.334   4.136   6.330
 2037SOL     OW 7009   0.924   2.897   6.772
 2037SOL    HW1 7010   0.850   2.854   6.824
 2037SOL    HW2 7011   1.000   2.833   6.762
 2038SOL     OW 7012   1.286   1.211   6.188
 2038SOL    HW1 7013   1.238   1.299   6.177
 2038SOL    HW2 7014   1.383   1.224   6.170
 2039SOL     OW 7015   5.696   5.875   3.379
 2039SOL    HW1 7016   5.718   5.922   3.293
 2039SOL    HW2 7017   5.628   5.928   3.429
 2040SOL     OW 7018   2.569   1.894   0.433
 2040SOL    HW1 7019   2.503   1.970   0.432
 2040SOL    HW2 7020   2.635   1.908   0.507
 2041SOL     OW 7021   2.545   6.796   0.177
 2041SOL    HW1 7022   2.462   6.746   0.153
 2041SOL    HW2 7023   2.541   6.823   0.273
 2042SOL     OW 7024   6.762   6.960   6.233
 2042SOL    HW1 7025   6.756   6.873   6.282
 2042SOL    HW2 7026   6.676   7.010   6.243
 2043SOL     OW 7027   0.582   4.130   0.109
 2043SOL    HW1 7028   0.647   4.202   0.087
 2043SOL    HW2 7029   0.549   4.088   0.025
 2044SOL     OW 7030   3.903   0.203   1.696
 2044SOL    HW1 7031   3.911   0.274   1.626
 2044SOL    HW2 7032   3.840   0.234   1.767
 2045SOL     OW 7033   1.998   6.120   3.718
 2045SOL    HW1 7034   1.919   6.181   3.715
 2045SOL    HW2 7035   1.979   6.037   3.667
 2046SOL     OW 7036   0.951   2.925   5.726
 2046SOL    HW1 7037   0.968   2.838   5.679
 2046SOL    HW2 7038   0.855   2.931   5.751
 2047SOL     OW 7039   6.574   6.820   1.746
 2047SOL    HW1 7040   6.587   6.905   1.694
 2047SOL    HW2 7041   6.552   6.745   1.684
 2048SOL     OW 7042   2.255   0.751   3.790
 2048SOL    HW1 7043   2.344   0.785   3.761
 2048SOL    HW2 7044   2.208   0.821   3.843
 2049SOL     OW 7045   4.754   2.370   5.371
 2049SOL    HW1 7046   4.809   2.450   5.347
 2049SOL    HW2 7047   4.794   2.325   5.450
 2050SOL     OW 7048   0.494   0.907   2.601
 2050SOL    HW1 7049   0.478   0.809   2.604
 2050SOL    HW2 7050   0.420   0.955   2.649
 2051SOL     OW 7051   3.135   6.894   6.696
 2051SOL    HW1 7052   3.082   6.958   6.751
 2051SOL    HW2 7053   3.106   6.800   6.716
 2052SOL     OW 7054   0.427   3.775   0.935
 2052SOL    HW1 7055   0.392   3.858   0.893
 2052SOL    HW2 7056   0.413   3.697   0.873
 2053SOL     OW 7057   5.820   5.143   2.833
 2053SOL    HW1 7058   5.877   5.171   2.756
 2053SOL    HW2 7059   5.724   5.162   2.812
 2054SOL     OW 7060   3.289   4.139   2.540
 2054SOL    HW1 7061   3.273   4.105   2.632
 2054SOL    HW2 7062   3.234   4.222   2.525
 2055SOL     OW 7063   4.176   2.611   5.609
 2055SOL    HW1 7064   4.215   2.680   5.671
 2055SOL    HW2 7065   4.190   2.640   5.514
 2056SOL     OW 7066   2.696   4.756   1.832
 2056SOL    HW1 7067   2.763   4.698   1.879
 2056SOL    HW2 7068   2.663   4.708   1.751
 2057SOL     OW 7069   5.688   3.295   4.177
 2057SOL    HW1 7070   5.767   3.233   4.168
 2057SOL    HW2 7071   5.698   3.370   4.113
 2058SOL     OW 7072   5.642   6.798   3.498
 2058SOL    HW1 7073   5.730   6.836   3.526
 2058SOL    HW2 7074   5.596   6.862   3.437
 2059SOL     OW 7075   1.839   2.034   5.705
 2059SOL    HW1 7076   1.844   2.067   5.611
 2059SOL    HW2 7077   1.928   2.044   5.749
 2060SOL     OW 7078   1.569   2.453   6.244
 2060SOL    HW1 7079   1.663   2.468   6.278
 2060SOL    HW2 7080   1.557   2.357   6.222
 2061SOL     OW 7081   1.953   1.952   3.680
 2061SOL    HW1 7082   1.962   2.040   3.633
 2061SOL    HW2 7083   2.042   1.924   3.716
 2062SOL     OW 7084   5.654   5.237   4.214
 2062SOL    HW1 7085   5.743   5.269   4.249
 2062SOL    HW2 7086   5.580   5.285   4.261
 2063SOL     OW 7087   0.961   1.675   4.174
 2063SOL    HW1 7088   1.035   1.734   4.142
 2063SOL    HW2 7089   0.999   1.594   4.217
 2064SOL     OW 7090   0.506   4.081   4.535
 2064SOL    HW1 7091   0.549   4.039   4.615
 2064SOL    HW2 7092   0.562   4.064   4.454
 2065SOL     OW 7093   3.894   3.307   5.291
 2065SOL    HW1 7094   3.975   3.248   5.298
 2065SOL    HW2 7095   3.815   3.253   5.262
 2066SOL     OW 7096   1.822   2.714   4.560
 2066SOL    HW1 7097   1.912   2.741   4.526
 2066SOL    HW2 7098   1.753   2.731   4.490
 2067SOL     OW 7099   6.524   4.536   2.468
 2067SOL    HW1 7100   6.623   4.526   2.463
 2067SOL    HW2 7101   6.485   4.460   2.519
 2068SOL     OW 7102   3.674   6.418   4.253
 2068SOL    HW1 7103   3.671   6.353   4.177
 2068SOL    HW2 7104   3.766   6.456   4.262
 2069SOL     OW 7105   6.146   1.632   3.934
 2069SOL    HW1 7106   6.049   1.659   3.932
 2069SOL    HW2 7107   6.163   1.565   3.861
 2070SOL     OW 7108   0.627   4.841   1.432
 2070SOL    HW1 7109   0.695   4.775   1.463
 2070SOL    HW2 7110   0.662   4.891   1.353
 2071SOL     OW 7111   6.929   2.358   4.798
 2071SOL    HW1 7112   6.871   2.439   4.801
 2071SOL    HW2 7113   6.979   2.356   4.711
 2072SOL     OW 7114   5.239   3.565   5.458
 2072SOL    HW1 7115   5.162   3.606   5.507
 2072SOL    HW2 7116   5.321   3.621   5.471
 2073SOL     OW 7117   3.532   5.294   6.513
 2073SOL    HW1 7118   3.528   5.363   6.585
 2073SOL    HW2 7119   3.586   5.329   6.436
 2074SOL     OW 7120   3.836   4.689   5.367
 2074SOL    HW1 7121   3.866   4.734   5.451
 2074SOL    HW2 7122   3.770   4.747   5.320
 2075SOL     OW 7123   5.503   2.408   1.725
 2075SOL    HW1 7124   5.539   2.315   1.729
 2075SOL    HW2 7125   5.404   2.405   1.713
 2076SOL     OW 7126   6.754   6.594   3.971
 2076SOL    HW1 7127   6.821   6.553   3.909
 2076SOL    HW2 7128   6.710   6.523   4.025
 2077SOL     OW 7129   0.045   4.493   1.017
 2077SOL    HW1 7130   0.141   4.469   1.005
 2077SOL    HW2 7131   0.029   4.585   0.982
 2078SOL     OW 7132   0.685   2.885   6.416
 2078SOL    HW1 7133   0.749   2.872   6.340
 2078SOL    HW2 7134   0.670   2.798   6.463
 2079SOL     OW 7135   5.583   1.598   3.092
 2079SOL    HW1 7136   5.564   1.696   3.106
 2079SOL    HW2 7137   5.681   1.582   3.100
 2080SOL     OW 7138   2.409   3.808   6.260
 2080SOL    HW1 7139   2.360   3.761   6.334
 2080SOL    HW2 7140   2.506   3.786   6.265
 2081SOL     OW 7141   0.505   5.972   2.621
 2081SOL    HW1 7142   0.509   5.918   2.705
 2081SOL    HW2 7143   0.596   6.005   2.598
 2082SOL     OW 7144   6.852   5.773   3.625
 2082SOL    HW1 7145   6.816   5.704   3.563
 2082SOL    HW2 7146   6.945   5.797   3.597
 2083SOL     OW 7147   0.449   5.745   4.078
 2083SOL    HW1 7148   0.509   5.770   4.001
 2083SOL    HW2 7149   0.504   5.703   4.150
 2084SOL     OW 7150   6.531   2.352   1.396
 2084SOL    HW1 7151   6.575   2.442   1.386
 2084SOL    HW2 7152   6.549   2.297   1.314
 2085SOL     OW 7153   6.228   5.613   0.159
 2085SOL    HW1 7154   6.308   5.658   0.197
 2085SOL    HW2 7155   6.251   5.574   0.069
 2086SOL     OW 7156   6.020   0.099   6.185
 2086SOL    HW1 7157   6.089   0.035   6.150
 2086SOL    HW2 7158   6.015   0.178   6.124
 2087SOL     OW 7159   4.758   1.083   6.861
 2087SOL    HW1 7160   4.775   1.170   6.908
 2087SOL    HW2 7161   4.835   1.021   6.877
 2088SOL     OW 7162   0.331   3.890   6.186
 2088SOL    HW1 7163   0.288   3.931   6.267
 2088SOL    HW2 7164   0.406   3.948   6.155
 2089SOL     OW 7165   2.906   4.954   5.687
 2089SOL    HW1 7166   2.960   4.957   5.771
 2089SOL    HW2 7167   2.814   4.990   5.706
 2090SOL     OW 7168   4.964   2.696   6.863
 2090SOL    HW1 7169   5.003   2.675   6.953
 2090SOL    HW2 7170   5.039   2.711   6.798
 2091SOL     OW 7171   5.373   6.252   1.217
 2091SOL    HW1 7172   5.323   6.335   1.193
 2091SOL    HW2 7173   5.318   6.197   1.279
 2092SOL     OW 7174   3.370   3.279   1.835
 2092SOL    HW1 7175   3.288   3.299   1.781
 2092SOL    HW2 7176   3.343   3.241   1.923
 2093SOL     OW 7177   4.652   6.927   0.617
 2093SOL    HW1 7178   4.663   6.903   0.520
 2093SOL    HW2 7179   4.643   6.844   0.671
 2094SOL     OW 7180   5.123   2.332   1.015
 2094SOL    HW1 7181   5.039   2.331   0.961
 2094SOL    HW2 7182   5.182   2.257   0.986
 2095SOL     OW 7183   5.374   4.968   4.079
 2095SOL    HW1 7184   5.293   5.027   4.080
 2095SOL    HW2 7185   5.392   4.937   3.986
 2096SOL     OW 7186   4.191   6.700   2.922
 2096SOL    HW1 7187   4.206   6.760   3.000
 2096SOL    HW2 7188   4.248   6.730   2.845
 2097SOL     OW 7189   1.098   6.049   5.550
 2097SOL    HW1 7190   1.096   5.961   5.598
 2097SOL    HW2 7191   1.023   6.052   5.484
 2098SOL     OW 7192   1.877   6.947   3.759
 2098SOL    HW1 7193   1.785   6.979   3.735
 2098SOL    HW2 7194   1.933   7.025   3.788
 2099SOL     OW 7195   4.605   1.444   7.029
 2099SOL    HW1 7196   4.565   1.533   7.006
 2099SOL    HW2 7197   4.620   1.439   0.097
 2100SOL     OW 7198   5.002   0.392   6.994
 2100SOL    HW1 7199   4.931   0.455   6.962
 2100SOL    HW2 7200   5.067   0.443   0.020
 2101SOL     OW 7201   1.974   0.582   2.601
 2101SOL    HW1 7202   1.968   0.503   2.540
 2101SOL    HW2 7203   2.015   0.659   2.553
 2102SOL     OW 7204   3.756   2.816   1.812
 2102SOL    HW1 7205   3.765   2.863   1.723
 2102SOL    HW2 7206   3.832   2.843   1.871
 2103SOL     OW 7207   1.510   6.783   0.805
 2103SOL    HW1 7208   1.539   6.849   0.874
 2103SOL    HW2 7209   1.410   6.776   0.806
 2104SOL     OW 7210   1.076   4.399   2.410
 2104SOL    HW1 7211   1.167   4.378   2.447
 2104SOL    HW2 7212   1.024   4.453   2.476
 2105SOL     OW 7213   5.642   6.814   4.937
 2105SOL    HW1 7214   5.643   6.876   4.859
 2105SOL    HW2 7215   5.653   6.720   4.904
 2106SOL     OW 7216   3.594   2.341   1.267
 2106SOL    HW1 7217   3.618   2.262   1.324
 2106SOL    HW2 7218   3.536   2.311   1.191
 2107SOL     OW 7219   5.066   4.235   4.599
 2107SOL    HW1 7220   5.082   4.239   4.697
 2107SOL    HW2 7221   5.100   4.148   4.563
 2108SOL     OW 7222   4.622   6.738   4.763
 2108SOL    HW1 7223   4.594   6.817   4.709
 2108SOL    HW2 7224   4.570   6.736   4.848
 2109SOL     OW 7225   2.467   5.974   2.173
 2109SOL    HW1 7226   2.460   5.878   2.202
 2109SOL    HW2 7227   2.375   6.009   2.154
 2110SOL     OW 7228   3.772   6.107   6.890
 2110SOL    HW1 7229   3.736   6.093   6.798
 2110SOL    HW2 7230   3.838   6.035   6.913
 2111SOL     OW 7231   0.673   2.502   0.124
 2111SOL    HW1 7232   0.601   2.572   0.122
 2111SOL    HW2 7233   0.737   2.517   0.049
 2112SOL     OW 7234   0.718   0.272   6.599
 2112SOL    HW1 7235   0.716   0.290   6.500
 2112SOL    HW2 7236   0.736   0.175   6.615
 2113SOL     OW 7237   0.023   1.425   4.762
 2113SOL    HW1 7238   7.001   1.421   4.677
 2113SOL    HW2 7239   6.991   1.436   4.839
 2114SOL     OW 7240   2.793   1.443   5.291
 2114SOL    HW1 7241   2.733   1.459   5.213
 2114SOL    HW2 7242   2.799   1.344   5.308
 2115SOL     OW 7243   6.561   6.422   3.732
 2115SOL    HW1 7244   6.649   6.419   3.779
 2115SOL    HW2 7245   6.536   6.516   3.712
 2116SOL     OW 7246   2.269   1.600   6.331
 2116SOL    HW1 7247   2.289   1.681   6.276
 2116SOL    HW2 7248   2.355   1.556   6.357
 2117SOL     OW 7249   5.659   2.700   2.183
 2117SOL    HW1 7250   5.566   2.725   2.157
 2117SOL    HW2 7251   5.724   2.763   2.141
 2118SOL     OW 7252   0.493   3.211   2.621
 2118SOL    HW1 7253   0.415   3.266   2.650
 2118SOL    HW2 7254   0.524   3.155   2.698
 2119SOL     OW 7255   1.287   3.172   0.782
 2119SOL    HW1 7256   1.258   3.266   0.769
 2119SOL    HW2 7257   1.293   3.152   0.880
 2120SOL     OW 7258   5.263   1.834   0.437
 2120SOL    HW1 7259   5.244   1.776   0.516
 2120SOL    HW2 7260   5.211   1.801   0.358
 2121SOL     OW 7261   2.647   6.714   1.382
 2121SOL    HW1 7262   2.718   6.651   1.412
 2121SOL    HW2 7263   2.589   6.669   1.314
 2122SOL     OW 7264   6.894   0.474   4.649
 2122SOL    HW1 7265   6.899   0.430   4.560
 2122SOL    HW2 7266   6.802   0.511   4.664
 2123SOL     OW 7267   1.190   5.032   3.382
 2123SOL    HW1 7268   1.171   4.938   3.413
 2123SOL    HW2 7269   1.125   5.057   3.310
 2124SOL     OW 7270   4.894   3.064   6.127
 2124SOL    HW1 7271   4.897   3.158   6.091
 2124SOL    HW2 7272   4.802   3.044   6.159
 2125SOL     OW 7273   1.187   5.692   5.144
 2125SOL    HW1 7274   1.135   5.613   5.175
 2125SOL    HW2 7275   1.228   5.739   5.223
 2126SOL     OW 7276   3.003   5.048   1.316
 2126SOL    HW1 7277   2.972   5.098   1.236
 2126SOL    HW2 7278   3.043   4.961   1.287
 2127SOL     OW 7279   1.483   3.605   4.473
 2127SOL    HW1 7280   1.481   3.562   4.382
 2127SOL    HW2 7281   1.555   3.564   4.528
 2128SOL     OW 7282   5.170   3.393   1.599
 2128SOL    HW1 7283   5.103   3.466   1.587
 2128SOL    HW2 7284   5.126   3.304   1.585
 2129SOL     OW 7285   5.495   4.027   3.958
 2129SOL    HW1 7286   5.429   4.045   4.031
 2129SOL    HW2 7287   5.470   4.081   3.877
 2130SOL     OW 7288   2.302   0.619   2.420
 2130SOL    HW1 7289   2.304   0.523   2.390
 2130SOL    HW2 7290   2.294   0.679   2.341
 2131SOL     OW 7291   6.053   0.909   6.800
 2131SOL    HW1 7292   6.023   0.915   6.895
 2131SOL    HW2 7293   6.012   0.828   6.757
 2132SOL     OW 7294   2.735   2.834   0.240
 2132SOL    HW1 7295   2.636   2.829   0.244
 2132SOL    HW2 7296   2.762   2.911   0.182
 2133SOL     OW 7297   4.104   2.372   1.622
 2133SOL    HW1 7298   4.191   2.337   1.655
 2133SOL    HW2 7299   4.105   2.374   1.522
 2134SOL     OW 7300   2.538   0.384   5.404
 2134SOL    HW1 7301   2.494   0.297   5.421
 2134SOL    HW2 7302   2.541   0.437   5.489
 2135SOL     OW 7303   0.840   5.880   4.151
 2135SOL    HW1 7304   0.794   5.803   4.195
 2135SOL    HW2 7305   0.794   5.965   4.176
 2136SOL     OW 7306   0.820   4.981   3.618
 2136SOL    HW1 7307   0.878   5.056   3.586
 2136SOL    HW2 7308   0.726   5.013   3.625
 2137SOL     OW 7309   0.413   7.005   4.593
 2137SOL    HW1 7310   0.478   7.004   4.517
 2137SOL    HW2 7311   0.461   6.981   4.678
 2138SOL     OW 7312   1.568   2.172   6.152
 2138SOL    HW1 7313   1.570   2.075   6.176
 2138SOL    HW2 7314   1.632   2.189   6.077
 2139SOL     OW 7315   3.018   6.553   4.483
 2139SOL    HW1 7316   2.956   6.553   4.561
 2139SOL    HW2 7317   3.078   6.473   4.487
 2140SOL     OW 7318   1.341   5.663   3.810
 2140SOL    HW1 7319   1.416   5.614   3.765
 2140SOL    HW2 7320   1.370   5.756   3.832
 2141SOL     OW 7321   7.007   1.577   6.839
 2141SOL    HW1 7322   6.981   1.657   6.786
 2141SOL    HW2 7323   0.057   1.534   6.799
 2142SOL     OW 7324   4.146   1.204   3.234
 2142SOL    HW1 7325   4.244   1.191   3.252
 2142SOL    HW2 7326   4.125   1.170   3.143
 2143SOL     OW 7327   3.232   5.871   0.478
 2143SOL    HW1 7328   3.148   5.875   0.532
 2143SOL    HW2 7329   3.238   5.782   0.433
 2144SOL     OW 7330   1.341   1.168   1.753
 2144SOL    HW1 7331   1.253   1.154   1.799
 2144SOL    HW2 7332   1.412   1.114   1.799
 2145SOL     OW 7333   2.297   5.643   3.341
 2145SOL    HW1 7334   2.338   5.730   3.312
 2145SOL    HW2 7335   2.242   5.606   3.266
 2146SOL     OW 7336   2.700   2.556   0.847
 2146SOL    HW1 7337   2.635   2.618   0.893
 2146SOL    HW2 7338   2.654   2.511   0.771
 2147SOL     OW 7339   0.258   0.272   4.942
 2147SOL    HW1 7340   0.229   0.197   4.883
 2147SOL    HW2 7341   0.219   0.261   5.033
 2148SOL     OW 7342   6.565   3.629   4.473
 2148SOL    HW1 7343   6.617   3.624   4.558
 2148SOL    HW2 7344   6.572   3.541   4.425
 2149SOL     OW 7345   3.023   0.953   3.153
 2149SOL    HW1 7346   2.977   0.974   3.239
 2149SOL    HW2 7347   2.954   0.931   3.084
 2150SOL     OW 7348   5.124   6.816   2.943
 2150SOL    HW1 7349   5.065   6.855   3.014
 2150SOL    HW2 7350   5.140   6.885   2.872
 2151SOL     OW 7351   4.951   4.813   6.010
 2151SOL    HW1 7352   4.939   4.848   6.103
 2151SOL    HW2 7353   4.982   4.718   6.014
 2152SOL     OW 7354   0.178   6.658   2.491
 2152SOL    HW1 7355   0.121   6.679   2.411
 2152SOL    HW2 7356   0.216   6.742   2.528
 2153SOL     OW 7357   4.616   1.499   4.089
 2153SOL    HW1 7358   4.629   1.598   4.102
 2153SOL    HW2 7359   4.528   1.471   4.127
 2154SOL     OW 7360   3.517   6.560   5.083
 2154SOL    HW1 7361   3.452   6.501   5.034
 2154SOL    HW2 7362   3.498   6.655   5.060
 2155SOL     OW 7363   5.491   3.345   0.414
 2155SOL    HW1 7364   5.411   3.387   0.373
 2155SOL    HW2 7365   5.515   3.262   0.364
 2156SOL     OW 7366   6.697   6.878   2.548
 2156SOL    HW1 7367   6.692   6.910   2.453
 2156SOL    HW2 7368   6.758   6.799   2.553
 2157SOL     OW 7369   6.205   1.215   4.031
 2157SOL    HW1 7370   6.114   1.215   3.991
 2157SOL    HW2 7371   6.264   1.150   3.983
 2158SOL     OW 7372   4.438   0.100   3.782
 2158SOL    HW1 7373   4.379   0.174   3.752
 2158SOL    HW2 7374   4.439   0.096   3.882
 2159SOL     OW 7375   2.405   0.766   5.194
 2159SOL    HW1 7376   2.432   0.767   5.098
 2159SOL    HW2 7377   2.485   0.785   5.251
 2160SOL     OW 7378   2.517   3.548   0.883
 2160SOL    HW1 7379   2.494   3.471   0.824
 2160SOL    HW2 7380   2.539   3.628   0.826
 2161SOL     OW 7381   4.683   2.740   3.558
 2161SOL    HW1 7382   4.620   2.736   3.636
 2161SOL    HW2 7383   4.698   2.835   3.532
 2162SOL     OW 7384   2.714   1.494   1.776
 2162SOL    HW1 7385   2.797   1.450   1.812
 2162SOL    HW2 7386   2.656   1.522   1.853
 2163SOL     OW 7387   3.620   1.668   1.089
 2163SOL    HW1 7388   3.556   1.595   1.067
 2163SOL    HW2 7389   3.621   1.684   1.188
 2164SOL     OW 7390   6.885   0.770   1.319
 2164SOL    HW1 7391   6.840   0.748   1.406
 2164SOL    HW2 7392   6.821   0.819   1.260
 2165SOL     OW 7393   2.769   0.177   2.056
 2165SOL    HW1 7394   2.679   0.147   2.088
 2165SOL    HW2 7395   2.758   0.244   1.983
 2166SOL     OW 7396   5.495   2.551   5.499
 2166SOL    HW1 7397   5.479   2.477   5.564
 2166SOL    HW2 7398   5.444   2.533   5.414
 2167SOL     OW 7399   3.689   1.060   1.047
 2167SOL    HW1 7400   3.614   1.007   1.008
 2167SOL    HW2 7401   3.776   1.016   1.023
 2168SOL     OW 7402   5.721   6.135   4.164
 2168SOL    HW1 7403   5.745   6.207   4.229
 2168SOL    HW2 7404   5.805   6.094   4.127
 2169SOL     OW 7405   5.753   1.381   5.780
 2169SOL    HW1 7406   5.654   1.383   5.766
 2169SOL    HW2 7407   5.798   1.413   5.696
 2170SOL     OW 7408   5.056   4.740   4.135
 2170SOL    HW1 7409   5.151   4.766   4.148
 2170SOL    HW2 7410   5.010   4.735   4.224
 2171SOL     OW 7411   6.827   3.795   7.007
 2171SOL    HW1 7412   6.737   3.757   0.001
 2171SOL    HW2 7413   6.814   3.877   6.952
 2172SOL     OW 7414   2.484   0.374   2.022
 2172SOL    HW1 7415   2.520   0.377   2.115
 2172SOL    HW2 7416   2.560   0.365   1.957
 2173SOL     OW 7417   4.769   2.128   4.802
 2173SOL    HW1 7418   4.853   2.075   4.787
 2173SOL    HW2 7419   4.764   2.201   4.734
 2174SOL     OW 7420   1.192   5.498   4.701
 2174SOL    HW1 7421   1.247   5.489   4.784
 2174SOL    HW2 7422   1.239   5.453   4.625
 2175SOL     OW 7423   1.820   6.756   5.938
 2175SOL    HW1 7424   1.741   6.751   5.877
 2175SOL    HW2 7425   1.904   6.743   5.885
 2176SOL     OW 7426   2.198   2.671   2.870
 2176SOL    HW1 7427   2.188   2.574   2.892
 2176SOL    HW2 7428   2.123   2.699   2.809
 2177SOL     OW 7429   1.641   1.572   1.574
 2177SOL    HW1 7430   1.659   1.663   1.611
 2177SOL    HW2 7431   1.618   1.580   1.477
 2178SOL     OW 7432   6.291   6.645   0.576
 2178SOL    HW1 7433   6.310   6.712   0.647
 2178SOL    HW2 7434   6.342   6.667   0.493
 2179SOL     OW 7435   2.053   3.947   4.231
 2179SOL    HW1 7436   2.080   4.043   4.226
 2179SOL    HW2 7437   1.999   3.923   4.150
 2180SOL     OW 7438   3.283   2.850   1.813
 2180SOL    HW1 7439   3.217   2.903   1.865
 2180SOL    HW2 7440   3.249   2.758   1.799
 2181SOL     OW 7441   3.285   6.704   1.442
 2181SOL    HW1 7442   3.302   6.772   1.513
 2181SOL    HW2 7443   3.254   6.750   1.359
 2182SOL     OW 7444   4.564   3.031   0.687
 2182SOL    HW1 7445   4.642   3.093   0.678
 2182SOL    HW2 7446   4.532   3.032   0.782
 2183SOL     OW 7447   3.659   2.595   0.775
 2183SOL    HW1 7448   3.646   2.607   0.677
 2183SOL    HW2 7449   3.582   2.636   0.824
 2184SOL     OW 7450   5.245   3.111   6.235
 2184SOL    HW1 7451   5.169   3.176   6.243
 2184SOL    HW2 7452   5.265   3.096   6.138
 2185SOL     OW 7453   6.703   0.015   2.280
 2185SOL    HW1 7454   6.767   0.056   2.215
 2185SOL    HW2 7455   6.658   6.966   2.238
 2186SOL     OW 7456   0.385   4.311   2.986
 2186SOL    HW1 7457   0.331   4.268   3.059
 2186SOL    HW2 7458   0.408   4.405   3.013
 2187SOL     OW 7459   6.464   1.467   0.269
 2187SOL    HW1 7460   6.491   1.401   0.200
 2187SOL    HW2 7461   6.368   1.491   0.257
 2188SOL     OW 7462   5.092   1.545   3.938
 2188SOL    HW1 7463   5.043   1.481   3.998
 2188SOL    HW2 7464   5.044   1.632   3.937
 2189SOL     OW 7465   3.678   7.024   0.153
 2189SOL    HW1 7466   3.593   0.014   0.203
 2189SOL    HW2 7467   3.751   7.003   0.218
 2190SOL     OW 7468   5.265   3.009   0.380
 2190SOL    HW1 7469   5.168   3.008   0.355
 2190SOL    HW2 7470   5.283   2.938   0.448
 2191SOL     OW 7471   3.206   1.333   6.825
 2191SOL    HW1 7472   3.176   1.244   6.859
 2191SOL    HW2 7473   3.235   1.324   6.730
 2192SOL     OW 7474   3.745   5.942   2.167
 2192SOL    HW1 7475   3.796   5.958   2.082
 2192SOL    HW2 7476   3.669   5.880   2.148
 2193SOL     OW 7477   6.667   6.137   4.658
 2193SOL    HW1 7478   6.736   6.079   4.614
 2193SOL    HW2 7479   6.683   6.138   4.757
 2194SOL     OW 7480   2.802   6.907   1.869
 2194SOL    HW1 7481   2.741   6.875   1.941
 2194SOL    HW2 7482   2.761   6.890   1.779
 2195SOL     OW 7483   0.537   4.657   1.965
 2195SOL    HW1 7484   0.518   4.640   1.868
 2195SOL    HW2 7485   0.462   4.622   2.020
 2196SOL     OW 7486   4.492   4.002   0.193
 2196SOL    HW1 7487   4.480   4.087   0.142
 2196SOL    HW2 7488   4.554   4.017   0.269
 2197SOL     OW 7489   4.850   3.293   0.016
 2197SOL    HW1 7490   4.782   3.355   7.008
 2197SOL    HW2 7491   4.893   3.335   0.096
 2198SOL     OW 7492   6.942   4.497   6.964
 2198SOL    HW1 7493   6.948   4.455   0.025
 2198SOL    HW2 7494   6.906   4.590   6.973
 2199SOL     OW 7495   4.430   1.456   3.679
 2199SOL    HW1 7496   4.337   1.437   3.712
 2199SOL    HW2 7497   4.428   1.538   3.621
 2200SOL     OW 7498   3.120   6.888   4.205
 2200SOL    HW1 7499   3.148   6.811   4.147
 2200SOL    HW2 7500   3.202   6.932   4.243
 2201SOL     OW 7501   4.696   4.444   4.280
 2201SOL    HW1 7502   4.693   4.513   4.352
 2201SOL    HW2 7503   4.776   4.386   4.293
 2202SOL     OW 7504   4.552   5.496   3.540
 2202SOL    HW1 7505   4.453   5.488   3.546
 2202SOL    HW2 7506   4.591   5.410   3.508
 2203SOL     OW 7507   2.619   2.153   3.035
 2203SOL    HW1 7508   2.565   2.097   2.972
 2203SOL    HW2 7509   2.714   2.156   3.002
 2204SOL     OW 7510   3.016   2.293   0.697
 2204SOL    HW1 7511   3.030   2.355   0.774
 2204SOL    HW2 7512   3.092   2.228   0.693
 2205SOL     OW 7513   3.208   1.281   2.485
 2205SOL    HW1 7514   3.112   1.300   2.507
 2205SOL    HW2 7515   3.249   1.363   2.445
 2206SOL     OW 7516   1.387   3.774   0.487
 2206SOL    HW1 7517   1.331   3.746   0.409
 2206SOL    HW2 7518   1.369   3.713   0.565
 2207SOL     OW 7519   6.603   4.744   5.017
 2207SOL    HW1 7520   6.622   4.739   4.918
 2207SOL    HW2 7521   6.510   4.777   5.031
 2208SOL     OW 7522   6.584   5.542   1.869
 2208SOL    HW1 7523   6.596   5.641   1.859
 2208SOL    HW2 7524   6.517   5.510   1.802
 2209SOL     OW 7525   0.203   6.357   1.598
 2209SOL    HW1 7526   0.223   6.260   1.612
 2209SOL    HW2 7527   0.104   6.370   1.593
 2210SOL     OW 7528   2.034   5.265   4.088
 2210SOL    HW1 7529   2.004   5.356   4.117
 2210SOL    HW2 7530   2.120   5.243   4.135
 2211SOL     OW 7531   6.958   1.481   5.026
 2211SOL    HW1 7532   7.029   1.551   5.038
 2211SOL    HW2 7533   7.001   1.391   5.025
 2212SOL     OW 7534   3.335   0.230   6.017
 2212SOL    HW1 7535   3.282   0.177   5.951
 2212SOL    HW2 7536   3.417   0.179   6.043
 2213SOL     OW 7537   4.882   0.371   3.123
 2213SOL    HW1 7538   4.791   0.408   3.104
 2213SOL    HW2 7539   4.872   0.281   3.165
 2214SOL     OW 7540   3.676   7.017   5.013
 2214SOL    HW1 7541   3.649   0.014   5.106
 2214SOL    HW2 7542   3.734   6.936   5.017
 2215SOL     OW 7543   5.912   2.114   5.443
 2215SOL    HW1 7544   5.904   2.161   5.355
 2215SOL    HW2 7545   5.881   2.175   5.516
 2216SOL     OW 7546   3.136   1.900   2.538
 2216SOL    HW1 7547   3.165   1.828   2.476
 2216SOL    HW2 7548   3.184   1.890   2.626
 2217SOL     OW 7549   3.518   0.109   1.626
 2217SOL    HW1 7550   3.555   0.081   1.715
 2217SOL    HW2 7551   3.549   0.201   1.604
 2218SOL     OW 7552   0.211   0.786   2.444
 2218SOL    HW1 7553   0.164   0.698   2.456
 2218SOL    HW2 7554   0.299   0.772   2.399
 2219SOL     OW 7555   2.881   2.127   2.907
 2219SOL    HW1 7556   2.962   2.137   2.850
 2219SOL    HW2 7557   2.896   2.174   2.995
 2220SOL     OW 7558   1.270   0.207   2.190
 2220SOL    HW1 7559   1.183   0.249   2.216
 2220SOL    HW2 7560   1.330   0.276   2.150
 2221SOL     OW 7561   0.304   0.072   5.673
 2221SOL    HW1 7562   0.364   0.150   5.658
 2221SOL    HW2 7563   0.334   0.021   5.753
 2222SOL     OW 7564   6.237   5.047   3.936
 2222SOL    HW1 7565   6.241   5.037   3.836
 2222SOL    HW2 7566   6.191   4.967   3.975
 2223SOL     OW 7567   6.949   6.462   1.686
 2223SOL    HW1 7568   7.000   6.536   1.731
 2223SOL    HW2 7569   6.930   6.390   1.753
 2224SOL     OW 7570   0.669   5.565   0.387
 2224SOL    HW1 7571   0.735   5.543   0.315
 2224SOL    HW2 7572   0.608   5.487   0.401
 2225SOL     OW 7573   0.444   4.150   0.356
 2225SOL    HW1 7574   0.422   4.056   0.381
 2225SOL    HW2 7575   0.478   4.152   0.261
 2226SOL     OW 7576   4.117   3.283   2.362
 2226SOL    HW1 7577   4.073   3.229   2.291
 2226SOL    HW2 7578   4.163   3.362   2.320
 2227SOL     OW 7579   0.519   1.806   4.286
 2227SOL    HW1 7580   0.467   1.723   4.272
 2227SOL    HW2 7581   0.501   1.870   4.212
 2228SOL     OW 7582   2.652   4.640   4.062
 2228SOL    HW1 7583   2.603   4.579   4.125
 2228SOL    HW2 7584   2.729   4.682   4.110
 2229SOL     OW 7585   6.438   6.293   3.044
 2229SOL    HW1 7586   6.469   6.198   3.042
 2229SOL    HW2 7587   6.462   6.338   2.958
 2230SOL     OW 7588   1.854   5.200   2.739
 2230SOL    HW1 7589   1.935   5.225   2.792
 2230SOL    HW2 7590   1.881   5.154   2.655
 2231SOL     OW 7591   2.040   6.034   1.332
 2231SOL    HW1 7592   2.093   6.115   1.307
 2231SOL    HW2 7593   1.951   6.037   1.287
 2232SOL     OW 7594   5.780   2.311   4.142
 2232SOL    HW1 7595   5.722   2.310   4.061
 2232SOL    HW2 7596   5.730   2.352   4.218
 2233SOL     OW 7597   3.623   1.342   0.041
 2233SOL    HW1 7598   3.683   1.368   0.117
 2233SOL    HW2 7599   3.677   1.299   6.999
 2234SOL     OW 7600   3.898   2.806   1.170
 2234SOL    HW1 7601   3.825   2.858   1.213
 2234SOL    HW2 7602   3.885   2.805   1.071
 2235SOL     OW 7603   2.076   2.020   2.505
 2235SOL    HW1 7604   2.133   2.027   2.423
 2235SOL    HW2 7605   2.035   2.109   2.525
 2236SOL     OW 7606   1.212   4.228   5.205
 2236SOL    HW1 7607   1.200   4.268   5.296
 2236SOL    HW2 7608   1.127   4.182   5.177
 2237SOL     OW 7609   6.704   2.970   4.306
 2237SOL    HW1 7610   6.688   2.976   4.405
 2237SOL    HW2 7611   6.793   2.929   4.289
 2238SOL     OW 7612   5.418   6.423   0.071
 2238SOL    HW1 7613   5.448   6.378   0.156
 2238SOL    HW2 7614   5.429   6.360   7.024
 2239SOL     OW 7615   6.604   5.807   1.226
 2239SOL    HW1 7616   6.644   5.738   1.165
 2239SOL    HW2 7617   6.577   5.763   1.312
 2240SOL     OW 7618   6.185   3.774   1.567
 2240SOL    HW1 7619   6.227   3.865   1.566
 2240SOL    HW2 7620   6.213   3.725   1.649
 2241SOL     OW 7621   1.349   0.566   3.971
 2241SOL    HW1 7622   1.426   0.625   3.995
 2241SOL    HW2 7623   1.295   0.546   4.052
 2242SOL     OW 7624   2.981   1.423   3.110
 2242SOL    HW1 7625   3.077   1.403   3.092
 2242SOL    HW2 7626   2.925   1.343   3.086
 2243SOL     OW 7627   2.009   0.093   5.060
 2243SOL    HW1 7628   1.932   0.045   5.103
 2243SOL    HW2 7629   2.014   0.066   4.964
 2244SOL     OW 7630   4.171   0.621   5.118
 2244SOL    HW1 7631   4.106   0.633   5.193
 2244SOL    HW2 7632   4.205   0.527   5.117
 2245SOL     OW 7633   0.454   2.447   2.548
 2245SOL    HW1 7634   0.489   2.353   2.543
 2245SOL    HW2 7635   0.359   2.449   2.516
 2246SOL     OW 7636   0.974   4.177   5.439
 2246SOL    HW1 7637   1.029   4.259   5.457
 2246SOL    HW2 7638   0.918   4.192   5.358
 2247SOL     OW 7639   1.873   1.359   4.707
 2247SOL    HW1 7640   1.831   1.442   4.670
 2247SOL    HW2 7641   1.848   1.281   4.650
 2248SOL     OW 7642   5.610   4.310   6.089
 2248SOL    HW1 7643   5.659   4.280   6.006
 2248SOL    HW2 7644   5.676   4.321   6.164
 2249SOL     OW 7645   5.023   5.833   5.567
 2249SOL    HW1 7646   4.960   5.827   5.490
 2249SOL    HW2 7647   5.116   5.847   5.533
 2250SOL     OW 7648   4.680   5.049   1.737
 2250SOL    HW1 7649   4.622   5.129   1.746
 2250SOL    HW2 7650   4.669   4.991   1.819
 2251SOL     OW 7651   0.601   0.965   5.959
 2251SOL    HW1 7652   0.577   0.868   5.953
 2251SOL    HW2 7653   0.700   0.976   5.950
 2252SOL     OW 7654   3.456   1.139   6.492
 2252SOL    HW1 7655   3.474   1.113   6.397
 2252SOL    HW2 7656   3.468   1.059   6.551
 2253SOL     OW 7657   0.810   4.307   6.997
 2253SOL    HW1 7658   0.738   4.350   6.943
 2253SOL    HW2 7659   0.839   4.221   6.954
 2254SOL     OW 7660   2.073   4.911   6.268
 2254SOL    HW1 7661   2.145   4.981   6.270
 2254SOL    HW2 7662   1.984   4.954   6.281
 2255SOL     OW 7663   6.674   3.589   6.514
 2255SOL    HW1 7664   6.606   3.650   6.556
 2255SOL    HW2 7665   6.733   3.550   6.585
 2256SOL     OW 7666   2.533   4.970   1.907
 2256SOL    HW1 7667   2.556   5.041   1.840
 2256SOL    HW2 7668   2.598   4.895   1.901
 2257SOL     OW 7669   1.600   4.156   5.128
 2257SOL    HW1 7670   1.556   4.071   5.098
 2257SOL    HW2 7671   1.536   4.232   5.117
 2258SOL     OW 7672   1.951   5.418   5.027
 2258SOL    HW1 7673   1.864   5.392   5.069
 2258SOL    HW2 7674   1.956   5.381   4.934
 2259SOL     OW 7675   6.334   2.052   6.119
 2259SOL    HW1 7676   6.316   1.978   6.054
 2259SOL    HW2 7677   6.432   2.056   6.140
 2260SOL     OW 7678   3.796   3.171   0.485
 2260SOL    HW1 7679   3.858   3.250   0.491
 2260SOL    HW2 7680   3.821   3.104   0.554
 2261SOL     OW 7681   2.168   6.182   5.109
 2261SOL    HW1 7682   2.139   6.228   5.024
 2261SOL    HW2 7683   2.168   6.083   5.095
 2262SOL     OW 7684   3.492   1.805   2.945
 2262SOL    HW1 7685   3.578   1.757   2.927
 2262SOL    HW2 7686   3.510   1.901   2.964
 2263SOL     OW 7687   0.990   4.445   5.760
 2263SOL    HW1 7688   1.089   4.437   5.747
 2263SOL    HW2 7689   0.954   4.361   5.799
 2264SOL     OW 7690   3.620   3.851   3.067
 2264SOL    HW1 7691   3.679   3.852   2.986
 2264SOL    HW2 7692   3.633   3.935   3.119
 2265SOL     OW 7693   0.866   6.819   4.119
 2265SOL    HW1 7694   0.856   6.917   4.103
 2265SOL    HW2 7695   0.859   6.800   4.217
 2266SOL     OW 7696   6.738   0.501   5.928
 2266SOL    HW1 7697   6.773   0.521   5.836
 2266SOL    HW2 7698   6.813   0.476   5.988
 2267SOL     OW 7699   5.476   1.880   5.386
 2267SOL    HW1 7700   5.424   1.816   5.442
 2267SOL    HW2 7701   5.573   1.854   5.387
 2268SOL     OW 7702   6.669   5.849   0.181
 2268SOL    HW1 7703   6.765   5.827   0.163
 2268SOL    HW2 7704   6.641   5.926   0.124
 2269SOL     OW 7705   0.153   6.646   2.794
 2269SOL    HW1 7706   0.197   6.726   2.834
 2269SOL    HW2 7707   0.195   6.625   2.706
 2270SOL     OW 7708   3.487   3.365   3.311
 2270SOL    HW1 7709   3.560   3.429   3.284
 2270SOL    HW2 7710   3.399   3.398   3.276
 2271SOL     OW 7711   1.391   4.529   2.921
 2271SOL    HW1 7712   1.426   4.574   3.003
 2271SOL    HW2 7713   1.293   4.545   2.913
 2272SOL     OW 7714   5.097   0.654   5.490
 2272SOL    HW1 7715   5.030   0.665   5.416
 2272SOL    HW2 7716   5.048   0.642   5.577
 2273SOL     OW 7717   0.735   1.443   2.285
 2273SOL    HW1 7718   0.706   1.441   2.189
 2273SOL    HW2 7719   0.718   1.354   2.327
 2274SOL     OW 7720   0.864   4.264   3.500
 2274SOL    HW1 7721   0.823   4.174   3.485
 2274SOL    HW2 7722   0.912   4.265   3.588
 2275SOL     OW 7723   4.731   6.709   3.358
 2275SOL    HW1 7724   4.831   6.705   3.348
 2275SOL    HW2 7725   4.689   6.715   3.268
 2276SOL     OW 7726   3.249   5.603   2.210
 2276SOL    HW1 7727   3.215   5.662   2.136
 2276SOL    HW2 7728   3.193   5.521   2.216
 2277SOL     OW 7729   3.272   2.949   2.194
 2277SOL    HW1 7730   3.258   2.963   2.292
 2277SOL    HW2 7731   3.327   2.867   2.180
 2278SOL     OW 7732   3.734   5.419   1.138
 2278SOL    HW1 7733   3.665   5.352   1.114
 2278SOL    HW2 7734   3.744   5.422   1.238
 2279SOL     OW 7735   5.729   4.193   5.886
 2279SOL    HW1 7736   5.652   4.190   5.823
 2279SOL    HW2 7737   5.760   4.100   5.906
 2280SOL     OW 7738   5.774   0.469   5.994
 2280SOL    HW1 7739   5.828   0.550   5.968
 2280SOL    HW2 7740   5.688   0.499   6.036
 2281SOL     OW 7741   2.221   1.115   0.287
 2281SOL    HW1 7742   2.183   1.062   0.363
 2281SOL    HW2 7743   2.297   1.171   0.319
 2282SOL     OW 7744   4.062   6.145   2.550
 2282SOL    HW1 7745   4.005   6.170   2.472
 2282SOL    HW2 7746   4.111   6.060   2.531
 2283SOL     OW 7747   0.653   3.634   1.467
 2283SOL    HW1 7748   0.646   3.547   1.516
 2283SOL    HW2 7749   0.562   3.664   1.438
 2284SOL     OW 7750   2.333   2.335   1.141
 2284SOL    HW1 7751   2.399   2.409   1.128
 2284SOL    HW2 7752   2.253   2.370   1.189
 2285SOL     OW 7753   1.621   3.178   6.973
 2285SOL    HW1 7754   1.685   3.119   7.023
 2285SOL    HW2 7755   1.541   3.196   0.001
 2286SOL     OW 7756   6.606   6.824   3.982
 2286SOL    HW1 7757   6.655   6.888   4.042
 2286SOL    HW2 7758   6.668   6.750   3.954
 2287SOL     OW 7759   3.056   1.826   1.049
 2287SOL    HW1 7760   2.961   1.816   1.077
 2287SOL    HW2 7761   3.086   1.921   1.065
 2288SOL     OW 7762   2.668   5.991   4.552
 2288SOL    HW1 7763   2.588   5.933   4.559
 2288SOL    HW2 7764   2.648   6.069   4.493
 2289SOL     OW 7765   3.992   0.247   6.945
 2289SOL    HW1 7766   4.011   0.251   0.013
 2289SOL    HW2 7767   4.073   0.277   6.894
 2290SOL     OW 7768   3.122   3.235   4.356
 2290SOL    HW1 7769   3.087   3.309   4.298
 2290SOL    HW2 7770   3.088   3.246   4.449
 2291SOL     OW 7771   2.536   2.334   0.291
 2291SOL    HW1 7772   2.623   2.284   0.282
 2291SOL    HW2 7773   2.460   2.270   0.285
 2292SOL     OW 7774   5.021   2.339   3.467
 2292SOL    HW1 7775   5.101   2.396   3.450
 2292SOL    HW2 7776   4.947   2.396   3.504
 2293SOL     OW 7777   0.818   1.190   6.837
 2293SOL    HW1 7778   0.835   1.252   6.914
 2293SOL    HW2 7779   0.739   1.132   6.858
 2294SOL     OW 7780   6.359   2.107   4.977
 2294SOL    HW1 7781   6.313   2.188   4.940
 2294SOL    HW2 7782   6.456   2.125   4.988
 2295SOL     OW 7783   5.497   6.299   0.317
 2295SOL    HW1 7784   5.450   6.322   0.402
 2295SOL    HW2 7785   5.501   6.199   0.307
 2296SOL     OW 7786   3.472   5.525   4.948
 2296SOL    HW1 7787   3.506   5.606   4.995
 2296SOL    HW2 7788   3.502   5.528   4.852
 2297SOL     OW 7789   6.229   2.950   6.480
 2297SOL    HW1 7790   6.292   3.013   6.435
 2297SOL    HW2 7791   6.243   2.858   6.445
 2298SOL     OW 7792   2.721   3.692   5.401
 2298SOL    HW1 7793   2.738   3.669   5.497
 2298SOL    HW2 7794   2.714   3.792   5.392
 2299SOL     OW 7795   5.763   3.666   4.816
 2299SOL    HW1 7796   5.707   3.643   4.895
 2299SOL    HW2 7797   5.860   3.656   4.840
 2300SOL     OW 7798   5.220   7.027   2.803
 2300SOL    HW1 7799   5.268   0.050   2.872
 2300SOL    HW2 7800   5.286   6.981   2.743
 2301SOL     OW 7801   3.968   3.080   5.132
 2301SOL    HW1 7802   3.870   3.092   5.146
 2301SOL    HW2 7803   3.986   3.063   5.035
 2302SOL     OW 7804   6.581   3.614   5.864
 2302SOL    HW1 7805   6.558   3.601   5.960
 2302SOL    HW2 7806   6.497   3.634   5.812
 2303SOL     OW 7807   2.705   1.648   6.454
 2303SOL    HW1 7808   2.771   1.574   6.447
 2303SOL    HW2 7809   2.731   1.708   6.530
 2304SOL     OW 7810   5.477   0.185   2.347
 2304SOL    HW1 7811   5.397   0.187   2.407
 2304SOL    HW2 7812   5.453   0.141   2.260
 2305SOL     OW 7813   3.076   6.798   5.098
 2305SOL    HW1 7814   2.997   6.847   5.136
 2305SOL    HW2 7815   3.149   6.795   5.166
 2306SOL     OW 7816   0.748   4.367   4.764
 2306SOL    HW1 7817   0.823   4.339   4.705
 2306SOL    HW2 7818   0.759   4.463   4.790
 2307SOL     OW 7819   5.976   4.071   4.746
 2307SOL    HW1 7820   6.039   4.147   4.731
 2307SOL    HW2 7821   5.886   4.106   4.771
 2308SOL     OW 7822   0.963   6.022   2.033
 2308SOL    HW1 7823   0.931   5.958   1.963
 2308SOL    HW2 7824   0.897   6.027   2.107
 2309SOL     OW 7825   1.812   0.673   4.819
 2309SOL    HW1 7826   1.819   0.764   4.778
 2309SOL    HW2 7827   1.817   0.604   4.747
 2310SOL     OW 7828   4.428   6.463   0.251
 2310SOL    HW1 7829   4.399   6.496   0.161
 2310SOL    HW2 7830   4.348   6.442   0.306
 2311SOL     OW 7831   2.422   5.756   0.660
 2311SOL    HW1 7832   2.458   5.843   0.626
 2311SOL    HW2 7833   2.365   5.714   0.589
 2312SOL     OW 7834   2.738   4.837   3.019
 2312SOL    HW1 7835   2.733   4.825   3.118
 2312SOL    HW2 7836   2.723   4.933   2.996
 2313SOL     OW 7837   4.621   5.313   1.858
 2313SOL    HW1 7838   4.673   5.286   1.939
 2313SOL    HW2 7839   4.557   5.386   1.882
 2314SOL     OW 7840   2.258   4.238   3.236
 2314SOL    HW1 7841   2.277   4.212   3.330
 2314SOL    HW2 7842   2.257   4.338   3.228
 2315SOL     OW 7843   4.403   2.176   6.456
 2315SOL    HW1 7844   4.311   2.211   6.439
 2315SOL    HW2 7845   4.400   2.112   6.533
 2316SOL     OW 7846   5.052   3.106   1.600
 2316SOL    HW1 7847   5.060   3.054   1.685
 2316SOL    HW2 7848   4.956   3.130   1.584
 2317SOL     OW 7849   0.606   5.843   3.871
 2317SOL    HW1 7850   0.573   5.924   3.919
 2317SOL    HW2 7851   0.677   5.869   3.806
 2318SOL     OW 7852   6.676   1.621   3.671
 2318SOL    HW1 7853   6.664   1.525   3.693
 2318SOL    HW2 7854   6.606   1.676   3.717
 2319SOL     OW 7855   1.491   5.159   1.514
 2319SOL    HW1 7856   1.408   5.104   1.512
 2319SOL    HW2 7857   1.472   5.249   1.474
 2320SOL     OW 7858   6.411   4.642   4.051
 2320SOL    HW1 7859   6.463   4.574   4.102
 2320SOL    HW2 7860   6.326   4.663   4.100
 2321SOL     OW 7861   3.631   5.039   4.092
 2321SOL    HW1 7862   3.643   5.138   4.103
 2321SOL    HW2 7863   3.560   5.007   4.155
 2322SOL     OW 7864   2.599   1.005   4.734
 2322SOL    HW1 7865   2.593   1.021   4.635
 2322SOL    HW2 7866   2.507   1.006   4.773
 2323SOL     OW 7867   5.372   3.557   1.737
 2323SOL    HW1 7868   5.324   3.645   1.740
 2323SOL    HW2 7869   5.326   3.497   1.672
 2324SOL     OW 7870   0.179   5.150   3.938
 2324SOL    HW1 7871   0.255   5.193   3.987
 2324SOL    HW2 7872   0.191   5.051   3.939
 2325SOL     OW 7873   6.737   2.473   0.096
 2325SOL    HW1 7874   6.661   2.538   0.106
 2325SOL    HW2 7875   6.784   2.490   0.009
 2326SOL     OW 7876   0.456   4.665   0.626
 2326SOL    HW1 7877   0.528   4.658   0.557
 2326SOL    HW2 7878   0.376   4.613   0.595
 2327SOL     OW 7879   4.900   1.084   3.555
 2327SOL    HW1 7880   4.962   1.074   3.632
 2327SOL    HW2 7881   4.951   1.076   3.470
 2328SOL     OW 7882   6.181   5.040   3.670
 2328SOL    HW1 7883   6.097   4.987   3.675
 2328SOL    HW2 7884   6.168   5.119   3.610
 2329SOL     OW 7885   1.113   6.355   3.048
 2329SOL    HW1 7886   1.021   6.321   3.032
 2329SOL    HW2 7887   1.112   6.454   3.054
 2330SOL     OW 7888   1.410   4.463   0.023
 2330SOL    HW1 7889   1.390   4.444   0.119
 2330SOL    HW2 7890   1.499   4.424   7.029
 2331SOL     OW 7891   1.147   4.969   4.800
 2331SOL    HW1 7892   1.127   5.055   4.847
 2331SOL    HW2 7893   1.062   4.932   4.762
 2332SOL     OW 7894   6.111   3.231   5.732
 2332SOL    HW1 7895   6.138   3.319   5.693
 2332SOL    HW2 7896   6.116   3.235   5.831
 2333SOL     OW 7897   2.332   4.767   3.642
 2333SOL    HW1 7898   2.396   4.696   3.611
 2333SOL    HW2 7899   2.341   4.780   3.741
 2334SOL     OW 7900   2.474   0.527   5.932
 2334SOL    HW1 7901   2.416   0.602   5.902
 2334SOL    HW2 7902   2.419   0.444   5.942
 2335SOL     OW 7903   4.929   4.699   4.383
 2335SOL    HW1 7904   4.997   4.633   4.414
 2335SOL    HW2 7905   4.838   4.671   4.414
 2336SOL     OW 7906   4.210   2.260   5.817
 2336SOL    HW1 7907   4.191   2.166   5.789
 2336SOL    HW2 7908   4.308   2.277   5.812
 2337SOL     OW 7909   5.682   0.785   4.623
 2337SOL    HW1 7910   5.758   0.843   4.593
 2337SOL    HW2 7911   5.639   0.743   4.543
 2338SOL     OW 7912   1.256   0.032   6.644
 2338SOL    HW1 7913   1.293   0.009   6.734
 2338SOL    HW2 7914   1.272   6.986   6.581
 2339SOL     OW 7915   4.254   4.662   6.921
 2339SOL    HW1 7916   4.298   4.685   6.834
 2339SOL    HW2 7917   4.166   4.709   6.927
 2340SOL     OW 7918   3.478   5.324   4.610
 2340SOL    HW1 7919   3.407   5.308   4.678
 2340SOL    HW2 7920   3.445   5.296   4.520
 2341SOL     OW 7921   6.703   4.472   6.673
 2341SOL    HW1 7922   6.636   4.546   6.672
 2341SOL    HW2 7923   6.793   4.508   6.651
 2342SOL     OW 7924   6.492   1.440   5.783
 2342SOL    HW1 7925   6.565   1.372   5.783
 2342SOL    HW2 7926   6.516   1.513   5.719
 2343SOL     OW 7927   1.681   6.333   0.363
 2343SOL    HW1 7928   1.777   6.313   0.348
 2343SOL    HW2 7929   1.625   6.252   0.343
 2344SOL     OW 7930   2.760   0.939   2.913
 2344SOL    HW1 7931   2.724   0.862   2.860
 2344SOL    HW2 7932   2.779   1.016   2.852
 2345SOL     OW 7933   1.292   2.061   2.217
 2345SOL    HW1 7934   1.293   1.962   2.222
 2345SOL    HW2 7935   1.270   2.099   2.307
 2346SOL     OW 7936   4.865   2.912   5.368
 2346SOL    HW1 7937   4.930   2.959   5.307
 2346SOL    HW2 7938   4.844   2.971   5.446
 2347SOL     OW 7939   1.644   3.875   0.581
 2347SOL    HW1 7940   1.557   3.855   0.535
 2347SOL    HW2 7941   1.677   3.792   0.626
 2348SOL     OW 7942   2.516   6.994   1.115
 2348SOL    HW1 7943   2.441   6.941   1.075
 2348SOL    HW2 7944   2.480   0.051   1.149
 2349SOL     OW 7945   5.193   3.254   0.037
 2349SOL    HW1 7946   5.267   3.195   0.005
 2349SOL    HW2 7947   5.200   3.266   0.136
 2350SOL     OW 7948   1.691   6.267   4.912
 2350SOL    HW1 7949   1.747   6.193   4.874
 2350SOL    HW2 7950   1.674   6.249   5.009
 2351SOL     OW 7951   1.694   5.016   2.470
 2351SOL    HW1 7952   1.674   4.942   2.534
 2351SOL    HW2 7953   1.620   5.083   2.473
 2352SOL     OW 7954   5.431   5.385   0.047
 2352SOL    HW1 7955   5.514   5.345   0.008
 2352SOL    HW2 7956   5.419   5.478   0.012
 2353SOL     OW 7957   2.480   3.016   5.901
 2353SOL    HW1 7958   2.487   3.041   5.804
 2353SOL    HW2 7959   2.562   2.965   5.927
 2354SOL     OW 7960   4.106   1.655   2.358
 2354SOL    HW1 7961   4.098   1.664   2.259
 2354SOL    HW2 7962   4.154   1.734   2.395
 2355SOL     OW 7963   0.673   1.472   1.722
 2355SOL    HW1 7964   0.752   1.455   1.664
 2355SOL    HW2 7965   0.630   1.559   1.696
 2356SOL     OW 7966   3.158   5.193   4.486
 2356SOL    HW1 7967   3.135   5.290   4.500
 2356SOL    HW2 7968   3.245   5.187   4.438
 2357SOL     OW 7969   1.244   5.307   0.971
 2357SOL    HW1 7970   1.310   5.271   1.036
 2357SOL    HW2 7971   1.219   5.400   0.997
 2358SOL     OW 7972   2.801   0.857   5.126
 2358SOL    HW1 7973   2.803   0.954   5.102
 2358SOL    HW2 7974   2.714   0.817   5.096
 2359SOL     OW 7975   2.541   2.055   5.875
 2359SOL    HW1 7976   2.476   2.132   5.868
 2359SOL    HW2 7977   2.624   2.086   5.921
 2360SOL     OW 7978   3.249   5.153   0.566
 2360SOL    HW1 7979   3.171   5.147   0.503
 2360SOL    HW2 7980   3.234   5.091   0.643
 2361SOL     OW 7981   3.357   5.051   1.449
 2361SOL    HW1 7982   3.284   5.020   1.509
 2361SOL    HW2 7983   3.371   4.985   1.375
 2362SOL     OW 7984   2.742   5.299   4.624
 2362SOL    HW1 7985   2.659   5.337   4.583
 2362SOL    HW2 7986   2.778   5.226   4.566
 2363SOL     OW 7987   2.169   3.923   1.063
 2363SOL    HW1 7988   2.135   3.966   0.980
 2363SOL    HW2 7989   2.093   3.908   1.127
 2364SOL     OW 7990   4.584   0.747   2.165
 2364SOL    HW1 7991   4.554   0.672   2.106
 2364SOL    HW2 7992   4.671   0.783   2.130
 2365SOL     OW 7993   5.502   4.489   3.101
 2365SOL    HW1 7994   5.451   4.415   3.057
 2365SOL    HW2 7995   5.463   4.508   3.191
 2366SOL     OW 7996   3.272   5.234   5.262
 2366SOL    HW1 7997   3.285   5.210   5.358
 2366SOL    HW2 7998   3.361   5.251   5.220
 2367SOL     OW 7999   6.309   5.314   5.359
 2367SOL    HW1 8000   6.394   5.361   5.380
 2367SOL    HW2 8001   6.283   5.333   5.265
 2368SOL     OW 8002   5.704   0.362   4.923
 2368SOL    HW1 8003   5.739   0.368   5.016
 2368SOL    HW2 8004   5.611   0.325   4.924
 2369SOL     OW 8005   4.178   1.818   4.393
 2369SOL    HW1 8006   4.123   1.818   4.477
 2369SOL    HW2 8007   4.131   1.765   4.323
 2370SOL     OW 8008   4.609   1.629   1.707
 2370SOL    HW1 8009   4.537   1.617   1.639
 2370SOL    HW2 8010   4.575   1.600   1.797
 2371SOL     OW 8011   1.716   0.217   1.966
 2371SOL    HW1 8012   1.693   0.178   2.056
 2371SOL    HW2 8013   1.632   0.237   1.916
 2372SOL     OW 8014   6.576   6.970   5.343
 2372SOL    HW1 8015   6.543   6.884   5.383
 2372SOL    HW2 8016   6.633   7.018   5.409
 2373SOL     OW 8017   5.824   4.439   5.792
 2373SOL    HW1 8018   5.919   4.413   5.772
 2373SOL    HW2 8019   5.779   4.363   5.838
 2374SOL     OW 8020   0.239   6.352   2.251
 2374SOL    HW1 8021   0.297   6.414   2.198
 2374SOL    HW2 8022   0.143   6.379   2.241
 2375SOL     OW 8023   1.646   0.298   4.313
 2375SOL    HW1 8024   1.579   0.245   4.363
 2375SOL    HW2 8025   1.657   0.260   4.221
 2376SOL     OW 8026   5.031   3.301   3.361
 2376SOL    HW1 8027   5.005   3.231   3.427
 2376SOL    HW2 8028   4.990   3.280   3.272
 2377SOL     OW 8029   3.603   3.745   5.690
 2377SOL    HW1 8030   3.589   3.651   5.660
 2377SOL    HW2 8031   3.552   3.760   5.775
 2378SOL     OW 8032   0.527   0.424   0.650
 2378SOL    HW1 8033   0.460   0.487   0.611
 2378SOL    HW2 8034   0.534   0.441   0.749
 2379SOL     OW 8035   0.656   4.909   2.545
 2379SOL    HW1 8036   0.717   4.986   2.530
 2379SOL    HW2 8037   0.698   4.826   2.508
 2380SOL     OW 8038   4.329   5.187   6.482
 2380SOL    HW1 8039   4.238   5.148   6.468
 2380SOL    HW2 8040   4.324   5.286   6.473
 2381SOL     OW 8041   2.124   3.668   4.211
 2381SOL    HW1 8042   2.162   3.761   4.216
 2381SOL    HW2 8043   2.039   3.669   4.158
 2382SOL     OW 8044   0.023   5.506   3.193
 2382SOL    HW1 8045   6.954   5.516   3.184
 2382SOL    HW2 8046   0.068   5.544   3.112
 2383SOL     OW 8047   4.968   4.118   5.933
 2383SOL    HW1 8048   4.941   4.089   5.841
 2383SOL    HW2 8049   5.066   4.134   5.936
 2384SOL     OW 8050   0.436   2.736   3.003
 2384SOL    HW1 8051   0.439   2.687   2.916
 2384SOL    HW2 8052   0.375   2.815   2.994
 2385SOL     OW 8053   0.548   1.235   0.370
 2385SOL    HW1 8054   0.531   1.318   0.317
 2385SOL    HW2 8055   0.465   1.180   0.373
 2386SOL     OW 8056   6.681   5.440   4.977
 2386SOL    HW1 8057   6.737   5.523   4.975
 2386SOL    HW2 8058   6.701   5.388   5.060
 2387SOL     OW 8059   0.350   0.803   3.611
 2387SOL    HW1 8060   0.351   0.878   3.544
 2387SOL    HW2 8061   0.318   0.719   3.567
 2388SOL     OW 8062   0.992   3.414   5.109
 2388SOL    HW1 8063   0.912   3.400   5.166
 2388SOL    HW2 8064   0.980   3.365   5.022
 2389SOL     OW 8065   3.812   6.369   3.217
 2389SOL    HW1 8066   3.795   6.396   3.312
 2389SOL    HW2 8067   3.737   6.401   3.160
 2390SOL     OW 8068   5.282   2.251   5.986
 2390SOL    HW1 8069   5.356   2.188   5.962
 2390SOL    HW2 8070   5.282   2.267   6.085
 2391SOL     OW 8071   3.043   3.984   6.690
 2391SOL    HW1 8072   2.977   3.917   6.724
 2391SOL    HW2 8073   3.049   3.979   6.591
 2392SOL     OW 8074   4.304   5.161   5.832
 2392SOL    HW1 8075   4.395   5.146   5.871
 2392SOL    HW2 8076   4.290   5.259   5.817
 2393SOL     OW 8077   3.665   4.794   0.301
 2393SOL    HW1 8078   3.727   4.724   0.266
 2393SOL    HW2 8079   3.575   4.784   0.258
 2394SOL     OW 8080   6.434   1.974   3.611
 2394SOL    HW1 8081   6.464   1.910   3.540
 2394SOL    HW2 8082   6.486   2.059   3.604
 2395SOL     OW 8083   1.556   2.619   3.794
 2395SOL    HW1 8084   1.517   2.529   3.776
 2395SOL    HW2 8085   1.615   2.614   3.875
 2396SOL     OW 8086   6.925   0.252   6.591
 2396SOL    HW1 8087   6.914   0.218   6.498
 2396SOL    HW2 8088   6.835   0.269   6.631
 2397SOL     OW 8089   2.258   4.557   5.651
 2397SOL    HW1 8090   2.182   4.622   5.643
 2397SOL    HW2 8091   2.293   4.535   5.560
 2398SOL     OW 8092   3.999   5.697   5.162
 2398SOL    HW1 8093   3.914   5.710   5.112
 2398SOL    HW2 8094   3.980   5.655   5.250
 2399SOL     OW 8095   3.094   1.119   2.268
 2399SOL    HW1 8096   3.031   1.080   2.334
 2399SOL    HW2 8097   3.148   1.191   2.312
 2400SOL     OW 8098   0.964   2.655   0.366
 2400SOL    HW1 8099   0.921   2.708   0.292
 2400SOL    HW2 8100   0.894   2.628   0.432
 2401SOL     OW 8101   1.244   6.237   0.115
 2401SOL    HW1 8102   1.326   6.181   0.104
 2401SOL    HW2 8103   1.173   6.184   0.161
 2402SOL     OW 8104   0.758   3.720   2.065
 2402SOL    HW1 8105   0.742   3.642   2.006
 2402SOL    HW2 8106   0.774   3.689   2.159
 2403SOL     OW 8107   3.061   4.157   5.114
 2403SOL    HW1 8108   2.972   4.191   5.083
 2403SOL    HW2 8109   3.074   4.182   5.210
 2404SOL     OW 8110   6.227   1.568   1.640
 2404SOL    HW1 8111   6.177   1.644   1.683
 2404SOL    HW2 8112   6.174   1.533   1.563
 2405SOL     OW 8113   1.574   3.008   1.196
 2405SOL    HW1 8114   1.503   3.063   1.240
 2405SOL    HW2 8115   1.559   2.911   1.217
 2406SOL     OW 8116   4.109   5.656   4.859
 2406SOL    HW1 8117   4.073   5.642   4.951
 2406SOL    HW2 8118   4.208   5.643   4.859
 2407SOL     OW 8119   1.946   1.470   3.908
 2407SOL    HW1 8120   1.907   1.418   3.984
 2407SOL    HW2 8121   2.014   1.534   3.943
 2408SOL     OW 8122   3.696   0.076   6.359
 2408SOL    HW1 8123   3.709   0.092   6.457
 2408SOL    HW2 8124   3.741   7.021   6.333
 2409SOL     OW 8125   0.558   3.048   6.788
 2409SOL    HW1 8126   0.581   3.097   6.704
 2409SOL    HW2 8127   0.560   3.112   6.866
 2410SOL     OW 8128   7.008   3.537   4.527
 2410SOL    HW1 8129   0.062   3.527   4.580
 2410SOL    HW2 8130   6.984   3.448   4.486
 2411SOL     OW 8131   3.062   1.415   0.453
 2411SOL    HW1 8132   3.159   1.393   0.456
 2411SOL    HW2 8133   3.010   1.344   0.501
 2412SOL     OW 8134   3.398   2.087   6.740
 2412SOL    HW1 8135   3.415   2.064   6.644
 2412SOL    HW2 8136   3.343   2.015   6.782
 2413SOL     OW 8137   0.066   4.117   6.836
 2413SOL    HW1 8138   0.077   4.130   6.737
 2413SOL    HW2 8139   6.998   4.120   6.859
 2414SOL     OW 8140   0.158   1.621   5.093
 2414SOL    HW1 8141   0.202   1.535   5.117
 2414SOL    HW2 8142   0.211   1.665   5.020
 2415SOL     OW 8143   3.460   4.221   6.420
 2415SOL    HW1 8144   3.486   4.193   6.512
 2415SOL    HW2 8145   3.541   4.224   6.361
 2416SOL     OW 8146   0.181   3.119   3.798
 2416SOL    HW1 8147   0.214   3.211   3.817
 2416SOL    HW2 8148   0.248   3.070   3.741
 2417SOL     OW 8149   3.387   2.508   1.683
 2417SOL    HW1 8150   3.313   2.574   1.697
 2417SOL    HW2 8151   3.473   2.547   1.717
 2418SOL     OW 8152   5.457   4.054   6.427
 2418SOL    HW1 8153   5.485   4.069   6.522
 2418SOL    HW2 8154   5.440   4.141   6.382
 2419SOL     OW 8155   3.748   0.869   3.106
 2419SOL    HW1 8156   3.764   0.813   3.188
 2419SOL    HW2 8157   3.660   0.914   3.113
 2420SOL     OW 8158   1.246   3.828   2.350
 2420SOL    HW1 8159   1.185   3.750   2.362
 2420SOL    HW2 8160   1.302   3.839   2.433
 2421SOL     OW 8161   2.431   6.509   3.066
 2421SOL    HW1 8162   2.371   6.485   3.142
 2421SOL    HW2 8163   2.522   6.534   3.101
 2422SOL     OW 8164   3.836   6.119   0.420
 2422SOL    HW1 8165   3.759   6.137   0.359
 2422SOL    HW2 8166   3.912   6.082   0.367
 2423SOL     OW 8167   3.305   4.945   4.492
 2423SOL    HW1 8168   3.377   4.944   4.560
 2423SOL    HW2 8169   3.245   5.024   4.507
 2424SOL     OW 8170   5.190   6.605   6.414
 2424SOL    HW1 8171   5.276   6.556   6.427
 2424SOL    HW2 8172   5.153   6.585   6.323
 2425SOL     OW 8173   4.022   5.365   5.202
 2425SOL    HW1 8174   3.981   5.377   5.112
 2425SOL    HW2 8175   3.954   5.385   5.272
 2426SOL     OW 8176   3.014   2.324   5.462
 2426SOL    HW1 8177   2.920   2.298   5.441
 2426SOL    HW2 8178   3.061   2.351   5.377
 2427SOL     OW 8179   4.256   1.613   0.551
 2427SOL    HW1 8180   4.179   1.593   0.490
 2427SOL    HW2 8181   4.229   1.686   0.614
 2428SOL     OW 8182   1.703   1.699   2.906
 2428SOL    HW1 8183   1.700   1.733   3.000
 2428SOL    HW2 8184   1.679   1.773   2.843
 2429SOL     OW 8185   6.003   6.006   1.129
 2429SOL    HW1 8186   5.990   6.091   1.180
 2429SOL    HW2 8187   5.995   6.024   1.031
 2430SOL     OW 8188   6.577   0.141   6.917
 2430SOL    HW1 8189   6.562   0.199   6.997
 2430SOL    HW2 8190   6.649   0.179   6.860
 2431SOL     OW 8191   2.143   3.238   1.981
 2431SOL    HW1 8192   2.123   3.200   2.071
 2431SOL    HW2 8193   2.186   3.328   1.991
 2432SOL     OW 8194   2.726   6.049   2.261
 2432SOL    HW1 8195   2.783   5.993   2.202
 2432SOL    HW2 8196   2.630   6.025   2.247
 2433SOL     OW 8197   6.962   4.159   4.545
 2433SOL    HW1 8198   6.914   4.084   4.590
 2433SOL    HW2 8199   6.968   4.142   4.447
 2434SOL     OW 8200   4.636   1.641   3.084
 2434SOL    HW1 8201   4.658   1.543   3.087
 2434SOL    HW2 8202   4.575   1.659   3.007
 2435SOL     OW 8203   6.423   6.697   6.836
 2435SOL    HW1 8204   6.406   6.666   6.743
 2435SOL    HW2 8205   6.368   6.643   6.900
 2436SOL     OW 8206   6.866   2.759   0.821
 2436SOL    HW1 8207   6.796   2.689   0.837
 2436SOL    HW2 8208   6.845   2.808   0.736
 2437SOL     OW 8209   0.307   4.407   1.294
 2437SOL    HW1 8210   0.374   4.334   1.303
 2437SOL    HW2 8211   0.279   4.414   1.198
 2438SOL     OW 8212   3.853   1.621   5.078
 2438SOL    HW1 8213   3.891   1.558   5.147
 2438SOL    HW2 8214   3.915   1.623   4.999
 2439SOL     OW 8215   0.073   5.552   0.263
 2439SOL    HW1 8216   0.025   5.473   0.300
 2439SOL    HW2 8217   0.164   5.559   0.305
 2440SOL     OW 8218   6.416   1.801   5.463
 2440SOL    HW1 8219   6.438   1.854   5.381
 2440SOL    HW2 8220   6.321   1.817   5.489
 2441SOL     OW 8221   6.040   1.069   0.377
 2441SOL    HW1 8222   5.989   0.984   0.365
 2441SOL    HW2 8223   6.066   1.105   0.287
 2442SOL     OW 8224   5.114   2.957   2.209
 2442SOL    HW1 8225   5.106   2.870   2.257
 2442SOL    HW2 8226   5.207   2.993   2.220
 2443SOL     OW 8227   0.092   3.262   1.458
 2443SOL    HW1 8228   0.156   3.255   1.535
 2443SOL    HW2 8229   0.095   3.178   1.405
 2444SOL     OW 8230   3.416   5.031   3.100
 2444SOL    HW1 8231   3.478   5.109   3.109
 2444SOL    HW2 8232   3.322   5.063   3.105
 2445SOL     OW 8233   0.738   2.071   0.979
 2445SOL    HW1 8234   0.682   2.120   1.045
 2445SOL    HW2 8235   0.831   2.107   0.980
 2446SOL     OW 8236   0.061   5.661   1.768
 2446SOL    HW1 8237   0.085   5.575   1.724
 2446SOL    HW2 8238   0.127   5.682   1.840
 2447SOL     OW 8239   1.685   6.891   0.567
 2447SOL    HW1 8240   1.666   6.988   0.579
 2447SOL    HW2 8241   1.629   6.838   0.631
 2448SOL     OW 8242   5.407   1.232   3.894
 2448SOL    HW1 8243   5.445   1.251   3.984
 2448SOL    HW2 8244   5.426   1.309   3.833
 2449SOL     OW 8245   2.004   4.216   1.160
 2449SOL    HW1 8246   2.016   4.264   1.073
 2449SOL    HW2 8247   1.913   4.234   1.197
 2450SOL     OW 8248   0.694   6.535   4.861
 2450SOL    HW1 8249   0.781   6.569   4.899
 2450SOL    HW2 8250   0.708   6.510   4.765
 2451SOL     OW 8251   2.236   6.929   6.214
 2451SOL    HW1 8252   2.146   6.964   6.238
 2451SOL    HW2 8253   2.227   6.835   6.180
 2452SOL     OW 8254   2.012   1.792   4.563
 2452SOL    HW1 8255   1.919   1.828   4.568
 2452SOL    HW2 8256   2.069   1.852   4.508
 2453SOL     OW 8257   1.305   1.875   6.084
 2453SOL    HW1 8258   1.291   1.973   6.094
 2453SOL    HW2 8259   1.259   1.843   6.001
 2454SOL     OW 8260   2.950   6.115   0.598
 2454SOL    HW1 8261   2.852   6.130   0.581
 2454SOL    HW2 8262   3.002   6.137   0.516
 2455SOL     OW 8263   4.048   2.055   0.613
 2455SOL    HW1 8264   3.990   2.115   0.558
 2455SOL    HW2 8265   4.030   2.070   0.710
 2456SOL     OW 8266   0.654   3.868   6.399
 2456SOL    HW1 8267   0.582   3.832   6.458
 2456SOL    HW2 8268   0.704   3.793   6.357
 2457SOL     OW 8269   4.629   1.798   5.572
 2457SOL    HW1 8270   4.668   1.865   5.509
 2457SOL    HW2 8271   4.548   1.836   5.617
 2458SOL     OW 8272   1.057   0.358   2.300
 2458SOL    HW1 8273   1.007   0.378   2.384
 2458SOL    HW2 8274   1.072   0.443   2.248
 2459SOL     OW 8275   2.290   6.673   1.625
 2459SOL    HW1 8276   2.230   6.703   1.551
 2459SOL    HW2 8277   2.385   6.672   1.593
 2460SOL     OW 8278   0.800   0.804   4.107
 2460SOL    HW1 8279   0.802   0.902   4.123
 2460SOL    HW2 8280   0.706   0.770   4.114
 2461SOL     OW 8281   3.466   1.477   3.678
 2461SOL    HW1 8282   3.447   1.410   3.750
 2461SOL    HW2 8283   3.380   1.502   3.633
 2462SOL     OW 8284   0.720   6.045   0.843
 2462SOL    HW1 8285   0.631   6.084   0.868
 2462SOL    HW2 8286   0.709   5.985   0.763
 2463SOL     OW 8287   6.752   6.974   1.057
 2463SOL    HW1 8288   6.715   6.918   0.983
 2463SOL    HW2 8289   6.677   7.015   1.109
 2464SOL     OW 8290   0.866   2.886   4.532
 2464SOL    HW1 8291   0.868   2.858   4.436
 2464SOL    HW2 8292   0.874   2.805   4.591
 2465SOL     OW 8293   6.074   1.308   0.182
 2465SOL    HW1 8294   5.980   1.287   0.157
 2465SOL    HW2 8295   6.136   1.259   0.121
 2466SOL     OW 8296   0.827   2.676   1.498
 2466SOL    HW1 8297   0.900   2.615   1.469
 2466SOL    HW2 8298   0.825   2.680   1.598
 2467SOL     OW 8299   4.682   2.847   4.931
 2467SOL    HW1 8300   4.680   2.824   4.834
 2467SOL    HW2 8301   4.654   2.767   4.985
 2468SOL     OW 8302   3.709   0.352   5.119
 2468SOL    HW1 8303   3.740   0.399   5.202
 2468SOL    HW2 8304   3.679   0.259   5.142
 2469SOL     OW 8305   2.987   2.254   6.141
 2469SOL    HW1 8306   3.001   2.267   6.043
 2469SOL    HW2 8307   2.923   2.179   6.156
 2470SOL     OW 8308   2.037   6.203   6.499
 2470SOL    HW1 8309   1.966   6.220   6.567
 2470SOL    HW2 8310   2.052   6.286   6.444
 2471SOL     OW 8311   2.784   5.543   2.512
 2471SOL    HW1 8312   2.829   5.477   2.452
 2471SOL    HW2 8313   2.837   5.551   2.597
 2472SOL     OW 8314   4.693   0.965   2.922
 2472SOL    HW1 8315   4.613   0.964   2.982
 2472SOL    HW2 8316   4.766   0.908   2.961
 2473SOL     OW 8317   0.428   4.285   3.855
 2473SOL    HW1 8318   0.504   4.233   3.895
 2473SOL    HW2 8319   0.363   4.221   3.814
 2474SOL     OW 8320   1.329   6.540   1.594
 2474SOL    HW1 8321   1.240   6.520   1.552
 2474SOL    HW2 8322   1.402   6.499   1.539
 2475SOL     OW 8323   4.967   1.957   0.409
 2475SOL    HW1 8324   4.977   1.868   0.454
 2475SOL    HW2 8325   4.990   1.949   0.312
 2476SOL     OW 8326   4.487   6.685   0.609
 2476SOL    HW1 8327   4.468   6.587   0.609
 2476SOL    HW2 8328   4.471   6.722   0.518
 2477SOL     OW 8329   3.993   0.048   3.785
 2477SOL    HW1 8330   3.924   7.008   3.769
 2477SOL    HW2 8331   3.981   0.087   3.876
 2478SOL     OW 8332   3.365   0.510   4.600
 2478SOL    HW1 8333   3.290   0.521   4.665
 2478SOL    HW2 8334   3.340   0.440   4.532
 2479SOL     OW 8335   5.214   3.166   0.973
 2479SOL    HW1 8336   5.295   3.214   0.941
 2479SOL    HW2 8337   5.137   3.230   0.979
 2480SOL     OW 8338   3.465   2.293   1.526
 2480SOL    HW1 8339   3.525   2.227   1.570
 2480SOL    HW2 8340   3.459   2.376   1.582
 2481SOL     OW 8341   3.558   0.218   2.142
 2481SOL    HW1 8342   3.571   0.170   2.229
 2481SOL    HW2 8343   3.517   0.307   2.159
 2482SOL     OW 8344   6.550   3.189   0.418
 2482SOL    HW1 8345   6.451   3.183   0.406
 2482SOL    HW2 8346   6.571   3.197   0.516
 2483SOL     OW 8347   2.591   2.446   0.648
 2483SOL    HW1 8348   2.508   2.405   0.687
 2483SOL    HW2 8349   2.576   2.465   0.551
 2484SOL     OW 8350   4.140   0.596   0.139
 2484SOL    HW1 8351   4.083   0.670   0.104
 2484SOL    HW2 8352   4.215   0.635   0.194
 2485SOL     OW 8353   0.302   2.042   5.945
 2485SOL    HW1 8354   0.355   2.127   5.934
 2485SOL    HW2 8355   0.330   1.976   5.875
 2486SOL     OW 8356   0.198   5.602   3.374
 2486SOL    HW1 8357   0.141   5.573   3.298
 2486SOL    HW2 8358   0.254   5.525   3.406
 2487SOL     OW 8359   4.012   6.062   0.220
 2487SOL    HW1 8360   4.012   6.149   0.170
 2487SOL    HW2 8361   4.089   6.006   0.189
 2488SOL     OW 8362   6.663   3.763   0.557
 2488SOL    HW1 8363   6.630   3.819   0.481
 2488SOL    HW2 8364   6.597   3.691   0.576
 2489SOL     OW 8365   6.087   4.984   4.369
 2489SOL    HW1 8366   5.990   4.997   4.388
 2489SOL    HW2 8367   6.115   5.044   4.294
 2490SOL     OW 8368   2.567   5.762   3.185
 2490SOL    HW1 8369   2.528   5.825   3.118
 2490SOL    HW2 8370   2.652   5.725   3.149
 2491SOL     OW 8371   3.631   4.787   1.515
 2491SOL    HW1 8372   3.725   4.802   1.481
 2491SOL    HW2 8373   3.581   4.731   1.449
 2492SOL     OW 8374   6.440   5.299   1.222
 2492SOL    HW1 8375   6.464   5.359   1.299
 2492SOL    HW2 8376   6.383   5.224   1.255
 2493SOL     OW 8377   5.546   6.730   0.906
 2493SOL    HW1 8378   5.527   6.751   0.810
 2493SOL    HW2 8379   5.498   6.646   0.931
 2494SOL     OW 8380   6.753   3.616   0.983
 2494SOL    HW1 8381   6.717   3.526   1.008
 2494SOL    HW2 8382   6.852   3.619   1.001
 2495SOL     OW 8383   0.432   3.654   1.777
 2495SOL    HW1 8384   0.348   3.690   1.737
 2495SOL    HW2 8385   0.494   3.729   1.799
 2496SOL     OW 8386   5.576   4.629   6.560
 2496SOL    HW1 8387   5.599   4.632   6.463
 2496SOL    HW2 8388   5.642   4.683   6.612
 2497SOL     OW 8389   0.199   0.129   2.364
 2497SOL    HW1 8390   0.298   0.117   2.360
 2497SOL    HW2 8391   0.165   0.153   2.273
 2498SOL     OW 8392   1.916   3.269   5.089
 2498SOL    HW1 8393   1.914   3.200   5.161
 2498SOL    HW2 8394   1.892   3.358   5.128
 2499SOL     OW 8395   6.735   3.597   2.434
 2499SOL    HW1 8396   6.672   3.530   2.393
 2499SOL    HW2 8397   6.757   3.667   2.366
 2500SOL     OW 8398   4.023   3.096   1.645
 2500SOL    HW1 8399   4.082   3.172   1.672
 2500SOL    HW2 8400   4.078   3.015   1.627
 2501SOL     OW 8401   6.339   5.759   6.143
 2501SOL    HW1 8402   6.415   5.814   6.177
 2501SOL    HW2 8403   6.263   5.818   6.118
 2502SOL     OW 8404   2.108   6.631   4.362
 2502SOL    HW1 8405   2.056   6.578   4.295
 2502SOL    HW2 8406   2.200   6.649   4.328
 2503SOL     OW 8407   2.816   0.305   5.632
 2503SOL    HW1 8408   2.720   0.275   5.634
 2503SOL    HW2 8409   2.875   0.226   5.614
 2504SOL     OW 8410   3.635   0.209   3.495
 2504SOL    HW1 8411   3.693   0.255   3.563
 2504SOL    HW2 8412   3.583   0.136   3.540
 2505SOL     OW 8413   6.678   4.349   3.685
 2505SOL    HW1 8414   6.625   4.405   3.621
 2505SOL    HW2 8415   6.667   4.385   3.778
 2506SOL     OW 8416   5.683   5.295   6.433
 2506SOL    HW1 8417   5.629   5.284   6.350
 2506SOL    HW2 8418   5.624   5.282   6.513
 2507SOL     OW 8419   0.282   3.382   2.714
 2507SOL    HW1 8420   0.283   3.461   2.775
 2507SOL    HW2 8421   0.187   3.353   2.699
 2508SOL     OW 8422   6.126   0.796   4.332
 2508SOL    HW1 8423   6.163   0.888   4.325
 2508SOL    HW2 8424   6.108   0.775   4.428
 2509SOL     OW 8425   0.713   3.069   5.916
 2509SOL    HW1 8426   0.639   3.002   5.911
 2509SOL    HW2 8427   0.701   3.137   5.844
 2510SOL     OW 8428   2.947   3.710   2.207
 2510SOL    HW1 8429   2.932   3.720   2.306
 2510SOL    HW2 8430   2.913   3.622   2.176
 2511SOL     OW 8431   1.856   0.606   4.161
 2511SOL    HW1 8432   1.930   0.539   4.155
 2511SOL    HW2 8433   1.877   0.673   4.232
 2512SOL     OW 8434   4.217   4.744   3.942
 2512SOL    HW1 8435   4.209   4.838   3.977
 2512SOL    HW2 8436   4.139   4.725   3.882
 2513SOL     OW 8437   1.975   5.779   6.038
 2513SOL    HW1 8438   2.014   5.717   6.106
 2513SOL    HW2 8439   2.020   5.868   6.045
 2514SOL     OW 8440   1.412   1.758   3.292
 2514SOL    HW1 8441   1.425   1.854   3.318
 2514SOL    HW2 8442   1.348   1.753   3.215
 2515SOL     OW 8443   0.800   2.120   1.334
 2515SOL    HW1 8444   0.812   2.171   1.419
 2515SOL    HW2 8445   0.812   2.022   1.352
 2516SOL     OW 8446   5.880   2.773   4.809
 2516SOL    HW1 8447   5.916   2.805   4.722
 2516SOL    HW2 8448   5.785   2.744   4.797
 2517SOL     OW 8449   1.086   1.234   3.727
 2517SOL    HW1 8450   1.123   1.305   3.667
 2517SOL    HW2 8451   1.089   1.146   3.681
 2518SOL     OW 8452   2.264   4.513   0.954
 2518SOL    HW1 8453   2.233   4.558   1.038
 2518SOL    HW2 8454   2.335   4.446   0.977
 2519SOL     OW 8455   1.272   1.411   0.672
 2519SOL    HW1 8456   1.185   1.381   0.633
 2519SOL    HW2 8457   1.275   1.386   0.769
 2520SOL     OW 8458   2.622   2.029   0.923
 2520SOL    HW1 8459   2.668   2.091   0.987
 2520SOL    HW2 8460   2.660   1.937   0.933
 2521SOL     OW 8461   5.438   0.594   4.686
 2521SOL    HW1 8462   5.429   0.694   4.677
 2521SOL    HW2 8463   5.428   0.569   4.782
 2522SOL     OW 8464   1.201   1.810   6.731
 2522SOL    HW1 8465   1.293   1.771   6.737
 2522SOL    HW2 8466   1.205   1.898   6.682
 2523SOL     OW 8467   1.479   5.176   6.641
 2523SOL    HW1 8468   1.435   5.095   6.603
 2523SOL    HW2 8469   1.429   5.258   6.613
 2524SOL     OW 8470   0.982   0.556   4.370
 2524SOL    HW1 8471   0.884   0.537   4.383
 2524SOL    HW2 8472   0.997   0.587   4.276
 2525SOL     OW 8473   6.394   2.803   5.603
 2525SOL    HW1 8474   6.329   2.878   5.610
 2525SOL    HW2 8475   6.486   2.836   5.624
 2526SOL     OW 8476   1.691   0.192   1.059
 2526SOL    HW1 8477   1.773   0.163   1.108
 2526SOL    HW2 8478   1.618   0.125   1.073
 2527SOL     OW 8479   4.462   5.207   6.078
 2527SOL    HW1 8480   4.543   5.201   6.137
 2527SOL    HW2 8481   4.399   5.133   6.101
 2528SOL     OW 8482   4.550   5.604   6.250
 2528SOL    HW1 8483   4.466   5.582   6.201
 2528SOL    HW2 8484   4.623   5.542   6.219
 2529SOL     OW 8485   0.718   6.870   6.063
 2529SOL    HW1 8486   0.724   6.913   6.153
 2529SOL    HW2 8487   0.803   6.824   6.042
 2530SOL     OW 8488   2.439   6.285   6.559
 2530SOL    HW1 8489   2.397   6.223   6.625
 2530SOL    HW2 8490   2.518   6.241   6.516
 2531SOL     OW 8491   6.791   5.400   6.268
 2531SOL    HW1 8492   6.834   5.348   6.341
 2531SOL    HW2 8493   6.694   5.378   6.263
 2532SOL     OW 8494   5.660   6.261   1.704
 2532SOL    HW1 8495   5.637   6.334   1.639
 2532SOL    HW2 8496   5.688   6.179   1.654
 2533SOL     OW 8497   4.669   0.551   3.817
 2533SOL    HW1 8498   4.629   0.575   3.906
 2533SOL    HW2 8499   4.610   0.585   3.744
 2534SOL     OW 8500   4.274   1.342   2.761
 2534SOL    HW1 8501   4.356   1.337   2.817
 2534SOL    HW2 8502   4.265   1.258   2.708
 2535SOL     OW 8503   3.764   2.780   6.125
 2535SOL    HW1 8504   3.806   2.805   6.038
 2535SOL    HW2 8505   3.786   2.685   6.147
 2536SOL     OW 8506   1.522   0.993   1.448
 2536SOL    HW1 8507   1.423   0.990   1.452
 2536SOL    HW2 8508   1.559   0.900   1.448
 2537SOL     OW 8509   4.022   0.655   5.861
 2537SOL    HW1 8510   3.960   0.730   5.837
 2537SOL    HW2 8511   3.990   0.611   5.945
 2538SOL     OW 8512   6.331   3.413   3.910
 2538SOL    HW1 8513   6.238   3.392   3.880
 2538SOL    HW2 8514   6.360   3.346   3.979
 2539SOL     OW 8515   5.206   2.240   5.446
 2539SOL    HW1 8516   5.149   2.322   5.459
 2539SOL    HW2 8517   5.146   2.161   5.433
 2540SOL     OW 8518   2.813   1.724   1.659
 2540SOL    HW1 8519   2.766   1.640   1.686
 2540SOL    HW2 8520   2.867   1.758   1.736
 2541SOL     OW 8521   3.471   6.593   4.322
 2541SOL    HW1 8522   3.544   6.530   4.297
 2541SOL    HW2 8523   3.384   6.559   4.287
 2542SOL     OW 8524   2.110   5.594   6.168
 2542SOL    HW1 8525   2.122   5.508   6.217
 2542SOL    HW2 8526   2.168   5.593   6.086
 2543SOL     OW 8527   0.717   1.043   4.222
 2543SOL    HW1 8528   0.736   1.137   4.250
 2543SOL    HW2 8529   0.707   0.985   4.302
 2544SOL     OW 8530   0.652   5.147   6.916
 2544SOL    HW1 8531   0.632   5.123   6.821
 2544SOL    HW2 8532   0.592   5.221   6.945
 2545SOL     OW 8533   2.963   5.732   3.590
 2545SOL    HW1 8534   2.933   5.683   3.509
 2545SOL    HW2 8535   2.950   5.675   3.671
 2546SOL     OW 8536   0.019   1.313   1.407
 2546SOL    HW1 8537   0.098   1.295   1.466
 2546SOL    HW2 8538   6.987   1.234   1.409
 2547SOL     OW 8539   1.002   3.673   5.046
 2547SOL    HW1 8540   1.002   3.577   5.074
 2547SOL    HW2 8541   0.940   3.726   5.103
 2548SOL     OW 8542   1.015   0.066   5.330
 2548SOL    HW1 8543   1.096   0.054   5.389
 2548SOL    HW2 8544   1.038   0.128   5.255
 2549SOL     OW 8545   6.136   3.238   2.181
 2549SOL    HW1 8546   6.100   3.153   2.220
 2549SOL    HW2 8547   6.183   3.290   2.252
 2550SOL     OW 8548   6.101   5.511   6.850
 2550SOL    HW1 8549   6.076   5.459   6.769
 2550SOL    HW2 8550   6.182   5.469   6.892
 2551SOL     OW 8551   1.345   4.469   0.287
 2551SOL    HW1 8552   1.370   4.379   0.324
 2551SOL    HW2 8553   1.246   4.483   0.300
 2552SOL     OW 8554   1.725   5.420   3.507
 2552SOL    HW1 8555   1.745   5.518   3.505
 2552SOL    HW2 8556   1.695   5.390   3.417
 2553SOL     OW 8557   4.157   3.766   6.679
 2553SOL    HW1 8558   4.220   3.757   6.757
 2553SOL    HW2 8559   4.194   3.832   6.614
 2554SOL     OW 8560   1.476   1.322   0.506
 2554SOL    HW1 8561   1.412   1.326   0.583
 2554SOL    HW2 8562   1.432   1.358   0.424
 2555SOL     OW 8563   5.928   0.477   6.872
 2555SOL    HW1 8564   6.028   0.488   6.879
 2555SOL    HW2 8565   5.889   0.553   6.822
 2556SOL     OW 8566   3.570   5.201   1.123
 2556SOL    HW1 8567   3.611   5.121   1.168
 2556SOL    HW2 8568   3.556   5.181   1.026
 2557SOL     OW 8569   2.188   4.649   6.532
 2557SOL    HW1 8570   2.201   4.645   6.433
 2557SOL    HW2 8571   2.091   4.658   6.553
 2558SOL     OW 8572   4.209   0.725   5.660
 2558SOL    HW1 8573   4.265   0.655   5.617
 2558SOL    HW2 8574   4.163   0.686   5.740
 2559SOL     OW 8575   0.264   4.763   4.665
 2559SOL    HW1 8576   0.185   4.730   4.613
 2559SOL    HW2 8577   0.336   4.792   4.601
 2560SOL     OW 8578   5.998   1.728   0.180
 2560SOL    HW1 8579   6.048   1.688   0.256
 2560SOL    HW2 8580   5.942   1.658   0.135
 2561SOL     OW 8581   2.736   5.719   4.799
 2561SOL    HW1 8582   2.658   5.697   4.741
 2561SOL    HW2 8583   2.772   5.635   4.840
 2562SOL     OW 8584   2.558   3.945   6.560
 2562SOL    HW1 8585   2.602   4.005   6.627
 2562SOL    HW2 8586   2.621   3.871   6.536
 2563SOL     OW 8587   2.510   0.951   0.895
 2563SOL    HW1 8588   2.487   1.009   0.974
 2563SOL    HW2 8589   2.509   0.855   0.923
 2564SOL     OW 8590   1.491   6.585   2.420
 2564SOL    HW1 8591   1.544   6.637   2.353
 2564SOL    HW2 8592   1.482   6.638   2.504
 2565SOL     OW 8593   0.974   0.756   1.503
 2565SOL    HW1 8594   0.888   0.748   1.453
 2565SOL    HW2 8595   1.049   0.773   1.439
 2566SOL     OW 8596   2.585   0.147   5.676
 2566SOL    HW1 8597   2.486   0.143   5.681
 2566SOL    HW2 8598   2.622   0.172   5.766
 2567SOL     OW 8599   1.405   0.778   0.569
 2567SOL    HW1 8600   1.437   0.694   0.526
 2567SOL    HW2 8601   1.319   0.806   0.527
 2568SOL     OW 8602   5.293   4.162   0.120
 2568SOL    HW1 8603   5.195   4.176   0.105
 2568SOL    HW2 8604   5.313   4.169   0.217
 2569SOL     OW 8605   2.794   0.802   2.652
 2569SOL    HW1 8606   2.853   0.855   2.592
 2569SOL    HW2 8607   2.704   0.791   2.609
 2570SOL     OW 8608   5.697   2.720   6.028
 2570SOL    HW1 8609   5.655   2.760   6.110
 2570SOL    HW2 8610   5.737   2.631   6.051
 2571SOL     OW 8611   0.689   3.659   4.686
 2571SOL    HW1 8612   0.773   3.655   4.631
 2571SOL    HW2 8613   0.699   3.602   4.767
 2572SOL     OW 8614   1.393   4.852   3.986
 2572SOL    HW1 8615   1.345   4.867   4.073
 2572SOL    HW2 8616   1.328   4.858   3.910
 2573SOL     OW 8617   1.056   0.255   1.262
 2573SOL    HW1 8618   0.970   0.270   1.215
 2573SOL    HW2 8619   1.116   0.334   1.247
 2574SOL     OW 8620   6.206   3.536   0.733
 2574SOL    HW1 8621   6.246   3.475   0.802
 2574SOL    HW2 8622   6.188   3.484   0.650
 2575SOL     OW 8623   0.392   6.274   6.120
 2575SOL    HW1 8624   0.418   6.201   6.057
 2575SOL    HW2 8625   0.294   6.268   6.139
 2576SOL     OW 8626   4.111   5.983   4.812
 2576SOL    HW1 8627   4.092   5.885   4.822
 2576SOL    HW2 8628   4.200   6.004   4.854
 2577SOL     OW 8629   2.087   3.737   2.403
 2577SOL    HW1 8630   2.149   3.816   2.397
 2577SOL    HW2 8631   2.003   3.765   2.450
 2578SOL     OW 8632   4.208   1.623   2.906
 2578SOL    HW1 8633   4.213   1.631   3.006
 2578SOL    HW2 8634   4.208   1.527   2.880
 2579SOL     OW 8635   0.383   6.515   3.265
 2579SOL    HW1 8636   0.384   6.538   3.167
 2579SOL    HW2 8637   0.291   6.531   3.302
 2580SOL     OW 8638   2.338   2.237   5.870
 2580SOL    HW1 8639   2.324   2.230   5.771
 2580SOL    HW2 8640   2.360   2.332   5.894
 2581SOL     OW 8641   3.544   1.032   5.074
 2581SOL    HW1 8642   3.502   0.972   5.006
 2581SOL    HW2 8643   3.640   1.046   5.052
 2582SOL     OW 8644   6.881   3.305   1.611
 2582SOL    HW1 8645   6.959   3.319   1.549
 2582SOL    HW2 8646   6.801   3.278   1.558
 2583SOL     OW 8647   6.140   0.343   0.793
 2583SOL    HW1 8648   6.189   0.332   0.880
 2583SOL    HW2 8649   6.096   0.433   0.792
 2584SOL     OW 8650   3.676   4.408   6.014
 2584SOL    HW1 8651   3.692   4.401   5.915
 2584SOL    HW2 8652   3.684   4.504   6.042
 2585SOL     OW 8653   3.418   4.592   6.693
 2585SOL    HW1 8654   3.332   4.569   6.738
 2585SOL    HW2 8655   3.439   4.688   6.708
 2586SOL     OW 8656   2.785   0.836   3.518
 2586SOL    HW1 8657   2.824   0.744   3.518
 2586SOL    HW2 8658   2.695   0.834   3.475
 2587SOL     OW 8659   6.604   0.678   4.254
 2587SOL    HW1 8660   6.535   0.741   4.292
 2587SOL    HW2 8661   6.605   0.686   4.155
 2588SOL     OW 8662   4.864   0.780   6.741
 2588SOL    HW1 8663   4.953   0.813   6.770
 2588SOL    HW2 8664   4.847   0.690   6.782
 2589SOL     OW 8665   2.096   6.849   0.577
 2589SOL    HW1 8666   2.135   6.761   0.605
 2589SOL    HW2 8667   2.034   6.882   0.648
 2590SOL     OW 8668   2.827   5.791   0.425
 2590SOL    HW1 8669   2.861   5.796   0.332
 2590SOL    HW2 8670   2.900   5.816   0.489
 2591SOL     OW 8671   5.422   5.353   3.111
 2591SOL    HW1 8672   5.373   5.377   3.195
 2591SOL    HW2 8673   5.358   5.314   3.045
 2592SOL     OW 8674   2.659   4.197   0.968
 2592SOL    HW1 8675   2.675   4.219   0.872
 2592SOL    HW2 8676   2.709   4.115   0.993
 2593SOL     OW 8677   3.648   4.518   0.643
 2593SOL    HW1 8678   3.732   4.474   0.674
 2593SOL    HW2 8679   3.606   4.567   0.719
 2594SOL     OW 8680   2.061   2.883   4.087
 2594SOL    HW1 8681   2.104   2.962   4.130
 2594SOL    HW2 8682   2.117   2.802   4.105
 2595SOL     OW 8683   2.238   1.540   2.971
 2595SOL    HW1 8684   2.142   1.534   2.999
 2595SOL    HW2 8685   2.259   1.465   2.909
 2596SOL     OW 8686   0.970   1.545   0.439
 2596SOL    HW1 8687   0.957   1.620   0.503
 2596SOL    HW2 8688   1.030   1.574   0.365
 2597SOL     OW 8689   6.510   6.735   0.162
 2597SOL    HW1 8690   6.528   6.797   0.085
 2597SOL    HW2 8691   6.438   6.773   0.219
 2598SOL     OW 8692   5.300   2.358   2.410
 2598SOL    HW1 8693   5.281   2.455   2.424
 2598SOL    HW2 8694   5.339   2.344   2.320
 2599SOL     OW 8695   2.586   5.860   2.646
 2599SOL    HW1 8696   2.598   5.836   2.549
 2599SOL    HW2 8697   2.549   5.952   2.653
 2600SOL     OW 8698   5.691   3.948   4.474
 2600SOL    HW1 8699   5.789   3.962   4.488
 2600SOL    HW2 8700   5.669   3.961   4.377
 2601SOL     OW 8701   6.494   1.679   3.910
 2601SOL    HW1 8702   6.485   1.623   3.993
 2601SOL    HW2 8703   6.469   1.773   3.931
 2602SOL     OW 8704   0.980   4.768   2.505
 2602SOL    HW1 8705   0.968   4.714   2.588
 2602SOL    HW2 8706   0.959   4.712   2.425
 2603SOL     OW 8707   2.368   6.341   2.835
 2603SOL    HW1 8708   2.371   6.360   2.737
 2603SOL    HW2 8709   2.398   6.423   2.886
 2604SOL     OW 8710   4.597   2.610   3.809
 2604SOL    HW1 8711   4.532   2.615   3.885
 2604SOL    HW2 8712   4.569   2.538   3.746
 2605SOL     OW 8713   1.514   3.887   1.942
 2605SOL    HW1 8714   1.506   3.797   1.899
 2605SOL    HW2 8715   1.494   3.959   1.875
 2606SOL     OW 8716   5.245   3.889   1.069
 2606SOL    HW1 8717   5.153   3.921   1.093
 2606SOL    HW2 8718   5.288   3.955   1.007
 2607SOL     OW 8719   2.482   2.801   1.473
 2607SOL    HW1 8720   2.438   2.887   1.500
 2607SOL    HW2 8721   2.456   2.779   1.379
 2608SOL     OW 8722   2.641   5.061   5.689
 2608SOL    HW1 8723   2.684   5.137   5.642
 2608SOL    HW2 8724   2.549   5.047   5.652
 2609SOL     OW 8725   0.754   2.492   1.126
 2609SOL    HW1 8726   0.775   2.482   1.028
 2609SOL    HW2 8727   0.714   2.407   1.160
 2610SOL     OW 8728   1.483   3.869   4.796
 2610SOL    HW1 8729   1.575   3.880   4.760
 2610SOL    HW2 8730   1.486   3.866   4.896
 2611SOL     OW 8731   5.420   0.156   5.946
 2611SOL    HW1 8732   5.492   0.226   5.942
 2611SOL    HW2 8733   5.354   0.172   5.873
 2612SOL     OW 8734   6.484   6.642   6.546
 2612SOL    HW1 8735   6.387   6.665   6.537
 2612SOL    HW2 8736   6.523   6.628   6.455
 2613SOL     OW 8737   1.056   6.976   6.879
 2613SOL    HW1 8738   1.037   6.927   6.794
 2613SOL    HW2 8739   1.090   6.912   6.948
 2614SOL     OW 8740   5.944   2.142   0.037
 2614SOL    HW1 8741   5.994   2.120   0.121
 2614SOL    HW2 8742   5.995   2.211   7.016
 2615SOL     OW 8743   0.297   3.230   6.867
 2615SOL    HW1 8744   0.337   3.312   6.908
 2615SOL    HW2 8745   0.308   3.233   6.767
 2616SOL     OW 8746   1.309   0.910   5.188
 2616SOL    HW1 8747   1.400   0.870   5.196
 2616SOL    HW2 8748   1.248   0.846   5.141
 2617SOL     OW 8749   5.190   0.075   1.757
 2617SOL    HW1 8750   5.117   0.141   1.745
 2617SOL    HW2 8751   5.238   0.062   1.670
 2618SOL     OW 8752   1.400   0.004   6.229
 2618SOL    HW1 8753   1.475   6.967   6.226
 2618SOL    HW2 8754   1.437   0.096   6.216
 2619SOL     OW 8755   4.930   1.111   3.084
 2619SOL    HW1 8756   4.992   1.145   3.155
 2619SOL    HW2 8757   4.836   1.131   3.110
 2620SOL     OW 8758   6.199   2.056   1.969
 2620SOL    HW1 8759   6.127   1.987   1.975
 2620SOL    HW2 8760   6.186   2.110   1.885
 2621SOL     OW 8761   2.286   6.334   1.490
 2621SOL    HW1 8762   2.266   6.417   1.542
 2621SOL    HW2 8763   2.363   6.286   1.531
 2622SOL     OW 8764   2.886   3.931   0.062
 2622SOL    HW1 8765   2.836   3.920   0.148
 2622SOL    HW2 8766   2.979   3.962   0.081
 2623SOL     OW 8767   0.033   0.209   3.696
 2623SOL    HW1 8768   0.088   0.284   3.733
 2623SOL    HW2 8769   0.017   0.225   3.598
 2624SOL     OW 8770   0.902   1.528   5.466
 2624SOL    HW1 8771   0.804   1.551   5.462
 2624SOL    HW2 8772   0.951   1.577   5.394
 2625SOL     OW 8773   2.537   5.537   6.081
 2625SOL    HW1 8774   2.536   5.527   6.180
 2625SOL    HW2 8775   2.449   5.573   6.050
 2626SOL     OW 8776   6.671   6.493   6.692
 2626SOL    HW1 8777   6.698   6.545   6.773
 2626SOL    HW2 8778   6.611   6.550   6.635
 2627SOL     OW 8779   2.334   0.742   5.854
 2627SOL    HW1 8780   2.234   0.743   5.859
 2627SOL    HW2 8781   2.367   0.834   5.832
 2628SOL     OW 8782   0.265   4.969   1.340
 2628SOL    HW1 8783   0.342   5.030   1.326
 2628SOL    HW2 8784   0.297   4.875   1.349
 2629SOL     OW 8785   3.287   3.805   2.518
 2629SOL    HW1 8786   3.272   3.709   2.494
 2629SOL    HW2 8787   3.355   3.845   2.455
 2630SOL     OW 8788   3.713   0.379   3.714
 2630SOL    HW1 8789   3.626   0.425   3.697
 2630SOL    HW2 8790   3.788   0.445   3.705
 2631SOL     OW 8791   5.720   6.480   0.024
 2631SOL    HW1 8792   5.717   6.571   7.013
 2631SOL    HW2 8793   5.630   6.438   0.019
 2632SOL     OW 8794   5.783   4.828   1.847
 2632SOL    HW1 8795   5.866   4.829   1.903
 2632SOL    HW2 8796   5.807   4.804   1.753
 2633SOL     OW 8797   0.104   3.524   5.992
 2633SOL    HW1 8798   0.147   3.614   5.999
 2633SOL    HW2 8799   0.153   3.460   6.052
 2634SOL     OW 8800   1.055   1.512   5.702
 2634SOL    HW1 8801   1.008   1.492   5.616
 2634SOL    HW2 8802   1.065   1.428   5.755
 2635SOL     OW 8803   4.087   5.083   3.514
 2635SOL    HW1 8804   4.041   5.171   3.519
 2635SOL    HW2 8805   4.183   5.094   3.540
 2636SOL     OW 8806   3.584   6.562   6.045
 2636SOL    HW1 8807   3.615   6.583   5.953
 2636SOL    HW2 8808   3.580   6.646   6.099
 2637SOL     OW 8809   0.353   0.768   2.925
 2637SOL    HW1 8810   0.304   0.851   2.949
 2637SOL    HW2 8811   0.346   0.753   2.826
 2638SOL     OW 8812   0.558   6.603   4.414
 2638SOL    HW1 8813   0.608   6.581   4.498
 2638SOL    HW2 8814   0.459   6.601   4.432
 2639SOL     OW 8815   4.866   4.989   4.822
 2639SOL    HW1 8816   4.878   5.040   4.907
 2639SOL    HW2 8817   4.938   4.920   4.814
 2640SOL     OW 8818   2.698   1.253   3.463
 2640SOL    HW1 8819   2.600   1.238   3.459
 2640SOL    HW2 8820   2.723   1.327   3.400
 2641SOL     OW 8821   4.928   2.207   0.231
 2641SOL    HW1 8822   4.893   2.300   0.225
 2641SOL    HW2 8823   4.997   2.202   0.303
 2642SOL     OW 8824   0.058   6.922   2.370
 2642SOL    HW1 8825   0.119   7.002   2.369
 2642SOL    HW2 8826   0.022   6.909   2.462
 2643SOL     OW 8827   1.305   4.839   4.271
 2643SOL    HW1 8828   1.352   4.910   4.324
 2643SOL    HW2 8829   1.206   4.847   4.286
 2644SOL     OW 8830   5.631   5.578   4.262
 2644SOL    HW1 8831   5.553   5.515   4.267
 2644SOL    HW2 8832   5.650   5.598   4.166
 2645SOL     OW 8833   5.176   5.634   3.196
 2645SOL    HW1 8834   5.176   5.604   3.100
 2645SOL    HW2 8835   5.268   5.625   3.234
 2646SOL     OW 8836   0.769   2.314   6.616
 2646SOL    HW1 8837   0.732   2.333   6.524
 2646SOL    HW2 8838   0.866   2.336   6.618
 2647SOL     OW 8839   4.407   6.701   2.704
 2647SOL    HW1 8840   4.391   6.722   2.608
 2647SOL    HW2 8841   4.448   6.610   2.711
 2648SOL     OW 8842   1.476   0.287   6.115
 2648SOL    HW1 8843   1.531   0.316   6.037
 2648SOL    HW2 8844   1.384   0.327   6.108
 2649SOL     OW 8845   5.143   1.737   3.606
 2649SOL    HW1 8846   5.101   1.679   3.536
 2649SOL    HW2 8847   5.073   1.770   3.669
 2650SOL     OW 8848   2.204   0.140   3.845
 2650SOL    HW1 8849   2.263   0.193   3.784
 2650SOL    HW2 8850   2.126   0.197   3.872
 2651SOL     OW 8851   4.400   2.099   4.058
 2651SOL    HW1 8852   4.334   2.030   4.026
 2651SOL    HW2 8853   4.454   2.061   4.133
 2652SOL     OW 8854   5.075   4.080   5.282
 2652SOL    HW1 8855   4.991   4.133   5.289
 2652SOL    HW2 8856   5.097   4.065   5.186
 2653SOL     OW 8857   2.285   6.516   6.843
 2653SOL    HW1 8858   2.307   6.423   6.874
 2653SOL    HW2 8859   2.301   6.524   6.745
 2654SOL     OW 8860   0.026   1.240   0.744
 2654SOL    HW1 8861   0.078   1.287   0.814
 2654SOL    HW2 8862   0.074   1.156   0.718
 2655SOL     OW 8863   5.647   6.029   2.822
 2655SOL    HW1 8864   5.604   6.045   2.733
 2655SOL    HW2 8865   5.635   6.109   2.880
 2656SOL     OW 8866   4.632   5.730   3.997
 2656SOL    HW1 8867   4.685   5.815   3.995
 2656SOL    HW2 8868   4.641   5.683   3.909
 2657SOL     OW 8869   1.364   3.338   6.682
 2657SOL    HW1 8870   1.335   3.253   6.725
 2657SOL    HW2 8871   1.393   3.403   6.752
 2658SOL     OW 8872   3.669   4.992   0.052
 2658SOL    HW1 8873   3.714   5.069   0.096
 2658SOL    HW2 8874   3.571   5.011   0.044
 2659SOL     OW 8875   0.133   1.859   5.473
 2659SOL    HW1 8876   0.100   1.791   5.538
 2659SOL    HW2 8877   0.176   1.934   5.522
 2660SOL     OW 8878   0.616   1.334   1.082
 2660SOL    HW1 8879   0.706   1.310   1.120
 2660SOL    HW2 8880   0.628   1.402   1.010
 2661SOL     OW 8881   1.768   1.105   1.446
 2661SOL    HW1 8882   1.695   1.082   1.511
 2661SOL    HW2 8883   1.778   1.029   1.381
 2662SOL     OW 8884   2.581   1.903   1.680
 2662SOL    HW1 8885   2.636   1.821   1.663
 2662SOL    HW2 8886   2.640   1.978   1.708
 2663SOL     OW 8887   3.520   0.390   0.650
 2663SOL    HW1 8888   3.582   0.463   0.622
 2663SOL    HW2 8889   3.439   0.430   0.693
 2664SOL     OW 8890   5.037   3.334   5.430
 2664SOL    HW1 8891   5.016   3.357   5.335
 2664SOL    HW2 8892   4.969   3.376   5.491
 2665SOL     OW 8893   1.620   3.026   3.729
 2665SOL    HW1 8894   1.639   3.089   3.654
 2665SOL    HW2 8895   1.686   3.040   3.803
 2666SOL     OW 8896   2.118   4.221   1.796
 2666SOL    HW1 8897   2.083   4.130   1.779
 2666SOL    HW2 8898   2.051   4.273   1.850
 2667SOL     OW 8899   6.639   2.652   4.979
 2667SOL    HW1 8900   6.729   2.664   5.021
 2667SOL    HW2 8901   6.580   2.603   5.043
 2668SOL     OW 8902   6.111   0.822   3.912
 2668SOL    HW1 8903   6.158   0.875   3.983
 2668SOL    HW2 8904   6.173   0.805   3.836
 2669SOL     OW 8905   2.665   1.057   1.598
 2669SOL    HW1 8906   2.679   1.088   1.504
 2669SOL    HW2 8907   2.676   0.958   1.603
 2670SOL     OW 8908   0.146   0.366   7.012
 2670SOL    HW1 8909   0.230   0.368   0.036
 2670SOL    HW2 8910   0.137   0.278   6.966
 2671SOL     OW 8911   5.261   4.522   5.842
 2671SOL    HW1 8912   5.307   4.578   5.773
 2671SOL    HW2 8913   5.303   4.432   5.846
 2672SOL     OW 8914   2.600   1.293   2.390
 2672SOL    HW1 8915   2.602   1.193   2.391
 2672SOL    HW2 8916   2.535   1.326   2.458
 2673SOL     OW 8917   3.564   6.764   2.803
 2673SOL    HW1 8918   3.545   6.808   2.891
 2673SOL    HW2 8919   3.644   6.807   2.761
 2674SOL     OW 8920   0.193   5.903   3.169
 2674SOL    HW1 8921   0.267   5.924   3.233
 2674SOL    HW2 8922   0.106   5.899   3.218
 2675SOL     OW 8923   4.533   0.784   4.759
 2675SOL    HW1 8924   4.593   0.791   4.679
 2675SOL    HW2 8925   4.541   0.693   4.799
 2676SOL     OW 8926   3.952   3.701   4.001
 2676SOL    HW1 8927   4.026   3.649   3.958
 2676SOL    HW2 8928   3.925   3.776   3.942
 2677SOL     OW 8929   2.046   6.101   0.088
 2677SOL    HW1 8930   2.005   6.188   0.061
 2677SOL    HW2 8931   2.010   6.028   0.030
 2678SOL     OW 8932   3.602   1.840   2.523
 2678SOL    HW1 8933   3.535   1.784   2.571
 2678SOL    HW2 8934   3.578   1.845   2.426
 2679SOL     OW 8935   1.572   3.611   2.563
 2679SOL    HW1 8936   1.534   3.679   2.626
 2679SOL    HW2 8937   1.586   3.525   2.612
 2680SOL     OW 8938   5.431   2.568   6.822
 2680SOL    HW1 8939   5.440   2.667   6.833
 2680SOL    HW2 8940   5.523   2.527   6.822
 2681SOL     OW 8941   2.440   2.226   3.659
 2681SOL    HW1 8942   2.532   2.223   3.700
 2681SOL    HW2 8943   2.374   2.189   3.724
 2682SOL     OW 8944   3.545   3.837   1.691
 2682SOL    HW1 8945   3.465   3.855   1.748
 2682SOL    HW2 8946   3.619   3.898   1.718
 2683SOL     OW 8947   2.174   4.098   1.510
 2683SOL    HW1 8948   2.195   4.184   1.557
 2683SOL    HW2 8949   2.114   4.042   1.567
 2684SOL     OW 8950   6.548   0.842   3.721
 2684SOL    HW1 8951   6.605   0.832   3.640
 2684SOL    HW2 8952   6.600   0.814   3.802
 2685SOL     OW 8953   0.982   6.698   5.898
 2685SOL    HW1 8954   0.927   6.648   5.831
 2685SOL    HW2 8955   1.025   6.776   5.853
 2686SOL     OW 8956   1.308   0.800   5.732
 2686SOL    HW1 8957   1.335   0.895   5.751
 2686SOL    HW2 8958   1.362   0.764   5.657
 2687SOL     OW 8959   4.464   1.596   1.490
 2687SOL    HW1 8960   4.383   1.615   1.433
 2687SOL    HW2 8961   4.546   1.629   1.444
 2688SOL     OW 8962   4.046   2.765   6.794
 2688SOL    HW1 8963   4.062   2.707   6.874
 2688SOL    HW2 8964   3.954   2.804   6.798
 2689SOL     OW 8965   0.120   4.075   2.782
 2689SOL    HW1 8966   0.064   4.158   2.777
 2689SOL    HW2 8967   0.132   4.036   2.691
 2690SOL     OW 8968   5.304   1.111   5.175
 2690SOL    HW1 8969   5.325   1.042   5.244
 2690SOL    HW2 8970   5.387   1.162   5.152
 2691SOL     OW 8971   0.276   3.612   4.943
 2691SOL    HW1 8972   0.236   3.552   5.012
 2691SOL    HW2 8973   0.209   3.681   4.915
 2692SOL     OW 8974   2.275   5.540   1.946
 2692SOL    HW1 8975   2.345   5.468   1.954
 2692SOL    HW2 8976   2.251   5.553   1.850
 2693SOL     OW 8977   1.213   5.224   2.552
 2693SOL    HW1 8978   1.149   5.246   2.479
 2693SOL    HW2 8979   1.237   5.127   2.546
 2694SOL     OW 8980   2.628   0.296   2.340
 2694SOL    HW1 8981   2.533   0.310   2.367
 2694SOL    HW2 8982   2.656   0.203   2.364
 2695SOL     OW 8983   6.652   4.857   3.329
 2695SOL    HW1 8984   6.566   4.906   3.340
 2695SOL    HW2 8985   6.648   4.799   3.248
 2696SOL     OW 8986   4.457   4.622   6.582
 2696SOL    HW1 8987   4.413   4.543   6.538
 2696SOL    HW2 8988   4.386   4.687   6.610
 2697SOL     OW 8989   3.686   2.211   0.346
 2697SOL    HW1 8990   3.683   2.244   0.251
 2697SOL    HW2 8991   3.641   2.122   0.351
 2698SOL     OW 8992   1.222   5.912   6.164
 2698SOL    HW1 8993   1.233   5.813   6.166
 2698SOL    HW2 8994   1.283   5.954   6.231
 2699SOL     OW 8995   2.622   6.716   2.473
 2699SOL    HW1 8996   2.651   6.681   2.562
 2699SOL    HW2 8997   2.680   6.676   2.402
 2700SOL     OW 8998   4.339   1.991   1.542
 2700SOL    HW1 8999   4.251   2.025   1.508
 2700SOL    HW2 9000   4.325   1.942   1.628
 2701SOL     OW 9001   5.100   3.957   5.532
 2701SOL    HW1 9002   5.193   3.954   5.570
 2701SOL    HW2 9003   5.097   4.023   5.457
 2702SOL     OW 9004   2.657   1.336   4.602
 2702SOL    HW1 9005   2.588   1.408   4.591
 2702SOL    HW2 9006   2.698   1.344   4.693
 2703SOL     OW 9007   2.162   6.362   3.013
 2703SOL    HW1 9008   2.241   6.352   2.952
 2703SOL    HW2 9009   2.195   6.377   3.107
 2704SOL     OW 9010   4.629   0.423   3.545
 2704SOL    HW1 9011   4.657   0.511   3.506
 2704SOL    HW2 9012   4.549   0.437   3.603
 2705SOL     OW 9013   1.793   0.233   5.229
 2705SOL    HW1 9014   1.739   0.149   5.219
 2705SOL    HW2 9015   1.754   0.305   5.171
 2706SOL     OW 9016   6.956   4.367   4.019
 2706SOL    HW1 9017   6.998   4.427   3.952
 2706SOL    HW2 9018   6.998   4.277   4.015
 2707SOL     OW 9019   4.621   1.109   3.553
 2707SOL    HW1 9020   4.715   1.078   3.539
 2707SOL    HW2 9021   4.615   1.206   3.531
 2708SOL     OW 9022   4.939   3.551   5.895
 2708SOL    HW1 9023   4.875   3.627   5.902
 2708SOL    HW2 9024   5.030   3.586   5.874
 2709SOL     OW 9025   4.945   1.371   5.753
 2709SOL    HW1 9026   4.921   1.381   5.656
 2709SOL    HW2 9027   4.874   1.413   5.809
 2710SOL     OW 9028   1.454   2.578   4.126
 2710SOL    HW1 9029   1.501   2.643   4.066
 2710SOL    HW2 9030   1.415   2.628   4.204
 2711SOL     OW 9031   4.277   0.553   1.676
 2711SOL    HW1 9032   4.278   0.468   1.729
 2711SOL    HW2 9033   4.274   0.532   1.579
 2712SOL     OW 9034   5.827   6.092   1.518
 2712SOL    HW1 9035   5.779   6.009   1.489
 2712SOL    HW2 9036   5.873   6.134   1.440
 2713SOL     OW 9037   3.958   5.235   5.719
 2713SOL    HW1 9038   4.034   5.217   5.656
 2713SOL    HW2 9039   3.873   5.198   5.680
 2714SOL     OW 9040   3.322   4.424   5.679
 2714SOL    HW1 9041   3.290   4.466   5.764
 2714SOL    HW2 9042   3.401   4.475   5.644
 2715SOL     OW 9043   4.585   6.401   7.007
 2715SOL    HW1 9044   4.641   6.363   0.050
 2715SOL    HW2 9045   4.504   6.445   0.017
 2716SOL     OW 9046   4.442   0.522   2.913
 2716SOL    HW1 9047   4.459   0.614   2.879
 2716SOL    HW2 9048   4.504   0.503   2.989
 2717SOL     OW 9049   1.138   1.855   2.437
 2717SOL    HW1 9050   1.158   1.883   2.343
 2717SOL    HW2 9051   1.222   1.825   2.481
 2718SOL     OW 9052   6.104   1.294   6.087
 2718SOL    HW1 9053   6.143   1.307   5.996
 2718SOL    HW2 9054   6.010   1.263   6.078
 2719SOL     OW 9055   1.520   4.783   3.739
 2719SOL    HW1 9056   1.460   4.830   3.803
 2719SOL    HW2 9057   1.610   4.770   3.782
 2720SOL     OW 9058   2.158   5.813   6.337
 2720SOL    HW1 9059   2.184   5.904   6.306
 2720SOL    HW2 9060   2.152   5.751   6.258
 2721SOL     OW 9061   2.119   6.967   2.142
 2721SOL    HW1 9062   2.203   7.019   2.160
 2721SOL    HW2 9063   2.120   6.933   2.049
 2722SOL     OW 9064   3.823   4.455   6.403
 2722SOL    HW1 9065   3.918   4.423   6.409
 2722SOL    HW2 9066   3.768   4.388   6.352
 2723SOL     OW 9067   4.105   5.873   6.369
 2723SOL    HW1 9068   4.087   5.776   6.353
 2723SOL    HW2 9069   4.168   5.907   6.299
 2724SOL     OW 9070   6.759   5.789   1.576
 2724SOL    HW1 9071   6.816   5.733   1.515
 2724SOL    HW2 9072   6.671   5.807   1.532
 2725SOL     OW 9073   5.808   4.695   3.311
 2725SOL    HW1 9074   5.749   4.698   3.230
 2725SOL    HW2 9075   5.825   4.599   3.335
 2726SOL     OW 9076   6.410   1.894   2.792
 2726SOL    HW1 9077   6.432   1.854   2.703
 2726SOL    HW2 9078   6.482   1.958   2.818
 2727SOL     OW 9079   1.474   5.512   3.431
 2727SOL    HW1 9080   1.471   5.419   3.393
 2727SOL    HW2 9081   1.385   5.556   3.418
 2728SOL     OW 9082   4.813   5.929   6.007
 2728SOL    HW1 9083   4.726   5.977   6.019
 2728SOL    HW2 9084   4.795   5.835   5.979
 2729SOL     OW 9085   6.492   0.290   0.337
 2729SOL    HW1 9086   6.484   0.193   0.357
 2729SOL    HW2 9087   6.478   0.305   0.239
 2730SOL     OW 9088   1.380   5.959   2.559
 2730SOL    HW1 9089   1.289   5.918   2.563
 2730SOL    HW2 9090   1.430   5.922   2.480
 2731SOL     OW 9091   3.485   4.132   4.838
 2731SOL    HW1 9092   3.473   4.117   4.936
 2731SOL    HW2 9093   3.396   4.125   4.792
 2732SOL     OW 9094   4.935   0.653   1.694
 2732SOL    HW1 9095   5.000   0.703   1.752
 2732SOL    HW2 9096   4.961   0.557   1.690
 2733SOL     OW 9097   0.702   6.692   6.962
 2733SOL    HW1 9098   0.663   6.701   0.023
 2733SOL    HW2 9099   0.801   6.701   6.967
 2734SOL     OW 9100   3.735   6.325   2.475
 2734SOL    HW1 9101   3.801   6.275   2.419
 2734SOL    HW2 9102   3.650   6.272   2.481
 2735SOL     OW 9103   1.213   1.774   2.187
 2735SOL    HW1 9104   1.290   1.727   2.144
 2735SOL    HW2 9105   1.136   1.711   2.194
 2736SOL     OW 9106   5.771   3.949   2.518
 2736SOL    HW1 9107   5.713   3.881   2.564
 2736SOL    HW2 9108   5.753   3.945   2.419
 2737SOL     OW 9109   2.945   0.671   5.277
 2737SOL    HW1 9110   2.889   0.602   5.324
 2737SOL    HW2 9111   2.886   0.733   5.226
 2738SOL     OW 9112   4.989   5.921   0.945
 2738SOL    HW1 9113   4.918   5.988   0.922
 2738SOL    HW2 9114   4.975   5.890   1.039
 2739SOL     OW 9115   6.986   5.562   1.373
 2739SOL    HW1 9116   7.012   5.654   1.401
 2739SOL    HW2 9117   0.006   5.495   1.428
 2740SOL     OW 9118   0.223   4.872   3.933
 2740SOL    HW1 9119   0.215   4.798   3.999
 2740SOL    HW2 9120   0.237   4.835   3.841
 2741SOL     OW 9121   1.382   6.686   6.025
 2741SOL    HW1 9122   1.435   6.627   5.963
 2741SOL    HW2 9123   1.396   6.782   6.000
 2742SOL     OW 9124   2.974   5.405   3.181
 2742SOL    HW1 9125   2.945   5.320   3.225
 2742SOL    HW2 9126   3.067   5.393   3.145
 2743SOL     OW 9127   5.089   1.784   2.921
 2743SOL    HW1 9128   4.993   1.768   2.897
 2743SOL    HW2 9129   5.146   1.711   2.883
 2744SOL     OW 9130   3.475   4.096   2.113
 2744SOL    HW1 9131   3.423   4.028   2.164
 2744SOL    HW2 9132   3.425   4.183   2.110
 2745SOL     OW 9133   0.884   5.806   0.196
 2745SOL    HW1 9134   0.860   5.711   0.174
 2745SOL    HW2 9135   0.942   5.807   0.277
 2746SOL     OW 9136   1.616   0.927   3.571
 2746SOL    HW1 9137   1.519   0.902   3.585
 2746SOL    HW2 9138   1.637   0.923   3.473
 2747SOL     OW 9139   4.166   4.678   0.387
 2747SOL    HW1 9140   4.130   4.745   0.321
 2747SOL    HW2 9141   4.122   4.590   0.372
 2748SOL     OW 9142   3.982   0.441   0.796
 2748SOL    HW1 9143   3.889   0.416   0.769
 2748SOL    HW2 9144   4.018   0.372   0.859
 2749SOL     OW 9145   3.578   1.388   0.771
 2749SOL    HW1 9146   3.528   1.428   0.848
 2749SOL    HW2 9147   3.560   1.442   0.689
 2750SOL     OW 9148   3.052   5.816   3.259
 2750SOL    HW1 9149   3.068   5.728   3.216
 2750SOL    HW2 9150   3.066   5.889   3.193
 2751SOL     OW 9151   6.065   4.631   1.238
 2751SOL    HW1 9152   6.007   4.653   1.159
 2751SOL    HW2 9153   6.081   4.714   1.291
 2752SOL     OW 9154   3.870   5.559   6.711
 2752SOL    HW1 9155   3.956   5.544   6.663
 2752SOL    HW2 9156   3.888   5.569   6.809
 2753SOL     OW 9157   5.349   5.649   5.607
 2753SOL    HW1 9158   5.294   5.641   5.523
 2753SOL    HW2 9159   5.446   5.650   5.583
 2754SOL     OW 9160   1.278   0.384   5.674
 2754SOL    HW1 9161   1.206   0.394   5.744
 2754SOL    HW2 9162   1.260   0.301   5.621
 2755SOL     OW 9163   3.494   6.840   2.530
 2755SOL    HW1 9164   3.543   6.826   2.616
 2755SOL    HW2 9165   3.432   6.763   2.515
 2756SOL     OW 9166   4.258   5.938   0.197
 2756SOL    HW1 9167   4.268   6.034   0.223
 2756SOL    HW2 9168   4.272   5.880   0.277
 2757SOL     OW 9169   0.725   4.972   0.622
 2757SOL    HW1 9170   0.761   4.882   0.599
 2757SOL    HW2 9171   0.770   5.042   0.567
 2758SOL     OW 9172   5.322   0.581   4.938
 2758SOL    HW1 9173   5.357   0.653   4.997
 2758SOL    HW2 9174   5.224   0.572   4.950
 2759SOL     OW 9175   4.757   5.312   4.146
 2759SOL    HW1 9176   4.784   5.238   4.208
 2759SOL    HW2 9177   4.660   5.302   4.123
 2760SOL     OW 9178   0.966   6.664   3.625
 2760SOL    HW1 9179   0.940   6.624   3.537
 2760SOL    HW2 9180   1.055   6.709   3.615
 2761SOL     OW 9181   2.419   4.837   4.209
 2761SOL    HW1 9182   2.515   4.866   4.212
 2761SOL    HW2 9183   2.390   4.809   4.300
 2762SOL     OW 9184   2.175   0.832   5.327
 2762SOL    HW1 9185   2.166   0.932   5.323
 2762SOL    HW2 9186   2.260   0.805   5.282
 2763SOL     OW 9187   5.223   1.071   2.355
 2763SOL    HW1 9188   5.200   1.000   2.422
 2763SOL    HW2 9189   5.291   1.132   2.394
 2764SOL     OW 9190   6.083   0.667   1.374
 2764SOL    HW1 9191   6.051   0.759   1.398
 2764SOL    HW2 9192   6.164   0.645   1.429
 2765SOL     OW 9193   5.177   2.458   2.959
 2765SOL    HW1 9194   5.119   2.385   2.996
 2765SOL    HW2 9195   5.272   2.426   2.954
 2766SOL     OW 9196   5.864   0.083   2.569
 2766SOL    HW1 9197   5.960   0.089   2.545
 2766SOL    HW2 9198   5.818   0.015   2.511
 2767SOL     OW 9199   6.323   4.255   5.806
 2767SOL    HW1 9200   6.404   4.313   5.817
 2767SOL    HW2 9201   6.241   4.307   5.832
 2768SOL     OW 9202   6.110   1.403   6.709
 2768SOL    HW1 9203   6.021   1.431   6.745
 2768SOL    HW2 9204   6.171   1.380   6.785
 2769SOL     OW 9205   0.752   4.505   0.970
 2769SOL    HW1 9206   0.669   4.547   0.935
 2769SOL    HW2 9207   0.730   4.442   1.044
 2770SOL     OW 9208   6.010   5.850   2.142
 2770SOL    HW1 9209   5.999   5.904   2.058
 2770SOL    HW2 9210   6.061   5.903   2.210
 2771SOL     OW 9211   4.944   1.058   1.296
 2771SOL    HW1 9212   4.919   1.101   1.383
 2771SOL    HW2 9213   4.886   0.978   1.281
 2772SOL     OW 9214   3.676   2.084   6.686
 2772SOL    HW1 9215   3.582   2.116   6.699
 2772SOL    HW2 9216   3.729   2.101   6.769
 2773SOL     OW 9217   3.009   5.029   0.848
 2773SOL    HW1 9218   2.932   5.018   0.785
 2773SOL    HW2 9219   2.993   4.974   0.930
 2774SOL     OW 9220   5.498   3.188   2.024
 2774SOL    HW1 9221   5.457   3.139   1.947
 2774SOL    HW2 9222   5.450   3.274   2.038
 2775SOL     OW 9223   0.151   0.214   2.103
 2775SOL    HW1 9224   0.167   0.174   2.012
 2775SOL    HW2 9225   0.139   0.313   2.094
 2776SOL     OW 9226   3.015   6.298   6.549
 2776SOL    HW1 9227   2.985   6.373   6.490
 2776SOL    HW2 9228   2.975   6.213   6.517
 2777SOL     OW 9229   2.227   1.968   3.773
 2777SOL    HW1 9230   2.304   1.908   3.753
 2777SOL    HW2 9231   2.251   2.030   3.848
 2778SOL     OW 9232   2.667   2.458   4.854
 2778SOL    HW1 9233   2.686   2.467   4.756
 2778SOL    HW2 9234   2.729   2.518   4.905
 2779SOL     OW 9235   6.435   1.663   1.234
 2779SOL    HW1 9236   6.413   1.685   1.329
 2779SOL    HW2 9237   6.473   1.743   1.189
 2780SOL     OW 9238   3.755   5.945   0.139
 2780SOL    HW1 9239   3.838   6.000   0.147
 2780SOL    HW2 9240   3.780   5.851   0.112
 2781SOL     OW 9241   4.809   4.034   6.533
 2781SOL    HW1 9242   4.830   4.125   6.567
 2781SOL    HW2 9243   4.892   3.978   6.534
 2782SOL     OW 9244   3.240   1.541   5.720
 2782SOL    HW1 9245   3.299   1.572   5.645
 2782SOL    HW2 9246   3.245   1.607   5.795
 2783SOL     OW 9247   0.483   3.920   5.817
 2783SOL    HW1 9248   0.552   3.923   5.745
 2783SOL    HW2 9249   0.476   4.010   5.860
 2784SOL     OW 9250   2.329   2.599   1.839
 2784SOL    HW1 9251   2.301   2.587   1.743
 2784SOL    HW2 9252   2.423   2.565   1.850
 2785SOL     OW 9253   5.855   1.104   1.836
 2785SOL    HW1 9254   5.818   1.197   1.824
 2785SOL    HW2 9255   5.817   1.044   1.766
 2786SOL     OW 9256   3.252   0.752   0.164
 2786SOL    HW1 9257   3.199   0.818   0.112
 2786SOL    HW2 9258   3.253   0.664   0.116
 2787SOL     OW 9259   1.866   3.564   6.026
 2787SOL    HW1 9260   1.962   3.538   6.039
 2787SOL    HW2 9261   1.857   3.663   6.029
 2788SOL     OW 9262   6.992   3.576   6.899
 2788SOL    HW1 9263   0.030   3.539   6.963
 2788SOL    HW2 9264   6.944   3.652   6.942
 2789SOL     OW 9265   0.418   2.828   4.323
 2789SOL    HW1 9266   0.400   2.824   4.421
 2789SOL    HW2 9267   0.512   2.799   4.305
 2790SOL     OW 9268   3.120   6.294   4.509
 2790SOL    HW1 9269   3.038   6.281   4.453
 2790SOL    HW2 9270   3.198   6.249   4.466
 2791SOL     OW 9271   1.739   3.794   2.878
 2791SOL    HW1 9272   1.742   3.888   2.913
 2791SOL    HW2 9273   1.646   3.772   2.849
 2792SOL     OW 9274   1.118   2.280   4.804
 2792SOL    HW1 9275   1.169   2.340   4.866
 2792SOL    HW2 9276   1.158   2.188   4.806
 2793SOL     OW 9277   4.677   0.560   4.389
 2793SOL    HW1 9278   4.664   0.603   4.299
 2793SOL    HW2 9279   4.608   0.488   4.401
 2794SOL     OW 9280   0.945   1.425   1.564
 2794SOL    HW1 9281   0.927   1.522   1.549
 2794SOL    HW2 9282   1.024   1.415   1.626
 2795SOL     OW 9283   1.568   4.334   1.621
 2795SOL    HW1 9284   1.635   4.286   1.565
 2795SOL    HW2 9285   1.551   4.425   1.584
 2796SOL     OW 9286   5.525   4.054   2.230
 2796SOL    HW1 9287   5.478   4.023   2.313
 2796SOL    HW2 9288   5.458   4.069   2.157
 2797SOL     OW 9289   4.744   4.451   4.738
 2797SOL    HW1 9290   4.655   4.490   4.762
 2797SOL    HW2 9291   4.732   4.366   4.687
 2798SOL     OW 9292   1.693   3.625   3.646
 2798SOL    HW1 9293   1.748   3.576   3.578
 2798SOL    HW2 9294   1.751   3.692   3.692
 2799SOL     OW 9295   6.204   5.740   5.809
 2799SOL    HW1 9296   6.185   5.673   5.881
 2799SOL    HW2 9297   6.293   5.719   5.768
 2800SOL     OW 9298   2.967   1.852   6.578
 2800SOL    HW1 9299   2.907   1.891   6.648
 2800SOL    HW2 9300   3.016   1.773   6.616
 2801SOL     OW 9301   3.978   5.508   2.765
 2801SOL    HW1 9302   4.056   5.523   2.704
 2801SOL    HW2 9303   4.011   5.501   2.860
 2802SOL     OW 9304   6.106   0.487   6.201
 2802SOL    HW1 9305   6.118   0.448   6.292
 2802SOL    HW2 9306   6.128   0.585   6.203
 2803SOL     OW 9307   2.354   5.996   5.634
 2803SOL    HW1 9308   2.451   6.000   5.609
 2803SOL    HW2 9309   2.298   6.013   5.553
 2804SOL     OW 9310   0.255   4.868   2.030
 2804SOL    HW1 9311   0.282   4.773   2.044
 2804SOL    HW2 9312   0.276   4.896   1.936
 2805SOL     OW 9313   5.392   3.627   6.980
 2805SOL    HW1 9314   5.330   3.702   7.003
 2805SOL    HW2 9315   5.342   3.559   6.926
 2806SOL     OW 9316   6.649   5.531   2.554
 2806SOL    HW1 9317   6.637   5.477   2.470
 2806SOL    HW2 9318   6.640   5.471   2.633
 2807SOL     OW 9319   4.162   4.940   4.127
 2807SOL    HW1 9320   4.195   4.973   4.216
 2807SOL    HW2 9321   4.063   4.925   4.132
 2808SOL     OW 9322   4.218   5.954   4.508
 2808SOL    HW1 9323   4.205   6.002   4.594
 2808SOL    HW2 9324   4.252   6.018   4.439
 2809SOL     OW 9325   5.506   3.078   0.301
 2809SOL    HW1 9326   5.557   3.047   0.381
 2809SOL    HW2 9327   5.409   3.057   0.315
 2810SOL     OW 9328   1.319   0.775   6.211
 2810SOL    HW1 9329   1.318   0.746   6.115
 2810SOL    HW2 9330   1.233   0.822   6.232
 2811SOL     OW 9331   0.009   0.943   3.707
 2811SOL    HW1 9332   0.061   0.870   3.751
 2811SOL    HW2 9333   0.072   1.013   3.673
 2812SOL     OW 9334   4.778   4.194   2.335
 2812SOL    HW1 9335   4.752   4.172   2.241
 2812SOL    HW2 9336   4.818   4.286   2.339
 2813SOL     OW 9337   6.141   1.810   6.274
 2813SOL    HW1 9338   6.230   1.847   6.247
 2813SOL    HW2 9339   6.126   1.723   6.226
 2814SOL     OW 9340   5.291   4.465   4.714
 2814SOL    HW1 9341   5.300   4.563   4.728
 2814SOL    HW2 9342   5.307   4.443   4.618
 2815SOL     OW 9343   0.023   1.042   4.681
 2815SOL    HW1 9344   7.023   0.980   4.754
 2815SOL    HW2 9345   0.122   1.047   4.680
 2816SOL     OW 9346   5.494   6.503   2.908
 2816SOL    HW1 9347   5.554   6.440   2.859
 2816SOL    HW2 9348   5.420   6.451   2.951
 2817SOL     OW 9349   1.273   1.462   1.460
 2817SOL    HW1 9350   1.197   1.527   1.457
 2817SOL    HW2 9351   1.324   1.475   1.545
 2818SOL     OW 9352   0.746   3.423   6.670
 2818SOL    HW1 9353   0.836   3.436   6.629
 2818SOL    HW2 9354   0.678   3.415   6.597
 2819SOL     OW 9355   6.158   3.194   1.143
 2819SOL    HW1 9356   6.150   3.158   1.050
 2819SOL    HW2 9357   6.101   3.276   1.153
 2820SOL     OW 9358   5.648   2.590   3.901
 2820SOL    HW1 9359   5.660   2.493   3.921
 2820SOL    HW2 9360   5.587   2.631   3.970
 2821SOL     OW 9361   1.611   3.527   3.873
 2821SOL    HW1 9362   1.565   3.440   3.857
 2821SOL    HW2 9363   1.613   3.581   3.789
 2822SOL     OW 9364   3.012   1.860   0.603
 2822SOL    HW1 9365   2.985   1.767   0.579
 2822SOL    HW2 9366   2.943   1.901   0.662
 2823SOL     OW 9367   2.155   6.574   3.775
 2823SOL    HW1 9368   2.103   6.648   3.732
 2823SOL    HW2 9369   2.191   6.513   3.704
 2824SOL     OW 9370   2.732   2.119   5.533
 2824SOL    HW1 9371   2.790   2.045   5.498
 2824SOL    HW2 9372   2.674   2.153   5.460
 2825SOL     OW 9373   6.468   6.242   1.033
 2825SOL    HW1 9374   6.383   6.253   0.982
 2825SOL    HW2 9375   6.492   6.145   1.038
 2826SOL     OW 9376   4.794   2.787   4.286
 2826SOL    HW1 9377   4.758   2.777   4.193
 2826SOL    HW2 9378   4.894   2.783   4.284
 2827SOL     OW 9379   6.503   0.381   0.071
 2827SOL    HW1 9380   6.505   0.414   7.007
 2827SOL    HW2 9381   6.588   0.405   0.117
 2828SOL     OW 9382   3.778   2.075   6.943
 2828SOL    HW1 9383   3.802   1.987   6.982
 2828SOL    HW2 9384   3.736   2.132   7.014
 2829SOL     OW 9385   2.892   0.582   6.706
 2829SOL    HW1 9386   2.834   0.544   6.778
 2829SOL    HW2 9387   2.917   0.676   6.730
 2830SOL     OW 9388   3.271   3.613   6.584
 2830SOL    HW1 9389   3.273   3.690   6.519
 2830SOL    HW2 9390   3.182   3.611   6.629
 2831SOL     OW 9391   6.647   5.928   3.728
 2831SOL    HW1 9392   6.719   5.875   3.683
 2831SOL    HW2 9393   6.559   5.884   3.714
 2832SOL     OW 9394   0.527   1.217   1.868
 2832SOL    HW1 9395   0.517   1.235   1.770
 2832SOL    HW2 9396   0.458   1.270   1.919
 2833SOL     OW 9397   6.450   3.528   2.775
 2833SOL    HW1 9398   6.520   3.594   2.751
 2833SOL    HW2 9399   6.459   3.447   2.718
 2834SOL     OW 9400   4.451   0.821   5.713
 2834SOL    HW1 9401   4.488   0.749   5.772
 2834SOL    HW2 9402   4.364   0.790   5.673
 2835SOL     OW 9403   0.029   6.207   3.458
 2835SOL    HW1 9404   0.125   6.210   3.486
 2835SOL    HW2 9405   7.003   6.179   3.536
 2836SOL     OW 9406   6.484   0.643   0.645
 2836SOL    HW1 9407   6.414   0.618   0.578
 2836SOL    HW2 9408   6.502   0.566   0.706
 2837SOL     OW 9409   6.466   2.912   3.471
 2837SOL    HW1 9410   6.405   2.835   3.490
 2837SOL    HW2 9411   6.548   2.904   3.529
 2838SOL     OW 9412   1.846   4.471   4.057
 2838SOL    HW1 9413   1.893   4.534   4.118
 2838SOL    HW2 9414   1.771   4.427   4.106
 2839SOL     OW 9415   4.919   2.559   0.570
 2839SOL    HW1 9416   4.981   2.484   0.593
 2839SOL    HW2 9417   4.871   2.589   0.652
 2840SOL     OW 9418   6.294   2.773   5.070
 2840SOL    HW1 9419   6.380   2.727   5.047
 2840SOL    HW2 9420   6.238   2.784   4.988
 2841SOL     OW 9421   0.459   6.449   1.235
 2841SOL    HW1 9422   0.490   6.422   1.327
 2841SOL    HW2 9423   0.366   6.415   1.220
 2842SOL     OW 9424   5.695   3.085   2.825
 2842SOL    HW1 9425   5.722   3.086   2.921
 2842SOL    HW2 9426   5.735   3.006   2.780
 2843SOL     OW 9427   4.192   1.273   4.578
 2843SOL    HW1 9428   4.196   1.235   4.670
 2843SOL    HW2 9429   4.256   1.225   4.518
 2844SOL     OW 9430   0.785   3.921   5.755
 2844SOL    HW1 9431   0.821   3.874   5.674
 2844SOL    HW2 9432   0.784   3.857   5.832
 2845SOL     OW 9433   0.077   4.322   5.987
 2845SOL    HW1 9434   0.012   4.246   5.988
 2845SOL    HW2 9435   0.049   4.389   5.918
 2846SOL     OW 9436   4.879   0.959   5.705
 2846SOL    HW1 9437   4.928   0.872   5.711
 2846SOL    HW2 9438   4.869   0.998   5.797
 2847SOL     OW 9439   4.590   4.907   4.237
 2847SOL    HW1 9440   4.509   4.939   4.287
 2847SOL    HW2 9441   4.587   4.808   4.230
 2848SOL     OW 9442   1.924   6.519   5.702
 2848SOL    HW1 9443   1.846   6.472   5.661
 2848SOL    HW2 9444   2.009   6.489   5.658
 2849SOL     OW 9445   2.050   2.976   1.676
 2849SOL    HW1 9446   2.059   2.941   1.583
 2849SOL    HW2 9447   2.138   3.015   1.705
 2850SOL     OW 9448   3.938   0.888   0.745
 2850SOL    HW1 9449   4.006   0.962   0.741
 2850SOL    HW2 9450   3.944   0.842   0.833
 2851SOL     OW 9451   2.608   5.176   6.281
 2851SOL    HW1 9452   2.525   5.182   6.226
 2851SOL    HW2 9453   2.585   5.140   6.372
 2852SOL     OW 9454   0.394   2.854   6.346
 2852SOL    HW1 9455   0.340   2.834   6.428
 2852SOL    HW2 9456   0.491   2.844   6.367
 2853SOL     OW 9457   3.865   2.650   1.543
 2853SOL    HW1 9458   3.788   2.617   1.596
 2853SOL    HW2 9459   3.853   2.625   1.447
 2854SOL     OW 9460   1.121   1.000   3.518
 2854SOL    HW1 9461   1.048   0.943   3.556
 2854SOL    HW2 9462   1.090   1.043   3.434
 2855SOL     OW 9463   2.809   1.173   5.320
 2855SOL    HW1 9464   2.883   1.108   5.337
 2855SOL    HW2 9465   2.770   1.156   5.229
 2856SOL     OW 9466   1.996   1.647   5.204
 2856SOL    HW1 9467   1.939   1.600   5.272
 2856SOL    HW2 9468   1.958   1.737   5.185
 2857SOL     OW 9469   3.433   3.653   3.043
 2857SOL    HW1 9470   3.405   3.668   3.138
 2857SOL    HW2 9471   3.505   3.718   3.019
 2858SOL     OW 9472   5.438   2.379   2.954
 2858SOL    HW1 9473   5.515   2.348   3.010
 2858SOL    HW2 9474   5.461   2.368   2.858
 2859SOL     OW 9475   5.302   6.556   0.363
 2859SOL    HW1 9476   5.316   6.577   0.459
 2859SOL    HW2 9477   5.377   6.593   0.309
 2860SOL     OW 9478   4.015   2.094   0.872
 2860SOL    HW1 9479   4.032   2.099   0.970
 2860SOL    HW2 9480   4.058   2.172   0.827
 2861SOL     OW 9481   4.335   5.438   6.164
 2861SOL    HW1 9482   4.282   5.486   6.094
 2861SOL    HW2 9483   4.387   5.364   6.121
 2862SOL     OW 9484   6.243   0.029   3.938
 2862SOL    HW1 9485   6.288   0.028   4.027
 2862SOL    HW2 9486   6.300   0.080   3.873
 2863SOL     OW 9487   0.034   1.409   0.070
 2863SOL    HW1 9488   7.005   1.331   0.047
 2863SOL    HW2 9489   0.000   1.454   0.152
 2864SOL     OW 9490   3.683   1.336   0.440
 2864SOL    HW1 9491   3.764   1.315   0.386
 2864SOL    HW2 9492   3.641   1.251   0.472
 2865SOL     OW 9493   4.802   5.039   5.424
 2865SOL    HW1 9494   4.710   5.015   5.391
 2865SOL    HW2 9495   4.868   4.971   5.392
 2866SOL     OW 9496   0.062   0.032   6.478
 2866SOL    HW1 9497   0.016   6.974   6.491
 2866SOL    HW2 9498   0.027   0.098   6.545
 2867SOL     OW 9499   6.628   4.143   3.434
 2867SOL    HW1 9500   6.553   4.077   3.425
 2867SOL    HW2 9501   6.610   4.222   3.376
 2868SOL     OW 9502   1.512   5.044   5.019
 2868SOL    HW1 9503   1.587   5.031   5.083
 2868SOL    HW2 9504   1.468   4.956   5.000
 2869SOL     OW 9505   6.056   0.809   1.997
 2869SOL    HW1 9506   5.975   0.787   1.942
 2869SOL    HW2 9507   6.029   0.823   2.092
 2870SOL     OW 9508   4.723   2.001   2.337
 2870SOL    HW1 9509   4.644   1.957   2.294
 2870SOL    HW2 9510   4.692   2.084   2.384
 2871SOL     OW 9511   1.869   1.751   6.281
 2871SOL    HW1 9512   1.873   1.661   6.325
 2871SOL    HW2 9513   1.905   1.820   6.343
 2872SOL     OW 9514   1.882   6.519   3.849
 2872SOL    HW1 9515   1.977   6.546   3.837
 2872SOL    HW2 9516   1.824   6.600   3.857
 2873SOL     OW 9517   0.164   5.941   1.772
 2873SOL    HW1 9518   0.132   5.851   1.802
 2873SOL    HW2 9519   0.126   6.012   1.831
 2874SOL     OW 9520   5.703   1.266   2.412
 2874SOL    HW1 9521   5.748   1.209   2.482
 2874SOL    HW2 9522   5.717   1.225   2.322
 2875SOL     OW 9523   2.711   4.994   1.544
 2875SOL    HW1 9524   2.710   5.049   1.461
 2875SOL    HW2 9525   2.629   5.013   1.598
 2876SOL     OW 9526   0.036   2.011   2.122
 2876SOL    HW1 9527   0.075   1.988   2.033
 2876SOL    HW2 9528   0.080   2.094   2.157
 2877SOL     OW 9529   2.607   4.242   5.858
 2877SOL    HW1 9530   2.646   4.183   5.788
 2877SOL    HW2 9531   2.628   4.337   5.837
 2878SOL     OW 9532   3.494   5.146   0.390
 2878SOL    HW1 9533   3.444   5.152   0.477
 2878SOL    HW2 9534   3.587   5.114   0.407
 2879SOL     OW 9535   4.506   4.599   0.117
 2879SOL    HW1 9536   4.481   4.607   0.213
 2879SOL    HW2 9537   4.445   4.534   0.072
 2880SOL     OW 9538   1.295   0.081   1.697
 2880SOL    HW1 9539   1.312   0.130   1.612
 2880SOL    HW2 9540   1.218   0.123   1.746
 2881SOL     OW 9541   0.385   0.345   6.558
 2881SOL    HW1 9542   0.285   0.348   6.556
 2881SOL    HW2 9543   0.414   0.259   6.600
 2882SOL     OW 9544   6.855   3.047   3.729
 2882SOL    HW1 9545   6.819   2.968   3.681
 2882SOL    HW2 9546   6.910   3.102   3.667
 2883SOL     OW 9547   4.725   6.071   2.381
 2883SOL    HW1 9548   4.657   6.072   2.307
 2883SOL    HW2 9549   4.699   6.139   2.450
 2884SOL     OW 9550   1.691   5.991   2.822
 2884SOL    HW1 9551   1.710   5.895   2.845
 2884SOL    HW2 9552   1.741   6.015   2.738
 2885SOL     OW 9553   0.730   2.567   4.031
 2885SOL    HW1 9554   0.679   2.622   4.098
 2885SOL    HW2 9555   0.806   2.621   3.995
 2886SOL     OW 9556   2.570   3.096   6.190
 2886SOL    HW1 9557   2.619   3.015   6.222
 2886SOL    HW2 9558   2.568   3.097   6.090
 2887SOL     OW 9559   2.753   1.768   5.005
 2887SOL    HW1 9560   2.758   1.822   4.922
 2887SOL    HW2 9561   2.846   1.747   5.036
 2888SOL     OW 9562   0.058   4.934   6.998
 2888SOL    HW1 9563   0.067   4.952   6.900
 2888SOL    HW2 9564   0.115   4.999   0.019
 2889SOL     OW 9565   0.383   0.139   0.763
 2889SOL    HW1 9566   0.350   0.098   0.677
 2889SOL    HW2 9567   0.480   0.161   0.754
 2890SOL     OW 9568   2.799   0.376   0.459
 2890SOL    HW1 9569   2.825   0.294   0.510
 2890SOL    HW2 9570   2.816   0.457   0.514
 2891SOL     OW 9571   3.018   4.820   4.581
 2891SOL    HW1 9572   3.067   4.887   4.635
 2891SOL    HW2 9573   3.048   4.826   4.486
 2892SOL     OW 9574   4.479   4.379   5.356
 2892SOL    HW1 9575   4.382   4.359   5.370
 2892SOL    HW2 9576   4.528   4.370   5.442
 2893SOL     OW 9577   3.256   1.060   5.900
 2893SOL    HW1 9578   3.169   1.104   5.925
 2893SOL    HW2 9579   3.246   0.961   5.906
 2894SOL     OW 9580   3.454   2.596   1.355
 2894SOL    HW1 9581   3.410   2.584   1.444
 2894SOL    HW2 9582   3.491   2.508   1.324
 2895SOL     OW 9583   3.082   3.331   6.736
 2895SOL    HW1 9584   3.064   3.406   6.672
 2895SOL    HW2 9585   3.101   3.369   6.827
 2896SOL     OW 9586   2.015   5.396   1.069
 2896SOL    HW1 9587   2.090   5.458   1.046
 2896SOL    HW2 9588   2.051   5.306   1.093
 2897SOL     OW 9589   1.435   6.901   3.552
 2897SOL    HW1 9590   1.400   6.875   3.642
 2897SOL    HW2 9591   1.492   6.827   3.515
 2898SOL     OW 9592   2.513   4.451   2.884
 2898SOL    HW1 9593   2.583   4.471   2.814
 2898SOL    HW2 9594   2.445   4.389   2.845
 2899SOL     OW 9595   6.194   1.248   0.527
 2899SOL    HW1 9596   6.209   1.334   0.478
 2899SOL    HW2 9597   6.148   1.183   0.467
 2900SOL     OW 9598   2.866   5.522   6.427
 2900SOL    HW1 9599   2.784   5.500   6.481
 2900SOL    HW2 9600   2.856   5.485   6.335
 2901SOL     OW 9601   2.898   0.216   1.183
 2901SOL    HW1 9602   2.979   0.185   1.232
 2901SOL    HW2 9603   2.862   0.140   1.128
 2902SOL     OW 9604   5.606   5.224   1.103
 2902SOL    HW1 9605   5.581   5.133   1.136
 2902SOL    HW2 9606   5.704   5.226   1.081
 2903SOL     OW 9607   2.787   2.473   1.638
 2903SOL    HW1 9608   2.721   2.547   1.656
 2903SOL    HW2 9609   2.851   2.467   1.715
 2904SOL     OW 9610   2.291   2.746   4.278
 2904SOL    HW1 9611   2.358   2.685   4.320
 2904SOL    HW2 9612   2.333   2.792   4.199
 2905SOL     OW 9613   1.595   2.008   1.969
 2905SOL    HW1 9614   1.625   2.100   1.992
 2905SOL    HW2 9615   1.497   1.998   1.989
 2906SOL     OW 9616   5.132   5.602   2.076
 2906SOL    HW1 9617   5.173   5.540   2.143
 2906SOL    HW2 9618   5.033   5.589   2.075
 2907SOL     OW 9619   6.386   0.498   4.468
 2907SOL    HW1 9620   6.422   0.442   4.543
 2907SOL    HW2 9621   6.374   0.592   4.500
 2908SOL     OW 9622   4.187   6.442   5.237
 2908SOL    HW1 9623   4.274   6.473   5.275
 2908SOL    HW2 9624   4.136   6.393   5.308
 2909SOL     OW 9625   1.569   5.952   5.372
 2909SOL    HW1 9626   1.509   6.030   5.393
 2909SOL    HW2 9627   1.594   5.906   5.456
 2910SOL     OW 9628   4.970   6.284   5.234
 2910SOL    HW1 9629   5.007   6.319   5.148
 2910SOL    HW2 9630   5.045   6.255   5.293
 2911SOL     OW 9631   2.246   4.246   3.814
 2911SOL    HW1 9632   2.286   4.304   3.885
 2911SOL    HW2 9633   2.204   4.304   3.744
 2912SOL     OW 9634   2.844   5.254   0.844
 2912SOL    HW1 9635   2.925   5.299   0.806
 2912SOL    HW2 9636   2.804   5.193   0.775
 2913SOL     OW 9637   1.097   3.588   2.408
 2913SOL    HW1 9638   1.010   3.627   2.377
 2913SOL    HW2 9639   1.097   3.490   2.392
 2914SOL     OW 9640   5.304   4.834   5.623
 2914SOL    HW1 9641   5.264   4.920   5.593
 2914SOL    HW2 9642   5.252   4.758   5.583
 2915SOL     OW 9643   3.984   1.410   4.448
 2915SOL    HW1 9644   3.988   1.373   4.356
 2915SOL    HW2 9645   4.058   1.372   4.503
 2916SOL     OW 9646   4.354   6.002   4.961
 2916SOL    HW1 9647   4.413   5.938   4.911
 2916SOL    HW2 9648   4.313   5.956   5.040
 2917SOL     OW 9649   4.488   0.605   1.963
 2917SOL    HW1 9650   4.501   0.660   1.880
 2917SOL    HW2 9651   4.407   0.548   1.952
 2918SOL     OW 9652   0.297   3.246   4.170
 2918SOL    HW1 9653   0.348   3.195   4.239
 2918SOL    HW2 9654   0.207   3.270   4.206
 2919SOL     OW 9655   6.125   6.146   0.515
 2919SOL    HW1 9656   6.124   6.177   0.420
 2919SOL    HW2 9657   6.177   6.210   0.571
 2920SOL     OW 9658   4.478   2.029   3.019
 2920SOL    HW1 9659   4.443   2.021   3.113
 2920SOL    HW2 9660   4.465   2.123   2.987
 2921SOL     OW 9661   0.033   0.111   1.546
 2921SOL    HW1 9662   7.007   0.166   1.608
 2921SOL    HW2 9663   0.010   0.133   1.451
 2922SOL     OW 9664   4.684   6.523   5.208
 2922SOL    HW1 9665   4.740   6.544   5.128
 2922SOL    HW2 9666   4.739   6.535   5.291
 2923SOL     OW 9667   6.965   4.498   0.303
 2923SOL    HW1 9668   6.982   4.596   0.305
 2923SOL    HW2 9669   6.888   4.476   0.363
 2924SOL     OW 9670   6.122   0.081   5.872
 2924SOL    HW1 9671   6.076   0.161   5.912
 2924SOL    HW2 9672   6.130   0.009   5.941
 2925SOL     OW 9673   5.791   3.338   1.336
 2925SOL    HW1 9674   5.783   3.257   1.393
 2925SOL    HW2 9675   5.773   3.420   1.391
 2926SOL     OW 9676   6.987   1.439   3.560
 2926SOL    HW1 9677   7.000   1.513   3.626
 2926SOL    HW2 9678   6.895   1.400   3.570
 2927SOL     OW 9679   0.929   3.051   2.434
 2927SOL    HW1 9680   0.941   3.150   2.438
 2927SOL    HW2 9681   1.008   3.010   2.389
 2928SOL     OW 9682   5.286   5.880   1.255
 2928SOL    HW1 9683   5.299   5.807   1.322
 2928SOL    HW2 9684   5.356   5.873   1.185
 2929SOL     OW 9685   0.751   0.491   6.115
 2929SOL    HW1 9686   0.818   0.469   6.044
 2929SOL    HW2 9687   0.798   0.523   6.197
 2930SOL     OW 9688   3.217   6.555   4.227
 2930SOL    HW1 9689   3.187   6.586   4.137
 2930SOL    HW2 9690   3.142   6.563   4.292
 2931SOL     OW 9691   3.991   4.947   6.757
 2931SOL    HW1 9692   4.002   4.895   6.672
 2931SOL    HW2 9693   3.917   5.014   6.746
 2932SOL     OW 9694   1.437   4.502   2.020
 2932SOL    HW1 9695   1.450   4.564   2.098
 2932SOL    HW2 9696   1.369   4.433   2.044
 2933SOL     OW 9697   4.888   1.887   3.383
 2933SOL    HW1 9698   4.898   1.986   3.368
 2933SOL    HW2 9699   4.792   1.862   3.380
 2934SOL     OW 9700   2.094   0.970   0.474
 2934SOL    HW1 9701   2.019   0.916   0.436
 2934SOL    HW2 9702   2.097   0.958   0.573
 2935SOL     OW 9703   6.691   1.664   1.424
 2935SOL    HW1 9704   6.665   1.639   1.330
 2935SOL    HW2 9705   6.764   1.603   1.455
 2936SOL     OW 9706   3.238   5.783   0.833
 2936SOL    HW1 9707   3.180   5.821   0.760
 2936SOL    HW2 9708   3.320   5.839   0.842
 2937SOL     OW 9709   2.407   4.416   0.094
 2937SOL    HW1 9710   2.481   4.443   0.155
 2937SOL    HW2 9711   2.442   4.410   0.000
 2938SOL     OW 9712   5.387   4.757   5.223
 2938SOL    HW1 9713   5.454   4.743   5.295
 2938SOL    HW2 9714   5.307   4.805   5.260
 2939SOL     OW 9715   0.193   6.756   6.256
 2939SOL    HW1 9716   0.236   6.676   6.213
 2939SOL    HW2 9717   0.257   6.799   6.319
 2940SOL     OW 9718   4.205   0.311   5.399
 2940SOL    HW1 9719   4.112   0.288   5.372
 2940SOL    HW2 9720   4.255   0.228   5.423
 2941SOL     OW 9721   3.319   1.652   5.305
 2941SOL    HW1 9722   3.366   1.578   5.256
 2941SOL    HW2 9723   3.224   1.627   5.321
 2942SOL     OW 9724   3.612   6.388   4.604
 2942SOL    HW1 9725   3.574   6.476   4.579
 2942SOL    HW2 9726   3.707   6.399   4.634
 2943SOL     OW 9727   5.021   3.865   2.479
 2943SOL    HW1 9728   5.070   3.786   2.441
 2943SOL    HW2 9729   4.940   3.883   2.424
 2944SOL     OW 9730   4.333   6.195   6.978
 2944SOL    HW1 9731   4.354   6.288   7.007
 2944SOL    HW2 9732   4.234   6.184   6.969
 2945SOL     OW 9733   3.096   4.033   3.049
 2945SOL    HW1 9734   3.186   4.074   3.058
 2945SOL    HW2 9735   3.031   4.080   3.109
 2946SOL     OW 9736   0.281   5.716   5.981
 2946SOL    HW1 9737   0.313   5.726   6.075
 2946SOL    HW2 9738   0.258   5.621   5.963
 2947SOL     OW 9739   0.428   5.142   0.191
 2947SOL    HW1 9740   0.334   5.176   0.188
 2947SOL    HW2 9741   0.434   5.055   0.143
 2948SOL     OW 9742   5.897   4.090   5.641
 2948SOL    HW1 9743   5.849   4.062   5.724
 2948SOL    HW2 9744   5.842   4.066   5.561
 2949SOL     OW 9745   1.014   5.876   0.689
 2949SOL    HW1 9746   0.917   5.858   0.674
 2949SOL    HW2 9747   1.025   5.961   0.741
 2950SOL     OW 9748   5.074   3.661   4.723
 2950SOL    HW1 9749   5.058   3.629   4.629
 2950SOL    HW2 9750   5.021   3.744   4.739
 2951SOL     OW 9751   6.053   0.802   1.118
 2951SOL    HW1 9752   6.097   0.744   1.187
 2951SOL    HW2 9753   5.956   0.780   1.113
 2952SOL     OW 9754   1.083   4.097   1.955
 2952SOL    HW1 9755   0.991   4.058   1.958
 2952SOL    HW2 9756   1.149   4.029   1.987
 2953SOL     OW 9757   5.568   0.882   2.425
 2953SOL    HW1 9758   5.656   0.845   2.454
 2953SOL    HW2 9759   5.535   0.948   2.492
 2954SOL     OW 9760   6.160   5.786   1.170
 2954SOL    HW1 9761   6.105   5.865   1.143
 2954SOL    HW2 9762   6.255   5.813   1.181
 2955SOL     OW 9763   6.681   2.341   0.570
 2955SOL    HW1 9764   6.583   2.329   0.590
 2955SOL    HW2 9765   6.718   2.256   0.534
 2956SOL     OW 9766   6.378   5.002   2.809
 2956SOL    HW1 9767   6.418   4.914   2.781
 2956SOL    HW2 9768   6.280   4.991   2.821
 2957SOL     OW 9769   0.862   5.222   1.435
 2957SOL    HW1 9770   0.793   5.238   1.363
 2957SOL    HW2 9771   0.949   5.262   1.406
 2958SOL     OW 9772   3.697   4.915   6.619
 2958SOL    HW1 9773   3.706   4.918   6.520
 2958SOL    HW2 9774   3.734   4.828   6.653
 2959SOL     OW 9775   4.136   5.709   0.514
 2959SOL    HW1 9776   4.059   5.772   0.524
 2959SOL    HW2 9777   4.171   5.713   0.420
 2960SOL     OW 9778   3.028   1.618   6.783
 2960SOL    HW1 9779   3.072   1.565   6.711
 2960SOL    HW2 9780   2.945   1.571   6.813
 2961SOL     OW 9781   5.825   1.887   4.290
 2961SOL    HW1 9782   5.891   1.935   4.232
 2961SOL    HW2 9783   5.847   1.902   4.386
 2962SOL     OW 9784   4.284   0.815   2.957
 2962SOL    HW1 9785   4.269   0.777   2.866
 2962SOL    HW2 9786   4.256   0.749   3.026
 2963SOL     OW 9787   2.194   3.267   5.208
 2963SOL    HW1 9788   2.262   3.316   5.262
 2963SOL    HW2 9789   2.175   3.319   5.124
 2964SOL     OW 9790   2.972   6.359   0.005
 2964SOL    HW1 9791   3.007   6.291   0.070
 2964SOL    HW2 9792   2.965   6.448   0.051
 2965SOL     OW 9793   0.505   2.490   6.076
 2965SOL    HW1 9794   0.596   2.470   6.040
 2965SOL    HW2 9795   0.511   2.569   6.138
 2966SOL     OW 9796   4.813   4.455   3.347
 2966SOL    HW1 9797   4.769   4.384   3.402
 2966SOL    HW2 9798   4.808   4.542   3.395
 2967SOL     OW 9799   6.006   2.399   4.001
 2967SOL    HW1 9800   5.934   2.363   4.061
 2967SOL    HW2 9801   5.967   2.419   3.911
 2968SOL     OW 9802   6.697   3.786   3.703
 2968SOL    HW1 9803   6.722   3.877   3.735
 2968SOL    HW2 9804   6.699   3.722   3.779
 2969SOL     OW 9805   4.373   1.106   4.461
 2969SOL    HW1 9806   4.346   1.014   4.488
 2969SOL    HW2 9807   4.391   1.107   4.363
 2970SOL     OW 9808   0.917   4.734   6.265
 2970SOL    HW1 9809   0.868   4.814   6.299
 2970SOL    HW2 9810   0.953   4.682   6.343
 2971SOL     OW 9811   5.106   3.602   2.928
 2971SOL    HW1 9812   5.088   3.676   2.864
 2971SOL    HW2 9813   5.146   3.640   3.012
 2972SOL     OW 9814   1.144   4.091   6.050
 2972SOL    HW1 9815   1.233   4.093   6.095
 2972SOL    HW2 9816   1.156   4.102   5.951
 2973SOL     OW 9817   5.743   0.140   4.337
 2973SOL    HW1 9818   5.762   0.171   4.243
 2973SOL    HW2 9819   5.703   0.048   4.334
 2974SOL     OW 9820   0.189   4.226   2.030
 2974SOL    HW1 9821   0.181   4.323   2.006
 2974SOL    HW2 9822   0.269   4.212   2.088
 2975SOL     OW 9823   0.191   1.679   4.061
 2975SOL    HW1 9824   0.257   1.635   4.001
 2975SOL    HW2 9825   0.185   1.629   4.147
 2976SOL     OW 9826   2.561   6.277   1.930
 2976SOL    HW1 9827   2.641   6.304   1.878
 2976SOL    HW2 9828   2.566   6.179   1.949
 2977SOL     OW 9829   3.467   6.158   3.899
 2977SOL    HW1 9830   3.508   6.114   3.819
 2977SOL    HW2 9831   3.380   6.200   3.873
 2978SOL     OW 9832   3.695   7.006   6.866
 2978SOL    HW1 9833   3.737   7.026   6.955
 2978SOL    HW2 9834   3.629   6.932   6.877
 2979SOL     OW 9835   3.495   1.068   3.338
 2979SOL    HW1 9836   3.475   1.061   3.241
 2979SOL    HW2 9837   3.466   1.158   3.372
 2980SOL     OW 9838   6.718   6.015   3.992
 2980SOL    HW1 9839   6.704   5.983   3.899
 2980SOL    HW2 9840   6.629   6.040   4.033
 2981SOL     OW 9841   1.816   1.581   5.396
 2981SOL    HW1 9842   1.751   1.525   5.448
 2981SOL    HW2 9843   1.809   1.676   5.426
 2982SOL     OW 9844   4.845   6.533   2.599
 2982SOL    HW1 9845   4.882   6.440   2.604
 2982SOL    HW2 9846   4.897   6.593   2.659
 2983SOL     OW 9847   6.824   0.043   2.738
 2983SOL    HW1 9848   6.755   0.057   2.666
 2983SOL    HW2 9849   6.867   0.130   2.761
 2984SOL     OW 9850   5.848   4.725   1.580
 2984SOL    HW1 9851   5.786   4.747   1.505
 2984SOL    HW2 9852   5.874   4.628   1.574
 2985SOL     OW 9853   6.571   1.833   3.033
 2985SOL    HW1 9854   6.472   1.822   3.037
 2985SOL    HW2 9855   6.602   1.827   2.938
 2986SOL     OW 9856   2.260   3.841   5.278
 2986SOL    HW1 9857   2.313   3.920   5.247
 2986SOL    HW2 9858   2.163   3.854   5.255
 2987SOL     OW 9859   4.832   1.455   4.981
 2987SOL    HW1 9860   4.928   1.443   4.954
 2987SOL    HW2 9861   4.773   1.398   4.924
 2988SOL     OW 9862   0.688   0.088   1.886
 2988SOL    HW1 9863   0.597   0.127   1.871
 2988SOL    HW2 9864   0.687   7.020   1.866
 2989SOL     OW 9865   6.158   5.755   0.681
 2989SOL    HW1 9866   6.235   5.812   0.710
 2989SOL    HW2 9867   6.132   5.778   0.588
 2990SOL     OW 9868   3.138   0.923   1.193
 2990SOL    HW1 9869   3.235   0.899   1.199
 2990SOL    HW2 9870   3.125   0.990   1.119
 2991SOL     OW 9871   6.227   4.814   0.160
 2991SOL    HW1 9872   6.232   4.903   0.204
 2991SOL    HW2 9873   6.134   4.778   0.167
 2992SOL     OW 9874   4.380   4.264   6.734
 2992SOL    HW1 9875   4.337   4.209   6.662
 2992SOL    HW2 9876   4.310   4.316   6.782
 2993SOL     OW 9877   2.034   5.042   0.282
 2993SOL    HW1 9878   1.992   4.966   0.332
 2993SOL    HW2 9879   1.992   5.049   0.191
 2994SOL     OW 9880   4.105   6.621   0.121
 2994SOL    HW1 9881   4.035   6.619   0.192
 2994SOL    HW2 9882   4.111   6.713   0.083
 2995SOL     OW 9883   2.539   1.174   5.426
 2995SOL    HW1 9884   2.639   1.163   5.423
 2995SOL    HW2 9885   2.512   1.248   5.365
 2996SOL     OW 9886   3.849   5.951   5.711
 2996SOL    HW1 9887   3.779   5.915   5.773
 2996SOL    HW2 9888   3.860   5.888   5.634
 2997SOL     OW 9889   4.545   6.017   0.393
 2997SOL    HW1 9890   4.458   6.064   0.377
 2997SOL    HW2 9891   4.615   6.083   0.419
 2998SOL     OW 9892   5.986   5.179   5.119
 2998SOL    HW1 9893   6.003   5.120   5.198
 2998SOL    HW2 9894   6.062   5.244   5.109
 2999SOL     OW 9895   2.991   0.243   2.389
 2999SOL    HW1 9896   2.928   0.261   2.313
 2999SOL    HW2 9897   3.001   0.144   2.401
 3000SOL     OW 9898   1.299   2.242   4.420
 3000SOL    HW1 9899   1.335   2.300   4.493
 3000SOL    HW2 9900   1.338   2.271   4.333
 3001SOL     OW 9901   4.787   6.832   5.824
 3001SOL    HW1 9902   4.823   6.881   5.745
 3001SOL    HW2 9903   4.762   6.897   5.896
 3002SOL     OW 9904   2.895   1.026   5.607
 3002SOL    HW1 9905   2.813   1.008   5.661
 3002SOL    HW2 9906   2.908   1.124   5.596
 3003SOL     OW 9907   2.625   0.094   5.965
 3003SOL    HW1 9908   2.682   0.128   6.040
 3003SOL    HW2 9909   2.534   0.071   6.001
 3004SOL     OW 9910   6.295   3.346   5.287
 3004SOL    HW1 9911   6.284   3.444   5.303
 3004SOL    HW2 9912   6.261   3.324   5.196
 3005SOL     OW 9913   4.369   2.343   0.887
 3005SOL    HW1 9914   4.385   2.248   0.863
 3005SOL    HW2 9915   4.457   2.391   0.892
 3006SOL     OW 9916   4.947   0.300   1.005
 3006SOL    HW1 9917   4.960   0.381   0.948
 3006SOL    HW2 9918   4.958   0.325   1.101
 3007SOL     OW 9919   6.452   5.245   1.949
 3007SOL    HW1 9920   6.545   5.282   1.957
 3007SOL    HW2 9921   6.436   5.180   2.024
 3008SOL     OW 9922   4.931   5.997   5.781
 3008SOL    HW1 9923   4.971   5.920   5.731
 3008SOL    HW2 9924   4.889   5.964   5.865
 3009SOL     OW 9925   1.617   1.011   2.373
 3009SOL    HW1 9926   1.617   1.104   2.409
 3009SOL    HW2 9927   1.601   0.945   2.447
 3010SOL     OW 9928   2.707   6.630   2.752
 3010SOL    HW1 9929   2.684   6.571   2.830
 3010SOL    HW2 9930   2.784   6.689   2.778
 3011SOL     OW 9931   5.584   0.621   0.076
 3011SOL    HW1 9932   5.560   0.666   7.020
 3011SOL    HW2 9933   5.542   0.530   0.078
 3012SOL     OW 9934   0.038   4.659   1.921
 3012SOL    HW1 9935   6.979   4.620   1.899
 3012SOL    HW2 9936   0.072   4.712   1.844
 3013SOL     OW 9937   6.353   3.733   2.114
 3013SOL    HW1 9938   6.356   3.639   2.149
 3013SOL    HW2 9939   6.427   3.747   2.049
 3014SOL     OW 9940   5.437   0.320   4.931
 3014SOL    HW1 9941   5.393   0.264   4.861
 3014SOL    HW2 9942   5.382   0.402   4.947
 3015SOL     OW 9943   3.241   1.795   0.084
 3015SOL    HW1 9944   3.272   1.701   0.068
 3015SOL    HW2 9945   3.310   1.843   0.139
 3016SOL     OW 9946   3.827   6.183   3.497
 3016SOL    HW1 9947   3.908   6.145   3.542
 3016SOL    HW2 9948   3.811   6.134   3.411
 3017SOL     OW 9949   6.892   6.116   1.105
 3017SOL    HW1 9950   6.833   6.088   1.181
 3017SOL    HW2 9951   6.838   6.171   1.041
 3018SOL     OW 9952   3.845   6.859   6.316
 3018SOL    HW1 9953   3.887   6.775   6.283
 3018SOL    HW2 9954   3.901   6.897   6.390
 3019SOL     OW 9955   5.211   6.625   2.097
 3019SOL    HW1 9956   5.171   6.713   2.124
 3019SOL    HW2 9957   5.185   6.604   2.003
 3020SOL     OW 9958   2.341   0.904   1.398
 3020SOL    HW1 9959   2.251   0.883   1.360
 3020SOL    HW2 9960   2.357   1.003   1.393
 3021SOL     OW 9961   4.240   0.817   6.237
 3021SOL    HW1 9962   4.185   0.772   6.307
 3021SOL    HW2 9963   4.189   0.896   6.200
 3022SOL     OW 9964   6.083   7.021   1.719
 3022SOL    HW1 9965   6.113   6.958   1.791
 3022SOL    HW2 9966   6.015   6.976   1.661
 3023SOL     OW 9967   5.555   6.996   1.531
 3023SOL    HW1 9968   5.550   6.919   1.467
 3023SOL    HW2 9969   5.647   0.006   1.526
 3024SOL     OW 9970   2.956   6.842   6.948
 3024SOL    HW1 9971   2.857   6.841   6.961
 3024SOL    HW2 9972   2.986   6.935   6.925
 3025SOL     OW 9973   1.892   2.480   2.048
 3025SOL    HW1 9974   1.990   2.476   2.065
 3025SOL    HW2 9975   1.859   2.573   2.065
 3026SOL     OW 9976   1.993   5.298   0.279
 3026SOL    HW1 9977   2.011   5.201   0.293
 3026SOL    HW2 9978   2.045   5.352   0.345
 3027SOL     OW 9979   1.405   1.605   4.000
 3027SOL    HW1 9980   1.340   1.532   3.979
 3027SOL    HW2 9981   1.481   1.601   3.935
 3028SOL     OW 9982   1.271   0.799   4.404
 3028SOL    HW1 9983   1.244   0.819   4.310
 3028SOL    HW2 9984   1.259   0.702   4.422
 3029SOL     OW 9985   5.570   5.209   6.190
 3029SOL    HW1 9986   5.587   5.111   6.187
 3029SOL    HW2 9987   5.472   5.226   6.182
 3030SOL     OW 9988   1.037   1.220   5.756
 3030SOL    HW1 9989   1.015   1.170   5.673
 3030SOL    HW2 9990   1.135   1.208   5.777
 3031SOL     OW 9991   0.770   4.933   0.005
 3031SOL    HW1 9992   0.720   5.016   7.011
 3031SOL    HW2 9993   0.774   4.872   6.956
 3032SOL     OW 9994   3.967   0.237   5.285
 3032SOL    HW1 9995   3.948   0.139   5.290
 3032SOL    HW2 9996   3.995   0.260   5.192
 3033SOL     OW 9997   5.391   4.897   5.886
 3033SOL    HW1 9998   5.386   4.852   5.797
 3033SOL    HW2 9999   5.407   4.995   5.873
 3034SOL     OW10000   2.518   6.998   4.246
 3034SOL    HW110001   2.423   6.970   4.257
 3034SOL    HW210002   2.533   0.054   4.294
 3035SOL     OW10003   6.528   6.909   6.983
 3035SOL    HW110004   6.491   6.859   6.904
 3035SOL    HW210005   6.545   7.004   6.957
 3036SOL     OW10006   0.936   4.885   5.850
 3036SOL    HW110007   0.980   4.817   5.910
 3036SOL    HW210008   0.923   4.970   5.900
 3037SOL     OW10009   6.362   6.918   5.640
 3037SOL    HW110010   6.393   6.856   5.568
 3037SOL    HW210011   6.285   6.973   5.605
 3038SOL     OW10012   5.946   6.627   5.858
 3038SOL    HW110013   6.017   6.588   5.916
 3038SOL    HW210014   5.943   6.577   5.772
 3039SOL     OW10015   0.094   4.717   0.168
 3039SOL    HW110016   0.101   4.792   0.102
 3039SOL    HW210017   0.165   4.650   0.149
 3040SOL     OW10018   2.463   1.835   7.005
 3040SOL    HW110019   2.463   1.923   6.958
 3040SOL    HW210020   2.550   1.822   0.022
 3041SOL     OW10021   1.740   2.280   5.950
 3041SOL    HW110022   1.775   2.372   5.969
 3041SOL    HW210023   1.666   2.286   5.883
 3042SOL     OW10024   5.295   6.909   1.941
 3042SOL    HW110025   5.226   6.962   1.892
 3042SOL    HW210026   5.283   6.812   1.919
 3043SOL     OW10027   6.498   5.140   0.190
 3043SOL    HW110028   6.408   5.184   0.187
 3043SOL    HW210029   6.534   5.144   0.283
 3044SOL     OW10030   3.298   3.478   5.611
 3044SOL    HW110031   3.255   3.565   5.634
 3044SOL    HW210032   3.236   3.423   5.555
 3045SOL     OW10033   5.210   2.127   4.462
 3045SOL    HW110034   5.190   2.199   4.529
 3045SOL    HW210035   5.302   2.142   4.424
 3046SOL     OW10036   2.117   2.488   6.108
 3046SOL    HW110037   2.213   2.470   6.129
 3046SOL    HW210038   2.110   2.543   6.025
 3047SOL     OW10039   0.109   4.718   1.632
 3047SOL    HW110040   0.034   4.783   1.620
 3047SOL    HW210041   0.078   4.626   1.608
 3048SOL     OW10042   3.143   2.633   1.722
 3048SOL    HW110043   3.082   2.666   1.649
 3048SOL    HW210044   3.088   2.593   1.795
 3049SOL     OW10045   0.822   0.362   1.101
 3049SOL    HW110046   0.727   0.333   1.105
 3049SOL    HW210047   0.836   0.440   1.161
 3050SOL     OW10048   2.269   6.476   4.008
 3050SOL    HW110049   2.296   6.392   3.961
 3050SOL    HW210050   2.215   6.533   3.946
 3051SOL     OW10051   2.584   4.461   5.501
 3051SOL    HW110052   2.494   4.467   5.459
 3051SOL    HW210053   2.575   4.469   5.600
 3052SOL     OW10054   5.048   6.600   2.818
 3052SOL    HW110055   5.064   6.523   2.879
 3052SOL    HW210056   5.062   6.685   2.867
 3053SOL     OW10057   4.843   6.747   1.403
 3053SOL    HW110058   4.832   6.775   1.307
 3053SOL    HW210059   4.940   6.747   1.426
 3054SOL     OW10060   1.955   4.397   5.593
 3054SOL    HW110061   2.039   4.448   5.574
 3054SOL    HW210062   1.949   4.319   5.530
 3055SOL     OW10063   5.789   6.420   2.775
 3055SOL    HW110064   5.796   6.517   2.755
 3055SOL    HW210065   5.771   6.369   2.691
 3056SOL     OW10066   6.006   0.481   1.158
 3056SOL    HW110067   6.078   0.413   1.168
 3056SOL    HW210068   6.004   0.540   1.238
 3057SOL     OW10069   6.681   6.114   2.590
 3057SOL    HW110070   6.583   6.104   2.572
 3057SOL    HW210071   6.695   6.140   2.686
 3058SOL     OW10072   6.417   5.461   1.648
 3058SOL    HW110073   6.448   5.392   1.582
 3058SOL    HW210074   6.318   5.473   1.640
 3059SOL     OW10075   2.078   2.589   5.132
 3059SOL    HW110076   2.141   2.657   5.096
 3059SOL    HW210077   2.061   2.606   5.229
 3060SOL     OW10078   6.981   6.572   0.496
 3060SOL    HW110079   0.026   6.551   0.433
 3060SOL    HW210080   7.009   6.643   0.560
 3061SOL     OW10081   0.522   0.723   5.915
 3061SOL    HW110082   0.519   0.640   5.970
 3061SOL    HW210083   0.465   0.711   5.834
 3062SOL     OW10084   3.083   5.663   6.129
 3062SOL    HW110085   3.152   5.610   6.178
 3062SOL    HW210086   2.998   5.610   6.123
 3063SOL     OW10087   2.098   5.870   0.354
 3063SOL    HW110088   2.126   5.951   0.304
 3063SOL    HW210089   2.028   5.821   0.302
 3064SOL     OW10090   6.919   4.294   3.565
 3064SOL    HW110091   6.922   4.196   3.544
 3064SOL    HW210092   6.835   4.314   3.616
 3065SOL     OW10093   2.793   1.296   1.234
 3065SOL    HW110094   2.887   1.285   1.202
 3065SOL    HW210095   2.787   1.377   1.293
 3066SOL     OW10096   5.469   5.777   0.766
 3066SOL    HW110097   5.528   5.845   0.810
 3066SOL    HW210098   5.471   5.692   0.819
 3067SOL     OW10099   4.575   6.700   3.146
 3067SOL    HW110100   4.575   6.718   3.048
 3067SOL    HW210101   4.482   6.713   3.182
 3068SOL     OW10102   5.719   4.681   0.332
 3068SOL    HW110103   5.637   4.736   0.318
 3068SOL    HW210104   5.720   4.605   0.267
 3069SOL     OW10105   0.591   5.313   3.759
 3069SOL    HW110106   0.576   5.228   3.709
 3069SOL    HW210107   0.613   5.387   3.695
 3070SOL     OW10108   3.781   1.631   4.703
 3070SOL    HW110109   3.781   1.723   4.664
 3070SOL    HW210110   3.873   1.608   4.734
 3071SOL     OW10111   5.388   0.036   3.887
 3071SOL    HW110112   5.332   6.999   3.838
 3071SOL    HW210113   5.472   7.022   3.919
 3072SOL     OW10114   0.941   0.758   2.027
 3072SOL    HW110115   1.008   0.832   2.023
 3072SOL    HW210116   0.924   0.723   1.935
 3073SOL     OW10117   1.836   2.476   4.108
 3073SOL    HW110118   1.843   2.377   4.122
 3073SOL    HW210119   1.928   2.516   4.104
 3074SOL     OW10120   4.702   3.466   6.183
 3074SOL    HW110121   4.675   3.452   6.088
 3074SOL    HW210122   4.799   3.492   6.187
 3075SOL     OW10123   6.921   5.915   0.842
 3075SOL    HW110124   6.988   5.919   0.768
 3075SOL    HW210125   6.906   5.819   0.869
 3076SOL     OW10126   0.861   0.779   5.097
 3076SOL    HW110127   0.795   0.797   5.024
 3076SOL    HW210128   0.848   0.687   5.132
 3077SOL     OW10129   5.224   4.374   4.114
 3077SOL    HW110130   5.129   4.385   4.083
 3077SOL    HW210131   5.280   4.447   4.076
 3078SOL     OW10132   2.358   3.159   0.513
 3078SOL    HW110133   2.344   3.081   0.574
 3078SOL    HW210134   2.455   3.181   0.509
 3079SOL     OW10135   5.342   2.889   6.339
 3079SOL    HW110136   5.280   2.816   6.311
 3079SOL    HW210137   5.301   2.978   6.321
 3080SOL     OW10138   6.007   6.039   0.856
 3080SOL    HW110139   6.089   6.043   0.800
 3080SOL    HW210140   5.947   6.116   0.833
 3081SOL     OW10141   6.821   4.626   6.027
 3081SOL    HW110142   6.732   4.657   5.993
 3081SOL    HW210143   6.825   4.638   6.126
 3082SOL     OW10144   2.534   0.055   2.089
 3082SOL    HW110145   2.574   6.997   2.063
 3082SOL    HW210146   2.510   0.107   2.007
 3083SOL     OW10147   3.478   0.475   2.244
 3083SOL    HW110148   3.401   0.495   2.182
 3083SOL    HW210149   3.491   0.553   2.306
 3084SOL     OW10150   4.425   6.719   3.976
 3084SOL    HW110151   4.382   6.808   3.956
 3084SOL    HW210152   4.403   6.655   3.903
 3085SOL     OW10153   1.097   5.749   1.688
 3085SOL    HW110154   1.183   5.798   1.701
 3085SOL    HW210155   1.106   5.686   1.611
 3086SOL     OW10156   5.844   1.717   3.891
 3086SOL    HW110157   5.828   1.674   3.980
 3086SOL    HW210158   5.787   1.799   3.883
 3087SOL     OW10159   5.445   3.648   2.122
 3087SOL    HW110160   5.431   3.568   2.064
 3087SOL    HW210161   5.367   3.710   2.113
 3088SOL     OW10162   2.970   3.784   6.197
 3088SOL    HW110163   3.017   3.844   6.132
 3088SOL    HW210164   3.022   3.698   6.207
 3089SOL     OW10165   2.718   1.988   0.633
 3089SOL    HW110166   2.676   1.974   0.723
 3089SOL    HW210167   2.743   2.084   0.622
 3090SOL     OW10168   0.289   1.822   1.052
 3090SOL    HW110169   0.293   1.726   1.082
 3090SOL    HW210170   0.304   1.881   1.131
 3091SOL     OW10171   2.403   6.878   0.427
 3091SOL    HW110172   2.329   6.814   0.406
 3091SOL    HW210173   2.380   6.931   0.508
 3092SOL     OW10174   3.776   6.360   0.739
 3092SOL    HW110175   3.804   6.383   0.646
 3092SOL    HW210176   3.843   6.297   0.779
 3093SOL     OW10177   5.005   5.779   3.785
 3093SOL    HW110178   4.967   5.869   3.807
 3093SOL    HW210179   5.091   5.766   3.835
 3094SOL     OW10180   3.189   5.409   5.591
 3094SOL    HW110181   3.235   5.474   5.651
 3094SOL    HW210182   3.163   5.455   5.506
 3095SOL     OW10183   2.433   4.829   4.972
 3095SOL    HW110184   2.396   4.753   4.918
 3095SOL    HW210185   2.493   4.793   5.043
 3096SOL     OW10186   6.812   0.785   5.595
 3096SOL    HW110187   6.864   0.702   5.575
 3096SOL    HW210188   6.767   0.776   5.684
 3097SOL     OW10189   1.942   2.468   0.276
 3097SOL    HW110190   1.914   2.457   0.372
 3097SOL    HW210191   1.890   2.543   0.235
 3098SOL     OW10192   3.897   2.278   0.519
 3098SOL    HW110193   3.838   2.261   0.441
 3098SOL    HW210194   3.842   2.307   0.597
 3099SOL     OW10195   1.022   5.930   5.116
 3099SOL    HW110196   1.071   6.006   5.159
 3099SOL    HW210197   1.077   5.847   5.123
 3100SOL     OW10198   6.018   6.103   6.607
 3100SOL    HW110199   6.025   6.200   6.631
 3100SOL    HW210200   5.988   6.051   6.687
 3101SOL     OW10201   4.365   6.903   1.117
 3101SOL    HW110202   4.405   6.863   1.199
 3101SOL    HW210203   4.383   6.844   1.038
 3102SOL     OW10204   0.615   5.863   0.351
 3102SOL    HW110205   0.545   5.861   0.279
 3102SOL    HW210206   0.688   5.800   0.327
 3103SOL     OW10207   4.286   3.590   1.792
 3103SOL    HW110208   4.292   3.620   1.697
 3103SOL    HW210209   4.366   3.535   1.815
 3104SOL     OW10210   6.337   5.417   3.836
 3104SOL    HW110211   6.358   5.320   3.845
 3104SOL    HW210212   6.303   5.452   3.923
 3105SOL     OW10213   6.061   5.803   3.185
 3105SOL    HW110214   6.026   5.726   3.238
 3105SOL    HW210215   5.989   5.836   3.124
 3106SOL     OW10216   6.935   2.988   4.615
 3106SOL    HW110217   7.012   2.998   4.551
 3106SOL    HW210218   6.956   3.039   4.698
 3107SOL     OW10219   3.063   6.543   3.731
 3107SOL    HW110220   2.999   6.602   3.681
 3107SOL    HW210221   3.057   6.564   3.829
 3108SOL     OW10222   3.468   0.976   3.064
 3108SOL    HW110223   3.384   1.026   3.082
 3108SOL    HW210224   3.514   1.014   2.985
 3109SOL     OW10225   4.958   5.984   3.348
 3109SOL    HW110226   4.862   6.009   3.341
 3109SOL    HW210227   4.967   5.885   3.351
 3110SOL     OW10228   1.355   2.980   1.969
 3110SOL    HW110229   1.357   2.889   1.928
 3110SOL    HW210230   1.431   3.035   1.933
 3111SOL     OW10231   6.672   4.819   2.870
 3111SOL    HW110232   6.669   4.760   2.950
 3111SOL    HW210233   6.726   4.900   2.890
 3112SOL     OW10234   2.670   3.746   6.336
 3112SOL    HW110235   2.664   3.648   6.353
 3112SOL    HW210236   2.764   3.769   6.310
 3113SOL     OW10237   4.137   6.666   4.354
 3113SOL    HW110238   4.215   6.618   4.314
 3113SOL    HW210239   4.104   6.735   4.290
 3114SOL     OW10240   5.769   5.745   0.947
 3114SOL    HW110241   5.737   5.652   0.927
 3114SOL    HW210242   5.868   5.748   0.940
 3115SOL     OW10243   2.609   3.436   1.685
 3115SOL    HW110244   2.690   3.485   1.715
 3115SOL    HW210245   2.530   3.465   1.740
 3116SOL     OW10246   0.597   1.743   6.915
 3116SOL    HW110247   0.617   1.814   6.848
 3116SOL    HW210248   0.554   1.665   6.869
 3117SOL     OW10249   3.658   4.207   5.519
 3117SOL    HW110250   3.560   4.220   5.503
 3117SOL    HW210251   3.684   4.116   5.490
 3118SOL     OW10252   5.680   5.306   6.986
 3118SOL    HW110253   5.662   5.287   0.052
 3118SOL    HW210254   5.758   5.251   6.955
 3119SOL     OW10255   2.437   5.068   6.491
 3119SOL    HW110256   2.467   5.027   6.577
 3119SOL    HW210257   2.408   4.995   6.428
 3120SOL     OW10258   2.601   5.925   5.559
 3120SOL    HW110259   2.582   5.839   5.606
 3120SOL    HW210260   2.657   5.906   5.478
 3121SOL     OW10261   0.391   6.119   3.258
 3121SOL    HW110262   0.366   6.122   3.355
 3121SOL    HW210263   0.488   6.139   3.248
 3122SOL     OW10264   2.889   5.459   0.442
 3122SOL    HW110265   2.870   5.557   0.436
 3122SOL    HW210266   2.809   5.408   0.411
 3123SOL     OW10267   3.493   6.698   4.572
 3123SOL    HW110268   3.462   6.663   4.483
 3123SOL    HW210269   3.492   6.798   4.570
 3124SOL     OW10270   3.958   0.497   6.110
 3124SOL    HW110271   3.966   0.582   6.162
 3124SOL    HW210272   3.893   0.436   6.156
 3125SOL     OW10273   6.975   2.116   5.875
 3125SOL    HW110274   6.959   2.105   5.777
 3125SOL    HW210275   6.967   2.212   5.900
 3126SOL     OW10276   3.561   6.707   0.357
 3126SOL    HW110277   3.533   6.642   0.428
 3126SOL    HW210278   3.569   6.659   0.269
 3127SOL     OW10279   1.396   1.180   3.471
 3127SOL    HW110280   1.401   1.085   3.501
 3127SOL    HW210281   1.307   1.218   3.496
 3128SOL     OW10282   1.283   0.835   0.867
 3128SOL    HW110283   1.203   0.865   0.919
 3128SOL    HW210284   1.271   0.858   0.771
 3129SOL     OW10285   1.846   3.178   3.853
 3129SOL    HW110286   1.895   3.247   3.798
 3129SOL    HW210287   1.897   3.092   3.852
 3130SOL     OW10288   2.196   5.941   3.429
 3130SOL    HW110289   2.284   5.903   3.456
 3130SOL    HW210290   2.123   5.894   3.479
 3131SOL     OW10291   0.676   3.436   4.234
 3131SOL    HW110292   0.619   3.372   4.182
 3131SOL    HW210293   0.640   3.446   4.326
 3132SOL     OW10294   5.153   5.875   5.186
 3132SOL    HW110295   5.226   5.865   5.118
 3132SOL    HW210296   5.122   5.785   5.215
 3133SOL     OW10297   2.695   1.902   3.154
 3133SOL    HW110298   2.635   1.833   3.196
 3133SOL    HW210299   2.642   1.959   3.092
 3134SOL     OW10300   5.348   3.007   1.758
 3134SOL    HW110301   5.334   2.912   1.730
 3134SOL    HW210302   5.286   3.028   1.833
 3135SOL     OW10303   2.594   1.664   3.229
 3135SOL    HW110304   2.662   1.609   3.279
 3135SOL    HW210305   2.586   1.629   3.135
 3136SOL     OW10306   6.322   7.021   5.238
 3136SOL    HW110307   6.402   6.962   5.250
 3136SOL    HW210308   6.348   0.071   5.184
 3137SOL     OW10309   0.030   1.207   4.986
 3137SOL    HW110310   7.001   1.189   4.907
 3137SOL    HW210311   0.125   1.189   4.962
 3138SOL     OW10312   5.497   1.894   4.514
 3138SOL    HW110313   5.469   1.800   4.496
 3138SOL    HW210314   5.496   1.946   4.429
 3139SOL     OW10315   4.912   5.987   5.164
 3139SOL    HW110316   4.922   6.059   5.096
 3139SOL    HW210317   5.002   5.965   5.203
 3140SOL     OW10318   6.555   5.862   6.276
 3140SOL    HW110319   6.617   5.786   6.296
 3140SOL    HW210320   6.607   5.944   6.256
 3141SOL     OW10321   0.756   5.362   0.938
 3141SOL    HW110322   0.787   5.359   0.843
 3141SOL    HW210323   0.745   5.458   0.967
 3142SOL     OW10324   3.338   0.063   6.723
 3142SOL    HW110325   3.270   7.020   6.710
 3142SOL    HW210326   3.360   0.071   6.820
 3143SOL     OW10327   0.348   1.394   1.106
 3143SOL    HW110328   0.445   1.373   1.101
 3143SOL    HW210329   0.334   1.470   1.169
 3144SOL     OW10330   1.688   3.354   6.797
 3144SOL    HW110331   1.643   3.303   6.870
 3144SOL    HW210332   1.624   3.421   6.759
 3145SOL     OW10333   2.983   5.346   4.023
 3145SOL    HW110334   2.919   5.301   3.960
 3145SOL    HW210335   3.025   5.425   3.978
 3146SOL     OW10336   2.258   0.332   3.527
 3146SOL    HW110337   2.334   0.362   3.470
 3146SOL    HW210338   2.260   0.381   3.614
 3147SOL     OW10339   3.365   4.658   0.503
 3147SOL    HW110340   3.459   4.621   0.503
 3147SOL    HW210341   3.346   4.700   0.414
 3148SOL     OW10342   3.473   5.798   5.105
 3148SOL    HW110343   3.377   5.817   5.083
 3148SOL    HW210344   3.520   5.884   5.123
 3149SOL     OW10345   3.134   6.372   6.123
 3149SOL    HW110346   3.213   6.357   6.063
 3149SOL    HW210347   3.095   6.462   6.104
 3150SOL     OW10348   0.290   0.280   4.094
 3150SOL    HW110349   0.314   0.192   4.054
 3150SOL    HW210350   0.202   0.273   4.140
 3151SOL     OW10351   4.080   6.789   0.815
 3151SOL    HW110352   4.051   6.847   0.739
 3151SOL    HW210353   4.119   6.846   0.888
 3152SOL     OW10354   1.744   4.547   6.605
 3152SOL    HW110355   1.789   4.574   6.690
 3152SOL    HW210356   1.808   4.554   6.529
 3153SOL     OW10357   6.987   4.738   2.841
 3153SOL    HW110358   6.906   4.680   2.833
 3153SOL    HW210359   6.981   4.812   2.774
 3154SOL     OW10360   5.517   2.359   6.459
 3154SOL    HW110361   5.532   2.301   6.379
 3154SOL    HW210362   5.505   2.301   6.540
 3155SOL     OW10363   3.869   6.390   0.490
 3155SOL    HW110364   3.798   6.406   0.422
 3155SOL    HW210365   3.905   6.297   0.481
 3156SOL     OW10366   3.527   3.482   2.849
 3156SOL    HW110367   3.485   3.547   2.912
 3156SOL    HW210368   3.456   3.430   2.802
 3157SOL     OW10369   1.911   3.002   4.821
 3157SOL    HW110370   1.911   3.035   4.727
 3157SOL    HW210371   1.998   3.024   4.864
 3158SOL     OW10372   4.551   6.187   1.317
 3158SOL    HW110373   4.635   6.236   1.292
 3158SOL    HW210374   4.563   6.089   1.297
 3159SOL     OW10375   5.095   4.557   0.532
 3159SOL    HW110376   5.143   4.620   0.593
 3159SOL    HW210377   5.051   4.485   0.585
 3160SOL     OW10378   5.700   4.610   0.585
 3160SOL    HW110379   5.694   4.644   0.491
 3160SOL    HW210380   5.761   4.531   0.589
 3161SOL     OW10381   0.703   1.757   3.024
 3161SOL    HW110382   0.668   1.851   3.028
 3161SOL    HW210383   0.689   1.712   3.113
 3162SOL     OW10384   6.404   0.071   6.250
 3162SOL    HW110385   6.388   0.167   6.226
 3162SOL    HW210386   6.464   0.066   6.329
 3163SOL     OW10387   2.068   4.733   5.527
 3163SOL    HW110388   2.064   4.704   5.432
 3163SOL    HW210389   1.975   4.743   5.563
 3164SOL     OW10390   6.187   5.324   6.104
 3164SOL    HW110391   6.098   5.289   6.134
 3164SOL    HW210392   6.194   5.314   6.005
 3165SOL     OW10393   0.324   2.584   1.826
 3165SOL    HW110394   0.361   2.524   1.756
 3165SOL    HW210395   0.226   2.596   1.811
 3166SOL     OW10396   4.647   3.007   6.237
 3166SOL    HW110397   4.616   2.913   6.219
 3166SOL    HW210398   4.569   3.066   6.251
 3167SOL     OW10399   0.168   3.881   1.451
 3167SOL    HW110400   0.123   3.892   1.362
 3167SOL    HW210401   0.176   3.970   1.496
 3168SOL     OW10402   5.516   3.252   0.658
 3168SOL    HW110403   5.512   3.312   0.579
 3168SOL    HW210404   5.548   3.161   0.631
 3169SOL     OW10405   1.977   2.252   4.926
 3169SOL    HW110406   2.032   2.275   5.005
 3169SOL    HW210407   2.000   2.160   4.894
 3170SOL     OW10408   4.347   0.533   5.530
 3170SOL    HW110409   4.427   0.517   5.588
 3170SOL    HW210410   4.315   0.445   5.494
 3171SOL     OW10411   6.570   0.077   3.203
 3171SOL    HW110412   6.523   0.002   3.249
 3171SOL    HW210413   6.667   0.056   3.194
 3172SOL     OW10414   5.828   6.926   5.641
 3172SOL    HW110415   5.854   6.939   5.737
 3172SOL    HW210416   5.794   7.012   5.604
 3173SOL     OW10417   2.316   1.179   1.428
 3173SOL    HW110418   2.223   1.175   1.390
 3173SOL    HW210419   2.355   1.269   1.409
 3174SOL     OW10420   2.142   3.312   6.629
 3174SOL    HW110421   2.053   3.294   6.588
 3174SOL    HW210422   2.201   3.232   6.618
 3175SOL     OW10423   6.440   6.250   0.265
 3175SOL    HW110424   6.494   6.248   0.181
 3175SOL    HW210425   6.485   6.310   0.331
 3176SOL     OW10426   1.168   5.761   6.491
 3176SOL    HW110427   1.133   5.854   6.487
 3176SOL    HW210428   1.137   5.717   6.575
 3177SOL     OW10429   1.369   0.055   4.131
 3177SOL    HW110430   1.361   0.121   4.206
 3177SOL    HW210431   1.304   0.080   4.059
 3178SOL     OW10432   2.493   3.928   0.234
 3178SOL    HW110433   2.588   3.938   0.264
 3178SOL    HW210434   2.451   3.852   0.283
 3179SOL     OW10435   1.145   2.363   3.861
 3179SOL    HW110436   1.076   2.297   3.893
 3179SOL    HW210437   1.207   2.317   3.798
 3180SOL     OW10438   5.829   1.309   6.282
 3180SOL    HW110439   5.872   1.361   6.356
 3180SOL    HW210440   5.882   1.226   6.264
 3181SOL     OW10441   0.918   1.449   2.608
 3181SOL    HW110442   0.841   1.413   2.554
 3181SOL    HW210443   0.925   1.548   2.595
 3182SOL     OW10444   1.811   4.767   5.612
 3182SOL    HW110445   1.782   4.849   5.563
 3182SOL    HW210446   1.737   4.699   5.610
 3183SOL     OW10447   4.819   2.906   1.362
 3183SOL    HW110448   4.749   2.938   1.297
 3183SOL    HW210449   4.786   2.823   1.407
 3184SOL     OW10450   0.808   2.183   3.774
 3184SOL    HW110451   0.883   2.217   3.718
 3184SOL    HW210452   0.844   2.149   3.862
 3185SOL     OW10453   0.563   6.289   6.754
 3185SOL    HW110454   0.551   6.316   6.850
 3185SOL    HW210455   0.628   6.213   6.749
 3186SOL     OW10456   3.467   0.761   1.676
 3186SOL    HW110457   3.401   0.688   1.657
 3186SOL    HW210458   3.425   0.827   1.738
 3187SOL     OW10459   2.850   4.333   0.014
 3187SOL    HW110460   2.946   4.355   0.031
 3187SOL    HW210461   2.803   4.321   0.102
 3188SOL     OW10462   4.206   6.875   3.106
 3188SOL    HW110463   4.261   6.934   3.165
 3188SOL    HW210464   4.151   6.932   3.045
 3189SOL     OW10465   6.627   6.770   2.178
 3189SOL    HW110466   6.660   6.687   2.132
 3189SOL    HW210467   6.552   6.747   2.240
 3190SOL     OW10468   0.583   6.966   0.933
 3190SOL    HW110469   0.557   6.927   1.021
 3190SOL    HW210470   0.501   6.995   0.884
 3191SOL     OW10471   3.028   0.435   0.266
 3191SOL    HW110472   3.067   0.527   0.269
 3191SOL    HW210473   2.945   0.433   0.323
 3192SOL     OW10474   5.738   2.065   3.483
 3192SOL    HW110475   5.724   1.973   3.517
 3192SOL    HW210476   5.662   2.090   3.422
 3193SOL     OW10477   4.919   4.298   1.072
 3193SOL    HW110478   4.916   4.344   1.160
 3193SOL    HW210479   4.944   4.364   1.001
 3194SOL     OW10480   1.511   4.789   5.229
 3194SOL    HW110481   1.466   4.818   5.313
 3194SOL    HW210482   1.610   4.790   5.242
 3195SOL     OW10483   0.328   4.161   3.484
 3195SOL    HW110484   0.392   4.179   3.409
 3195SOL    HW210485   0.271   4.082   3.462
 3196SOL     OW10486   0.118   6.804   5.729
 3196SOL    HW110487   0.203   6.819   5.679
 3196SOL    HW210488   0.133   6.826   5.826
 3197SOL     OW10489   0.343   4.221   4.189
 3197SOL    HW110490   0.277   4.253   4.121
 3197SOL    HW210491   0.344   4.121   4.189
 3198SOL     OW10492   5.549   6.640   0.276
 3198SOL    HW110493   5.561   6.617   0.372
 3198SOL    HW210494   5.583   6.565   0.219
 3199SOL     OW10495   3.732   1.700   3.352
 3199SOL    HW110496   3.814   1.753   3.375
 3199SOL    HW210497   3.723   1.623   3.416
 3200SOL     OW10498   6.850   2.328   0.287
 3200SOL    HW110499   6.835   2.377   0.201
 3200SOL    HW210500   6.899   2.243   0.269
 3201SOL     OW10501   4.629   4.755   3.383
 3201SOL    HW110502   4.539   4.798   3.369
 3201SOL    HW210503   4.618   4.675   3.442
 3202SOL     OW10504   1.142   6.107   1.518
 3202SOL    HW110505   1.198   6.127   1.598
 3202SOL    HW210506   1.199   6.070   1.445
 3203SOL     OW10507   5.094   0.078   1.080
 3203SOL    HW110508   5.102   0.000   1.018
 3203SOL    HW210509   5.043   0.151   1.036
 3204SOL     OW10510   6.350   6.066   2.142
 3204SOL    HW110511   6.333   6.084   2.239
 3204SOL    HW210512   6.265   6.082   2.090
 3205SOL     OW10513   0.861   3.737   3.604
 3205SOL    HW110514   0.870   3.708   3.699
 3205SOL    HW210515   0.943   3.786   3.575
 3206SOL     OW10516   1.558   0.108   0.629
 3206SOL    HW110517   1.471   0.076   0.668
 3206SOL    HW210518   1.544   0.131   0.533
 3207SOL     OW10519   1.393   1.826   2.514
 3207SOL    HW110520   1.451   1.840   2.433
 3207SOL    HW210521   1.439   1.865   2.594
 3208SOL     OW10522   6.229   0.237   4.381
 3208SOL    HW110523   6.292   0.310   4.409
 3208SOL    HW210524   6.158   0.226   4.450
 3209SOL     OW10525   2.163   0.328   2.873
 3209SOL    HW110526   2.094   0.336   2.944
 3209SOL    HW210527   2.126   0.280   2.794
 3210SOL     OW10528   0.538   4.988   1.990
 3210SOL    HW110529   0.509   5.034   1.906
 3210SOL    HW210530   0.513   4.891   1.986
 3211SOL     OW10531   0.420   4.239   2.733
 3211SOL    HW110532   0.373   4.308   2.678
 3211SOL    HW210533   0.406   4.257   2.830
 3212SOL     OW10534   5.232   2.924   5.618
 3212SOL    HW110535   5.133   2.932   5.634
 3212SOL    HW210536   5.248   2.874   5.532
 3213SOL     OW10537   5.276   0.055   1.505
 3213SOL    HW110538   5.374   0.033   1.502
 3213SOL    HW210539   5.237   0.040   1.414
 3214SOL     OW10540   4.025   4.294   6.405
 3214SOL    HW110541   3.948   4.235   6.429
 3214SOL    HW210542   4.045   4.285   6.307
 3215SOL     OW10543   6.176   1.507   0.331
 3215SOL    HW110544   6.156   1.434   0.266
 3215SOL    HW210545   6.126   1.489   0.416
 3216SOL     OW10546   5.349   6.668   4.621
 3216SOL    HW110547   5.283   6.643   4.692
 3216SOL    HW210548   5.404   6.745   4.653
 3217SOL     OW10549   6.538   4.194   0.316
 3217SOL    HW110550   6.462   4.184   0.251
 3217SOL    HW210551   6.583   4.281   0.301
 3218SOL     OW10552   3.683   1.582   1.907
 3218SOL    HW110553   3.600   1.631   1.934
 3218SOL    HW210554   3.712   1.522   1.982
 3219SOL     OW10555   0.348   0.057   3.957
 3219SOL    HW110556   0.282   7.022   3.919
 3219SOL    HW210557   0.431   0.057   3.901
 3220SOL     OW10558   6.107   3.195   6.522
 3220SOL    HW110559   6.090   3.210   6.619
 3220SOL    HW210560   6.134   3.100   6.507
 3221SOL     OW10561   3.876   0.447   2.170
 3221SOL    HW110562   3.814   0.401   2.235
 3221SOL    HW210563   3.827   0.522   2.126
 3222SOL     OW10564   6.605   3.988   2.115
 3222SOL    HW110565   6.512   4.022   2.102
 3222SOL    HW210566   6.649   4.039   2.189
 3223SOL     OW10567   2.128   4.217   4.191
 3223SOL    HW110568   2.213   4.206   4.140
 3223SOL    HW210569   2.127   4.306   4.236
 3224SOL     OW10570   2.907   5.997   1.385
 3224SOL    HW110571   2.833   5.933   1.409
 3224SOL    HW210572   2.867   6.084   1.357
 3225SOL     OW10573   1.914   2.554   1.016
 3225SOL    HW110574   1.888   2.626   1.081
 3225SOL    HW210575   1.957   2.596   0.936
 3226SOL     OW10576   0.342   0.566   4.122
 3226SOL    HW110577   0.252   0.575   4.165
 3226SOL    HW210578   0.349   0.476   4.079
 3227SOL     OW10579   1.993   2.522   5.677
 3227SOL    HW110580   2.037   2.453   5.621
 3227SOL    HW210581   1.907   2.550   5.634
 3228SOL     OW10582   4.970   3.470   4.902
 3228SOL    HW110583   4.896   3.526   4.940
 3228SOL    HW210584   5.018   3.522   4.832
 3229SOL     OW10585   4.640   1.501   5.187
 3229SOL    HW110586   4.558   1.455   5.152
 3229SOL    HW210587   4.718   1.477   5.129
 3230SOL     OW10588   1.669   0.188   4.046
 3230SOL    HW110589   1.625   0.100   4.065
 3230SOL    HW210590   1.623   0.232   3.968
 3231SOL     OW10591   4.911   4.473   0.819
 3231SOL    HW110592   4.980   4.546   0.820
 3231SOL    HW210593   4.935   4.405   0.750
 3232SOL     OW10594   1.265   4.206   2.659
 3232SOL    HW110595   1.345   4.228   2.715
 3232SOL    HW210596   1.258   4.273   2.585
 3233SOL     OW10597   2.063   4.347   0.915
 3233SOL    HW110598   1.994   4.362   0.845
 3233SOL    HW210599   2.130   4.422   0.912
 3234SOL     OW10600   6.586   2.259   4.927
 3234SOL    HW110601   6.665   2.246   4.987
 3234SOL    HW210602   6.617   2.288   4.836
 3235SOL     OW10603   5.520   0.625   2.284
 3235SOL    HW110604   5.546   0.721   2.285
 3235SOL    HW210605   5.540   0.585   2.195
 3236SOL     OW10606   0.199   2.555   1.401
 3236SOL    HW110607   0.268   2.530   1.332
 3236SOL    HW210608   0.234   2.630   1.457
 3237SOL     OW10609   3.191   6.047   4.796
 3237SOL    HW110610   3.177   5.984   4.719
 3237SOL    HW210611   3.288   6.047   4.822
 3238SOL     OW10612   6.646   6.282   6.423
 3238SOL    HW110613   6.702   6.286   6.506
 3238SOL    HW210614   6.677   6.206   6.366
 3239SOL     OW10615   0.854   6.295   5.231
 3239SOL    HW110616   0.757   6.273   5.228
 3239SOL    HW210617   0.886   6.317   5.139
 3240SOL     OW10618   0.642   2.246   4.825
 3240SOL    HW110619   0.628   2.254   4.727
 3240SOL    HW210620   0.554   2.227   4.869
 3241SOL     OW10621   4.214   6.724   4.892
 3241SOL    HW110622   4.199   6.823   4.895
 3241SOL    HW210623   4.312   6.705   4.884
 3242SOL     OW10624   3.233   0.038   0.576
 3242SOL    HW110625   3.217   0.115   0.514
 3242SOL    HW210626   3.331   0.030   0.596
 3243SOL     OW10627   3.435   4.929   1.198
 3243SOL    HW110628   3.402   4.835   1.207
 3243SOL    HW210629   3.375   4.980   1.137
 3244SOL     OW10630   0.899   6.543   5.687
 3244SOL    HW110631   0.849   6.552   5.601
 3244SOL    HW210632   0.937   6.451   5.694
 3245SOL     OW10633   3.224   2.117   5.826
 3245SOL    HW110634   3.279   2.148   5.904
 3245SOL    HW210635   3.135   2.162   5.828
 3246SOL     OW10636   5.500   6.036   3.487
 3246SOL    HW110637   5.516   6.126   3.528
 3246SOL    HW210638   5.407   6.032   3.451
 3247SOL     OW10639   6.442   3.121   5.741
 3247SOL    HW110640   6.431   3.084   5.833
 3247SOL    HW210641   6.352   3.127   5.697
 3248SOL     OW10642   4.840   3.935   2.909
 3248SOL    HW110643   4.816   4.008   2.846
 3248SOL    HW210644   4.824   3.965   3.003
 3249SOL     OW10645   3.329   4.751   5.875
 3249SOL    HW110646   3.403   4.702   5.829
 3249SOL    HW210647   3.260   4.686   5.907
 3250SOL     OW10648   4.756   5.008   1.394
 3250SOL    HW110649   4.674   4.951   1.388
 3250SOL    HW210650   4.821   4.967   1.458
 3251SOL     OW10651   3.496   0.535   3.701
 3251SOL    HW110652   3.403   0.562   3.727
 3251SOL    HW210653   3.520   0.577   3.613
 3252SOL     OW10654   3.634   2.107   3.699
 3252SOL    HW110655   3.583   2.034   3.745
 3252SOL    HW210656   3.569   2.174   3.662
 3253SOL     OW10657   4.839   4.357   1.341
 3253SOL    HW110658   4.866   4.381   1.434
 3253SOL    HW210659   4.814   4.260   1.338
 3254SOL     OW10660   6.668   4.289   2.576
 3254SOL    HW110661   6.573   4.296   2.605
 3254SOL    HW210662   6.715   4.220   2.632
 3255SOL     OW10663   3.521   5.081   0.844
 3255SOL    HW110664   3.429   5.049   0.821
 3255SOL    HW210665   3.546   5.158   0.786
 3256SOL     OW10666   6.784   6.411   5.342
 3256SOL    HW110667   6.732   6.330   5.315
 3256SOL    HW210668   6.835   6.446   5.264
 3257SOL     OW10669   2.734   1.532   1.376
 3257SOL    HW110670   2.734   1.610   1.313
 3257SOL    HW210671   2.644   1.488   1.375
 3258SOL     OW10672   4.894   6.420   1.121
 3258SOL    HW110673   4.946   6.351   1.071
 3258SOL    HW210674   4.836   6.376   1.189
 3259SOL     OW10675   5.958   5.966   3.592
 3259SOL    HW110676   6.030   5.921   3.538
 3259SOL    HW210677   5.902   5.897   3.637
 3260SOL     OW10678   2.344   1.662   1.342
 3260SOL    HW110679   2.339   1.736   1.409
 3260SOL    HW210680   2.255   1.651   1.298
 3261SOL     OW10681   4.832   6.322   3.909
 3261SOL    HW110682   4.822   6.259   3.986
 3261SOL    HW210683   4.836   6.270   3.824
 3262SOL     OW10684   4.146   1.979   4.031
 3262SOL    HW110685   4.135   1.883   4.054
 3262SOL    HW210686   4.158   2.032   4.116
 3263SOL     OW10687   3.122   4.942   3.066
 3263SOL    HW110688   3.054   4.909   3.131
 3263SOL    HW210689   3.212   4.910   3.094
 3264SOL     OW10690   5.608   4.912   6.188
 3264SOL    HW110691   5.556   4.834   6.152
 3264SOL    HW210692   5.694   4.880   6.228
 3265SOL     OW10693   5.651   0.122   5.565
 3265SOL    HW110694   5.627   0.182   5.642
 3265SOL    HW210695   5.570   0.069   5.539
 3266SOL     OW10696   1.382   2.635   6.387
 3266SOL    HW110697   1.453   2.589   6.334
 3266SOL    HW210698   1.408   2.731   6.399
 3267SOL     OW10699   5.123   2.996   1.935
 3267SOL    HW110700   5.123   2.988   2.035
 3267SOL    HW210701   5.037   2.960   1.899
 3268SOL     OW10702   1.724   5.179   6.505
 3268SOL    HW110703   1.767   5.266   6.530
 3268SOL    HW210704   1.625   5.188   6.511
 3269SOL     OW10705   4.302   3.477   1.010
 3269SOL    HW110706   4.252   3.391   1.006
 3269SOL    HW210707   4.400   3.459   1.007
 3270SOL     OW10708   6.648   5.181   3.503
 3270SOL    HW110709   6.710   5.124   3.557
 3270SOL    HW210710   6.555   5.145   3.510
 3271SOL     OW10711   4.609   0.118   1.271
 3271SOL    HW110712   4.584   0.088   1.179
 3271SOL    HW210713   4.706   0.097   1.288
 3272SOL     OW10714   4.970   5.951   6.831
 3272SOL    HW110715   4.905   5.941   6.756
 3272SOL    HW210716   5.063   5.944   6.796
 3273SOL     OW10717   0.937   0.837   3.059
 3273SOL    HW110718   0.918   0.861   2.964
 3273SOL    HW210719   1.017   0.889   3.092
 3274SOL     OW10720   2.815   1.467   6.856
 3274SOL    HW110721   2.736   1.518   6.888
 3274SOL    HW210722   2.793   1.422   6.769
 3275SOL     OW10723   4.793   0.517   6.863
 3275SOL    HW110724   4.719   0.557   6.916
 3275SOL    HW210725   4.756   0.449   6.800
 3276SOL     OW10726   1.871   6.308   6.727
 3276SOL    HW110727   1.800   6.301   6.798
 3276SOL    HW210728   1.930   6.386   6.748
 3277SOL     OW10729   0.069   6.021   6.614
 3277SOL    HW110730   0.109   6.001   6.703
 3277SOL    HW210731   7.004   6.051   6.627
 3278SOL     OW10732   0.890   0.678   6.982
 3278SOL    HW110733   0.927   0.771   6.984
 3278SOL    HW210734   0.964   0.612   6.999
 3279SOL     OW10735   2.204   6.787   1.368
 3279SOL    HW110736   2.291   6.832   1.386
 3279SOL    HW210737   2.198   6.764   1.271
 3280SOL     OW10738   2.945   6.255   4.033
 3280SOL    HW110739   2.984   6.265   4.125
 3280SOL    HW210740   2.847   6.277   4.037
 3281SOL     OW10741   1.786   6.676   0.421
 3281SOL    HW110742   1.741   6.673   0.332
 3281SOL    HW210743   1.773   6.766   0.462
 3282SOL     OW10744   2.157   4.925   2.513
 3282SOL    HW110745   2.194   4.841   2.552
 3282SOL    HW210746   2.104   4.974   2.583
 3283SOL     OW10747   2.303   0.049   3.271
 3283SOL    HW110748   2.215   0.003   3.282
 3283SOL    HW210749   2.324   0.056   3.173
 3284SOL     OW10750   1.420   4.907   5.453
 3284SOL    HW110751   1.505   4.949   5.485
 3284SOL    HW210752   1.356   4.978   5.423
 3285SOL     OW10753   0.412   2.884   4.010
 3285SOL    HW110754   0.327   2.933   4.026
 3285SOL    HW210755   0.459   2.870   4.097
 3286SOL     OW10756   4.732   4.436   6.376
 3286SOL    HW110757   4.709   4.436   6.473
 3286SOL    HW210758   4.689   4.514   6.331
 3287SOL     OW10759   6.834   3.043   1.802
 3287SOL    HW110760   6.766   3.044   1.729
 3287SOL    HW210761   6.801   3.098   1.879
 3288SOL     OW10762   0.850   0.114   6.881
 3288SOL    HW110763   0.819   0.172   6.957
 3288SOL    HW210764   0.932   0.064   6.909
 3289SOL     OW10765   1.077   6.630   4.205
 3289SOL    HW110766   1.020   6.696   4.156
 3289SOL    HW210767   1.132   6.678   4.273
 3290SOL     OW10768   0.279   4.734   3.692
 3290SOL    HW110769   0.185   4.700   3.691
 3290SOL    HW210770   0.335   4.680   3.629
 3291SOL     OW10771   1.852   1.476   2.054
 3291SOL    HW110772   1.875   1.403   2.119
 3291SOL    HW210773   1.936   1.515   2.016
 3292SOL     OW10774   0.477   6.040   4.742
 3292SOL    HW110775   0.473   5.940   4.732
 3292SOL    HW210776   0.562   6.064   4.789
 3293SOL     OW10777   6.066   0.815   3.253
 3293SOL    HW110778   6.046   0.718   3.267
 3293SOL    HW210779   6.033   0.842   3.162
 3294SOL     OW10780   6.980   6.822   1.084
 3294SOL    HW110781   0.041   6.864   1.081
 3294SOL    HW210782   6.911   6.889   1.058
 3295SOL     OW10783   1.874   3.150   6.068
 3295SOL    HW110784   1.935   3.092   6.122
 3295SOL    HW210785   1.865   3.113   5.976
 3296SOL     OW10786   0.983   6.485   2.336
 3296SOL    HW110787   0.913   6.424   2.374
 3296SOL    HW210788   1.072   6.439   2.337
 3297SOL     OW10789   3.675   1.303   5.814
 3297SOL    HW110790   3.637   1.289   5.722
 3297SOL    HW210791   3.623   1.374   5.861
 3298SOL     OW10792   0.299   4.480   2.626
 3298SOL    HW110793   0.292   4.560   2.685
 3298SOL    HW210794   0.216   4.472   2.571
 3299SOL     OW10795   0.822   1.319   4.293
 3299SOL    HW110796   0.753   1.376   4.338
 3299SOL    HW210797   0.913   1.358   4.307
 3300SOL     OW10798   6.971   0.103   5.064
 3300SOL    HW110799   7.016   0.089   4.975
 3300SOL    HW210800   7.027   0.064   5.136
 3301SOL     OW10801   6.599   3.727   2.641
 3301SOL    HW110802   6.656   3.761   2.717
 3301SOL    HW210803   6.657   3.686   2.572
 3302SOL     OW10804   0.829   6.077   5.396
 3302SOL    HW110805   0.873   6.159   5.361
 3302SOL    HW210806   0.730   6.093   5.406
 3303SOL     OW10807   2.873   3.514   4.001
 3303SOL    HW110808   2.915   3.494   3.913
 3303SOL    HW210809   2.775   3.498   3.996
 3304SOL     OW10810   1.686   0.382   3.352
 3304SOL    HW110811   1.612   0.395   3.286
 3304SOL    HW210812   1.702   0.467   3.402
 3305SOL     OW10813   1.114   2.972   0.531
 3305SOL    HW110814   1.085   2.925   0.615
 3305SOL    HW210815   1.052   3.048   0.513
 3306SOL     OW10816   1.237   2.574   2.002
 3306SOL    HW110817   1.285   2.496   2.042
 3306SOL    HW210818   1.290   2.610   1.925
 3307SOL     OW10819   0.766   0.332   0.039
 3307SOL    HW110820   0.675   0.304   0.071
 3307SOL    HW210821   0.757   0.389   6.988
 3308SOL     OW10822   4.733   5.939   1.252
 3308SOL    HW110823   4.672   5.870   1.213
 3308SOL    HW210824   4.792   5.896   1.321
 3309SOL     OW10825   1.684   4.834   1.739
 3309SOL    HW110826   1.666   4.929   1.763
 3309SOL    HW210827   1.752   4.795   1.802
 3310SOL     OW10828   1.438   6.790   2.115
 3310SOL    HW110829   1.428   6.849   2.035
 3310SOL    HW210830   1.454   6.847   2.196
 3311SOL     OW10831   4.037   5.507   0.731
 3311SOL    HW110832   4.113   5.468   0.783
 3311SOL    HW210833   4.073   5.566   0.658
 3312SOL     OW10834   1.234   2.734   6.052
 3312SOL    HW110835   1.319   2.682   6.063
 3312SOL    HW210836   1.191   2.748   6.141
 3313SOL     OW10837   5.944   6.693   4.506
 3313SOL    HW110838   5.967   6.697   4.409
 3313SOL    HW210839   5.968   6.779   4.550
 3314SOL     OW10840   0.410   4.473   6.414
 3314SOL    HW110841   0.398   4.418   6.331
 3314SOL    HW210842   0.396   4.569   6.393
 3315SOL     OW10843   6.679   2.830   3.656
 3315SOL    HW110844   6.626   2.885   3.720
 3315SOL    HW210845   6.695   2.739   3.695
 3316SOL     OW10846   4.378   0.777   6.894
 3316SOL    HW110847   4.443   0.826   6.952
 3316SOL    HW210848   4.298   0.835   6.877
 3317SOL     OW10849   4.281   2.312   1.152
 3317SOL    HW110850   4.329   2.311   1.065
 3317SOL    HW210851   4.321   2.381   1.212
 3318SOL     OW10852   3.029   5.349   5.929
 3318SOL    HW110853   3.109   5.353   5.989
 3318SOL    HW210854   2.988   5.258   5.933
 3319SOL     OW10855   7.015   6.385   6.387
 3319SOL    HW110856   7.027   6.456   6.318
 3319SOL    HW210857   0.067   6.328   6.391
 3320SOL     OW10858   0.790   0.836   0.991
 3320SOL    HW110859   0.786   0.929   0.954
 3320SOL    HW210860   0.707   0.818   1.044
 3321SOL     OW10861   3.695   3.763   4.346
 3321SOL    HW110862   3.691   3.707   4.263
 3321SOL    HW210863   3.783   3.810   4.351
 3322SOL     OW10864   4.680   2.240   2.519
 3322SOL    HW110865   4.585   2.262   2.540
 3322SOL    HW210866   4.728   2.323   2.490
 3323SOL     OW10867   1.849   4.853   0.430
 3323SOL    HW110868   1.793   4.772   0.447
 3323SOL    HW210869   1.886   4.887   0.516
 3324SOL     OW10870   6.249   3.156   1.671
 3324SOL    HW110871   6.220   3.134   1.764
 3324SOL    HW210872   6.184   3.115   1.606
 3325SOL     OW10873   0.943   4.976   5.585
 3325SOL    HW110874   0.997   4.929   5.655
 3325SOL    HW210875   0.852   4.934   5.579
 3326SOL     OW10876   5.666   0.267   2.519
 3326SOL    HW110877   5.610   0.217   2.453
 3326SOL    HW210878   5.750   0.216   2.538
 3327SOL     OW10879   4.925   5.991   1.999
 3327SOL    HW110880   4.840   5.948   2.028
 3327SOL    HW210881   4.931   6.083   2.037
 3328SOL     OW10882   6.050   6.697   4.240
 3328SOL    HW110883   6.129   6.648   4.203
 3328SOL    HW210884   5.973   6.689   4.176
 3329SOL     OW10885   5.476   0.633   5.947
 3329SOL    HW110886   5.377   0.646   5.948
 3329SOL    HW210887   5.510   0.632   6.041
 3330SOL     OW10888   6.475   6.898   2.683
 3330SOL    HW110889   6.557   6.906   2.627
 3330SOL    HW210890   6.397   6.937   2.633
 3331SOL     OW10891   1.249   3.923   2.623
 3331SOL    HW110892   1.293   4.013   2.617
 3331SOL    HW210893   1.150   3.934   2.617
 3332SOL     OW10894   4.059   5.109   0.496
 3332SOL    HW110895   4.133   5.044   0.477
 3332SOL    HW210896   3.990   5.101   0.424
 3333SOL     OW10897   1.690   3.796   0.948
 3333SOL    HW110898   1.698   3.726   0.877
 3333SOL    HW210899   1.765   3.862   0.938
 3334SOL     OW10900   1.519   2.199   2.544
 3334SOL    HW110901   1.432   2.164   2.511
 3334SOL    HW210902   1.587   2.194   2.470
 3335SOL     OW10903   3.711   4.354   5.755
 3335SOL    HW110904   3.700   4.324   5.660
 3335SOL    HW210905   3.767   4.287   5.804
 3336SOL     OW10906   3.723   5.770   5.967
 3336SOL    HW110907   3.794   5.790   6.034
 3336SOL    HW210908   3.670   5.853   5.949
 3337SOL     OW10909   3.164   3.106   3.551
 3337SOL    HW110910   3.152   3.045   3.630
 3337SOL    HW210911   3.198   3.195   3.582
 3338SOL     OW10912   2.756   3.201   1.633
 3338SOL    HW110913   2.730   3.293   1.661
 3338SOL    HW210914   2.729   3.186   1.538
 3339SOL     OW10915   1.006   6.845   6.642
 3339SOL    HW110916   1.004   6.822   6.545
 3339SOL    HW210917   0.914   6.872   6.672
 3340SOL     OW10918   4.849   1.109   5.946
 3340SOL    HW110919   4.943   1.134   5.970
 3340SOL    HW210920   4.794   1.191   5.931
 3341SOL     OW10921   1.455   4.440   1.271
 3341SOL    HW110922   1.532   4.455   1.333
 3341SOL    HW210923   1.489   4.408   1.183
 3342SOL     OW10924   5.760   6.875   1.795
 3342SOL    HW110925   5.675   6.925   1.807
 3342SOL    HW210926   5.777   6.817   1.875
 3343SOL     OW10927   3.310   5.511   0.801
 3343SOL    HW110928   3.391   5.477   0.848
 3343SOL    HW210929   3.291   5.604   0.831
 3344SOL     OW10930   1.227   3.513   1.542
 3344SOL    HW110931   1.232   3.597   1.596
 3344SOL    HW210932   1.313   3.500   1.492
 3345SOL     OW10933   5.365   5.305   1.005
 3345SOL    HW110934   5.458   5.277   1.030
 3345SOL    HW210935   5.312   5.225   0.977
 3346SOL     OW10936   1.007   0.916   6.979
 3346SOL    HW110937   0.940   0.989   6.993
 3346SOL    HW210938   1.095   0.944   7.018
 3347SOL     OW10939   0.881   4.176   5.703
 3347SOL    HW110940   0.859   4.082   5.729
 3347SOL    HW210941   0.893   4.182   5.604
 3348SOL     OW10942   3.484   4.169   5.795
 3348SOL    HW110943   3.577   4.191   5.768
 3348SOL    HW210944   3.433   4.253   5.814
 3349SOL     OW10945   1.739   5.899   1.765
 3349SOL    HW110946   1.717   5.839   1.688
 3349SOL    HW210947   1.674   5.882   1.840
 3350SOL     OW10948   2.511   5.213   5.262
 3350SOL    HW110949   2.429   5.156   5.249
 3350SOL    HW210950   2.593   5.157   5.251
 3351SOL     OW10951   5.382   6.746   1.490
 3351SOL    HW110952   5.365   6.808   1.413
 3351SOL    HW210953   5.479   6.723   1.492
 3352SOL     OW10954   5.453   1.432   6.845
 3352SOL    HW110955   5.384   1.471   6.784
 3352SOL    HW210956   5.467   1.493   6.923
 3353SOL     OW10957   4.213   0.734   6.640
 3353SOL    HW110958   4.304   0.701   6.665
 3353SOL    HW210959   4.167   0.769   6.722
 3354SOL     OW10960   2.311   2.658   0.171
 3354SOL    HW110961   2.276   2.565   0.185
 3354SOL    HW210962   2.255   2.704   0.102
 3355SOL     OW10963   1.384   1.180   5.162
 3355SOL    HW110964   1.429   1.198   5.075
 3355SOL    HW210965   1.348   1.087   5.163
 3356SOL     OW10966   3.512   1.103   5.980
 3356SOL    HW110967   3.419   1.093   5.946
 3356SOL    HW210968   3.566   1.155   5.914
 3357SOL     OW10969   2.982   3.832   3.352
 3357SOL    HW110970   2.912   3.761   3.342
 3357SOL    HW210971   3.005   3.843   3.448
 3358SOL     OW10972   7.010   1.886   1.491
 3358SOL    HW110973   7.014   1.789   1.512
 3358SOL    HW210974   0.072   1.925   1.493
 3359SOL     OW10975   1.182   0.105   3.927
 3359SOL    HW110976   1.156   0.018   3.886
 3359SOL    HW210977   1.224   0.164   3.857
 3360SOL     OW10978   1.340   5.510   4.944
 3360SOL    HW110979   1.428   5.557   4.933
 3360SOL    HW210980   1.355   5.421   4.987
 3361SOL     OW10981   0.079   6.890   4.323
 3361SOL    HW110982   0.005   6.827   4.297
 3361SOL    HW210983   0.080   6.968   4.260
 3362SOL     OW10984   3.740   0.512   4.277
 3362SOL    HW110985   3.812   0.549   4.336
 3362SOL    HW210986   3.675   0.584   4.254
 3363SOL     OW10987   4.868   3.694   0.467
 3363SOL    HW110988   4.933   3.768   0.482
 3363SOL    HW210989   4.871   3.631   0.544
 3364SOL     OW10990   1.622   3.749   1.593
 3364SOL    HW110991   1.640   3.674   1.530
 3364SOL    HW210992   1.618   3.715   1.686
 3365SOL     OW10993   1.178   2.741   3.089
 3365SOL    HW110994   1.273   2.764   3.071
 3365SOL    HW210995   1.121   2.822   3.075
 3366SOL     OW10996   5.927   2.840   4.288
 3366SOL    HW110997   5.917   2.862   4.191
 3366SOL    HW210998   5.986   2.761   4.298
 3367SOL     OW10999   3.427   3.074   3.701
 3367SOL    HW111000   3.469   3.016   3.631
 3367SOL    HW211001   3.338   3.037   3.727
 3368SOL     OW11002   2.299   1.036   3.732
 3368SOL    HW111003   2.358   1.062   3.655
 3368SOL    HW211004   2.204   1.049   3.706
 3369SOL     OW11005   4.807   2.577   1.244
 3369SOL    HW111006   4.904   2.557   1.232
 3369SOL    HW211007   4.781   2.653   1.184
 3370SOL     OW11008   0.856   5.700   2.970
 3370SOL    HW111009   0.824   5.701   3.065
 3370SOL    HW211010   0.932   5.764   2.959
 3371SOL     OW11011   2.395   2.668   1.251
 3371SOL    HW111012   2.311   2.657   1.199
 3371SOL    HW211013   2.470   2.622   1.203
 3372SOL     OW11014   5.708   2.579   3.433
 3372SOL    HW111015   5.685   2.667   3.474
 3372SOL    HW211016   5.638   2.554   3.366
 3373SOL     OW11017   6.787   4.483   0.526
 3373SOL    HW111018   6.792   4.504   0.624
 3373SOL    HW211019   6.693   4.457   0.503
 3374SOL     OW11020   1.168   5.611   4.030
 3374SOL    HW111021   1.084   5.666   4.021
 3374SOL    HW211022   1.231   5.634   3.957
 3375SOL     OW11023   0.135   6.127   5.549
 3375SOL    HW111024   0.133   6.162   5.455
 3375SOL    HW211025   0.161   6.201   5.611
 3376SOL     OW11026   3.343   3.819   4.934
 3376SOL    HW111027   3.326   3.884   5.008
 3376SOL    HW211028   3.308   3.856   4.848
 3377SOL     OW11029   0.033   5.881   3.924
 3377SOL    HW111030   0.035   5.781   3.913
 3377SOL    HW211031   6.975   5.916   3.892
 3378SOL     OW11032   1.498   5.760   0.072
 3378SOL    HW111033   1.555   5.679   0.085
 3378SOL    HW211034   1.402   5.732   0.067
 3379SOL     OW11035   5.905   4.205   4.157
 3379SOL    HW111036   5.977   4.169   4.217
 3379SOL    HW211037   5.924   4.302   4.137
 3380SOL     OW11038   1.973   5.395   1.921
 3380SOL    HW111039   1.981   5.494   1.909
 3380SOL    HW211040   2.039   5.365   1.990
 3381SOL     OW11041   3.030   3.952   6.429
 3381SOL    HW111042   3.006   3.863   6.390
 3381SOL    HW211043   3.002   4.025   6.366
 3382SOL     OW11044   0.059   3.723   6.712
 3382SOL    HW111045   0.102   3.800   6.758
 3382SOL    HW211046   0.036   3.653   6.780
 3383SOL     OW11047   3.010   5.830   0.629
 3383SOL    HW111048   2.992   5.924   0.658
 3383SOL    HW211049   2.981   5.767   0.701
 3384SOL     OW11050   2.701   2.865   6.581
 3384SOL    HW111051   2.795   2.857   6.614
 3384SOL    HW211052   2.684   2.795   6.512
 3385SOL     OW11053   5.568   2.770   4.771
 3385SOL    HW111054   5.513   2.736   4.848
 3385SOL    HW211055   5.513   2.831   4.715
 3386SOL     OW11056   0.060   5.283   5.176
 3386SOL    HW111057   0.054   5.310   5.080
 3386SOL    HW211058   0.031   5.187   5.185
 3387SOL     OW11059   6.218   0.290   2.533
 3387SOL    HW111060   6.293   0.350   2.561
 3387SOL    HW211061   6.133   0.324   2.573
 3388SOL     OW11062   0.746   3.959   0.235
 3388SOL    HW111063   0.702   4.038   0.194
 3388SOL    HW211064   0.681   3.883   0.240
 3389SOL     OW11065   6.504   5.053   5.952
 3389SOL    HW111066   6.428   5.043   5.888
 3389SOL    HW211067   6.470   5.090   6.039
 3390SOL     OW11068   3.068   5.391   0.700
 3390SOL    HW111069   3.145   5.424   0.754
 3390SOL    HW211070   3.087   5.403   0.603
 3391SOL     OW11071   5.525   4.128   5.684
 3391SOL    HW111072   5.436   4.089   5.662
 3391SOL    HW211073   5.575   4.146   5.599
 3392SOL     OW11074   5.096   6.470   5.726
 3392SOL    HW111075   5.160   6.474   5.803
 3392SOL    HW211076   5.071   6.375   5.709
 3393SOL     OW11077   3.699   0.363   0.829
 3393SOL    HW111078   3.623   0.376   0.766
 3393SOL    HW211079   3.669   0.381   0.922
 3394SOL     OW11080   2.667   5.773   1.735
 3394SOL    HW111081   2.670   5.688   1.682
 3394SOL    HW211082   2.654   5.850   1.673
 3395SOL     OW11083   2.100   6.630   3.319
 3395SOL    HW111084   2.068   6.605   3.228
 3395SOL    HW211085   2.196   6.658   3.314
 3396SOL     OW11086   4.372   0.647   4.322
 3396SOL    HW111087   4.365   0.610   4.230
 3396SOL    HW211088   4.435   0.592   4.376
 3397SOL     OW11089   2.167   6.589   0.931
 3397SOL    HW111090   2.083   6.556   0.887
 3397SOL    HW211091   2.143   6.652   1.005
 3398SOL     OW11092   6.478   1.313   6.623
 3398SOL    HW111093   6.500   1.389   6.684
 3398SOL    HW211094   6.524   1.326   6.536
 3399SOL     OW11095   0.359   5.789   2.356
 3399SOL    HW111096   0.287   5.844   2.313
 3399SOL    HW211097   0.340   5.780   2.454
 3400SOL     OW11098   3.657   3.183   5.785
 3400SOL    HW111099   3.627   3.271   5.748
 3400SOL    HW211100   3.755   3.171   5.767
 3401SOL     OW11101   6.696   3.238   4.217
 3401SOL    HW111102   6.729   3.144   4.222
 3401SOL    HW211103   6.742   3.286   4.143
 3402SOL     OW11104   5.495   3.412   0.126
 3402SOL    HW111105   5.551   3.451   0.053
 3402SOL    HW211106   5.472   3.317   0.103
 3403SOL     OW11107   5.512   6.431   4.372
 3403SOL    HW111108   5.575   6.503   4.345
 3403SOL    HW211109   5.546   6.343   4.339
 3404SOL     OW11110   5.333   5.030   2.925
 3404SOL    HW111111   5.329   4.945   2.873
 3404SOL    HW211112   5.285   5.102   2.875
 3405SOL     OW11113   4.417   5.890   1.380
 3405SOL    HW111114   4.357   5.970   1.382
 3405SOL    HW211115   4.373   5.814   1.428
 3406SOL     OW11116   4.276   5.065   1.305
 3406SOL    HW111117   4.177   5.074   1.321
 3406SOL    HW211118   4.293   4.993   1.238
 3407SOL     OW11119   1.632   2.726   0.372
 3407SOL    HW111120   1.582   2.655   0.322
 3407SOL    HW211121   1.710   2.685   0.419
 3408SOL     OW11122   3.751   6.448   3.876
 3408SOL    HW111123   3.731   6.375   3.941
 3408SOL    HW211124   3.668   6.501   3.860
 3409SOL     OW11125   4.548   1.762   6.940
 3409SOL    HW111126   4.523   1.794   0.001
 3409SOL    HW211127   4.641   1.794   6.918
 3410SOL     OW11128   6.808   0.687   2.110
 3410SOL    HW111129   6.850   0.597   2.098
 3410SOL    HW211130   6.872   0.747   2.157
 3411SOL     OW11131   5.910   3.496   6.277
 3411SOL    HW111132   5.958   3.541   6.353
 3411SOL    HW211133   5.899   3.399   6.298
 3412SOL     OW11134   5.232   2.961   3.484
 3412SOL    HW111135   5.145   2.987   3.524
 3412SOL    HW211136   5.291   3.042   3.476
 3413SOL     OW11137   0.408   2.463   1.252
 3413SOL    HW111138   0.432   2.520   1.174
 3413SOL    HW211139   0.462   2.492   1.332
 3414SOL     OW11140   3.941   2.981   1.970
 3414SOL    HW111141   3.989   3.005   1.886
 3414SOL    HW211142   3.860   3.039   1.981
 3415SOL     OW11143   2.663   1.004   6.264
 3415SOL    HW111144   2.595   1.077   6.263
 3415SOL    HW211145   2.709   1.002   6.353
 3416SOL     OW11146   5.276   6.515   5.939
 3416SOL    HW111147   5.323   6.543   5.855
 3416SOL    HW211148   5.308   6.424   5.966
 3417SOL     OW11149   5.814   0.770   2.452
 3417SOL    HW111150   5.782   0.675   2.458
 3417SOL    HW211151   5.896   0.774   2.395
 3418SOL     OW11152   3.876   5.831   0.882
 3418SOL    HW111153   3.824   5.784   0.811
 3418SOL    HW211154   3.863   5.784   0.970
 3419SOL     OW11155   3.185   4.617   5.298
 3419SOL    HW111156   3.103   4.581   5.253
 3419SOL    HW211157   3.240   4.542   5.334
 3420SOL     OW11158   4.285   0.785   1.504
 3420SOL    HW111159   4.376   0.820   1.479
 3420SOL    HW211160   4.296   0.716   1.576
 3421SOL     OW11161   0.377   1.294   4.379
 3421SOL    HW111162   0.426   1.208   4.383
 3421SOL    HW211163   0.406   1.352   4.456
 3422SOL     OW11164   3.460   5.441   1.777
 3422SOL    HW111165   3.362   5.429   1.760
 3422SOL    HW211166   3.497   5.356   1.815
 3423SOL     OW11167   2.386   4.928   6.252
 3423SOL    HW111168   2.327   4.849   6.233
 3423SOL    HW211169   2.444   4.946   6.172
 3424SOL     OW11170   5.431   6.936   2.328
 3424SOL    HW111171   5.381   6.990   2.261
 3424SOL    HW211172   5.443   6.843   2.293
 3425SOL     OW11173   5.406   3.401   6.207
 3425SOL    HW111174   5.484   3.463   6.215
 3425SOL    HW211175   5.432   3.309   6.237
 3426SOL     OW11176   6.885   5.293   6.499
 3426SOL    HW111177   6.925   5.312   6.589
 3426SOL    HW211178   6.790   5.264   6.510
 3427SOL     OW11179   1.983   1.530   6.783
 3427SOL    HW111180   1.883   1.542   6.779
 3427SOL    HW211181   2.023   1.554   6.695
 3428SOL     OW11182   4.488   0.151   4.049
 3428SOL    HW111183   4.520   0.070   4.098
 3428SOL    HW211184   4.566   0.212   4.031
 3429SOL     OW11185   4.049   6.041   0.846
 3429SOL    HW111186   3.996   5.964   0.879
 3429SOL    HW211187   4.096   6.017   0.761
 3430SOL     OW11188   2.897   4.512   6.646
 3430SOL    HW111189   2.971   4.460   6.606
 3430SOL    HW211190   2.934   4.592   6.694
 3431SOL     OW11191   0.992   4.520   2.656
 3431SOL    HW111192   0.917   4.455   2.668
 3431SOL    HW211193   1.032   4.542   2.744
 3432SOL     OW11194   0.349   5.291   6.804
 3432SOL    HW111195   0.260   5.315   6.842
 3432SOL    HW211196   0.360   5.192   6.806
 3433SOL     OW11197   0.681   0.372   0.427
 3433SOL    HW111198   0.646   0.400   0.516
 3433SOL    HW211199   0.777   0.344   0.437
 3434SOL     OW11200   4.411   2.363   2.571
 3434SOL    HW111201   4.401   2.425   2.649
 3434SOL    HW211202   4.401   2.268   2.602
 3435SOL     OW11203   2.101   2.996   1.164
 3435SOL    HW111204   2.160   3.033   1.092
 3435SOL    HW211205   2.012   2.972   1.126
 3436SOL     OW11206   4.143   6.014   5.743
 3436SOL    HW111207   4.051   6.023   5.706
 3436SOL    HW211208   4.139   6.009   5.843
 3437SOL     OW11209   1.551   6.831   0.214
 3437SOL    HW111210   1.618   6.892   0.172
 3437SOL    HW211211   1.476   6.884   0.252
 3438SOL     OW11212   2.220   4.351   0.272
 3438SOL    HW111213   2.175   4.311   0.192
 3438SOL    HW211214   2.289   4.416   0.243
 3439SOL     OW11215   2.694   6.134   1.263
 3439SOL    HW111216   2.642   6.058   1.303
 3439SOL    HW211217   2.721   6.110   1.170
 3440SOL     OW11218   3.941   3.899   5.794
 3440SOL    HW111219   3.858   3.844   5.803
 3440SOL    HW211220   4.021   3.843   5.812
 3441SOL     OW11221   6.702   5.219   4.741
 3441SOL    HW111222   6.636   5.163   4.791
 3441SOL    HW211223   6.680   5.315   4.752
 3442SOL     OW11224   1.032   1.795   0.568
 3442SOL    HW111225   1.062   1.831   0.479
 3442SOL    HW211226   0.949   1.843   0.596
 3443SOL     OW11227   0.166   5.465   2.427
 3443SOL    HW111228   0.088   5.424   2.474
 3443SOL    HW211229   0.220   5.518   2.492
 3444SOL     OW11230   1.084   4.116   6.590
 3444SOL    HW111231   1.097   4.200   6.538
 3444SOL    HW211232   0.988   4.089   6.587
 3445SOL     OW11233   5.924   5.586   4.285
 3445SOL    HW111234   5.824   5.593   4.292
 3445SOL    HW211235   5.959   5.661   4.231
 3446SOL     OW11236   4.882   1.573   0.316
 3446SOL    HW111237   4.851   1.647   0.257
 3446SOL    HW211238   4.845   1.586   0.408
 3447SOL     OW11239   5.485   1.366   5.762
 3447SOL    HW111240   5.393   1.335   5.737
 3447SOL    HW211241   5.481   1.462   5.791
 3448SOL     OW11242   0.656   4.982   5.095
 3448SOL    HW111243   0.582   4.918   5.118
 3448SOL    HW211244   0.716   4.993   5.175
 3449SOL     OW11245   1.584   3.671   5.006
 3449SOL    HW111246   1.643   3.631   4.936
 3449SOL    HW211247   1.504   3.613   5.020
 3450SOL     OW11248   2.562   6.435   2.233
 3450SOL    HW111249   2.547   6.398   2.142
 3450SOL    HW211250   2.476   6.466   2.272
 3451SOL     OW11251   1.747   1.921   0.636
 3451SOL    HW111252   1.678   1.852   0.614
 3451SOL    HW211253   1.767   1.919   0.734
 3452SOL     OW11254   4.504   1.059   5.985
 3452SOL    HW111255   4.562   1.086   6.061
 3452SOL    HW211256   4.513   1.126   5.911
 3453SOL     OW11257   4.319   6.184   5.585
 3453SOL    HW111258   4.248   6.119   5.609
 3453SOL    HW211259   4.399   6.135   5.550
 3454SOL     OW11260   1.275   2.991   3.350
 3454SOL    HW111261   1.252   3.053   3.425
 3454SOL    HW211262   1.193   2.971   3.296
 3455SOL     OW11263   1.185   4.376   6.466
 3455SOL    HW111264   1.261   4.373   6.530
 3455SOL    HW211265   1.120   4.447   6.494
 3456SOL     OW11266   4.427   5.366   3.295
 3456SOL    HW111267   4.524   5.392   3.295
 3456SOL    HW211268   4.399   5.345   3.201
 3457SOL     OW11269   4.034   4.259   7.019
 3457SOL    HW111270   4.069   4.249   0.082
 3457SOL    HW211271   3.956   4.323   7.020
 3458SOL     OW11272   4.414   1.908   0.659
 3458SOL    HW111273   4.365   1.861   0.732
 3458SOL    HW211274   4.493   1.853   0.632
 3459SOL     OW11275   6.847   6.650   2.612
 3459SOL    HW111276   6.878   6.599   2.693
 3459SOL    HW211277   6.874   6.601   2.529
 3460SOL     OW11278   4.246   0.971   5.335
 3460SOL    HW111279   4.302   1.043   5.296
 3460SOL    HW211280   4.206   1.003   5.421
 3461SOL     OW11281   4.677   4.249   3.494
 3461SOL    HW111282   4.684   4.264   3.593
 3461SOL    HW211283   4.697   4.154   3.473
 3462SOL     OW11284   1.302   4.685   6.468
 3462SOL    HW111285   1.350   4.696   6.555
 3462SOL    HW211286   1.203   4.689   6.484
 3463SOL     OW11287   5.663   4.053   0.055
 3463SOL    HW111288   5.737   4.018   7.027
 3463SOL    HW211289   5.651   4.151   0.038
 3464SOL     OW11290   0.059   4.464   3.796
 3464SOL    HW111291   0.099   4.378   3.764
 3464SOL    HW211292   0.046   4.525   3.719
 3465SOL     OW11293   0.959   3.041   1.446
 3465SOL    HW111294   0.895   2.998   1.509
 3465SOL    HW211295   0.924   3.131   1.418
 3466SOL     OW11296   6.006   3.770   3.568
 3466SOL    HW111297   5.907   3.774   3.583
 3466SOL    HW211298   6.034   3.849   3.514
 3467SOL     OW11299   1.572   2.615   5.683
 3467SOL    HW111300   1.491   2.619   5.623
 3467SOL    HW211301   1.652   2.589   5.629
 3468SOL     OW11302   4.815   5.630   1.753
 3468SOL    HW111303   4.762   5.707   1.717
 3468SOL    HW211304   4.783   5.608   1.846
 3469SOL     OW11305   4.903   4.143   0.332
 3469SOL    HW111306   4.974   4.203   0.295
 3469SOL    HW211307   4.945   4.062   0.373
 3470SOL     OW11308   6.615   5.135   0.787
 3470SOL    HW111309   6.666   5.074   0.848
 3470SOL    HW211310   6.542   5.180   0.839
 3471SOL     OW11311   4.204   6.463   4.612
 3471SOL    HW111312   4.122   6.512   4.581
 3471SOL    HW211313   4.283   6.491   4.556
 3472SOL     OW11314   4.116   0.331   4.899
 3472SOL    HW111315   4.040   0.279   4.939
 3472SOL    HW211316   4.103   0.339   4.800
 3473SOL     OW11317   4.354   6.493   3.846
 3473SOL    HW111318   4.435   6.434   3.853
 3473SOL    HW211319   4.274   6.438   3.823
 3474SOL     OW11320   4.148   4.877   0.161
 3474SOL    HW111321   4.102   4.854   0.075
 3474SOL    HW211322   4.247   4.865   0.150
 3475SOL     OW11323   1.212   5.087   5.439
 3475SOL    HW111324   1.143   5.050   5.501
 3475SOL    HW211325   1.202   5.186   5.433
 3476SOL     OW11326   3.968   1.570   3.670
 3476SOL    HW111327   3.884   1.534   3.629
 3476SOL    HW211328   3.991   1.658   3.627
 3477SOL     OW11329   4.689   5.399   2.391
 3477SOL    HW111330   4.605   5.362   2.352
 3477SOL    HW211331   4.730   5.332   2.453
 3478SOL     OW11332   3.596   4.157   0.408
 3478SOL    HW111333   3.499   4.142   0.426
 3478SOL    HW211334   3.649   4.132   0.489
 3479SOL     OW11335   1.723   0.419   0.097
 3479SOL    HW111336   1.771   0.501   0.067
 3479SOL    HW211337   1.756   0.392   0.187
 3480SOL     OW11338   1.318   6.330   4.430
 3480SOL    HW111339   1.399   6.284   4.392
 3480SOL    HW211340   1.259   6.263   4.474
 3481SOL     OW11341   2.274   5.685   0.436
 3481SOL    HW111342   2.360   5.717   0.394
 3481SOL    HW211343   2.200   5.747   0.411
 3482SOL     OW11344   0.242   2.082   1.533
 3482SOL    HW111345   0.314   2.124   1.479
 3482SOL    HW211346   0.180   2.152   1.569
 3483SOL     OW11347   3.896   0.840   1.044
 3483SOL    HW111348   3.962   0.765   1.036
 3483SOL    HW211349   3.805   0.802   1.059
 3484SOL     OW11350   4.010   3.847   3.079
 3484SOL    HW111351   4.074   3.770   3.075
 3484SOL    HW211352   3.925   3.817   3.121
 3485SOL     OW11353   6.084   2.092   4.909
 3485SOL    HW111354   6.181   2.076   4.927
 3485SOL    HW211355   6.051   2.024   4.843
 3486SOL     OW11356   5.768   1.245   3.319
 3486SOL    HW111357   5.782   1.236   3.418
 3486SOL    HW211358   5.670   1.239   3.299
 3487SOL     OW11359   1.288   0.272   0.854
 3487SOL    HW111360   1.324   0.311   0.939
 3487SOL    HW211361   1.189   0.259   0.864
 3488SOL     OW11362   6.232   3.778   5.081
 3488SOL    HW111363   6.306   3.775   5.013
 3488SOL    HW211364   6.168   3.850   5.056
 3489SOL     OW11365   3.318   5.660   6.618
 3489SOL    HW111366   3.375   5.580   6.637
 3489SOL    HW211367   3.260   5.641   6.539
 3490SOL     OW11368   4.755   3.772   0.069
 3490SOL    HW111369   4.742   3.855   0.016
 3490SOL    HW211370   4.669   3.748   0.115
 3491SOL     OW11371   5.487   2.914   5.118
 3491SOL    HW111372   5.499   3.009   5.091
 3491SOL    HW211373   5.407   2.876   5.071
 3492SOL     OW11374   6.545   4.534   6.372
 3492SOL    HW111375   6.473   4.498   6.432
 3492SOL    HW211376   6.597   4.458   6.333
 3493SOL     OW11377   6.336   4.440   1.104
 3493SOL    HW111378   6.246   4.447   1.062
 3493SOL    HW211379   6.401   4.402   1.039
 3494SOL     OW11380   3.509   6.540   1.458
 3494SOL    HW111381   3.541   6.501   1.372
 3494SOL    HW211382   3.420   6.583   1.445
 3495SOL     OW11383   6.113   4.553   6.207
 3495SOL    HW111384   6.055   4.531   6.285
 3495SOL    HW211385   6.085   4.640   6.168
 3496SOL     OW11386   0.470   6.196   0.816
 3496SOL    HW111387   0.465   6.259   0.738
 3496SOL    HW211388   0.377   6.167   0.841
 3497SOL     OW11389   3.316   0.267   5.096
 3497SOL    HW111390   3.347   0.339   5.158
 3497SOL    HW211391   3.235   0.222   5.134
 3498SOL     OW11392   0.755   1.623   0.223
 3498SOL    HW111393   0.723   1.716   0.209
 3498SOL    HW211394   0.839   1.608   0.170
 3499SOL     OW11395   6.692   4.052   4.118
 3499SOL    HW111396   6.626   3.987   4.156
 3499SOL    HW211397   6.646   4.138   4.099
 3500SOL     OW11398   6.195   2.889   0.910
 3500SOL    HW111399   6.268   2.896   0.978
 3500SOL    HW211400   6.230   2.847   0.826
 3501SOL     OW11401   0.427   5.034   3.144
 3501SOL    HW111402   0.428   4.973   3.065
 3501SOL    HW211403   0.399   5.125   3.115
 3502SOL     OW11404   1.155   5.832   0.932
 3502SOL    HW111405   1.139   5.831   0.834
 3502SOL    HW211406   1.167   5.738   0.965
 3503SOL     OW11407   3.357   6.785   3.730
 3503SOL    HW111408   3.457   6.787   3.729
 3503SOL    HW211409   3.324   6.713   3.669
 3504SOL     OW11410   2.150   3.276   2.684
 3504SOL    HW111411   2.244   3.302   2.663
 3504SOL    HW211412   2.094   3.358   2.696
 3505SOL     OW11413   4.332   6.406   4.860
 3505SOL    HW111414   4.297   6.434   4.771
 3505SOL    HW211415   4.391   6.327   4.849
 3506SOL     OW11416   6.998   4.577   2.199
 3506SOL    HW111417   0.011   4.578   2.109
 3506SOL    HW211418   6.939   4.658   2.209
 3507SOL     OW11419   6.784   0.230   6.023
 3507SOL    HW111420   6.739   0.235   6.112
 3507SOL    HW211421   6.748   0.301   5.962
 3508SOL     OW11422   6.665   4.402   6.922
 3508SOL    HW111423   6.753   4.426   6.964
 3508SOL    HW211424   6.670   4.420   6.823
 3509SOL     OW11425   5.390   6.956   6.958
 3509SOL    HW111426   5.310   6.896   6.964
 3509SOL    HW211427   5.387   7.008   6.873
 3510SOL     OW11428   2.388   1.361   2.070
 3510SOL    HW111429   2.453   1.286   2.077
 3510SOL    HW211430   2.381   1.407   2.159
 3511SOL     OW11431   1.035   1.070   4.485
 3511SOL    HW111432   1.092   1.149   4.507
 3511SOL    HW211433   1.021   1.065   4.386
 3512SOL     OW11434   3.990   3.043   1.321
 3512SOL    HW111435   4.084   3.009   1.328
 3512SOL    HW211436   3.931   2.970   1.287
 3513SOL     OW11437   6.423   4.491   1.429
 3513SOL    HW111438   6.474   4.527   1.351
 3513SOL    HW211439   6.469   4.410   1.465
 3514SOL     OW11440   2.752   6.121   2.694
 3514SOL    HW111441   2.669   6.115   2.750
 3514SOL    HW211442   2.737   6.073   2.608
 3515SOL     OW11443   3.850   5.753   3.309
 3515SOL    HW111444   3.933   5.736   3.256
 3515SOL    HW211445   3.783   5.682   3.289
 3516SOL     OW11446   1.690   1.177   0.456
 3516SOL    HW111447   1.607   1.232   0.462
 3516SOL    HW211448   1.681   1.095   0.513
 3517SOL     OW11449   0.307   0.674   6.723
 3517SOL    HW111450   0.340   0.692   6.816
 3517SOL    HW211451   0.379   0.630   6.670
 3518SOL     OW11452   4.254   3.537   6.155
 3518SOL    HW111453   4.275   3.545   6.253
 3518SOL    HW211454   4.155   3.533   6.142
 3519SOL     OW11455   3.213   0.265   0.407
 3519SOL    HW111456   3.309   0.251   0.384
 3519SOL    HW211457   3.178   0.344   0.356
 3520SOL     OW11458   3.778   5.048   1.702
 3520SOL    HW111459   3.877   5.036   1.690
 3520SOL    HW211460   3.742   5.104   1.627
 3521SOL     OW11461   6.634   2.072   5.783
 3521SOL    HW111462   6.726   2.065   5.747
 3521SOL    HW211463   6.629   2.150   5.846
 3522SOL     OW11464   2.478   0.731   0.640
 3522SOL    HW111465   2.525   0.756   0.724
 3522SOL    HW211466   2.477   0.810   0.578
 3523SOL     OW11467   2.471   4.493   4.887
 3523SOL    HW111468   2.442   4.398   4.901
 3523SOL    HW211469   2.531   4.521   4.962
 3524SOL     OW11470   2.805   1.740   3.762
 3524SOL    HW111471   2.837   1.647   3.742
 3524SOL    HW211472   2.883   1.797   3.790
 3525SOL     OW11473   1.654   3.248   3.557
 3525SOL    HW111474   1.750   3.268   3.535
 3525SOL    HW211475   1.599   3.331   3.543
 3526SOL     OW11476   3.561   6.289   3.465
 3526SOL    HW111477   3.595   6.297   3.372
 3526SOL    HW211478   3.587   6.371   3.517
 3527SOL     OW11479   5.827   3.536   0.015
 3527SOL    HW111480   5.763   3.607   7.017
 3527SOL    HW211481   5.860   3.486   6.965
 3528SOL     OW11482   1.608   6.943   4.526
 3528SOL    HW111483   1.694   6.981   4.491
 3528SOL    HW211484   1.538   6.948   4.454
 3529SOL     OW11485   3.956   5.684   0.235
 3529SOL    HW111486   3.931   5.744   0.311
 3529SOL    HW211487   3.979   5.593   0.271
 3530SOL     OW11488   1.888   6.056   3.049
 3530SOL    HW111489   1.925   6.080   2.959
 3530SOL    HW211490   1.808   6.112   3.068
 3531SOL     OW11491   4.749   4.600   6.870
 3531SOL    HW111492   4.839   4.623   6.833
 3531SOL    HW211493   4.685   4.675   6.852
 3532SOL     OW11494   2.632   6.534   0.828
 3532SOL    HW111495   2.597   6.622   0.859
 3532SOL    HW211496   2.706   6.548   0.763
 3533SOL     OW11497   1.714   0.673   3.231
 3533SOL    HW111498   1.722   0.599   3.164
 3533SOL    HW211499   1.624   0.714   3.224
 3534SOL     OW11500   5.213   6.858   4.129
 3534SOL    HW111501   5.241   6.841   4.223
 3534SOL    HW211502   5.229   6.954   4.106
 3535SOL     OW11503   4.590   5.772   0.302
 3535SOL    HW111504   4.553   5.864   0.313
 3535SOL    HW211505   4.690   5.775   0.309
 3536SOL     OW11506   1.606   3.323   2.782
 3536SOL    HW111507   1.679   3.306   2.716
 3536SOL    HW211508   1.518   3.299   2.741
 3537SOL     OW11509   3.104   4.870   2.255
 3537SOL    HW111510   3.081   4.841   2.162
 3537SOL    HW211511   3.033   4.837   2.319
 3538SOL     OW11512   4.179   0.462   3.552
 3538SOL    HW111513   4.096   0.518   3.544
 3538SOL    HW211514   4.158   0.377   3.600
 3539SOL     OW11515   4.869   5.427   5.318
 3539SOL    HW111516   4.787   5.382   5.280
 3539SOL    HW211517   4.899   5.377   5.399
 3540SOL     OW11518   4.341   4.423   6.432
 3540SOL    HW111519   4.298   4.344   6.475
 3540SOL    HW211520   4.401   4.392   6.358
 3541SOL     OW11521   0.395   2.995   2.472
 3541SOL    HW111522   0.471   2.942   2.432
 3541SOL    HW211523   0.432   3.068   2.529
 3542SOL     OW11524   5.648   1.887   6.950
 3542SOL    HW111525   5.564   1.942   6.939
 3542SOL    HW211526   5.649   1.847   0.012
 3543SOL     OW11527   6.865   3.038   4.009
 3543SOL    HW111528   6.863   3.033   3.909
 3543SOL    HW211529   6.849   2.948   4.047
 3544SOL     OW11530   3.091   4.671   6.071
 3544SOL    HW111531   3.012   4.731   6.057
 3544SOL    HW211532   3.172   4.726   6.088
 3545SOL     OW11533   3.294   6.591   1.099
 3545SOL    HW111534   3.243   6.560   1.179
 3545SOL    HW211535   3.367   6.653   1.128
 3546SOL     OW11536   6.493   4.769   1.510
 3546SOL    HW111537   6.587   4.745   1.532
 3546SOL    HW211538   6.448   4.692   1.466
 3547SOL     OW11539   1.141   3.512   4.409
 3547SOL    HW111540   1.126   3.603   4.370
 3547SOL    HW211541   1.236   3.485   4.396
 3548SOL     OW11542   6.429   0.516   5.916
 3548SOL    HW111543   6.392   0.448   5.852
 3548SOL    HW211544   6.528   0.503   5.924
 3549SOL     OW11545   2.280   0.082   6.862
 3549SOL    HW111546   2.266   0.147   6.788
 3549SOL    HW211547   2.305   7.023   6.825
 3550SOL     OW11548   5.689   1.844   5.701
 3550SOL    HW111549   5.702   1.866   5.797
 3550SOL    HW211550   5.772   1.799   5.665
 3551SOL     OW11551   5.991   1.452   4.905
 3551SOL    HW111552   5.922   1.522   4.887
 3551SOL    HW211553   5.991   1.429   5.002
 3552SOL     OW11554   6.960   0.543   3.293
 3552SOL    HW111555   0.010   0.526   3.235
 3552SOL    HW211556   6.946   0.642   3.303
 3553SOL     OW11557   5.676   6.155   6.470
 3553SOL    HW111558   5.743   6.148   6.397
 3553SOL    HW211559   5.657   6.252   6.489
 3554SOL     OW11560   5.124   4.301   6.172
 3554SOL    HW111561   5.215   4.342   6.178
 3554SOL    HW211562   5.118   4.246   6.089
 3555SOL     OW11563   2.438   1.430   5.616
 3555SOL    HW111564   2.487   1.511   5.648
 3555SOL    HW211565   2.436   1.430   5.516
 3556SOL     OW11566   6.020   1.507   0.562
 3556SOL    HW111567   6.032   1.466   0.653
 3556SOL    HW211568   5.949   1.577   0.566
 3557SOL     OW11569   4.930   6.229   1.624
 3557SOL    HW111570   4.976   6.143   1.603
 3557SOL    HW211571   4.890   6.224   1.715
 3558SOL     OW11572   4.248   5.602   2.331
 3558SOL    HW111573   4.261   5.608   2.232
 3558SOL    HW211574   4.239   5.505   2.357
 3559SOL     OW11575   4.132   6.315   6.045
 3559SOL    HW111576   4.054   6.326   5.984
 3559SOL    HW211577   4.105   6.339   6.139
 3560SOL     OW11578   1.999   5.984   4.620
 3560SOL    HW111579   2.044   5.943   4.699
 3560SOL    HW211580   2.007   5.922   4.542
 3561SOL     OW11581   3.894   3.141   6.043
 3561SOL    HW111582   3.935   3.180   6.125
 3561SOL    HW211583   3.966   3.105   5.983
 3562SOL     OW11584   3.126   1.194   0.696
 3562SOL    HW111585   3.081   1.121   0.644
 3562SOL    HW211586   3.220   1.167   0.716
 3563SOL     OW11587   0.253   2.244   6.961
 3563SOL    HW111588   0.346   2.237   6.997
 3563SOL    HW211589   0.234   2.339   6.936
 3564SOL     OW11590   6.293   3.571   3.244
 3564SOL    HW111591   6.212   3.514   3.234
 3564SOL    HW211592   6.288   3.647   3.179
 3565SOL     OW11593   4.905   6.707   4.721
 3565SOL    HW111594   4.807   6.729   4.726
 3565SOL    HW211595   4.942   6.741   4.635
 3566SOL     OW11596   0.879   1.029   5.910
 3566SOL    HW111597   0.893   1.122   5.875
 3566SOL    HW211598   0.952   1.007   5.975
 3567SOL     OW11599   0.297   4.623   7.024
 3567SOL    HW111600   0.287   4.584   6.932
 3567SOL    HW211601   0.281   4.552   0.063
 3568SOL     OW11602   3.655   4.497   5.445
 3568SOL    HW111603   3.677   4.400   5.454
 3568SOL    HW211604   3.736   4.548   5.417
 3569SOL     OW11605   1.718   0.501   3.014
 3569SOL    HW111606   1.746   0.571   2.949
 3569SOL    HW211607   1.767   0.416   2.996
 3570SOL     OW11608   6.533   1.654   4.349
 3570SOL    HW111609   6.577   1.576   4.305
 3570SOL    HW211610   6.557   1.738   4.301
 3571SOL     OW11611   6.443   5.522   4.209
 3571SOL    HW111612   6.351   5.509   4.246
 3571SOL    HW211613   6.489   5.434   4.202
 3572SOL     OW11614   5.701   6.796   5.381
 3572SOL    HW111615   5.718   6.839   5.469
 3572SOL    HW211616   5.788   6.769   5.339
 3573SOL     OW11617   0.426   2.421   1.648
 3573SOL    HW111618   0.492   2.347   1.633
 3573SOL    HW211619   0.335   2.390   1.618
 3574SOL     OW11620   6.222   3.453   0.471
 3574SOL    HW111621   6.161   3.499   0.407
 3574SOL    HW211622   6.234   3.358   0.443
 3575SOL     OW11623   6.382   0.089   2.062
 3575SOL    HW111624   6.324   0.123   1.988
 3575SOL    HW211625   6.409   7.025   2.043
 3576SOL     OW11626   0.492   0.946   0.357
 3576SOL    HW111627   0.443   0.899   0.430
 3576SOL    HW211628   0.583   0.905   0.346
 3577SOL     OW11629   2.607   4.694   6.824
 3577SOL    HW111630   2.525   4.714   6.771
 3577SOL    HW211631   2.630   4.597   6.813
 3578SOL     OW11632   3.376   4.468   1.677
 3578SOL    HW111633   3.431   4.546   1.708
 3578SOL    HW211634   3.286   4.501   1.648
 3579SOL     OW11635   1.850   3.826   5.579
 3579SOL    HW111636   1.934   3.847   5.529
 3579SOL    HW211637   1.774   3.877   5.539
 3580SOL     OW11638   5.865   2.109   0.950
 3580SOL    HW111639   5.914   2.022   0.943
 3580SOL    HW211640   5.766   2.091   0.954
 3581SOL     OW11641   6.978   0.901   3.068
 3581SOL    HW111642   6.941   0.990   3.041
 3581SOL    HW211643   6.971   0.890   3.167
 3582SOL     OW11644   0.348   6.977   5.937
 3582SOL    HW111645   0.258   6.945   5.966
 3582SOL    HW211646   0.412   6.900   5.935
 3583SOL     OW11647   0.898   5.972   1.456
 3583SOL    HW111648   0.929   5.916   1.379
 3583SOL    HW211649   0.971   6.036   1.482
 3584SOL     OW11650   5.665   0.677   4.979
 3584SOL    HW111651   5.578   0.726   4.993
 3584SOL    HW211652   5.662   0.589   5.027
 3585SOL     OW11653   2.507   4.540   3.594
 3585SOL    HW111654   2.471   4.453   3.561
 3585SOL    HW211655   2.516   4.537   3.694
 3586SOL     OW11656   1.064   1.178   6.595
 3586SOL    HW111657   1.133   1.159   6.526
 3586SOL    HW211658   1.027   1.092   6.630
 3587SOL     OW11659   3.578   6.748   6.260
 3587SOL    HW111660   3.648   6.805   6.303
 3587SOL    HW211661   3.488   6.778   6.290
 3588SOL     OW11662   2.418   2.300   5.600
 3588SOL    HW111663   2.335   2.330   5.552
 3588SOL    HW211664   2.483   2.375   5.604
 3589SOL     OW11665   3.141   6.360   4.755
 3589SOL    HW111666   3.047   6.390   4.773
 3589SOL    HW211667   3.145   6.316   4.665
 3590SOL     OW11668   1.482   5.540   6.773
 3590SOL    HW111669   1.442   5.521   6.684
 3590SOL    HW211670   1.491   5.454   6.824
 3591SOL     OW11671   5.251   1.070   5.526
 3591SOL    HW111672   5.312   1.135   5.481
 3591SOL    HW211673   5.156   1.090   5.500
 3592SOL     OW11674   5.744   1.848   2.053
 3592SOL    HW111675   5.729   1.880   2.147
 3592SOL    HW211676   5.696   1.762   2.039
 3593SOL     OW11677   1.103   5.406   4.218
 3593SOL    HW111678   1.134   5.484   4.164
 3593SOL    HW211679   1.039   5.438   4.288
 3594SOL     OW11680   3.990   1.285   4.199
 3594SOL    HW111681   4.065   1.223   4.175
 3594SOL    HW211682   3.938   1.306   4.116
 3595SOL     OW11683   2.406   6.622   5.948
 3595SOL    HW111684   2.436   6.529   5.969
 3595SOL    HW211685   2.318   6.639   5.992
 3596SOL     OW11686   0.103   3.677   3.230
 3596SOL    HW111687   0.197   3.692   3.201
 3596SOL    HW211688   0.072   3.588   3.198
 3597SOL     OW11689   3.965   0.203   4.519
 3597SOL    HW111690   3.898   0.254   4.573
 3597SOL    HW211691   3.928   0.112   4.499
 3598SOL     OW11692   1.754   0.143   7.007
 3598SOL    HW111693   1.842   0.137   6.959
 3598SOL    HW211694   1.752   0.225   0.033
 3599SOL     OW11695   0.199   1.605   4.663
 3599SOL    HW111696   0.139   1.533   4.696
 3599SOL    HW211697   0.253   1.641   4.740
 3600SOL     OW11698   6.298   6.798   1.130
 3600SOL    HW111699   6.271   6.766   1.221
 3600SOL    HW211700   6.304   6.720   1.067
 3601SOL     OW11701   6.592   3.789   6.298
 3601SOL    HW111702   6.634   3.827   6.216
 3601SOL    HW211703   6.646   3.815   6.378
 3602SOL     OW11704   3.139   2.141   1.088
 3602SOL    HW111705   3.138   2.195   1.003
 3602SOL    HW211706   3.226   2.093   1.096
 3603SOL     OW11707   3.837   4.994   4.782
 3603SOL    HW111708   3.901   5.031   4.714
 3603SOL    HW211709   3.801   4.907   4.750
 3604SOL     OW11710   6.181   3.977   3.253
 3604SOL    HW111711   6.122   4.014   3.181
 3604SOL    HW211712   6.147   4.005   3.342
 3605SOL     OW11713   6.090   1.782   6.535
 3605SOL    HW111714   5.991   1.773   6.548
 3605SOL    HW211715   6.112   1.776   6.438
 3606SOL     OW11716   2.128   4.156   3.017
 3606SOL    HW111717   2.176   4.085   2.964
 3606SOL    HW211718   2.177   4.172   3.103
 3607SOL     OW11719   4.501   0.102   6.115
 3607SOL    HW111720   4.429   0.160   6.153
 3607SOL    HW211721   4.495   0.011   6.156
 3608SOL     OW11722   0.711   2.916   3.226
 3608SOL    HW111723   0.805   2.942   3.204
 3608SOL    HW211724   0.652   2.996   3.219
 3609SOL     OW11725   0.183   0.417   3.870
 3609SOL    HW111726   0.179   0.374   3.960
 3609SOL    HW211727   0.096   0.463   3.851
 3610SOL     OW11728   1.505   5.310   5.881
 3610SOL    HW111729   1.599   5.313   5.845
 3610SOL    HW211730   1.458   5.395   5.857
 3611SOL     OW11731   4.995   5.535   5.678
 3611SOL    HW111732   4.960   5.465   5.616
 3611SOL    HW211733   5.038   5.608   5.624
 3612SOL     OW11734   2.189   6.032   0.773
 3612SOL    HW111735   2.111   6.091   0.788
 3612SOL    HW211736   2.160   5.936   0.777
 3613SOL     OW11737   5.295   5.252   6.403
 3613SOL    HW111738   5.282   5.247   6.304
 3613SOL    HW211739   5.239   5.181   6.447
 3614SOL     OW11740   3.645   2.923   4.173
 3614SOL    HW111741   3.572   2.964   4.117
 3614SOL    HW211742   3.628   2.826   4.185
 3615SOL     OW11743   5.071   6.856   5.866
 3615SOL    HW111744   5.094   6.789   5.937
 3615SOL    HW211745   5.022   6.812   5.792
 3616SOL     OW11746   6.331   0.771   4.544
 3616SOL    HW111747   6.309   0.706   4.617
 3616SOL    HW211748   6.393   0.841   4.579
 3617SOL     OW11749   0.190   1.019   0.280
 3617SOL    HW111750   0.287   1.003   0.297
 3617SOL    HW211751   0.180   1.079   0.200
 3618SOL     OW11752   3.303   6.338   6.331
 3618SOL    HW111753   3.218   6.354   6.280
 3618SOL    HW211754   3.315   6.411   6.398
 3619SOL     OW11755   5.224   3.582   3.706
 3619SOL    HW111756   5.202   3.506   3.646
 3619SOL    HW211757   5.206   3.668   3.658
 3620SOL     OW11758   6.015   1.654   5.238
 3620SOL    HW111759   6.065   1.732   5.202
 3620SOL    HW211760   6.062   1.569   5.214
 3621SOL     OW11761   1.504   2.751   5.433
 3621SOL    HW111762   1.514   2.841   5.476
 3621SOL    HW211763   1.581   2.735   5.372
 3622SOL     OW11764   0.786   4.103   0.891
 3622SOL    HW111765   0.789   4.053   0.978
 3622SOL    HW211766   0.732   4.051   0.825
 3623SOL     OW11767   6.465   4.992   4.288
 3623SOL    HW111768   6.512   4.909   4.316
 3623SOL    HW211769   6.390   5.011   4.351
 3624SOL     OW11770   2.380   0.625   1.558
 3624SOL    HW111771   2.346   0.706   1.605
 3624SOL    HW211772   2.470   0.645   1.520
 3625SOL     OW11773   1.167   2.820   4.148
 3625SOL    HW111774   1.139   2.738   4.097
 3625SOL    HW211775   1.215   2.792   4.232
 3626SOL     OW11776   2.708   4.079   5.664
 3626SOL    HW111777   2.720   4.017   5.741
 3626SOL    HW211778   2.695   4.026   5.580
 3627SOL     OW11779   3.411   3.339   3.925
 3627SOL    HW111780   3.451   3.388   4.003
 3627SOL    HW211781   3.475   3.269   3.893
 3628SOL     OW11782   2.315   6.136   4.174
 3628SOL    HW111783   2.350   6.161   4.084
 3628SOL    HW211784   2.276   6.216   4.219
 3629SOL     OW11785   5.615   3.399   5.225
 3629SOL    HW111786   5.692   3.336   5.240
 3629SOL    HW211787   5.536   3.368   5.277
 3630SOL     OW11788   5.587   1.078   4.942
 3630SOL    HW111789   5.684   1.060   4.953
 3630SOL    HW211790   5.564   1.166   4.983
 3631SOL     OW11791   2.157   0.939   3.997
 3631SOL    HW111792   2.198   1.025   3.967
 3631SOL    HW211793   2.058   0.951   4.007
 3632SOL     OW11794   4.692   6.625   6.187
 3632SOL    HW111795   4.717   6.555   6.120
 3632SOL    HW211796   4.772   6.681   6.208
 3633SOL     OW11797   1.248   2.517   5.418
 3633SOL    HW111798   1.193   2.545   5.340
 3633SOL    HW211799   1.341   2.553   5.408
 3634SOL     OW11800   3.210   5.072   6.071
 3634SOL    HW111801   3.239   5.168   6.065
 3634SOL    HW211802   3.221   5.029   5.981
 3635SOL     OW11803   2.140   1.704   4.814
 3635SOL    HW111804   2.151   1.606   4.829
 3635SOL    HW211805   2.058   1.720   4.758
 3636SOL     OW11806   1.485   6.386   1.064
 3636SOL    HW111807   1.433   6.468   1.085
 3636SOL    HW211808   1.423   6.309   1.047
 3637SOL     OW11809   4.880   0.937   1.674
 3637SOL    HW111810   4.874   0.838   1.692
 3637SOL    HW211811   4.899   0.985   1.759
 3638SOL     OW11812   6.306   4.739   3.427
 3638SOL    HW111813   6.301   4.808   3.355
 3638SOL    HW211814   6.357   4.660   3.395
 3639SOL     OW11815   2.813   6.632   0.273
 3639SOL    HW111816   2.871   6.613   0.194
 3639SOL    HW211817   2.770   6.722   0.261
 3640SOL     OW11818   2.501   0.095   1.791
 3640SOL    HW111819   2.564   0.129   1.722
 3640SOL    HW211820   2.410   0.082   1.752
 3641SOL     OW11821   2.136   0.524   4.796
 3641SOL    HW111822   2.084   0.471   4.864
 3641SOL    HW211823   2.078   0.541   4.717
 3642SOL     OW11824   6.023   6.784   2.063
 3642SOL    HW111825   5.936   6.747   2.030
 3642SOL    HW211826   6.085   6.796   1.985
 3643SOL     OW11827   3.581   5.956   4.819
 3643SOL    HW111828   3.534   6.023   4.877
 3643SOL    HW211829   3.680   5.967   4.829
 3644SOL     OW11830   6.555   0.019   1.580
 3644SOL    HW111831   6.629   0.050   1.520
 3644SOL    HW211832   6.467   0.036   1.536
 3645SOL     OW11833   4.640   5.774   3.054
 3645SOL    HW111834   4.616   5.857   3.004
 3645SOL    HW211835   4.589   5.696   3.018
 3646SOL     OW11836   0.249   5.094   4.912
 3646SOL    HW111837   0.327   5.101   4.975
 3646SOL    HW211838   0.187   5.022   4.943
 3647SOL     OW11839   2.749   2.806   1.141
 3647SOL    HW111840   2.822   2.867   1.173
 3647SOL    HW211841   2.689   2.857   1.079
 3648SOL     OW11842   3.024   6.947   3.130
 3648SOL    HW111843   3.100   6.975   3.187
 3648SOL    HW211844   2.941   6.938   3.186
 3649SOL     OW11845   3.086   2.987   1.920
 3649SOL    HW111846   2.988   2.995   1.905
 3649SOL    HW211847   3.112   3.043   1.999
 3650SOL     OW11848   5.613   6.878   1.233
 3650SOL    HW111849   5.540   6.913   1.175
 3650SOL    HW211850   5.702   6.901   1.192
 3651SOL     OW11851   1.657   6.340   2.453
 3651SOL    HW111852   1.600   6.297   2.523
 3651SOL    HW211853   1.618   6.428   2.427
 3652SOL     OW11854   4.788   5.349   2.917
 3652SOL    HW111855   4.838   5.266   2.941
 3652SOL    HW211856   4.837   5.428   2.953
 3653SOL     OW11857   6.770   2.581   4.765
 3653SOL    HW111858   6.713   2.615   4.840
 3653SOL    HW211859   6.711   2.555   4.688
 3654SOL     OW11860   1.850   0.131   1.714
 3654SOL    HW111861   1.803   0.171   1.793
 3654SOL    HW211862   1.943   0.167   1.709
 3655SOL     OW11863   6.334   1.481   3.383
 3655SOL    HW111864   6.324   1.392   3.338
 3655SOL    HW211865   6.423   1.521   3.360
 3656SOL     OW11866   2.345   1.795   2.950
 3656SOL    HW111867   2.272   1.825   3.012
 3656SOL    HW211868   2.341   1.696   2.939
 3657SOL     OW11869   4.495   5.251   2.263
 3657SOL    HW111870   4.399   5.279   2.267
 3657SOL    HW211871   4.502   5.152   2.275
 3658SOL     OW11872   2.196   5.349   5.786
 3658SOL    HW111873   2.243   5.354   5.698
 3658SOL    HW211874   2.173   5.253   5.806
 3659SOL     OW11875   1.232   3.708   0.245
 3659SOL    HW111876   1.246   3.632   0.181
 3659SOL    HW211877   1.156   3.686   0.307
 3660SOL     OW11878   4.032   4.676   1.066
 3660SOL    HW111879   3.938   4.680   1.033
 3660SOL    HW211880   4.095   4.705   0.994
 3661SOL     OW11881   5.687   1.802   1.318
 3661SOL    HW111882   5.622   1.735   1.351
 3661SOL    HW211883   5.640   1.889   1.302
 3662SOL     OW11884   1.537   6.103   4.592
 3662SOL    HW111885   1.539   6.139   4.498
 3662SOL    HW211886   1.515   6.177   4.655
 3663SOL     OW11887   1.493   3.357   5.589
 3663SOL    HW111888   1.498   3.425   5.662
 3663SOL    HW211889   1.533   3.394   5.506
 3664SOL     OW11890   3.811   6.722   2.441
 3664SOL    HW111891   3.820   6.721   2.341
 3664SOL    HW211892   3.736   6.662   2.468
 3665SOL     OW11893   1.947   1.257   5.543
 3665SOL    HW111894   1.871   1.269   5.480
 3665SOL    HW211895   1.990   1.346   5.560
 3666SOL     OW11896   1.115   4.566   3.806
 3666SOL    HW111897   1.139   4.660   3.781
 3666SOL    HW211898   1.017   4.552   3.794
 3667SOL     OW11899   0.740   1.639   6.687
 3667SOL    HW111900   0.839   1.644   6.681
 3667SOL    HW211901   0.700   1.700   6.618
 3668SOL     OW11902   2.157   6.822   1.873
 3668SOL    HW111903   2.061   6.806   1.897
 3668SOL    HW211904   2.175   6.787   1.782
 3669SOL     OW11905   5.441   1.616   4.072
 3669SOL    HW111906   5.418   1.585   3.980
 3669SOL    HW211907   5.385   1.696   4.095
 3670SOL     OW11908   2.516   5.551   6.350
 3670SOL    HW111909   2.540   5.628   6.410
 3670SOL    HW211910   2.475   5.478   6.404
 3671SOL     OW11911   2.190   0.772   3.435
 3671SOL    HW111912   2.104   0.764   3.485
 3671SOL    HW211913   2.261   0.808   3.496
 3672SOL     OW11914   6.463   0.144   0.711
 3672SOL    HW111915   6.450   0.230   0.662
 3672SOL    HW211916   6.479   0.070   0.646
 3673SOL     OW11917   4.410   0.123   6.590
 3673SOL    HW111918   4.380   0.203   6.539
 3673SOL    HW211919   4.332   0.065   6.613
 3674SOL     OW11920   1.044   6.150   0.518
 3674SOL    HW111921   0.984   6.104   0.583
 3674SOL    HW211922   1.028   6.248   0.522
 3675SOL     OW11923   2.161   2.333   4.382
 3675SOL    HW111924   2.150   2.235   4.368
 3675SOL    HW211925   2.090   2.367   4.444
 3676SOL     OW11926   1.404   4.828   2.742
 3676SOL    HW111927   1.433   4.829   2.838
 3676SOL    HW211928   1.447   4.750   2.696
 3677SOL     OW11929   6.298   0.444   3.666
 3677SOL    HW111930   6.214   0.400   3.697
 3677SOL    HW211931   6.283   0.542   3.658
 3678SOL     OW11932   1.173   1.948   4.004
 3678SOL    HW111933   1.234   1.938   3.926
 3678SOL    HW211934   1.188   1.873   4.068
 3679SOL     OW11935   7.026   0.452   1.530
 3679SOL    HW111936   6.995   0.444   1.436
 3679SOL    HW211937   7.008   0.544   1.564
 3680SOL     OW11938   5.910   4.439   4.623
 3680SOL    HW111939   5.888   4.468   4.716
 3680SOL    HW211940   5.833   4.387   4.585
 3681SOL     OW11941   5.265   6.140   4.425
 3681SOL    HW111942   5.244   6.208   4.355
 3681SOL    HW211943   5.354   6.099   4.407
 3682SOL     OW11944   0.826   2.514   6.885
 3682SOL    HW111945   0.754   2.574   6.851
 3682SOL    HW211946   0.883   2.484   6.808
 3683SOL     OW11947   5.382   6.404   3.373
 3683SOL    HW111948   5.425   6.401   3.464
 3683SOL    HW211949   5.446   6.442   3.307
 3684SOL     OW11950   1.795   3.435   1.054
 3684SOL    HW111951   1.800   3.392   0.963
 3684SOL    HW211952   1.812   3.366   1.124
 3685SOL     OW11953   5.603   6.919   6.419
 3685SOL    HW111954   5.512   6.890   6.450
 3685SOL    HW211955   5.593   6.993   6.353
 3686SOL     OW11956   6.980   4.218   1.095
 3686SOL    HW111957   7.004   4.302   1.047
 3686SOL    HW211958   6.991   4.140   1.035
 3687SOL     OW11959   3.827   1.414   0.203
 3687SOL    HW111960   3.892   1.356   0.252
 3687SOL    HW211961   3.876   1.468   0.134
 3688SOL     OW11962   6.761   3.309   0.258
 3688SOL    HW111963   6.779   3.267   0.169
 3688SOL    HW211964   6.692   3.256   0.307
 3689SOL     OW11965   2.054   6.759   3.610
 3689SOL    HW111966   2.072   6.788   3.516
 3689SOL    HW211967   1.993   6.825   3.654
 3690SOL     OW11968   4.530   5.721   5.123
 3690SOL    HW111969   4.563   5.816   5.118
 3690SOL    HW211970   4.476   5.701   5.042
 3691SOL     OW11971   3.019   2.879   6.244
 3691SOL    HW111972   3.068   2.876   6.156
 3691SOL    HW211973   3.084   2.904   6.317
 3692SOL     OW11974   0.123   6.844   6.001
 3692SOL    HW111975   0.143   6.792   6.084
 3692SOL    HW211976   0.067   6.924   6.024
 3693SOL     OW11977   1.733   1.522   3.603
 3693SOL    HW111978   1.816   1.550   3.553
 3693SOL    HW211979   1.746   1.430   3.640
 3694SOL     OW11980   2.124   5.612   3.124
 3694SOL    HW111981   2.092   5.690   3.070
 3694SOL    HW211982   2.058   5.592   3.196
 3695SOL     OW11983   1.635   2.086   1.173
 3695SOL    HW111984   1.725   2.125   1.158
 3695SOL    HW211985   1.634   1.991   1.140
 3696SOL     OW11986   3.097   6.394   5.518
 3696SOL    HW111987   2.999   6.402   5.502
 3696SOL    HW211988   3.114   6.328   5.591
 3697SOL     OW11989   5.239   0.537   4.018
 3697SOL    HW111990   5.176   0.482   3.963
 3697SOL    HW211991   5.294   0.477   4.076
 3698SOL     OW11992   3.910   0.169   6.649
 3698SOL    HW111993   3.816   0.181   6.617
 3698SOL    HW211994   3.927   0.230   6.727
 3699SOL     OW11995   0.848   4.957   1.670
 3699SOL    HW111996   0.813   5.048   1.646
 3699SOL    HW211997   0.838   4.942   1.768
 3700SOL     OW11998   7.010   0.570   3.751
 3700SOL    HW111999   0.044   0.647   3.747
 3700SOL    HW212000   6.937   0.583   3.684
 3701SOL     OW12001   5.342   0.726   3.849
 3701SOL    HW112002   5.371   0.676   3.767
 3701SOL    HW212003   5.302   0.661   3.915
 3702SOL     OW12004   5.281   0.841   6.192
 3702SOL    HW112005   5.305   0.803   6.281
 3702SOL    HW212006   5.294   0.772   6.121
 3703SOL     OW12007   3.256   4.711   0.755
 3703SOL    HW112008   3.159   4.704   0.731
 3703SOL    HW212009   3.311   4.704   0.672
 3704SOL     OW12010   2.857   6.638   1.751
 3704SOL    HW112011   2.939   6.659   1.806
 3704SOL    HW212012   2.884   6.625   1.655
 3705SOL     OW12013   6.549   1.458   4.119
 3705SOL    HW112014   6.525   1.365   4.144
 3705SOL    HW212015   6.645   1.462   4.092
 3706SOL     OW12016   3.132   2.025   3.451
 3706SOL    HW112017   3.138   1.934   3.412
 3706SOL    HW212018   3.065   2.079   3.399
 3707SOL     OW12019   4.218   2.374   5.482
 3707SOL    HW112020   4.197   2.428   5.564
 3707SOL    HW212021   4.204   2.276   5.502
 3708SOL     OW12022   6.722   0.300   6.761
 3708SOL    HW112023   6.778   0.316   6.842
 3708SOL    HW212024   6.648   0.366   6.758
 3709SOL     OW12025   6.172   0.273   0.229
 3709SOL    HW112026   6.176   0.194   0.168
 3709SOL    HW212027   6.257   0.280   0.280
 3710SOL     OW12028   0.173   4.436   0.190
 3710SOL    HW112029   0.081   4.458   0.223
 3710SOL    HW212030   0.175   4.341   0.158
 3711SOL     OW12031   6.971   5.318   2.555
 3711SOL    HW112032   6.891   5.267   2.523
 3711SOL    HW212033   6.987   5.296   2.652
 3712SOL     OW12034   1.389   0.438   6.779
 3712SOL    HW112035   1.463   0.395   6.832
 3712SOL    HW212036   1.413   0.533   6.758
 3713SOL     OW12037   4.117   4.953   5.769
 3713SOL    HW112038   4.165   4.866   5.784
 3713SOL    HW212039   4.170   5.028   5.809
 3714SOL     OW12040   4.393   1.394   5.059
 3714SOL    HW112041   4.345   1.396   5.147
 3714SOL    HW212042   4.431   1.302   5.045
 3715SOL     OW12043   5.292   4.113   4.137
 3715SOL    HW112044   5.266   4.209   4.140
 3715SOL    HW212045   5.214   4.058   4.108
 3716SOL     OW12046   0.431   1.535   4.229
 3716SOL    HW112047   0.406   1.557   4.135
 3716SOL    HW212048   0.417   1.437   4.246
 3717SOL     OW12049   5.869   0.644   0.090
 3717SOL    HW112050   5.931   0.646   0.011
 3717SOL    HW212051   5.775   0.658   0.058
 3718SOL     OW12052   0.771   5.435   6.926
 3718SOL    HW112053   0.683   5.407   6.965
 3718SOL    HW212054   0.762   5.524   6.881
 3719SOL     OW12055   3.363   4.779   0.247
 3719SOL    HW112056   3.351   4.731   0.161
 3719SOL    HW212057   3.361   4.877   0.232
 3720SOL     OW12058   0.158   1.224   5.814
 3720SOL    HW112059   0.110   1.262   5.893
 3720SOL    HW212060   0.208   1.142   5.842
 3721SOL     OW12061   4.940   3.476   0.222
 3721SOL    HW112062   5.000   3.405   0.258
 3721SOL    HW212063   4.869   3.497   0.290
 3722SOL     OW12064   5.803   5.864   1.285
 3722SOL    HW112065   5.727   5.858   1.220
 3722SOL    HW212066   5.875   5.922   1.247
 3723SOL     OW12067   4.934   1.050   0.242
 3723SOL    HW112068   4.839   1.075   0.261
 3723SOL    HW212069   4.949   0.955   0.268
 3724SOL     OW12070   0.365   4.627   5.653
 3724SOL    HW112071   0.298   4.700   5.659
 3724SOL    HW212072   0.423   4.627   5.734
 3725SOL     OW12073   5.824   6.265   0.711
 3725SOL    HW112074   5.726   6.246   0.712
 3725SOL    HW212075   5.851   6.297   0.620
 3726SOL     OW12076   6.397   2.860   1.465
 3726SOL    HW112077   6.465   2.889   1.533
 3726SOL    HW212078   6.369   2.766   1.483
 3727SOL     OW12079   2.606   2.800   5.343
 3727SOL    HW112080   2.595   2.883   5.289
 3727SOL    HW212081   2.637   2.824   5.435
 3728SOL     OW12082   0.403   3.450   6.988
 3728SOL    HW112083   0.334   3.506   0.005
 3728SOL    HW212084   0.447   3.505   6.917
 3729SOL     OW12085   0.525   3.097   3.880
 3729SOL    HW112086   0.620   3.096   3.849
 3729SOL    HW212087   0.489   3.003   3.882
 3730SOL     OW12088   2.207   0.557   0.809
 3730SOL    HW112089   2.233   0.569   0.713
 3730SOL    HW212090   2.266   0.488   0.850
 3731SOL     OW12091   3.140   5.464   6.498
 3731SOL    HW112092   3.053   5.510   6.481
 3731SOL    HW212093   3.125   5.385   6.558
 3732SOL     OW12094   2.138   3.534   4.457
 3732SOL    HW112095   2.158   3.554   4.361
 3732SOL    HW212096   2.155   3.616   4.512
 3733SOL     OW12097   3.199   3.403   1.008
 3733SOL    HW112098   3.188   3.354   1.095
 3733SOL    HW212099   3.200   3.337   0.933
 3734SOL     OW12100   4.869   7.009   3.915
 3734SOL    HW112101   4.896   6.979   4.007
 3734SOL    HW212102   4.837   6.930   3.863
 3735SOL     OW12103   3.505   2.027   1.955
 3735SOL    HW112104   3.422   2.060   2.000
 3735SOL    HW212105   3.579   2.093   1.969
 3736SOL     OW12106   4.958   0.666   5.728
 3736SOL    HW112107   4.960   0.567   5.742
 3736SOL    HW212108   4.902   0.708   5.800
 3737SOL     OW12109   3.851   6.745   4.206
 3737SOL    HW112110   3.907   6.779   4.130
 3737SOL    HW212111   3.893   6.662   4.243
 3738SOL     OW12112   7.026   0.247   4.452
 3738SOL    HW112113   0.030   0.155   4.471
 3738SOL    HW212114   6.928   0.251   4.472
 3739SOL     OW12115   0.823   3.264   1.371
 3739SOL    HW112116   0.876   3.341   1.405
 3739SOL    HW212117   0.816   3.270   1.271
 3740SOL     OW12118   5.642   0.420   6.908
 3740SOL    HW112119   5.739   0.440   6.920
 3740SOL    HW212120   5.627   0.321   6.910
 3741SOL     OW12121   3.205   2.309   6.791
 3741SOL    HW112122   3.163   2.301   6.881
 3741SOL    HW212123   3.248   2.222   6.767
 3742SOL     OW12124   3.579   3.202   5.481
 3742SOL    HW112125   3.509   3.211   5.551
 3742SOL    HW212126   3.669   3.195   5.524
 3743SOL     OW12127   0.958   5.645   6.284
 3743SOL    HW112128   1.039   5.636   6.227
 3743SOL    HW212129   0.982   5.692   6.369
 3744SOL     OW12130   6.597   5.705   2.998
 3744SOL    HW112131   6.655   5.677   3.074
 3744SOL    HW212132   6.655   5.744   2.926
 3745SOL     OW12133   5.223   5.205   1.997
 3745SOL    HW112134   5.252   5.204   2.093
 3745SOL    HW212135   5.143   5.265   1.988
 3746SOL     OW12136   4.438   1.260   1.828
 3746SOL    HW112137   4.424   1.161   1.835
 3746SOL    HW212138   4.527   1.278   1.788
 3747SOL     OW12139   2.796   0.550   0.682
 3747SOL    HW112140   2.796   0.643   0.646
 3747SOL    HW212141   2.888   0.527   0.715
 3748SOL     OW12142   5.222   0.317   1.448
 3748SOL    HW112143   5.254   0.226   1.473
 3748SOL    HW212144   5.245   0.335   1.353
 3749SOL     OW12145   1.509   0.969   4.363
 3749SOL    HW112146   1.413   0.944   4.368
 3749SOL    HW212147   1.531   1.000   4.270
 3750SOL     OW12148   7.022   4.078   6.316
 3750SOL    HW112149   0.089   4.104   6.310
 3750SOL    HW212150   6.984   4.075   6.223
 3751SOL     OW12151   1.683   4.983   1.298
 3751SOL    HW112152   1.618   4.907   1.291
 3751SOL    HW212153   1.731   4.994   1.211
 3752SOL     OW12154   4.929   5.797   0.008
 3752SOL    HW112155   4.832   5.773   0.006
 3752SOL    HW212156   4.956   5.837   6.951
 3753SOL     OW12157   0.173   0.203   3.224
 3753SOL    HW112158   0.152   0.106   3.237
 3753SOL    HW212159   0.250   0.212   3.162
 3754SOL     OW12160   3.146   1.082   1.664
 3754SOL    HW112161   3.055   1.120   1.678
 3754SOL    HW212162   3.206   1.151   1.624
 3755SOL     OW12163   2.391   5.870   4.210
 3755SOL    HW112164   2.381   5.968   4.226
 3755SOL    HW212165   2.446   5.855   4.128
 3756SOL     OW12166   1.262   0.043   0.703
 3756SOL    HW112167   1.264   0.132   0.749
 3756SOL    HW212168   1.206   7.010   0.757
 3757SOL     OW12169   0.247   4.254   0.509
 3757SOL    HW112170   0.280   4.303   0.590
 3757SOL    HW212171   0.324   4.238   0.447
 3758SOL     OW12172   1.570   6.952   3.983
 3758SOL    HW112173   1.568   6.992   3.892
 3758SOL    HW212174   1.477   6.949   4.020
 3759SOL     OW12175   5.078   0.411   3.843
 3759SOL    HW112176   5.069   0.311   3.851
 3759SOL    HW212177   5.035   0.441   3.758
 3760SOL     OW12178   1.128   1.044   3.252
 3760SOL    HW112179   1.220   1.014   3.276
 3760SOL    HW212180   1.128   1.143   3.237
 3761SOL     OW12181   4.744   1.551   5.476
 3761SOL    HW112182   4.738   1.649   5.496
 3761SOL    HW212183   4.712   1.534   5.383
 3762SOL     OW12184   0.492   2.460   4.293
 3762SOL    HW112185   0.446   2.475   4.205
 3762SOL    HW212186   0.587   2.435   4.277
 3763SOL     OW12187   0.660   5.596   6.725
 3763SOL    HW112188   0.561   5.593   6.717
 3763SOL    HW212189   0.701   5.574   6.636
 3764SOL     OW12190   2.998   1.193   2.798
 3764SOL    HW112191   3.076   1.251   2.776
 3764SOL    HW212192   3.028   1.116   2.854
 3765SOL     OW12193   5.203   2.703   2.768
 3765SOL    HW112194   5.256   2.776   2.811
 3765SOL    HW212195   5.204   2.622   2.827
 3766SOL     OW12196   1.279   2.749   2.203
 3766SOL    HW112197   1.275   2.684   2.279
 3766SOL    HW212198   1.266   2.701   2.116
 3767SOL     OW12199   2.026   6.206   5.905
 3767SOL    HW112200   2.036   6.187   5.807
 3767SOL    HW212201   1.930   6.221   5.927
 3768SOL     OW12202   1.708   6.818   2.558
 3768SOL    HW112203   1.789   6.864   2.597
 3768SOL    HW212204   1.661   6.768   2.631
 3769SOL     OW12205   5.028   5.296   4.937
 3769SOL    HW112206   5.036   5.339   4.848
 3769SOL    HW212207   5.118   5.270   4.971
 3770SOL     OW12208   3.366   0.107   1.399
 3770SOL    HW112209   3.286   0.159   1.428
 3770SOL    HW212210   3.423   0.086   1.479
 3771SOL     OW12211   6.808   5.837   5.465
 3771SOL    HW112212   6.744   5.810   5.538
 3771SOL    HW212213   6.856   5.756   5.432
 3772SOL     OW12214   2.028   6.283   1.958
 3772SOL    HW112215   2.111   6.284   2.014
 3772SOL    HW212216   2.007   6.189   1.931
 3773SOL     OW12217   4.519   4.843   7.030
 3773SOL    HW112218   4.523   4.765   0.061
 3773SOL    HW212219   4.514   4.812   6.935
 3774SOL     OW12220   6.847   4.589   1.757
 3774SOL    HW112221   6.812   4.620   1.669
 3774SOL    HW212222   6.871   4.492   1.752
 3775SOL     OW12223   5.426   5.595   4.702
 3775SOL    HW112224   5.497   5.660   4.673
 3775SOL    HW212225   5.465   5.527   4.763
 3776SOL     OW12226   4.197   2.934   6.252
 3776SOL    HW112227   4.257   2.940   6.172
 3776SOL    HW212228   4.240   2.876   6.321
 3777SOL     OW12229   2.834   5.099   3.958
 3777SOL    HW112230   2.748   5.100   4.010
 3777SOL    HW212231   2.849   5.007   3.920
 3778SOL     OW12232   3.135   4.945   6.748
 3778SOL    HW112233   3.127   4.927   6.650
 3778SOL    HW212234   3.198   4.879   6.789
 3779SOL     OW12235   6.903   4.674   6.598
 3779SOL    HW112236   6.872   4.756   6.646
 3779SOL    HW212237   6.868   4.675   6.505
 3780SOL     OW12238   6.099   2.918   2.204
 3780SOL    HW112239   6.018   2.963   2.243
 3780SOL    HW212240   6.074   2.875   2.118
 3781SOL     OW12241   1.646   6.739   5.752
 3781SOL    HW112242   1.640   6.778   5.660
 3781SOL    HW212243   1.594   6.653   5.755
 3782SOL     OW12244   3.816   5.293   0.151
 3782SOL    HW112245   3.801   5.221   0.219
 3782SOL    HW212246   3.899   5.344   0.173
 3783SOL     OW12247   4.584   4.812   5.216
 3783SOL    HW112248   4.504   4.870   5.203
 3783SOL    HW212249   4.649   4.829   5.142
 3784SOL     OW12250   5.823   3.251   5.338
 3784SOL    HW112251   5.776   3.186   5.398
 3784SOL    HW212252   5.898   3.205   5.292
 3785SOL     OW12253   1.416   2.634   2.736
 3785SOL    HW112254   1.440   2.593   2.824
 3785SOL    HW212255   1.320   2.614   2.716
 3786SOL     OW12256   1.926   2.922   5.156
 3786SOL    HW112257   1.918   2.886   5.063
 3786SOL    HW212258   2.020   2.913   5.188
 3787SOL     OW12259   4.884   5.889   4.198
 3787SOL    HW112260   4.928   5.804   4.170
 3787SOL    HW212261   4.849   5.880   4.291
 3788SOL     OW12262   5.688   3.260   5.588
 3788SOL    HW112263   5.599   3.229   5.555
 3788SOL    HW212264   5.699   3.357   5.567
 3789SOL     OW12265   2.041   3.206   1.411
 3789SOL    HW112266   1.952   3.232   1.449
 3789SOL    HW212267   2.029   3.133   1.344
 3790SOL     OW12268   1.085   6.776   1.432
 3790SOL    HW112269   1.170   6.781   1.379
 3790SOL    HW212270   1.090   6.840   1.508
 3791SOL     OW12271   4.803   0.466   4.692
 3791SOL    HW112272   4.798   0.500   4.598
 3791SOL    HW212273   4.711   0.468   4.733
 3792SOL     OW12274   6.474   6.671   3.801
 3792SOL    HW112275   6.513   6.737   3.866
 3792SOL    HW212276   6.397   6.623   3.844
 3793SOL     OW12277   4.650   4.049   0.440
 3793SOL    HW112278   4.733   4.095   0.410
 3793SOL    HW212279   4.635   4.068   0.538
 3794SOL     OW12280   1.341   5.417   6.565
 3794SOL    HW112281   1.242   5.413   6.579
 3794SOL    HW212282   1.361   5.448   6.472
 3795SOL     OW12283   3.257   6.141   1.010
 3795SOL    HW112284   3.274   6.161   1.106
 3795SOL    HW212285   3.329   6.080   0.975
 3796SOL     OW12286   5.559   0.766   6.861
 3796SOL    HW112287   5.562   0.781   6.762
 3796SOL    HW212288   5.547   0.854   6.907
 3797SOL     OW12289   0.031   3.075   1.266
 3797SOL    HW112290   0.082   2.990   1.285
 3797SOL    HW212291   0.035   3.094   1.168
 3798SOL     OW12292   1.028   5.170   3.570
 3798SOL    HW112293   1.068   5.165   3.661
 3798SOL    HW212294   1.090   5.127   3.504
 3799SOL     OW12295   6.522   1.304   2.995
 3799SOL    HW112296   6.581   1.380   2.967
 3799SOL    HW212297   6.569   1.217   2.979
 3800SOL     OW12298   5.611   2.569   2.737
 3800SOL    HW112299   5.594   2.652   2.684
 3800SOL    HW212300   5.534   2.505   2.725
 3801SOL     OW12301   6.108   1.423   0.799
 3801SOL    HW112302   6.053   1.476   0.864
 3801SOL    HW212303   6.201   1.415   0.833
 3802SOL     OW12304   6.433   3.639   2.428
 3802SOL    HW112305   6.431   3.738   2.422
 3802SOL    HW212306   6.421   3.611   2.524
 3803SOL     OW12307   4.322   4.148   5.518
 3803SOL    HW112308   4.279   4.211   5.582
 3803SOL    HW212309   4.304   4.054   5.547
 3804SOL     OW12310   3.697   6.590   3.411
 3804SOL    HW112311   3.676   6.611   3.506
 3804SOL    HW212312   3.779   6.640   3.382
 3805SOL     OW12313   2.510   2.106   6.915
 3805SOL    HW112314   2.452   2.119   6.835
 3805SOL    HW212315   2.598   2.152   6.900
 3806SOL     OW12316   2.346   4.548   1.548
 3806SOL    HW112317   2.303   4.609   1.615
 3806SOL    HW212318   2.285   4.537   1.470
 3807SOL     OW12319   0.607   4.500   3.500
 3807SOL    HW112320   0.510   4.487   3.478
 3807SOL    HW212321   0.632   4.441   3.576
 3808SOL     OW12322   2.972   0.005   5.836
 3808SOL    HW112323   2.955   0.040   5.744
 3808SOL    HW212324   2.892   6.984   5.868
 3809SOL     OW12325   5.370   1.273   1.919
 3809SOL    HW112326   5.385   1.190   1.866
 3809SOL    HW212327   5.399   1.257   2.014
 3810SOL     OW12328   5.139   2.158   3.069
 3810SOL    HW112329   5.134   2.119   2.977
 3810SOL    HW212330   5.119   2.088   3.136
 3811SOL     OW12331   0.021   5.870   5.600
 3811SOL    HW112332   0.062   5.959   5.583
 3811SOL    HW212333   6.963   5.864   5.552
 3812SOL     OW12334   4.244   5.849   6.966
 3812SOL    HW112335   4.148   5.841   6.939
 3812SOL    HW212336   4.250   5.866   0.034
 3813SOL     OW12337   5.870   3.725   0.245
 3813SOL    HW112338   5.962   3.685   0.247
 3813SOL    HW212339   5.802   3.654   0.262
 3814SOL     OW12340   0.590   0.529   5.280
 3814SOL    HW112341   0.602   0.600   5.351
 3814SOL    HW212342   0.541   0.568   5.202
 3815SOL     OW12343   5.165   2.595   6.047
 3815SOL    HW112344   5.252   2.583   6.000
 3815SOL    HW212345   5.178   2.578   6.145
 3816SOL     OW12346   6.617   6.297   0.811
 3816SOL    HW112347   6.568   6.279   0.896
 3816SOL    HW212348   6.695   6.235   0.803
 3817SOL     OW12349   3.988   3.628   1.554
 3817SOL    HW112350   4.081   3.660   1.574
 3817SOL    HW212351   3.947   3.592   1.638
 3818SOL     OW12352   4.907   5.762   2.378
 3818SOL    HW112353   4.991   5.808   2.408
 3818SOL    HW212354   4.844   5.830   2.341
 3819SOL     OW12355   6.529   3.539   3.362
 3819SOL    HW112356   6.526   3.459   3.422
 3819SOL    HW212357   6.443   3.548   3.313
 3820SOL     OW12358   3.223   6.812   5.908
 3820SOL    HW112359   3.154   6.759   5.956
 3820SOL    HW212360   3.207   6.807   5.810
 3821SOL     OW12361   1.974   0.176   0.454
 3821SOL    HW112362   1.995   0.085   0.417
 3821SOL    HW212363   1.891   0.211   0.410
 3822SOL     OW12364   5.006   6.847   2.160
 3822SOL    HW112365   4.912   6.851   2.127
 3822SOL    HW212366   5.008   6.871   2.257
 3823SOL     OW12367   5.389   5.910   4.983
 3823SOL    HW112368   5.404   6.004   4.953
 3823SOL    HW212369   5.476   5.870   5.009
 3824SOL     OW12370   2.438   2.699   0.881
 3824SOL    HW112371   2.367   2.668   0.944
 3824SOL    HW212372   2.405   2.690   0.787
 3825SOL     OW12373   0.665   4.911   5.593
 3825SOL    HW112374   0.585   4.852   5.590
 3825SOL    HW212375   0.667   4.968   5.510
 3826SOL     OW12376   5.159   3.787   3.510
 3826SOL    HW112377   5.135   3.882   3.490
 3826SOL    HW212378   5.119   3.727   3.440
 3827SOL     OW12379   0.336   1.783   6.654
 3827SOL    HW112380   0.352   1.872   6.696
 3827SOL    HW212381   0.333   1.713   6.726
 3828SOL     OW12382   3.843   2.983   4.353
 3828SOL    HW112383   3.768   2.941   4.302
 3828SOL    HW212384   3.914   3.012   4.289
 3829SOL     OW12385   0.560   3.219   1.470
 3829SOL    HW112386   0.659   3.209   1.461
 3829SOL    HW212387   0.540   3.293   1.535
 3830SOL     OW12388   5.920   0.149   3.707
 3830SOL    HW112389   5.978   0.217   3.750
 3830SOL    HW212390   5.824   0.178   3.713
 3831SOL     OW12391   4.820   2.492   3.554
 3831SOL    HW112392   4.746   2.558   3.540
 3831SOL    HW212393   4.842   2.488   3.652
 3832SOL     OW12394   6.587   1.167   3.896
 3832SOL    HW112395   6.683   1.193   3.906
 3832SOL    HW212396   6.539   1.236   3.842
 3833SOL     OW12397   1.820   2.827   5.434
 3833SOL    HW112398   1.749   2.887   5.470
 3833SOL    HW212399   1.836   2.849   5.337
 3834SOL     OW12400   5.024   4.571   1.107
 3834SOL    HW112401   4.947   4.627   1.079
 3834SOL    HW212402   5.027   4.566   1.207
 3835SOL     OW12403   4.285   5.842   5.461
 3835SOL    HW112404   4.209   5.834   5.526
 3835SOL    HW212405   4.308   5.752   5.426
 3836SOL     OW12406   6.713   6.632   4.690
 3836SOL    HW112407   6.689   6.558   4.628
 3836SOL    HW212408   6.797   6.676   4.657
 3837SOL     OW12409   4.543   4.616   6.045
 3837SOL    HW112410   4.612   4.607   5.972
 3837SOL    HW212411   4.590   4.627   6.133
 3838SOL     OW12412   6.711   0.415   4.250
 3838SOL    HW112413   6.648   0.489   4.275
 3838SOL    HW212414   6.775   0.448   4.181
 3839SOL     OW12415   5.051   0.389   3.562
 3839SOL    HW112416   4.992   0.309   3.570
 3839SOL    HW212417   5.004   0.461   3.511
 3840SOL     OW12418   3.907   1.513   6.358
 3840SOL    HW112419   3.861   1.495   6.271
 3840SOL    HW212420   3.885   1.442   6.424
 3841SOL     OW12421   5.840   4.095   3.642
 3841SOL    HW112422   5.805   4.117   3.733
 3841SOL    HW212423   5.800   4.008   3.611
 3842SOL     OW12424   1.922   4.472   5.836
 3842SOL    HW112425   1.969   4.430   5.913
 3842SOL    HW212426   1.942   4.421   5.752
 3843SOL     OW12427   5.679   2.539   6.319
 3843SOL    HW112428   5.649   2.631   6.293
 3843SOL    HW212429   5.604   2.491   6.365
 3844SOL     OW12430   6.858   0.264   0.956
 3844SOL    HW112431   6.772   0.221   0.987
 3844SOL    HW212432   6.925   0.260   1.030
 3845SOL     OW12433   2.268   6.042   0.212
 3845SOL    HW112434   2.333   5.982   0.165
 3845SOL    HW212435   2.184   6.047   0.159
 3846SOL     OW12436   0.012   3.027   2.773
 3846SOL    HW112437   0.004   3.121   2.739
 3846SOL    HW212438   0.003   2.963   2.696
 3847SOL     OW12439   0.711   1.911   6.721
 3847SOL    HW112440   0.724   1.895   6.624
 3847SOL    HW212441   0.705   2.009   6.739
 3848SOL     OW12442   6.380   4.521   2.214
 3848SOL    HW112443   6.474   4.508   2.183
 3848SOL    HW212444   6.378   4.527   2.314
 3849SOL     OW12445   0.407   4.265   6.233
 3849SOL    HW112446   0.483   4.200   6.229
 3849SOL    HW212447   0.366   4.274   6.142
 3850SOL     OW12448   3.161   2.443   1.280
 3850SOL    HW112449   3.078   2.415   1.232
 3850SOL    HW212450   3.186   2.374   1.348
 3851SOL     OW12451   0.698   6.161   2.993
 3851SOL    HW112452   0.703   6.063   3.009
 3851SOL    HW212453   0.613   6.197   3.032
 3852SOL     OW12454   1.560   0.723   4.900
 3852SOL    HW112455   1.502   0.697   4.824
 3852SOL    HW212456   1.656   0.714   4.874
 3853SOL     OW12457   2.804   0.619   3.235
 3853SOL    HW112458   2.900   0.598   3.253
 3853SOL    HW212459   2.747   0.581   3.307
 3854SOL     OW12460   0.397   1.997   2.370
 3854SOL    HW112461   0.309   2.043   2.386
 3854SOL    HW212462   0.416   1.996   2.272
 3855SOL     OW12463   3.488   6.620   6.633
 3855SOL    HW112464   3.517   6.612   6.538
 3855SOL    HW212465   3.388   6.615   6.637
 3856SOL     OW12466   7.015   2.412   6.208
 3856SOL    HW112467   0.049   2.338   6.188
 3856SOL    HW212468   6.952   2.382   6.280
 3857SOL     OW12469   2.745   0.603   6.046
 3857SOL    HW112470   2.656   0.566   6.018
 3857SOL    HW212471   2.813   0.585   5.975
 3858SOL     OW12472   4.476   1.073   4.195
 3858SOL    HW112473   4.547   1.144   4.190
 3858SOL    HW212474   4.514   0.986   4.163
 3859SOL     OW12475   6.108   6.722   1.615
 3859SOL    HW112476   6.017   6.696   1.645
 3859SOL    HW212477   6.175   6.702   1.687
 3860SOL     OW12478   1.439   6.913   4.316
 3860SOL    HW112479   1.392   6.958   4.240
 3860SOL    HW212480   1.530   6.884   4.287
 3861SOL     OW12481   2.737   5.512   1.624
 3861SOL    HW112482   2.770   5.539   1.534
 3861SOL    HW212483   2.720   5.413   1.624
 3862SOL     OW12484   1.746   1.161   4.331
 3862SOL    HW112485   1.668   1.152   4.270
 3862SOL    HW212486   1.724   1.120   4.420
 3863SOL     OW12487   3.269   0.618   0.482
 3863SOL    HW112488   3.190   0.678   0.488
 3863SOL    HW212489   3.324   0.643   0.402
 3864SOL     OW12490   1.472   0.147   4.569
 3864SOL    HW112491   1.521   0.061   4.579
 3864SOL    HW212492   1.472   0.196   4.656
 3865SOL     OW12493   5.153   1.340   0.711
 3865SOL    HW112494   5.228   1.274   0.724
 3865SOL    HW212495   5.160   1.381   0.621
 3866SOL     OW12496   3.163   1.578   6.528
 3866SOL    HW112497   3.135   1.585   6.432
 3866SOL    HW212498   3.233   1.508   6.537
 3867SOL     OW12499   0.257   3.129   2.271
 3867SOL    HW112500   0.288   3.074   2.348
 3867SOL    HW212501   0.248   3.071   2.190
 3868SOL     OW12502   4.278   0.797   0.323
 3868SOL    HW112503   4.328   0.877   0.356
 3868SOL    HW212504   4.343   0.725   0.296
 3869SOL     OW12505   4.707   1.247   4.129
 3869SOL    HW112506   4.728   1.191   4.048
 3869SOL    HW212507   4.675   1.337   4.099
 3870SOL     OW12508   0.236   0.662   6.023
 3870SOL    HW112509   0.185   0.735   6.068
 3870SOL    HW212510   0.334   0.672   6.042
 3871SOL     OW12511   2.309   5.749   4.517
 3871SOL    HW112512   2.283   5.835   4.561
 3871SOL    HW212513   2.401   5.724   4.545
 3872SOL     OW12514   2.958   3.336   5.147
 3872SOL    HW112515   2.914   3.348   5.058
 3872SOL    HW212516   3.056   3.357   5.138
 3873SOL     OW12517   4.167   1.923   0.412
 3873SOL    HW112518   4.139   1.987   0.341
 3873SOL    HW212519   4.136   1.956   0.501
 3874SOL     OW12520   2.287   1.270   0.736
 3874SOL    HW112521   2.197   1.277   0.693
 3874SOL    HW212522   2.318   1.175   0.732
 3875SOL     OW12523   0.981   2.168   6.210
 3875SOL    HW112524   1.044   2.246   6.219
 3875SOL    HW212525   0.887   2.199   6.223
 3876SOL     OW12526   3.327   5.336   2.425
 3876SOL    HW112527   3.328   5.284   2.510
 3876SOL    HW212528   3.327   5.434   2.447
 3877SOL     OW12529   0.214   1.833   6.090
 3877SOL    HW112530   0.270   1.895   6.036
 3877SOL    HW212531   0.272   1.784   6.156
 3878SOL     OW12532   5.159   1.113   4.412
 3878SOL    HW112533   5.151   1.093   4.510
 3878SOL    HW212534   5.167   1.028   4.361
 3879SOL     OW12535   5.271   6.045   0.132
 3879SOL    HW112536   5.260   6.084   0.041
 3879SOL    HW212537   5.197   6.077   0.192
 3880SOL     OW12538   4.618   4.644   4.117
 3880SOL    HW112539   4.531   4.618   4.075
 3880SOL    HW212540   4.641   4.579   4.189
 3881SOL     OW12541   1.380   3.203   0.532
 3881SOL    HW112542   1.396   3.140   0.456
 3881SOL    HW212543   1.344   3.152   0.611
 3882SOL     OW12544   0.396   1.889   5.743
 3882SOL    HW112545   0.433   1.874   5.651
 3882SOL    HW212546   0.435   1.821   5.806
 3883SOL     OW12547   4.535   5.841   3.723
 3883SOL    HW112548   4.586   5.756   3.709
 3883SOL    HW212549   4.594   5.910   3.764
 3884SOL     OW12550   0.311   3.758   2.108
 3884SOL    HW112551   0.367   3.840   2.123
 3884SOL    HW212552   0.366   3.688   2.062
 3885SOL     OW12553   4.479   5.606   2.520
 3885SOL    HW112554   4.410   5.647   2.460
 3885SOL    HW212555   4.541   5.550   2.467
 3886SOL     OW12556   2.809   6.360   5.676
 3886SOL    HW112557   2.853   6.415   5.747
 3886SOL    HW212558   2.765   6.281   5.718
 3887SOL     OW12559   1.922   6.019   1.930
 3887SOL    HW112560   1.860   5.968   1.870
 3887SOL    HW212561   1.877   6.032   2.019
 3888SOL     OW12562   5.963   4.878   4.024
 3888SOL    HW112563   5.967   4.815   3.946
 3888SOL    HW212564   5.879   4.933   4.017
 3889SOL     OW12565   5.606   4.286   0.380
 3889SOL    HW112566   5.629   4.258   0.473
 3889SOL    HW212567   5.681   4.261   0.318
 3890SOL     OW12568   5.259   2.933   4.176
 3890SOL    HW112569   5.327   2.981   4.233
 3890SOL    HW212570   5.282   2.945   4.080
 3891SOL     OW12571   5.005   5.710   3.404
 3891SOL    HW112572   5.070   5.669   3.340
 3891SOL    HW212573   5.020   5.672   3.495
 3892SOL     OW12574   6.935   2.105   1.845
 3892SOL    HW112575   6.854   2.101   1.903
 3892SOL    HW212576   6.908   2.115   1.750
 3893SOL     OW12577   4.137   3.454   2.635
 3893SOL    HW112578   4.088   3.527   2.587
 3893SOL    HW212579   4.205   3.414   2.575
 3894SOL     OW12580   4.464   0.425   5.842
 3894SOL    HW112581   4.556   0.444   5.876
 3894SOL    HW212582   4.398   0.481   5.892
 3895SOL     OW12583   0.701   0.436   4.306
 3895SOL    HW112584   0.618   0.397   4.345
 3895SOL    HW212585   0.719   0.394   4.217
 3896SOL     OW12586   1.854   1.455   6.130
 3896SOL    HW112587   1.863   1.356   6.131
 3896SOL    HW212588   1.780   1.482   6.191
 3897SOL     OW12589   4.146   6.092   1.425
 3897SOL    HW112590   4.059   6.064   1.466
 3897SOL    HW212591   4.133   6.107   1.327
 3898SOL     OW12592   3.954   3.309   1.302
 3898SOL    HW112593   3.984   3.214   1.313
 3898SOL    HW212594   3.908   3.320   1.214
 3899SOL     OW12595   3.595   0.533   5.698
 3899SOL    HW112596   3.594   0.624   5.657
 3899SOL    HW212597   3.584   0.464   5.627
 3900SOL     OW12598   4.791   4.085   3.164
 3900SOL    HW112599   4.725   4.161   3.171
 3900SOL    HW212600   4.787   4.030   3.247
 3901SOL     OW12601   2.903   0.821   6.850
 3901SOL    HW112602   2.950   0.862   6.928
 3901SOL    HW212603   2.806   0.811   6.871
 3902SOL     OW12604   5.333   3.046   2.499
 3902SOL    HW112605   5.290   2.957   2.512
 3902SOL    HW212606   5.411   3.036   2.437
 3903SOL     OW12607   2.948   4.416   6.068
 3903SOL    HW112608   2.995   4.504   6.077
 3903SOL    HW212609   2.983   4.368   5.988
 3904SOL     OW12610   1.514   0.684   0.968
 3904SOL    HW112611   1.446   0.743   0.924
 3904SOL    HW212612   1.597   0.682   0.914
 3905SOL     OW12613   6.756   6.235   4.962
 3905SOL    HW112614   6.843   6.282   4.947
 3905SOL    HW212615   6.681   6.291   4.926
 3906SOL     OW12616   6.355   6.664   4.602
 3906SOL    HW112617   6.416   6.699   4.531
 3906SOL    HW212618   6.325   6.740   4.660
 3907SOL     OW12619   6.217   2.361   3.638
 3907SOL    HW112620   6.271   2.403   3.711
 3907SOL    HW212621   6.254   2.390   3.549
 3908SOL     OW12622   2.665   4.046   6.069
 3908SOL    HW112623   2.689   4.124   6.010
 3908SOL    HW212624   2.568   4.027   6.061
 3909SOL     OW12625   5.880   5.703   3.701
 3909SOL    HW112626   5.816   5.675   3.629
 3909SOL    HW212627   5.949   5.632   3.713
 3910SOL     OW12628   3.772   3.342   2.643
 3910SOL    HW112629   3.853   3.286   2.625
 3910SOL    HW212630   3.765   3.413   2.573
 3911SOL     OW12631   6.501   2.511   5.314
 3911SOL    HW112632   6.443   2.484   5.238
 3911SOL    HW212633   6.582   2.454   5.317
 3912SOL     OW12634   5.087   2.860   5.992
 3912SOL    HW112635   5.120   2.775   6.032
 3912SOL    HW212636   5.043   2.916   6.063
 3913SOL     OW12637   0.987   6.559   1.327
 3913SOL    HW112638   0.891   6.577   1.301
 3913SOL    HW212639   1.024   6.639   1.374
 3914SOL     OW12640   3.145   5.858   5.616
 3914SOL    HW112641   3.119   5.946   5.577
 3914SOL    HW212642   3.107   5.850   5.708
 3915SOL     OW12643   6.527   6.197   1.720
 3915SOL    HW112644   6.606   6.159   1.671
 3915SOL    HW212645   6.487   6.125   1.777
 3916SOL     OW12646   0.798   0.186   3.123
 3916SOL    HW112647   0.779   0.283   3.138
 3916SOL    HW212648   0.713   0.138   3.099
 3917SOL     OW12649   2.043   0.375   0.174
 3917SOL    HW112650   2.124   0.326   0.207
 3917SOL    HW212651   1.964   0.313   0.176
 3918SOL     OW12652   5.448   3.150   0.040
 3918SOL    HW112653   5.476   3.134   0.134
 3918SOL    HW212654   5.512   3.104   7.008
 3919SOL     OW12655   3.201   6.811   0.817
 3919SOL    HW112656   3.207   6.906   0.785
 3919SOL    HW212657   3.277   6.793   0.880
 3920SOL     OW12658   2.149   1.990   6.893
 3920SOL    HW112659   2.106   2.059   6.835
 3920SOL    HW212660   2.179   2.033   6.978
 3921SOL     OW12661   1.248   3.753   1.713
 3921SOL    HW112662   1.171   3.711   1.761
 3921SOL    HW212663   1.221   3.841   1.675
 3922SOL     OW12664   1.447   5.142   1.185
 3922SOL    HW112665   1.485   5.235   1.182
 3922SOL    HW212666   1.495   5.089   1.255
 3923SOL     OW12667   6.668   0.613   1.070
 3923SOL    HW112668   6.693   0.710   1.070
 3923SOL    HW212669   6.714   0.566   0.995
 3924SOL     OW12670   6.542   5.268   4.256
 3924SOL    HW112671   6.507   5.179   4.228
 3924SOL    HW212672   6.621   5.256   4.315
 3925SOL     OW12673   1.882   5.178   1.776
 3925SOL    HW112674   1.899   5.237   1.855
 3925SOL    HW212675   1.938   5.210   1.699
 3926SOL     OW12676   3.559   5.275   3.015
 3926SOL    HW112677   3.652   5.264   3.050
 3926SOL    HW212678   3.563   5.319   2.925
 3927SOL     OW12679   0.990   3.498   6.493
 3927SOL    HW112680   1.026   3.591   6.505
 3927SOL    HW212681   1.020   3.462   6.404
 3928SOL     OW12682   6.041   5.405   6.602
 3928SOL    HW112683   6.067   5.487   6.550
 3928SOL    HW212684   6.071   5.324   6.552
 3929SOL     OW12685   0.645   1.471   4.405
 3929SOL    HW112686   0.601   1.452   4.493
 3929SOL    HW212687   0.577   1.508   4.342
 3930SOL     OW12688   2.994   1.924   3.865
 3930SOL    HW112689   3.083   1.925   3.909
 3930SOL    HW212690   3.002   1.961   3.772
 3931SOL     OW12691   5.251   0.247   2.527
 3931SOL    HW112692   5.217   0.339   2.548
 3931SOL    HW212693   5.323   0.223   2.592
 3932SOL     OW12694   1.609   1.587   4.169
 3932SOL    HW112695   1.527   1.588   4.111
 3932SOL    HW212696   1.670   1.661   4.140
 3933SOL     OW12697   1.096   0.185   5.822
 3933SOL    HW112698   1.069   0.234   5.905
 3933SOL    HW212699   1.022   0.192   5.755
 3934SOL     OW12700   5.019   6.355   6.975
 3934SOL    HW112701   5.068   6.393   0.024
 3934SOL    HW212702   4.940   6.302   7.007
 3935SOL     OW12703   4.895   6.854   1.035
 3935SOL    HW112704   4.886   6.761   1.000
 3935SOL    HW212705   4.860   6.918   0.966
 3936SOL     OW12706   0.735   4.644   2.440
 3936SOL    HW112707   0.743   4.618   2.344
 3936SOL    HW212708   0.690   4.570   2.490
 3937SOL     OW12709   0.340   1.529   2.679
 3937SOL    HW112710   0.392   1.444   2.690
 3937SOL    HW212711   0.274   1.519   2.605
 3938SOL     OW12712   0.549   2.403   3.027
 3938SOL    HW112713   0.586   2.372   3.115
 3938SOL    HW212714   0.618   2.459   2.981
 3939SOL     OW12715   2.398   2.302   1.436
 3939SOL    HW112716   2.472   2.335   1.377
 3939SOL    HW212717   2.356   2.222   1.394
 3940SOL     OW12718   4.275   3.690   1.511
 3940SOL    HW112719   4.358   3.640   1.484
 3940SOL    HW212720   4.275   3.780   1.468
 3941SOL     OW12721   4.660   3.136   6.812
 3941SOL    HW112722   4.591   3.207   6.796
 3941SOL    HW212723   4.709   3.156   6.897
 3942SOL     OW12724   6.858   0.672   0.107
 3942SOL    HW112725   6.906   0.726   0.176
 3942SOL    HW212726   6.885   0.703   0.016
 3943SOL     OW12727   0.176   2.895   5.077
 3943SOL    HW112728   0.218   2.962   5.016
 3943SOL    HW212729   0.085   2.927   5.104
 3944SOL     OW12730   5.265   1.502   4.668
 3944SOL    HW112731   5.185   1.485   4.610
 3944SOL    HW212732   5.342   1.530   4.611
 3945SOL     OW12733   0.144   0.999   0.684
 3945SOL    HW112734   0.200   0.948   0.619
 3945SOL    HW212735   0.163   0.966   0.777
 3946SOL     OW12736   4.277   4.662   3.350
 3946SOL    HW112737   4.351   4.679   3.415
 3946SOL    HW212738   4.207   4.733   3.359
 3947SOL     OW12739   6.375   4.664   6.166
 3947SOL    HW112740   6.290   4.616   6.188
 3947SOL    HW212741   6.440   4.653   6.241
 3948SOL     OW12742   6.003   3.547   0.909
 3948SOL    HW112743   6.000   3.491   0.992
 3948SOL    HW212744   6.094   3.542   0.869
 3949SOL     OW12745   5.574   6.559   3.167
 3949SOL    HW112746   5.640   6.633   3.155
 3949SOL    HW212747   5.553   6.518   3.078
 3950SOL     OW12748   2.132   6.312   0.510
 3950SOL    HW112749   2.154   6.306   0.607
 3950SOL    HW212750   2.216   6.303   0.456
 3951SOL     OW12751   5.681   6.721   1.487
 3951SOL    HW112752   5.660   6.730   1.390
 3951SOL    HW212753   5.756   6.783   1.510
 3952SOL     OW12754   5.688   2.210   6.951
 3952SOL    HW112755   5.613   2.178   7.009
 3952SOL    HW212756   5.775   2.176   6.988
 3953SOL     OW12757   3.986   3.803   2.769
 3953SOL    HW112758   4.068   3.810   2.826
 3953SOL    HW212759   3.923   3.737   2.811
 3954SOL     OW12760   4.352   4.965   5.528
 3954SOL    HW112761   4.263   5.012   5.530
 3954SOL    HW212762   4.401   4.983   5.614
 3955SOL     OW12763   4.007   0.963   4.573
 3955SOL    HW112764   3.996   0.957   4.474
 3955SOL    HW212765   4.082   0.903   4.602
 3956SOL     OW12766   2.419   1.091   1.713
 3956SOL    HW112767   2.352   1.064   1.645
 3956SOL    HW212768   2.511   1.073   1.679
 3957SOL     OW12769   3.598   0.765   4.192
 3957SOL    HW112770   3.595   0.730   4.098
 3957SOL    HW212771   3.650   0.850   4.194
 3958SOL     OW12772   5.669   0.175   5.256
 3958SOL    HW112773   5.635   0.186   5.349
 3958SOL    HW212774   5.624   0.096   5.213
 3959SOL     OW12775   4.817   5.178   0.266
 3959SOL    HW112776   4.723   5.145   0.254
 3959SOL    HW212777   4.859   5.190   0.176
 3960SOL     OW12778   5.662   1.567   4.714
 3960SOL    HW112779   5.659   1.643   4.779
 3960SOL    HW212780   5.648   1.481   4.762
 3961SOL     OW12781   5.685   6.325   3.799
 3961SOL    HW112782   5.755   6.266   3.840
 3961SOL    HW212783   5.709   6.344   3.704
 3962SOL     OW12784   6.921   5.602   5.347
 3962SOL    HW112785   6.990   5.620   5.277
 3962SOL    HW212786   6.949   5.524   5.402
 3963SOL     OW12787   4.572   6.734   2.203
 3963SOL    HW112788   4.484   6.688   2.195
 3963SOL    HW212789   4.625   6.720   2.119
 3964SOL     OW12790   5.577   2.833   3.509
 3964SOL    HW112791   5.549   2.863   3.417
 3964SOL    HW212792   5.497   2.832   3.569
 3965SOL     OW12793   4.789   4.047   4.357
 3965SOL    HW112794   4.826   3.972   4.412
 3965SOL    HW212795   4.861   4.114   4.340
 3966SOL     OW12796   2.551   6.639   6.442
 3966SOL    HW112797   2.556   6.587   6.357
 3966SOL    HW212798   2.633   6.620   6.497
 3967SOL     OW12799   2.184   4.439   3.594
 3967SOL    HW112800   2.205   4.474   3.503
 3967SOL    HW212801   2.157   4.516   3.653
 3968SOL     OW12802   3.529   0.012   0.596
 3968SOL    HW112803   3.604   6.977   0.579
 3968SOL    HW212804   3.557   0.078   0.666
 3969SOL     OW12805   0.675   5.370   2.978
 3969SOL    HW112806   0.727   5.289   3.003
 3969SOL    HW212807   0.664   5.373   2.878
 3970SOL     OW12808   4.989   6.274   2.119
 3970SOL    HW112809   4.925   6.288   2.043
 3970SOL    HW212810   5.064   6.340   2.112
 3971SOL     OW12811   2.135   6.209   3.499
 3971SOL    HW112812   2.178   6.121   3.481
 3971SOL    HW212813   2.063   6.198   3.568
 3972SOL     OW12814   1.446   3.745   6.798
 3972SOL    HW112815   1.404   3.814   6.739
 3972SOL    HW212816   1.456   3.783   6.891
 3973SOL     OW12817   1.544   5.401   1.129
 3973SOL    HW112818   1.532   5.389   1.031
 3973SOL    HW212819   1.638   5.429   1.148
 3974SOL     OW12820   2.444   1.403   5.281
 3974SOL    HW112821   2.425   1.394   5.183
 3974SOL    HW212822   2.477   1.495   5.300
 3975SOL     OW12823   6.236   2.676   6.279
 3975SOL    HW112824   6.266   2.647   6.370
 3975SOL    HW212825   6.280   2.619   6.210
 3976SOL     OW12826   2.005   4.933   2.268
 3976SOL    HW112827   2.045   4.916   2.178
 3976SOL    HW212828   2.057   4.885   2.338
 3977SOL     OW12829   1.052   3.344   6.724
 3977SOL    HW112830   1.085   3.387   6.640
 3977SOL    HW212831   0.982   3.277   6.701
 3978SOL     OW12832   6.086   3.844   3.828
 3978SOL    HW112833   6.158   3.796   3.879
 3978SOL    HW212834   6.081   3.808   3.735
 3979SOL     OW12835   4.221   6.794   6.415
 3979SOL    HW112836   4.197   6.846   6.333
 3979SOL    HW212837   4.315   6.762   6.408
 3980SOL     OW12838   5.330   5.646   6.198
 3980SOL    HW112839   5.235   5.669   6.174
 3980SOL    HW212840   5.381   5.627   6.114
 3981SOL     OW12841   4.344   6.180   0.311
 3981SOL    HW112842   4.282   6.206   0.385
 3981SOL    HW212843   4.371   6.261   0.259
 3982SOL     OW12844   3.016   6.143   3.340
 3982SOL    HW112845   3.112   6.128   3.363
 3982SOL    HW212846   2.986   6.229   3.379
 3983SOL     OW12847   3.806   5.857   4.445
 3983SOL    HW112848   3.716   5.865   4.403
 3983SOL    HW212849   3.868   5.923   4.402
 3984SOL     OW12850   6.788   2.408   3.233
 3984SOL    HW112851   6.828   2.414   3.324
 3984SOL    HW212852   6.827   2.479   3.174
 3985SOL     OW12853   4.308   4.837   6.356
 3985SOL    HW112854   4.264   4.856   6.444
 3985SOL    HW212855   4.275   4.749   6.321
 3986SOL     OW12856   5.581   0.663   3.035
 3986SOL    HW112857   5.537   0.687   3.122
 3986SOL    HW212858   5.523   0.692   2.959
 3987SOL     OW12859   3.482   5.318   5.103
 3987SOL    HW112860   3.553   5.260   5.064
 3987SOL    HW212861   3.476   5.403   5.051
 3988SOL     OW12862   3.636   5.891   1.050
 3988SOL    HW112863   3.663   5.985   1.068
 3988SOL    HW212864   3.706   5.829   1.085
 3989SOL     OW12865   5.437   1.752   0.745
 3989SOL    HW112866   5.360   1.706   0.701
 3989SOL    HW212867   5.409   1.784   0.835
 3990SOL     OW12868   6.545   1.847   2.538
 3990SOL    HW112869   6.641   1.865   2.561
 3990SOL    HW212870   6.515   1.912   2.468
 3991SOL     OW12871   6.289   0.562   3.197
 3991SOL    HW112872   6.294   0.612   3.111
 3991SOL    HW212873   6.378   0.519   3.216
 3992SOL     OW12874   3.370   1.944   1.093
 3992SOL    HW112875   3.390   1.900   1.180
 3992SOL    HW212876   3.395   1.883   1.018
 3993SOL     OW12877   0.695   3.022   1.978
 3993SOL    HW112878   0.640   3.080   1.918
 3993SOL    HW212879   0.779   2.995   1.931
 3994SOL     OW12880   2.300   5.997   4.626
 3994SOL    HW112881   2.211   6.033   4.656
 3994SOL    HW212882   2.371   6.025   4.691
 3995SOL     OW12883   1.734   1.885   4.566
 3995SOL    HW112884   1.754   1.975   4.604
 3995SOL    HW212885   1.651   1.889   4.510
 3996SOL     OW12886   6.644   6.411   4.544
 3996SOL    HW112887   6.563   6.424   4.487
 3996SOL    HW212888   6.633   6.328   4.599
 3997SOL     OW12889   4.312   0.850   4.489
 3997SOL    HW112890   4.339   0.786   4.417
 3997SOL    HW212891   4.268   0.799   4.564
 3998SOL     OW12892   4.624   1.822   3.339
 3998SOL    HW112893   4.633   1.776   3.250
 3998SOL    HW212894   4.557   1.773   3.395
 3999SOL     OW12895   4.997   1.998   4.756
 3999SOL    HW112896   4.966   1.904   4.741
 3999SOL    HW212897   5.061   2.024   4.684
 4000SOL     OW12898   4.301   6.519   4.177
 4000SOL    HW112899   4.220   6.490   4.127
 4000SOL    HW212900   4.354   6.583   4.121
 4001SOL     OW12901   1.351   2.275   4.165
 4001SOL    HW112902   1.347   2.366   4.124
 4001SOL    HW212903   1.371   2.207   4.094
 4002SOL     OW12904   2.343   4.203   1.934
 4002SOL    HW112905   2.257   4.224   1.887
 4002SOL    HW212906   2.323   4.177   2.028
 4003SOL     OW12907   3.620   1.950   5.222
 4003SOL    HW112908   3.620   1.972   5.320
 4003SOL    HW212909   3.695   1.998   5.177
 4004SOL     OW12910   6.602   1.883   5.191
 4004SOL    HW112911   6.504   1.905   5.185
 4004SOL    HW212912   6.642   1.885   5.099
 4005SOL     OW12913   5.971   4.537   5.126
 4005SOL    HW112914   5.914   4.577   5.054
 4005SOL    HW212915   5.914   4.485   5.189
 4006SOL     OW12916   3.546   5.398   2.735
 4006SOL    HW112917   3.541   5.498   2.733
 4006SOL    HW212918   3.641   5.369   2.726
 4007SOL     OW12919   6.717   1.735   6.504
 4007SOL    HW112920   6.771   1.775   6.430
 4007SOL    HW212921   6.779   1.697   6.573
 4008SOL     OW12922   2.797   2.138   5.055
 4008SOL    HW112923   2.813   2.222   5.107
 4008SOL    HW212924   2.878   2.080   5.060
 4009SOL     OW12925   3.260   3.381   2.689
 4009SOL    HW112926   3.330   3.361   2.621
 4009SOL    HW212927   3.184   3.316   2.678
 4010SOL     OW12928   1.377   2.892   6.864
 4010SOL    HW112929   1.451   2.884   6.797
 4010SOL    HW212930   1.375   2.984   6.902
 4011SOL     OW12931   0.899   2.795   1.005
 4011SOL    HW112932   0.812   2.783   1.052
 4011SOL    HW212933   0.950   2.709   1.008
 4012SOL     OW12934   5.602   2.889   3.932
 4012SOL    HW112935   5.549   2.959   3.884
 4012SOL    HW212936   5.627   2.816   3.867
 4013SOL     OW12937   4.453   2.371   3.353
 4013SOL    HW112938   4.499   2.409   3.272
 4013SOL    HW212939   4.485   2.419   3.435
 4014SOL     OW12940   5.638   6.032   2.538
 4014SOL    HW112941   5.642   6.132   2.537
 4014SOL    HW212942   5.619   5.998   2.446
 4015SOL     OW12943   4.550   3.454   0.035
 4015SOL    HW112944   4.612   3.490   6.995
 4015SOL    HW212945   4.468   3.416   7.021
 4016SOL     OW12946   3.288   6.080   5.295
 4016SOL    HW112947   3.311   6.144   5.368
 4016SOL    HW212948   3.330   6.111   5.209
 4017SOL     OW12949   6.201   6.470   6.879
 4017SOL    HW112950   6.277   6.407   6.863
 4017SOL    HW212951   6.156   6.445   6.965
 4018SOL     OW12952   1.588   6.544   0.078
 4018SOL    HW112953   1.539   6.482   0.016
 4018SOL    HW212954   1.538   6.550   0.165
 4019SOL     OW12955   4.917   5.254   3.239
 4019SOL    HW112956   4.951   5.181   3.299
 4019SOL    HW212957   4.944   5.236   3.145
 4020SOL     OW12958   5.506   1.704   5.105
 4020SOL    HW112959   5.494   1.758   5.189
 4020SOL    HW212960   5.417   1.681   5.067
 4021SOL     OW12961   4.455   4.196   0.010
 4021SOL    HW112962   4.358   4.184   7.018
 4021SOL    HW212963   4.506   4.213   6.956
 4022SOL     OW12964   5.490   0.057   0.730
 4022SOL    HW112965   5.430   0.136   0.741
 4022SOL    HW212966   5.579   0.078   0.772
 4023SOL     OW12967   6.748   0.112   5.554
 4023SOL    HW112968   6.844   0.115   5.582
 4023SOL    HW212969   6.692   0.151   5.628
 4024SOL     OW12970   4.486   4.572   4.729
 4024SOL    HW112971   4.423   4.623   4.670
 4024SOL    HW212972   4.441   4.554   4.816
 4025SOL     OW12973   1.221   4.059   3.510
 4025SOL    HW112974   1.283   4.109   3.449
 4025SOL    HW212975   1.198   4.117   3.588
 4026SOL     OW12976   4.938   6.795   5.014
 4026SOL    HW112977   4.935   6.757   4.922
 4026SOL    HW212978   4.855   6.848   5.030
 4027SOL     OW12979   3.334   5.036   2.669
 4027SOL    HW112980   3.334   5.132   2.696
 4027SOL    HW212981   3.417   5.015   2.618
 4028SOL     OW12982   2.450   5.855   3.469
 4028SOL    HW112983   2.504   5.898   3.397
 4028SOL    HW212984   2.508   5.793   3.522
 4029SOL     OW12985   2.057   4.031   3.805
 4029SOL    HW112986   2.003   4.018   3.889
 4029SOL    HW212987   2.129   4.098   3.822
 4030SOL     OW12988   1.286   1.520   6.555
 4030SOL    HW112989   1.340   1.436   6.541
 4030SOL    HW212990   1.343   1.589   6.599
 4031SOL     OW12991   6.058   5.810   4.185
 4031SOL    HW112992   6.014   5.877   4.124
 4031SOL    HW212993   6.107   5.859   4.257
 4032SOL     OW12994   3.953   6.917   5.034
 4032SOL    HW112995   4.038   6.955   5.070
 4032SOL    HW212996   3.961   6.818   5.027
 4033SOL     OW12997   3.449   3.940   5.892
 4033SOL    HW112998   3.363   3.938   5.944
 4033SOL    HW212999   3.470   4.034   5.865
 4034SOL     OW13000   5.534   3.148   4.992
 4034SOL    HW113001   5.498   3.235   5.025
 4034SOL    HW213002   5.543   3.150   4.893
 4035SOL     OW13003   0.289   5.607   1.300
 4035SOL    HW113004   0.319   5.647   1.387
 4035SOL    HW213005   0.208   5.655   1.267
 4036SOL     OW13006   0.056   5.938   2.414
 4036SOL    HW113007   6.988   5.928   2.395
 4036SOL    HW213008   0.069   5.974   2.506
 4037SOL     OW13009   0.095   3.891   5.457
 4037SOL    HW113010   0.057   3.833   5.529
 4037SOL    HW213011   0.194   3.899   5.469
 4038SOL     OW13012   6.122   5.226   3.296
 4038SOL    HW113013   6.104   5.232   3.394
 4038SOL    HW213014   6.205   5.277   3.274
 4039SOL     OW13015   2.862   5.579   1.047
 4039SOL    HW113016   2.858   5.589   0.948
 4039SOL    HW213017   2.943   5.628   1.082
 4040SOL     OW13018   3.100   6.638   0.449
 4040SOL    HW113019   3.146   6.624   0.536
 4040SOL    HW213020   3.057   6.553   0.420
 4041SOL     OW13021   0.824   6.410   3.044
 4041SOL    HW113022   0.774   6.470   2.982
 4041SOL    HW213023   0.794   6.316   3.032
 4042SOL     OW13024   5.909   6.017   2.660
 4042SOL    HW113025   5.817   6.018   2.620
 4042SOL    HW213026   5.957   5.934   2.631
 4043SOL     OW13027   6.576   3.688   1.437
 4043SOL    HW113028   6.589   3.756   1.365
 4043SOL    HW213029   6.496   3.631   1.415
 4044SOL     OW13030   5.956   5.221   2.617
 4044SOL    HW113031   5.921   5.155   2.551
 4044SOL    HW213032   6.040   5.186   2.659
 4045SOL     OW13033   2.485   4.709   5.781
 4045SOL    HW113034   2.393   4.682   5.753
 4045SOL    HW213035   2.535   4.744   5.702
 4046SOL     OW13036   6.852   3.254   0.688
 4046SOL    HW113037   6.882   3.229   0.780
 4046SOL    HW213038   6.755   3.280   0.691
 4047SOL     OW13039   2.990   3.880   2.447
 4047SOL    HW113040   3.014   3.893   2.351
 4047SOL    HW213041   3.069   3.900   2.505
 4048SOL     OW13042   4.515   2.598   0.519
 4048SOL    HW113043   4.436   2.589   0.458
 4048SOL    HW213044   4.576   2.669   0.484
 4049SOL     OW13045   6.604   0.952   6.533
 4049SOL    HW113046   6.668   0.978   6.462
 4049SOL    HW213047   6.651   0.950   6.622
 4050SOL     OW13048   3.296   0.748   2.593
 4050SOL    HW113049   3.388   0.768   2.629
 4050SOL    HW213050   3.294   0.655   2.557
 4051SOL     OW13051   1.548   4.247   1.094
 4051SOL    HW113052   1.503   4.187   1.160
 4051SOL    HW213053   1.507   4.236   1.004
 4052SOL     OW13054   1.502   6.788   1.591
 4052SOL    HW113055   1.501   6.817   1.495
 4052SOL    HW213056   1.460   6.698   1.600
 4053SOL     OW13057   2.880   5.176   3.315
 4053SOL    HW113058   2.844   5.112   3.383
 4053SOL    HW213059   2.903   5.126   3.231
 4054SOL     OW13060   5.291   1.713   6.887
 4054SOL    HW113061   5.227   1.723   6.963
 4054SOL    HW213062   5.240   1.705   6.801
 4055SOL     OW13063   4.734   3.056   0.046
 4055SOL    HW113064   4.647   3.056   0.096
 4055SOL    HW213065   4.776   3.147   0.053
 4056SOL     OW13066   4.427   2.932   0.231
 4056SOL    HW113067   4.417   3.031   0.237
 4056SOL    HW213068   4.341   2.892   0.199
 4057SOL     OW13069   6.083   2.604   0.618
 4057SOL    HW113070   6.074   2.561   0.708
 4057SOL    HW213071   6.000   2.655   0.597
 4058SOL     OW13072   0.592   1.735   3.549
 4058SOL    HW113073   0.677   1.713   3.596
 4058SOL    HW213074   0.592   1.831   3.521
 4059SOL     OW13075   6.908   2.056   5.618
 4059SOL    HW113076   6.997   2.020   5.590
 4059SOL    HW213077   6.836   2.009   5.568
 4060SOL     OW13078   3.362   6.032   5.720
 4060SOL    HW113079   3.423   6.025   5.641
 4060SOL    HW213080   3.291   5.962   5.714
 4061SOL     OW13081   2.123   2.896   1.411
 4061SOL    HW113082   2.153   2.802   1.391
 4061SOL    HW213083   2.092   2.939   1.327
 4062SOL     OW13084   3.068   6.461   2.752
 4062SOL    HW113085   3.088   6.448   2.655
 4062SOL    HW213086   2.987   6.408   2.777
 4063SOL     OW13087   2.684   5.486   6.641
 4063SOL    HW113088   2.653   5.546   6.714
 4063SOL    HW213089   2.608   5.429   6.610
 4064SOL     OW13090   6.754   6.981   4.197
 4064SOL    HW113091   6.761   0.040   4.152
 4064SOL    HW213092   6.738   6.995   4.295
 4065SOL     OW13093   0.299   4.576   6.007
 4065SOL    HW113094   0.261   4.591   6.098
 4065SOL    HW213095   0.228   4.589   5.938
 4066SOL     OW13096   4.951   5.228   1.233
 4066SOL    HW113097   4.902   5.149   1.195
 4066SOL    HW213098   4.949   5.223   1.333
 4067SOL     OW13099   5.807   0.769   1.217
 4067SOL    HW113100   5.767   0.854   1.253
 4067SOL    HW213101   5.798   0.697   1.286
 4068SOL     OW13102   5.574   0.860   4.338
 4068SOL    HW113103   5.671   0.842   4.350
 4068SOL    HW213104   5.559   0.957   4.321
 4069SOL     OW13105   6.858   6.196   0.766
 4069SOL    HW113106   6.879   6.102   0.793
 4069SOL    HW213107   6.936   6.235   0.717
 4070SOL     OW13108   6.912   3.833   3.139
 4070SOL    HW113109   6.974   3.769   3.184
 4070SOL    HW213110   6.819   3.819   3.172
 4071SOL     OW13111   2.787   0.270   4.148
 4071SOL    HW113112   2.699   0.223   4.146
 4071SOL    HW213113   2.861   0.202   4.147
 4072SOL     OW13114   0.769   0.157   4.464
 4072SOL    HW113115   0.725   0.240   4.432
 4072SOL    HW213116   0.706   0.080   4.456
 4073SOL     OW13117   2.474   5.106   2.151
 4073SOL    HW113118   2.498   5.055   2.069
 4073SOL    HW213119   2.392   5.066   2.192
 4074SOL     OW13120   0.233   2.988   0.290
 4074SOL    HW113121   0.141   2.998   0.327
 4074SOL    HW213122   0.245   3.050   0.213
 4075SOL     OW13123   5.733   0.338   3.703
 4075SOL    HW113124   5.790   0.396   3.761
 4075SOL    HW213125   5.643   0.327   3.746
 4076SOL     OW13126   1.859   2.653   3.052
 4076SOL    HW113127   1.872   2.751   3.040
 4076SOL    HW213128   1.834   2.634   3.147
 4077SOL     OW13129   4.128   0.566   0.608
 4077SOL    HW113130   4.075   0.528   0.684
 4077SOL    HW213131   4.206   0.507   0.588
 4078SOL     OW13132   4.702   4.594   3.013
 4078SOL    HW113133   4.683   4.687   3.044
 4078SOL    HW213134   4.746   4.542   3.087
 4079SOL     OW13135   5.427   0.398   4.162
 4079SOL    HW113136   5.485   0.323   4.194
 4079SOL    HW213137   5.439   0.478   4.222
 4080SOL     OW13138   2.948   3.338   3.536
 4080SOL    HW113139   2.893   3.355   3.455
 4080SOL    HW213140   2.994   3.250   3.528
 4081SOL     OW13141   2.573   1.615   6.898
 4081SOL    HW113142   2.518   1.696   6.918
 4081SOL    HW213143   2.518   1.533   6.912
 4082SOL     OW13144   0.966   1.718   5.933
 4082SOL    HW113145   0.977   1.657   5.854
 4082SOL    HW213146   1.039   1.701   5.998
 4083SOL     OW13147   6.340   5.349   2.444
 4083SOL    HW113148   6.430   5.356   2.403
 4083SOL    HW213149   6.329   5.260   2.488
 4084SOL     OW13150   4.749   6.841   1.968
 4084SOL    HW113151   4.775   6.746   1.985
 4084SOL    HW213152   4.699   6.847   1.882
 4085SOL     OW13153   2.335   4.253   2.771
 4085SOL    HW113154   2.374   4.161   2.769
 4085SOL    HW213155   2.235   4.246   2.772
 4086SOL     OW13156   5.724   5.207   5.003
 4086SOL    HW113157   5.667   5.256   5.069
 4086SOL    HW213158   5.819   5.207   5.034
 4087SOL     OW13159   2.128   0.808   2.275
 4087SOL    HW113160   2.057   0.781   2.210
 4087SOL    HW213161   2.085   0.835   2.361
 4088SOL     OW13162   0.179   1.453   5.652
 4088SOL    HW113163   0.171   1.420   5.558
 4088SOL    HW213164   0.159   1.378   5.715
 4089SOL     OW13165   1.403   0.822   2.932
 4089SOL    HW113166   1.486   0.828   2.877
 4089SOL    HW213167   1.365   0.914   2.944
 4090SOL     OW13168   3.108   2.482   5.738
 4090SOL    HW113169   3.061   2.570   5.727
 4090SOL    HW213170   3.117   2.438   5.649
 4091SOL     OW13171   3.313   6.051   2.429
 4091SOL    HW113172   3.233   6.019   2.379
 4091SOL    HW213173   3.340   5.982   2.496
 4092SOL     OW13174   5.149   1.809   5.967
 4092SOL    HW113175   5.077   1.833   5.902
 4092SOL    HW213176   5.235   1.853   5.939
 4093SOL     OW13177   5.511   3.679   2.821
 4093SOL    HW113178   5.516   3.777   2.841
 4093SOL    HW213179   5.566   3.659   2.740
 4094SOL     OW13180   6.949   6.828   0.294
 4094SOL    HW113181   6.905   6.773   0.223
 4094SOL    HW213182   6.987   6.768   0.364
 4095SOL     OW13183   1.862   5.405   0.835
 4095SOL    HW113184   1.845   5.498   0.804
 4095SOL    HW213185   1.905   5.406   0.925
 4096SOL     OW13186   0.665   0.182   6.242
 4096SOL    HW113187   0.672   0.097   6.294
 4096SOL    HW213188   0.576   0.187   6.197
 4097SOL     OW13189   1.073   3.927   5.413
 4097SOL    HW113190   1.026   4.015   5.424
 4097SOL    HW213191   1.166   3.943   5.382
 4098SOL     OW13192   1.426   5.988   2.114
 4098SOL    HW113193   1.501   6.035   2.162
 4098SOL    HW213194   1.367   5.943   2.180
 4099SOL     OW13195   6.757   3.360   5.531
 4099SOL    HW113196   6.810   3.311   5.601
 4099SOL    HW213197   6.660   3.356   5.555
 4100SOL     OW13198   2.442   0.489   3.344
 4100SOL    HW113199   2.372   0.536   3.291
 4100SOL    HW213200   2.499   0.435   3.283
 4101SOL     OW13201   6.367   6.097   5.975
 4101SOL    HW113202   6.366   6.197   5.971
 4101SOL    HW213203   6.280   6.064   6.012
 4102SOL     OW13204   1.814   5.978   0.475
 4102SOL    HW113205   1.867   6.057   0.445
 4102SOL    HW213206   1.831   5.901   0.413
 4103SOL     OW13207   2.364   5.242   2.517
 4103SOL    HW113208   2.431   5.316   2.519
 4103SOL    HW213209   2.301   5.256   2.440
 4104SOL     OW13210   1.369   6.040   5.077
 4104SOL    HW113211   1.365   5.943   5.054
 4104SOL    HW213212   1.305   6.060   5.151
 4105SOL     OW13213   3.560   6.530   1.864
 4105SOL    HW113214   3.599   6.474   1.791
 4105SOL    HW213215   3.633   6.562   1.924
 4106SOL     OW13216   1.698   0.364   2.615
 4106SOL    HW113217   1.639   0.289   2.646
 4106SOL    HW213218   1.793   0.334   2.615
 4107SOL     OW13219   1.507   1.606   0.855
 4107SOL    HW113220   1.597   1.562   0.849
 4107SOL    HW213221   1.502   1.679   0.786
 4108SOL     OW13222   6.880   6.533   5.114
 4108SOL    HW113223   6.821   6.583   5.050
 4108SOL    HW213224   6.905   6.444   5.074
 4109SOL     OW13225   4.657   6.497   4.601
 4109SOL    HW113226   4.698   6.418   4.646
 4109SOL    HW213227   4.650   6.573   4.667
 4110SOL     OW13228   3.963   3.392   0.517
 4110SOL    HW113229   3.992   3.442   0.436
 4110SOL    HW213230   4.043   3.353   0.563
 4111SOL     OW13231   5.956   4.683   3.847
 4111SOL    HW113232   5.973   4.694   3.749
 4111SOL    HW213233   6.022   4.619   3.886
 4112SOL     OW13234   3.839   6.123   5.286
 4112SOL    HW113235   3.939   6.112   5.285
 4112SOL    HW213236   3.813   6.196   5.223
 4113SOL     OW13237   4.832   5.320   5.567
 4113SOL    HW113238   4.738   5.348   5.588
 4113SOL    HW213239   4.832   5.226   5.534
 4114SOL     OW13240   6.964   1.047   2.601
 4114SOL    HW113241   6.871   1.058   2.567
 4114SOL    HW213242   6.962   1.004   2.691
 4115SOL     OW13243   3.836   5.980   4.908
 4115SOL    HW113244   3.921   5.981   4.854
 4115SOL    HW213245   3.843   5.911   4.980
 4116SOL     OW13246   6.284   3.253   4.430
 4116SOL    HW113247   6.264   3.155   4.423
 4116SOL    HW213248   6.226   3.303   4.365
 4117SOL     OW13249   0.211   1.308   3.089
 4117SOL    HW113250   0.146   1.246   3.134
 4117SOL    HW213251   0.279   1.255   3.039
 4118SOL     OW13252   1.468   0.387   1.371
 4118SOL    HW113253   1.553   0.340   1.398
 4118SOL    HW213254   1.491   0.465   1.312
 4119SOL     OW13255   0.168   0.926   5.320
 4119SOL    HW113256   0.147   0.886   5.409
 4119SOL    HW213257   0.092   0.909   5.257
 4120SOL     OW13258   1.769   0.806   6.285
 4120SOL    HW113259   1.773   0.775   6.190
 4120SOL    HW213260   1.858   0.842   6.313
 4121SOL     OW13261   6.502   1.022   1.388
 4121SOL    HW113262   6.446   1.078   1.449
 4121SOL    HW213263   6.447   0.994   1.309
 4122SOL     OW13264   0.951   5.117   3.244
 4122SOL    HW113265   0.871   5.057   3.242
 4122SOL    HW213266   0.921   5.210   3.265
 4123SOL     OW13267   5.804   4.351   1.595
 4123SOL    HW113268   5.887   4.341   1.650
 4123SOL    HW213269   5.816   4.304   1.507
 4124SOL     OW13270   6.294   6.830   0.337
 4124SOL    HW113271   6.206   6.838   0.384
 4124SOL    HW213272   6.326   6.921   0.312
 4125SOL     OW13273   6.995   2.810   6.521
 4125SOL    HW113274   0.002   2.763   6.441
 4125SOL    HW213275   6.914   2.762   6.554
 4126SOL     OW13276   1.370   4.132   4.151
 4126SOL    HW113277   1.440   4.152   4.083
 4126SOL    HW213278   1.329   4.217   4.183
 4127SOL     OW13279   5.184   2.332   3.770
 4127SOL    HW113280   5.199   2.234   3.767
 4127SOL    HW213281   5.271   2.380   3.759
 4128SOL     OW13282   6.663   2.273   5.937
 4128SOL    HW113283   6.722   2.353   5.946
 4128SOL    HW213284   6.678   2.212   6.015
 4129SOL     OW13285   3.765   0.677   1.782
 4129SOL    HW113286   3.798   0.702   1.873
 4129SOL    HW213287   3.690   0.738   1.756
 4130SOL     OW13288   5.209   2.511   6.977
 4130SOL    HW113289   5.165   2.588   7.023
 4130SOL    HW213290   5.290   2.543   6.929
 4131SOL     OW13291   4.739   6.009   3.832
 4131SOL    HW113292   4.735   6.078   3.760
 4131SOL    HW213293   4.715   6.051   3.920
 4132SOL     OW13294   6.503   4.105   2.898
 4132SOL    HW113295   6.458   4.043   2.835
 4132SOL    HW213296   6.553   4.053   2.967
 4133SOL     OW13297   5.465   6.319   3.658
 4133SOL    HW113298   5.523   6.342   3.736
 4133SOL    HW213299   5.374   6.295   3.691
 4134SOL     OW13300   1.124   3.808   1.106
 4134SOL    HW113301   1.212   3.853   1.123
 4134SOL    HW213302   1.137   3.732   1.044
 4135SOL     OW13303   5.982   1.139   0.796
 4135SOL    HW113304   5.922   1.135   0.876
 4135SOL    HW213305   6.012   1.234   0.782
 4136SOL     OW13306   0.658   4.630   0.164
 4136SOL    HW113307   0.617   4.699   0.104
 4136SOL    HW213308   0.744   4.599   0.124
 4137SOL     OW13309   0.058   2.683   5.741
 4137SOL    HW113310   0.051   2.770   5.789
 4137SOL    HW213311   6.997   2.641   5.736
 4138SOL     OW13312   5.282   0.112   6.175
 4138SOL    HW113313   5.201   0.168   6.194
 4138SOL    HW213314   5.321   0.139   6.087
 4139SOL     OW13315   1.503   4.647   2.544
 4139SOL    HW113316   1.528   4.605   2.456
 4139SOL    HW213317   1.583   4.694   2.582
 4140SOL     OW13318   2.528   0.535   6.747
 4140SOL    HW113319   2.483   0.483   6.675
 4140SOL    HW213320   2.540   0.630   6.717
 4141SOL     OW13321   4.996   0.387   5.788
 4141SOL    HW113322   4.945   0.304   5.766
 4141SOL    HW213323   5.041   0.377   5.876
 4142SOL     OW13324   6.588   6.374   1.322
 4142SOL    HW113325   6.685   6.378   1.346
 4142SOL    HW213326   6.570   6.288   1.274
 4143SOL     OW13327   6.801   4.123   7.006
 4143SOL    HW113328   6.793   4.166   6.916
 4143SOL    HW213329   6.710   4.110   0.016
 4144SOL     OW13330   4.339   0.361   1.464
 4144SOL    HW113331   4.318   0.265   1.444
 4144SOL    HW213332   4.419   0.366   1.523
 4145SOL     OW13333   5.281   0.726   1.002
 4145SOL    HW113334   5.376   0.694   1.007
 4145SOL    HW213335   5.267   0.799   1.069
 4146SOL     OW13336   4.504   0.305   2.574
 4146SOL    HW113337   4.462   0.382   2.623
 4146SOL    HW213338   4.523   0.332   2.480
 4147SOL     OW13339   4.620   4.415   6.638
 4147SOL    HW113340   4.580   4.506   6.644
 4147SOL    HW213341   4.554   4.346   6.667
 4148SOL     OW13342   2.839   1.428   6.076
 4148SOL    HW113343   2.843   1.520   6.037
 4148SOL    HW213344   2.903   1.368   6.029
 4149SOL     OW13345   1.849   3.296   6.556
 4149SOL    HW113346   1.769   3.277   6.614
 4149SOL    HW213347   1.822   3.298   6.460
 4150SOL     OW13348   6.246   1.717   0.667
 4150SOL    HW113349   6.209   1.771   0.592
 4150SOL    HW213350   6.181   1.645   0.691
 4151SOL     OW13351   2.714   5.965   4.884
 4151SOL    HW113352   2.739   5.879   4.839
 4151SOL    HW213353   2.797   6.019   4.901
 4152SOL     OW13354   3.055   4.091   1.119
 4152SOL    HW113355   3.062   4.142   1.033
 4152SOL    HW213356   2.964   4.106   1.158
 4153SOL     OW13357   6.728   6.063   1.568
 4153SOL    HW113358   6.743   5.965   1.585
 4153SOL    HW213359   6.816   6.109   1.559
 4154SOL     OW13360   0.254   6.556   4.445
 4154SOL    HW113361   0.172   6.538   4.390
 4154SOL    HW213362   0.252   6.650   4.478
 4155SOL     OW13363   5.516   1.068   1.460
 4155SOL    HW113364   5.558   1.121   1.386
 4155SOL    HW213365   5.417   1.082   1.458
 4156SOL     OW13366   0.648   4.435   5.746
 4156SOL    HW113367   0.718   4.377   5.706
 4156SOL    HW213368   0.660   4.529   5.713
 4157SOL     OW13369   5.218   5.952   0.787
 4157SOL    HW113370   5.273   5.872   0.764
 4157SOL    HW213371   5.151   5.928   0.857
 4158SOL     OW13372   0.099   2.406   0.751
 4158SOL    HW113373   0.040   2.392   0.830
 4158SOL    HW213374   0.060   2.362   0.671
 4159SOL     OW13375   3.279   0.835   4.601
 4159SOL    HW113376   3.280   0.799   4.507
 4159SOL    HW213377   3.365   0.812   4.646
 4160SOL     OW13378   1.695   0.135   5.829
 4160SOL    HW113379   1.689   0.229   5.861
 4160SOL    HW213380   1.689   0.072   5.906
 4161SOL     OW13381   3.488   2.865   3.514
 4161SOL    HW113382   3.477   2.909   3.425
 4161SOL    HW213383   3.533   2.777   3.502
 4162SOL     OW13384   5.683   5.818   1.540
 4162SOL    HW113385   5.607   5.770   1.582
 4162SOL    HW213386   5.692   5.790   1.444
 4163SOL     OW13387   3.720   5.506   1.400
 4163SOL    HW113388   3.644   5.567   1.378
 4163SOL    HW213389   3.704   5.466   1.491
 4164SOL     OW13390   5.384   1.988   6.885
 4164SOL    HW113391   5.367   2.009   6.788
 4164SOL    HW213392   5.348   1.897   6.905
 4165SOL     OW13393   3.420   2.143   4.150
 4165SOL    HW113394   3.495   2.207   4.133
 4165SOL    HW213395   3.432   2.101   4.240
 4166SOL     OW13396   6.249   2.159   2.224
 4166SOL    HW113397   6.157   2.181   2.257
 4166SOL    HW213398   6.243   2.115   2.134
 4167SOL     OW13399   3.934   5.471   4.708
 4167SOL    HW113400   3.977   5.559   4.729
 4167SOL    HW213401   3.835   5.479   4.717
 4168SOL     OW13402   5.209   4.111   6.704
 4168SOL    HW113403   5.241   4.080   6.793
 4168SOL    HW213404   5.288   4.132   6.646
 4169SOL     OW13405   5.221   3.441   6.859
 4169SOL    HW113406   5.191   3.366   6.917
 4169SOL    HW213407   5.155   3.516   6.865
 4170SOL     OW13408   1.010   2.986   5.297
 4170SOL    HW113409   1.049   2.956   5.385
 4170SOL    HW213410   1.055   2.937   5.223
 4171SOL     OW13411   0.335   1.193   6.095
 4171SOL    HW113412   0.422   1.238   6.077
 4171SOL    HW213413   0.336   1.101   6.055
 4172SOL     OW13414   2.379   2.476   6.177
 4172SOL    HW113415   2.378   2.486   6.277
 4172SOL    HW213416   2.463   2.430   6.149
 4173SOL     OW13417   5.312   1.518   5.312
 4173SOL    HW113418   5.372   1.501   5.234
 4173SOL    HW213419   5.217   1.502   5.284
 4174SOL     OW13420   3.575   6.801   4.170
 4174SOL    HW113421   3.517   6.747   4.232
 4174SOL    HW213422   3.671   6.778   4.186
 4175SOL     OW13423   1.108   4.884   6.872
 4175SOL    HW113424   1.120   4.791   6.907
 4175SOL    HW213425   1.055   4.882   6.787
 4176SOL     OW13426   4.860   0.004   5.619
 4176SOL    HW113427   4.809   0.089   5.634
 4176SOL    HW213428   4.948   0.026   5.575
 4177SOL     OW13429   4.054   5.441   3.061
 4177SOL    HW113430   4.059   5.373   2.989
 4177SOL    HW213431   4.125   5.510   3.048
 4178SOL     OW13432   3.583   6.028   1.306
 4178SOL    HW113433   3.511   5.958   1.305
 4178SOL    HW213434   3.632   6.026   1.219
 4179SOL     OW13435   4.637   2.283   6.910
 4179SOL    HW113436   4.713   2.236   6.956
 4179SOL    HW213437   4.567   2.306   6.978
 4180SOL     OW13438   3.922   3.994   0.307
 4180SOL    HW113439   3.847   3.943   0.349
 4180SOL    HW213440   3.989   3.929   0.270
 4181SOL     OW13441   5.736   6.220   5.847
 4181SOL    HW113442   5.705   6.191   5.937
 4181SOL    HW213443   5.665   6.274   5.802
 4182SOL     OW13444   0.572   5.920   5.636
 4182SOL    HW113445   0.561   5.967   5.548
 4182SOL    HW213446   0.489   5.931   5.691
 4183SOL     OW13447   4.650   2.097   0.252
 4183SOL    HW113448   4.742   2.127   0.228
 4183SOL    HW213449   4.645   2.083   0.351
 4184SOL     OW13450   3.201   5.352   3.406
 4184SOL    HW113451   3.174   5.434   3.355
 4184SOL    HW213452   3.283   5.372   3.460
 4185SOL     OW13453   4.810   3.999   3.438
 4185SOL    HW113454   4.799   3.954   3.527
 4185SOL    HW213455   4.907   4.011   3.419
 4186SOL     OW13456   2.329   5.288   7.018
 4186SOL    HW113457   2.355   5.212   0.048
 4186SOL    HW213458   2.254   5.259   6.958
 4187SOL     OW13459   2.506   4.422   6.241
 4187SOL    HW113460   2.544   4.443   6.331
 4187SOL    HW213461   2.456   4.335   6.245
 4188SOL     OW13462   5.301   0.477   6.495
 4188SOL    HW113463   5.297   0.570   6.530
 4188SOL    HW213464   5.244   0.417   6.552
 4189SOL     OW13465   4.973   5.168   2.987
 4189SOL    HW113466   4.950   5.070   2.989
 4189SOL    HW213467   5.071   5.179   2.971
 4190SOL     OW13468   6.221   6.731   1.864
 4190SOL    HW113469   6.259   6.643   1.893
 4190SOL    HW213470   6.279   6.805   1.897
 4191SOL     OW13471   4.367   2.643   6.405
 4191SOL    HW113472   4.427   2.567   6.429
 4191SOL    HW213473   4.394   2.724   6.457
 4192SOL     OW13474   1.661   3.965   6.185
 4192SOL    HW113475   1.563   3.969   6.166
 4192SOL    HW213476   1.676   3.938   6.280
 4193SOL     OW13477   6.771   0.833   0.379
 4193SOL    HW113478   6.860   0.878   0.371
 4193SOL    HW213479   6.754   0.810   0.475
 4194SOL     OW13480   5.873   0.572   6.500
 4194SOL    HW113481   5.964   0.610   6.485
 4194SOL    HW213482   5.811   0.604   6.428
 4195SOL     OW13483   2.560   6.293   0.928
 4195SOL    HW113484   2.627   6.221   0.943
 4195SOL    HW213485   2.606   6.375   0.894
 4196SOL     OW13486   0.617   2.757   3.471
 4196SOL    HW113487   0.656   2.665   3.458
 4196SOL    HW213488   0.593   2.796   3.382
 4197SOL     OW13489   3.805   1.008   0.191
 4197SOL    HW113490   3.783   0.960   0.107
 4197SOL    HW213491   3.904   1.011   0.203
 4198SOL     OW13492   6.969   2.267   2.268
 4198SOL    HW113493   6.999   2.363   2.271
 4198SOL    HW213494   6.953   2.240   2.173
 4199SOL     OW13495   0.585   3.589   6.800
 4199SOL    HW113496   0.647   3.517   6.767
 4199SOL    HW213497   0.552   3.642   6.722
 4200SOL     OW13498   5.000   1.804   3.886
 4200SOL    HW113499   5.010   1.897   3.852
 4200SOL    HW213500   5.012   1.804   3.985
 4201SOL     OW13501   5.522   0.099   4.563
 4201SOL    HW113502   5.478   0.189   4.568
 4201SOL    HW213503   5.581   0.096   4.482
 4202SOL     OW13504   4.728   4.085   1.642
 4202SOL    HW113505   4.723   4.088   1.542
 4202SOL    HW213506   4.690   4.170   1.680
 4203SOL     OW13507   6.034   4.332   5.664
 4203SOL    HW113508   5.989   4.242   5.669
 4203SOL    HW213509   6.106   4.329   5.594
 4204SOL     OW13510   1.584   4.353   6.318
 4204SOL    HW113511   1.674   4.323   6.286
 4204SOL    HW213512   1.581   4.453   6.319
 4205SOL     OW13513   4.993   6.180   6.676
 4205SOL    HW113514   5.017   6.273   6.702
 4205SOL    HW213515   4.939   6.138   6.749
 4206SOL     OW13516   2.549   1.952   4.368
 4206SOL    HW113517   2.605   1.992   4.295
 4206SOL    HW213518   2.550   1.853   4.361
 4207SOL     OW13519   1.735   2.267   1.984
 4207SOL    HW113520   1.801   2.203   1.943
 4207SOL    HW213521   1.785   2.342   2.027
 4208SOL     OW13522   2.668   2.461   3.694
 4208SOL    HW113523   2.715   2.388   3.646
 4208SOL    HW213524   2.667   2.442   3.793
 4209SOL     OW13525   6.367   5.739   2.352
 4209SOL    HW113526   6.418   5.824   2.350
 4209SOL    HW213527   6.401   5.678   2.281
 4210SOL     OW13528   2.998   4.302   5.368
 4210SOL    HW113529   2.984   4.376   5.302
 4210SOL    HW213530   2.971   4.334   5.459
 4211SOL     OW13531   3.621   2.865   5.744
 4211SOL    HW113532   3.630   2.963   5.761
 4211SOL    HW213533   3.592   2.851   5.649
 4212SOL     OW13534   1.027   2.279   3.294
 4212SOL    HW113535   0.978   2.195   3.316
 4212SOL    HW213536   1.007   2.349   3.363
 4213SOL     OW13537   3.687   0.267   4.179
 4213SOL    HW113538   3.719   0.182   4.222
 4213SOL    HW213539   3.714   0.345   4.235
 4214SOL     OW13540   6.639   6.169   3.266
 4214SOL    HW113541   6.578   6.238   3.304
 4214SOL    HW213542   6.731   6.206   3.258
 4215SOL     OW13543   5.907   0.172   5.571
 4215SOL    HW113544   5.808   0.161   5.572
 4215SOL    HW213545   5.930   0.266   5.596
 4216SOL     OW13546   2.516   5.442   2.425
 4216SOL    HW113547   2.529   5.434   2.327
 4216SOL    HW213548   2.604   5.465   2.468
 4217SOL     OW13549   1.518   0.370   3.115
 4217SOL    HW113550   1.582   0.437   3.077
 4217SOL    HW213551   1.426   0.389   3.080
 4218SOL     OW13552   3.215   0.793   1.997
 4218SOL    HW113553   3.273   0.805   2.077
 4218SOL    HW213554   3.246   0.854   1.924
 4219SOL     OW13555   3.803   5.127   3.715
 4219SOL    HW113556   3.832   5.037   3.745
 4219SOL    HW213557   3.704   5.131   3.707
 4220SOL     OW13558   6.185   2.219   1.107
 4220SOL    HW113559   6.220   2.226   1.201
 4220SOL    HW213560   6.085   2.223   1.108
 4221SOL     OW13561   0.433   6.340   0.344
 4221SOL    HW113562   0.506   6.272   0.345
 4221SOL    HW213563   0.404   6.358   0.250
 4222SOL     OW13564   4.922   3.306   4.535
 4222SOL    HW113565   5.021   3.302   4.549
 4222SOL    HW213566   4.875   3.281   4.620
 4223SOL     OW13567   3.297   3.999   2.285
 4223SOL    HW113568   3.299   4.034   2.379
 4223SOL    HW213569   3.206   4.013   2.246
 4224SOL     OW13570   4.655   4.643   4.467
 4224SOL    HW113571   4.610   4.724   4.430
 4224SOL    HW213572   4.603   4.608   4.545
 4225SOL     OW13573   1.237   2.144   6.043
 4225SOL    HW113574   1.143   2.141   6.077
 4225SOL    HW213575   1.253   2.231   5.996
 4226SOL     OW13576   6.651   4.672   4.755
 4226SOL    HW113577   6.589   4.747   4.731
 4226SOL    HW213578   6.619   4.587   4.712
 4227SOL     OW13579   4.979   5.210   1.576
 4227SOL    HW113580   4.974   5.158   1.661
 4227SOL    HW213581   4.909   5.281   1.576
 4228SOL     OW13582   1.688   4.596   3.493
 4228SOL    HW113583   1.761   4.605   3.561
 4228SOL    HW213584   1.701   4.664   3.421
 4229SOL     OW13585   5.768   6.289   5.398
 4229SOL    HW113586   5.787   6.326   5.489
 4229SOL    HW213587   5.849   6.242   5.363
 4230SOL     OW13588   0.422   0.986   1.934
 4230SOL    HW113589   0.409   0.981   2.033
 4230SOL    HW213590   0.474   1.068   1.911
 4231SOL     OW13591   0.985   0.410   6.722
 4231SOL    HW113592   1.060   0.352   6.691
 4231SOL    HW213593   0.901   0.385   6.673
 4232SOL     OW13594   1.771   4.797   3.865
 4232SOL    HW113595   1.838   4.849   3.919
 4232SOL    HW213596   1.742   4.717   3.917
 4233SOL     OW13597   4.250   5.317   2.398
 4233SOL    HW113598   4.170   5.259   2.416
 4233SOL    HW213599   4.295   5.339   2.485
 4234SOL     OW13600   3.435   5.731   6.017
 4234SOL    HW113601   3.528   5.749   5.984
 4234SOL    HW213602   3.432   5.744   6.116
 4235SOL     OW13603   6.954   5.838   6.431
 4235SOL    HW113604   0.012   5.791   6.433
 4235SOL    HW213605   6.940   5.887   6.517
 4236SOL     OW13606   0.351   5.286   3.052
 4236SOL    HW113607   0.342   5.372   3.102
 4236SOL    HW213608   0.331   5.302   2.955
 4237SOL     OW13609   6.569   4.576   3.566
 4237SOL    HW113610   6.522   4.589   3.653
 4237SOL    HW213611   6.667   4.587   3.579
 4238SOL     OW13612   2.979   5.705   2.691
 4238SOL    HW113613   2.946   5.769   2.760
 4238SOL    HW213614   2.955   5.739   2.600
 4239SOL     OW13615   4.076   1.173   3.571
 4239SOL    HW113616   4.075   1.075   3.587
 4239SOL    HW213617   4.105   1.192   3.478
 4240SOL     OW13618   5.793   6.660   1.964
 4240SOL    HW113619   5.715   6.602   1.988
 4240SOL    HW213620   5.857   6.608   1.907
 4241SOL     OW13621   6.509   4.500   0.527
 4241SOL    HW113622   6.544   4.584   0.568
 4241SOL    HW213623   6.432   4.521   0.468
 4242SOL     OW13624   3.375   2.142   3.541
 4242SOL    HW113625   3.422   2.152   3.453
 4242SOL    HW213626   3.287   2.096   3.527
 4243SOL     OW13627   3.915   1.866   3.061
 4243SOL    HW113628   3.958   1.887   2.973
 4243SOL    HW213629   3.953   1.781   3.097
 4244SOL     OW13630   3.176   3.043   4.666
 4244SOL    HW113631   3.167   3.027   4.765
 4244SOL    HW213632   3.264   3.007   4.634
 4245SOL     OW13633   6.281   0.265   6.934
 4245SOL    HW113634   6.350   0.325   6.974
 4245SOL    HW213635   6.284   0.271   6.835
 4246SOL     OW13636   0.063   4.508   6.215
 4246SOL    HW113637   0.044   4.458   6.300
 4246SOL    HW213638   0.059   4.446   6.138
 4247SOL     OW13639   0.066   5.969   4.926
 4247SOL    HW113640   0.109   6.007   5.008
 4247SOL    HW213641   0.116   5.888   4.896
 4248SOL     OW13642   2.375   4.143   6.476
 4248SOL    HW113643   2.320   4.170   6.555
 4248SOL    HW213644   2.435   4.067   6.502
 4249SOL     OW13645   5.514   3.832   5.876
 4249SOL    HW113646   5.609   3.852   5.899
 4249SOL    HW213647   5.476   3.768   5.943
 4250SOL     OW13648   0.753   3.973   3.402
 4250SOL    HW113649   0.710   3.893   3.445
 4250SOL    HW213650   0.846   3.948   3.373
 4251SOL     OW13651   5.543   4.960   7.002
 4251SOL    HW113652   5.625   4.923   6.960
 4251SOL    HW213653   5.566   5.005   0.058
 4252SOL     OW13654   6.443   5.357   4.893
 4252SOL    HW113655   6.424   5.415   4.814
 4252SOL    HW213656   6.522   5.394   4.942
 4253SOL     OW13657   3.688   5.612   3.023
 4253SOL    HW113658   3.636   5.667   3.087
 4253SOL    HW213659   3.721   5.670   2.948
 4254SOL     OW13660   2.829   3.624   1.505
 4254SOL    HW113661   2.748   3.625   1.563
 4254SOL    HW213662   2.893   3.694   1.536
 4255SOL     OW13663   0.474   2.137   4.374
 4255SOL    HW113664   0.428   2.117   4.460
 4255SOL    HW213665   0.557   2.081   4.367
 4256SOL     OW13666   2.180   1.065   2.163
 4256SOL    HW113667   2.168   0.978   2.211
 4256SOL    HW213668   2.243   1.052   2.086
 4257SOL     OW13669   4.433   2.281   5.141
 4257SOL    HW113670   4.431   2.259   5.043
 4257SOL    HW213671   4.456   2.199   5.193
 4258SOL     OW13672   4.901   6.181   2.959
 4258SOL    HW113673   4.881   6.095   3.006
 4258SOL    HW213674   4.875   6.174   2.863
 4259SOL     OW13675   1.807   3.192   1.208
 4259SOL    HW113676   1.731   3.137   1.173
 4259SOL    HW213677   1.787   3.218   1.303
 4260SOL     OW13678   3.870   5.575   4.380
 4260SOL    HW113679   3.827   5.653   4.425
 4260SOL    HW213680   3.969   5.579   4.394
 4261SOL     OW13681   0.972   1.839   2.934
 4261SOL    HW113682   0.881   1.873   2.912
 4261SOL    HW213683   0.970   1.790   3.022
 4262SOL     OW13684   0.409   6.503   6.298
 4262SOL    HW113685   0.478   6.481   6.367
 4262SOL    HW213686   0.394   6.423   6.239
 4263SOL     OW13687   4.601   4.931   6.374
 4263SOL    HW113688   4.504   4.909   6.365
 4263SOL    HW213689   4.614   4.988   6.456
 4264SOL     OW13690   0.380   0.329   1.257
 4264SOL    HW113691   0.463   0.379   1.283
 4264SOL    HW213692   0.367   0.252   1.319
 4265SOL     OW13693   1.568   1.890   0.078
 4265SOL    HW113694   1.660   1.915   0.106
 4265SOL    HW213695   1.506   1.896   0.156
 4266SOL     OW13696   3.370   4.654   1.143
 4266SOL    HW113697   3.400   4.643   1.048
 4266SOL    HW213698   3.320   4.572   1.171
 4267SOL     OW13699   1.277   4.331   5.748
 4267SOL    HW113700   1.302   4.409   5.691
 4267SOL    HW213701   1.331   4.332   5.831
 4268SOL     OW13702   2.055   0.919   0.748
 4268SOL    HW113703   2.011   0.970   0.821
 4268SOL    HW213704   1.987   0.860   0.703
 4269SOL     OW13705   2.418   4.215   0.724
 4269SOL    HW113706   2.331   4.213   0.675
 4269SOL    HW213707   2.404   4.250   0.816
 4270SOL     OW13708   3.509   2.890   6.496
 4270SOL    HW113709   3.499   2.891   6.397
 4270SOL    HW213710   3.605   2.906   6.520
 4271SOL     OW13711   1.152   0.553   0.791
 4271SOL    HW113712   1.196   0.643   0.794
 4271SOL    HW213713   1.071   0.554   0.850
 4272SOL     OW13714   0.260   3.799   3.843
 4272SOL    HW113715   0.293   3.713   3.804
 4272SOL    HW213716   0.165   3.813   3.816
 4273SOL     OW13717   5.825   6.853   3.820
 4273SOL    HW113718   5.855   6.900   3.737
 4273SOL    HW213719   5.795   6.760   3.797
 4274SOL     OW13720   2.238   0.458   3.757
 4274SOL    HW113721   2.289   0.415   3.832
 4274SOL    HW213722   2.243   0.557   3.766
 4275SOL     OW13723   0.722   0.021   5.838
 4275SOL    HW113724   0.687   0.113   5.856
 4275SOL    HW213725   0.722   6.998   5.923
 4276SOL     OW13726   2.086   4.417   2.225
 4276SOL    HW113727   2.133   4.469   2.296
 4276SOL    HW213728   2.048   4.480   2.157
 4277SOL     OW13729   0.733   5.308   5.421
 4277SOL    HW113730   0.787   5.228   5.392
 4277SOL    HW213731   0.713   5.365   5.341
 4278SOL     OW13732   1.606   6.857   6.297
 4278SOL    HW113733   1.610   6.781   6.231
 4278SOL    HW213734   1.656   6.831   6.379
 4279SOL     OW13735   3.155   5.960   4.191
 4279SOL    HW113736   3.145   5.877   4.246
 4279SOL    HW213737   3.097   6.032   4.231
 4280SOL     OW13738   4.974   2.755   3.657
 4280SOL    HW113739   4.975   2.673   3.715
 4280SOL    HW213740   4.885   2.763   3.612
 4281SOL     OW13741   2.445   4.142   5.428
 4281SOL    HW113742   2.544   4.161   5.423
 4281SOL    HW213743   2.415   4.102   5.341
 4282SOL     OW13744   0.292   2.881   0.674
 4282SOL    HW113745   0.283   2.921   0.765
 4282SOL    HW213746   0.239   2.796   0.670
 4283SOL     OW13747   2.781   0.781   4.517
 4283SOL    HW113748   2.703   0.843   4.522
 4283SOL    HW213749   2.753   0.696   4.474
 4284SOL     OW13750   0.040   1.898   3.201
 4284SOL    HW113751   0.133   1.874   3.176
 4284SOL    HW213752   7.027   1.821   3.247
 4285SOL     OW13753   1.019   5.634   4.864
 4285SOL    HW113754   1.062   5.724   4.870
 4285SOL    HW213755   1.063   5.580   4.792
 4286SOL     OW13756   4.803   5.926   6.621
 4286SOL    HW113757   4.784   5.929   6.523
 4286SOL    HW213758   4.717   5.932   6.672
 4287SOL     OW13759   3.923   6.356   5.855
 4287SOL    HW113760   3.831   6.368   5.893
 4287SOL    HW213761   3.919   6.303   5.771
 4288SOL     OW13762   0.912   6.152   3.351
 4288SOL    HW113763   0.896   6.131   3.447
 4288SOL    HW213764   1.010   6.154   3.333
 4289SOL     OW13765   6.643   3.693   0.232
 4289SOL    HW113766   6.666   3.791   0.240
 4289SOL    HW213767   6.710   3.640   0.284
 4290SOL     OW13768   2.145   1.691   3.288
 4290SOL    HW113769   2.182   1.771   3.337
 4290SOL    HW213770   2.072   1.721   3.227
 4291SOL     OW13771   6.577   4.474   1.200
 4291SOL    HW113772   6.488   4.464   1.157
 4291SOL    HW213773   6.618   4.383   1.213
 4292SOL     OW13774   5.894   5.243   6.064
 4292SOL    HW113775   5.866   5.311   6.131
 4292SOL    HW213776   5.818   5.224   6.002
 4293SOL     OW13777   0.205   2.198   6.411
 4293SOL    HW113778   0.294   2.202   6.456
 4293SOL    HW213779   0.133   2.197   6.481
 4294SOL     OW13780   4.851   2.119   5.817
 4294SOL    HW113781   4.808   2.116   5.908
 4294SOL    HW213782   4.945   2.151   5.826
 4295SOL     OW13783   3.577   6.011   5.892
 4295SOL    HW113784   3.611   6.084   5.952
 4295SOL    HW213785   3.483   6.031   5.864
 4296SOL     OW13786   2.714   1.173   2.754
 4296SOL    HW113787   2.686   1.144   2.662
 4296SOL    HW213788   2.807   1.209   2.751
 4297SOL     OW13789   5.588   0.722   0.365
 4297SOL    HW113790   5.616   0.704   0.271
 4297SOL    HW213791   5.549   0.813   0.372
 4298SOL     OW13792   2.107   5.542   1.637
 4298SOL    HW113793   2.070   5.601   1.708
 4298SOL    HW213794   2.206   5.556   1.630
 4299SOL     OW13795   0.802   4.657   5.702
 4299SOL    HW113796   0.805   4.739   5.759
 4299SOL    HW213797   0.846   4.581   5.751
 4300SOL     OW13798   6.046   6.782   5.511
 4300SOL    HW113799   5.983   6.832   5.572
 4300SOL    HW213800   6.026   6.684   5.516
 4301SOL     OW13801   2.764   1.002   0.079
 4301SOL    HW113802   2.748   0.909   0.045
 4301SOL    HW213803   2.779   1.064   0.001
 4302SOL     OW13804   1.002   0.124   6.495
 4302SOL    HW113805   0.916   0.088   6.529
 4302SOL    HW213806   1.075   0.107   6.562
 4303SOL     OW13807   6.835   4.108   1.574
 4303SOL    HW113808   6.854   4.056   1.657
 4303SOL    HW213809   6.870   4.057   1.495
 4304SOL     OW13810   3.151   3.050   4.938
 4304SOL    HW113811   3.130   3.025   5.033
 4304SOL    HW213812   3.090   3.124   4.910
 4305SOL     OW13813   6.755   1.169   5.063
 4305SOL    HW113814   6.705   1.255   5.060
 4305SOL    HW213815   6.779   1.140   4.970
 4306SOL     OW13816   6.133   5.932   6.084
 4306SOL    HW113817   6.105   5.967   6.174
 4306SOL    HW213818   6.102   5.995   6.013
 4307SOL     OW13819   5.146   3.369   0.353
 4307SOL    HW113820   5.193   3.452   0.322
 4307SOL    HW213821   5.178   3.346   0.445
 4308SOL     OW13822   3.798   6.721   5.231
 4308SOL    HW113823   3.886   6.683   5.202
 4308SOL    HW213824   3.770   6.677   5.317
 4309SOL     OW13825   1.856   0.774   1.295
 4309SOL    HW113826   1.891   0.848   1.238
 4309SOL    HW213827   1.878   0.686   1.252
 4310SOL     OW13828   1.652   0.623   2.622
 4310SOL    HW113829   1.723   0.651   2.687
 4310SOL    HW213830   1.653   0.523   2.614
 4311SOL     OW13831   0.999   5.756   4.442
 4311SOL    HW113832   0.968   5.662   4.459
 4311SOL    HW213833   1.015   5.801   4.530
 4312SOL     OW13834   1.479   6.264   1.563
 4312SOL    HW113835   1.443   6.228   1.477
 4312SOL    HW213836   1.556   6.207   1.593
 4313SOL     OW13837   5.125   0.751   1.870
 4313SOL    HW113838   5.176   0.680   1.919
 4313SOL    HW213839   5.125   0.835   1.925
 4314SOL     OW13840   5.625   3.505   2.280
 4314SOL    HW113841   5.560   3.560   2.227
 4314SOL    HW213842   5.718   3.538   2.264
 4315SOL     OW13843   2.489   1.417   2.626
 4315SOL    HW113844   2.427   1.491   2.655
 4315SOL    HW213845   2.473   1.336   2.683
 4316SOL     OW13846   0.693   0.844   2.421
 4316SOL    HW113847   0.694   0.894   2.334
 4316SOL    HW213848   0.616   0.875   2.477
 4317SOL     OW13849   4.190   0.220   3.673
 4317SOL    HW113850   4.225   0.166   3.596
 4317SOL    HW213851   4.119   0.170   3.721
 4318SOL     OW13852   6.273   2.325   4.840
 4318SOL    HW113853   6.197   2.389   4.852
 4318SOL    HW213854   6.347   2.368   4.789
 4319SOL     OW13855   3.033   3.171   5.981
 4319SOL    HW113856   3.103   3.141   6.046
 4319SOL    HW213857   3.056   3.138   5.889
 4320SOL     OW13858   0.658   5.757   3.493
 4320SOL    HW113859   0.562   5.787   3.496
 4320SOL    HW213860   0.701   5.791   3.409
 4321SOL     OW13861   0.525   0.260   5.028
 4321SOL    HW113862   0.579   0.314   4.963
 4321SOL    HW213863   0.431   0.252   4.995
 4322SOL     OW13864   5.708   1.719   0.995
 4322SOL    HW113865   5.646   1.711   0.917
 4322SOL    HW213866   5.658   1.755   1.074
 4323SOL     OW13867   0.146   2.350   3.879
 4323SOL    HW113868   0.202   2.378   3.957
 4323SOL    HW213869   0.203   2.300   3.814
 4324SOL     OW13870   5.601   2.807   6.280
 4324SOL    HW113871   5.512   2.846   6.302
 4324SOL    HW213872   5.673   2.863   6.322
 4325SOL     OW13873   1.917   2.112   6.110
 4325SOL    HW113874   1.880   2.193   6.064
 4325SOL    HW213875   1.868   2.031   6.079
 4326SOL     OW13876   6.428   2.439   5.062
 4326SOL    HW113877   6.483   2.363   5.028
 4326SOL    HW213878   6.352   2.456   4.999
 4327SOL     OW13879   5.477   0.829   3.250
 4327SOL    HW113880   5.385   0.794   3.230
 4327SOL    HW213881   5.470   0.903   3.316
 4328SOL     OW13882   5.636   5.139   0.161
 4328SOL    HW113883   5.722   5.106   0.200
 4328SOL    HW213884   5.583   5.185   0.232
 4329SOL     OW13885   4.734   1.364   6.458
 4329SOL    HW113886   4.680   1.293   6.503
 4329SOL    HW213887   4.800   1.322   6.396
 4330SOL     OW13888   0.968   0.952   6.694
 4330SOL    HW113889   0.917   0.867   6.680
 4330SOL    HW213890   0.940   0.995   6.779
 4331SOL     OW13891   5.321   2.549   6.566
 4331SOL    HW113892   5.375   2.485   6.512
 4331SOL    HW213893   5.371   2.574   6.649
 4332SOL     OW13894   5.345   3.431   1.981
 4332SOL    HW113895   5.362   3.464   1.888
 4332SOL    HW213896   5.253   3.393   1.987
 4333SOL     OW13897   6.382   1.303   5.498
 4333SOL    HW113898   6.432   1.385   5.525
 4333SOL    HW213899   6.410   1.227   5.556
 4334SOL     OW13900   4.554   0.082   1.549
 4334SOL    HW113901   4.482   0.016   1.569
 4334SOL    HW213902   4.549   0.109   1.453
 4335SOL     OW13903   3.833   4.584   5.784
 4335SOL    HW113904   3.781   4.500   5.768
 4335SOL    HW213905   3.923   4.576   5.741
 4336SOL     OW13906   1.063   6.351   5.423
 4336SOL    HW113907   0.986   6.333   5.362
 4336SOL    HW213908   1.033   6.342   5.518
 4337SOL     OW13909   0.398   5.572   0.116
 4337SOL    HW113910   0.434   5.665   0.118
 4337SOL    HW213911   0.311   5.568   0.164
 4338SOL     OW13912   6.082   6.146   3.733
 4338SOL    HW113913   6.034   6.091   3.664
 4338SOL    HW213914   6.058   6.242   3.720
 4339SOL     OW13915   6.794   1.362   6.583
 4339SOL    HW113916   6.720   1.405   6.531
 4339SOL    HW213917   6.877   1.418   6.577
 4340SOL     OW13918   4.661   3.441   1.702
 4340SOL    HW113919   4.619   3.350   1.704
 4340SOL    HW213920   4.753   3.436   1.741
 4341SOL     OW13921   0.653   3.662   0.228
 4341SOL    HW113922   0.692   3.573   0.253
 4341SOL    HW213923   0.682   3.686   0.136
 4342SOL     OW13924   7.014   1.890   2.921
 4342SOL    HW113925   7.017   1.889   3.021
 4342SOL    HW213926   0.071   1.857   2.884
 4343SOL     OW13927   2.669   2.128   1.368
 4343SOL    HW113928   2.585   2.080   1.342
 4343SOL    HW213929   2.655   2.227   1.360
 4344SOL     OW13930   1.773   3.754   2.435
 4344SOL    HW113931   1.801   3.718   2.346
 4344SOL    HW213932   1.698   3.697   2.472
 4345SOL     OW13933   2.472   1.587   5.869
 4345SOL    HW113934   2.533   1.580   5.790
 4345SOL    HW213935   2.388   1.536   5.851
 4346SOL     OW13936   6.675   3.359   1.069
 4346SOL    HW113937   6.579   3.333   1.080
 4346SOL    HW213938   6.710   3.395   1.155
 4347SOL     OW13939   5.417   5.779   2.443
 4347SOL    HW113940   5.474   5.821   2.373
 4347SOL    HW213941   5.327   5.823   2.444
 4348SOL     OW13942   1.132   4.057   0.066
 4348SOL    HW113943   1.062   4.003   0.019
 4348SOL    HW213944   1.127   4.040   0.164
 4349SOL     OW13945   6.681   1.017   1.715
 4349SOL    HW113946   6.617   1.018   1.792
 4349SOL    HW213947   6.629   1.026   1.629
 4350SOL     OW13948   4.788   0.195   3.496
 4350SOL    HW113949   4.753   0.289   3.505
 4350SOL    HW213950   4.732   0.134   3.551
 4351SOL     OW13951   2.821   7.012   0.352
 4351SOL    HW113952   2.821   0.058   0.287
 4351SOL    HW213953   2.914   6.975   0.359
 4352SOL     OW13954   6.008   1.593   2.689
 4352SOL    HW113955   5.938   1.549   2.632
 4352SOL    HW213956   6.015   1.690   2.663
 4353SOL     OW13957   3.056   5.640   1.748
 4353SOL    HW113958   2.964   5.650   1.786
 4353SOL    HW213959   3.083   5.544   1.754
 4354SOL     OW13960   2.539   0.742   1.333
 4354SOL    HW113961   2.462   0.804   1.342
 4354SOL    HW213962   2.620   0.792   1.302
 4355SOL     OW13963   4.812   0.229   0.640
 4355SOL    HW113964   4.814   0.159   0.711
 4355SOL    HW213965   4.825   0.186   0.550
 4356SOL     OW13966   3.609   3.911   0.280
 4356SOL    HW113967   3.551   3.845   0.327
 4356SOL    HW213968   3.596   4.002   0.320
 4357SOL     OW13969   6.127   0.946   0.090
 4357SOL    HW113970   6.070   0.915   0.166
 4357SOL    HW213971   6.185   1.021   0.122
 4358SOL     OW13972   6.179   1.046   1.044
 4358SOL    HW113973   6.108   0.975   1.043
 4358SOL    HW213974   6.203   1.071   0.950
 4359SOL     OW13975   5.696   2.939   4.416
 4359SOL    HW113976   5.768   2.905   4.356
 4359SOL    HW213977   5.735   3.003   4.482
 4360SOL     OW13978   2.012   3.293   0.770
 4360SOL    HW113979   2.061   3.318   0.686
 4360SOL    HW213980   1.968   3.375   0.808
 4361SOL     OW13981   5.766   1.684   2.422
 4361SOL    HW113982   5.863   1.687   2.396
 4361SOL    HW213983   5.756   1.631   2.506
 4362SOL     OW13984   5.067   3.885   3.094
 4362SOL    HW113985   5.161   3.861   3.117
 4362SOL    HW213986   5.063   3.916   2.999
 4363SOL     OW13987   5.587   0.586   6.195
 4363SOL    HW113988   5.655   0.655   6.220
 4363SOL    HW213989   5.592   0.510   6.260
 4364SOL     OW13990   3.577   3.784   4.579
 4364SOL    HW113991   3.619   3.855   4.637
 4364SOL    HW213992   3.625   3.781   4.491
 4365SOL     OW13993   4.196   1.273   1.037
 4365SOL    HW113994   4.097   1.272   1.049
 4365SOL    HW213995   4.236   1.196   1.087
 4366SOL     OW13996   5.430   4.898   0.885
 4366SOL    HW113997   5.346   4.951   0.898
 4366SOL    HW213998   5.454   4.898   0.788
 4367SOL     OW13999   0.184   6.932   0.828
 4367SOL    HW114000   0.209   6.947   0.923
 4367SOL    HW214001   0.143   7.016   0.791
 4368SOL     OW14002   4.378   4.549   1.964
 4368SOL    HW114003   4.297   4.542   1.906
 4368SOL    HW214004   4.404   4.458   1.996
 4369SOL     OW14005   2.906   5.611   1.431
 4369SOL    HW114006   2.874   5.705   1.417
 4369SOL    HW214007   2.975   5.610   1.504
 4370SOL     OW14008   5.673   4.503   2.412
 4370SOL    HW114009   5.707   4.413   2.385
 4370SOL    HW214010   5.638   4.550   2.331
 4371SOL     OW14011   0.505   2.168   2.543
 4371SOL    HW114012   0.476   2.119   2.461
 4371SOL    HW214013   0.456   2.133   2.623
 4372SOL     OW14014   5.204   0.009   3.446
 4372SOL    HW114015   5.284   0.037   3.500
 4372SOL    HW214016   5.135   7.000   3.508
 4373SOL     OW14017   6.504   1.965   6.362
 4373SOL    HW114018   6.514   1.874   6.322
 4373SOL    HW214019   6.475   1.956   6.457
 4374SOL     OW14020   3.831   1.485   1.114
 4374SOL    HW114021   3.773   1.553   1.069
 4374SOL    HW214022   3.840   1.509   1.211
 4375SOL     OW14023   3.546   5.948   4.340
 4375SOL    HW114024   3.559   6.044   4.365
 4375SOL    HW214025   3.503   5.943   4.250
 4376SOL     OW14026   0.008   1.900   4.433
 4376SOL    HW114027   0.093   1.854   4.460
 4376SOL    HW214028   0.006   1.991   4.473
 4377SOL     OW14029   0.069   5.135   6.063
 4377SOL    HW114030   0.075   5.142   5.963
 4377SOL    HW214031   0.032   5.045   6.087
 4378SOL     OW14032   3.163   1.776   4.055
 4378SOL    HW114033   3.224   1.756   3.978
 4378SOL    HW214034   3.141   1.691   4.103
 4379SOL     OW14035   3.414   2.102   6.114
 4379SOL    HW114036   3.511   2.097   6.094
 4379SOL    HW214037   3.400   2.125   6.211
 4380SOL     OW14038   0.419   2.030   3.141
 4380SOL    HW114039   0.353   2.094   3.180
 4380SOL    HW214040   0.384   1.937   3.149
 4381SOL     OW14041   1.535   6.137   6.941
 4381SOL    HW114042   1.469   6.089   6.883
 4381SOL    HW214043   1.516   6.117   0.007
 4382SOL     OW14044   0.535   4.920   4.376
 4382SOL    HW114045   0.525   4.868   4.291
 4382SOL    HW214046   0.542   4.857   4.453
 4383SOL     OW14047   6.703   3.827   0.810
 4383SOL    HW114048   6.705   3.807   0.712
 4383SOL    HW214049   6.661   3.750   0.859
 4384SOL     OW14050   5.476   6.678   3.690
 4384SOL    HW114051   5.553   6.697   3.629
 4384SOL    HW214052   5.509   6.627   3.770
 4385SOL     OW14053   4.784   1.639   5.798
 4385SOL    HW114054   4.867   1.680   5.761
 4385SOL    HW214055   4.715   1.633   5.727
 4386SOL     OW14056   1.814   3.498   4.865
 4386SOL    HW114057   1.900   3.540   4.894
 4386SOL    HW214058   1.832   3.410   4.822
 4387SOL     OW14059   5.560   2.110   0.888
 4387SOL    HW114060   5.523   2.146   0.802
 4387SOL    HW214061   5.497   2.129   0.962
 4388SOL     OW14062   5.008   3.736   0.213
 4388SOL    HW114063   5.005   3.643   0.250
 4388SOL    HW214064   4.918   3.758   0.174
 4389SOL     OW14065   1.745   2.128   0.024
 4389SOL    HW114066   1.819   2.193   0.041
 4389SOL    HW214067   1.775   2.060   6.987
 4390SOL     OW14068   0.233   1.659   0.755
 4390SOL    HW114069   0.214   1.580   0.814
 4390SOL    HW214070   0.256   1.738   0.811
 4391SOL     OW14071   0.693   5.520   0.664
 4391SOL    HW114072   0.689   5.545   0.567
 4391SOL    HW214073   0.681   5.421   0.673
 4392SOL     OW14074   1.149   3.352   6.028
 4392SOL    HW114075   1.131   3.312   5.938
 4392SOL    HW214076   1.244   3.382   6.033
 4393SOL     OW14077   5.945   0.234   1.807
 4393SOL    HW114078   5.959   0.228   1.906
 4393SOL    HW214079   6.030   0.213   1.760
 4394SOL     OW14080   0.452   0.448   2.458
 4394SOL    HW114081   0.403   0.429   2.543
 4394SOL    HW214082   0.490   0.363   2.422
 4395SOL     OW14083   1.820   4.620   2.012
 4395SOL    HW114084   1.865   4.695   1.963
 4395SOL    HW214085   1.785   4.654   2.099
 4396SOL     OW14086   3.214   0.990   2.866
 4396SOL    HW114087   3.213   0.891   2.879
 4396SOL    HW214088   3.308   1.023   2.862
 4397SOL     OW14089   3.548   1.300   4.891
 4397SOL    HW114090   3.471   1.236   4.885
 4397SOL    HW214091   3.531   1.378   4.831
 4398SOL     OW14092   1.803   3.165   5.607
 4398SOL    HW114093   1.773   3.238   5.669
 4398SOL    HW214094   1.866   3.203   5.539
 4399SOL     OW14095   2.846   6.348   1.845
 4399SOL    HW114096   2.848   6.370   1.942
 4399SOL    HW214097   2.833   6.432   1.792
 4400SOL     OW14098   1.752   6.043   4.775
 4400SOL    HW114099   1.668   6.058   4.722
 4400SOL    HW214100   1.830   6.036   4.714
 4401SOL     OW14101   2.913   6.963   6.422
 4401SOL    HW114102   2.936   0.011   6.481
 4401SOL    HW214103   2.836   6.986   6.363
 4402SOL     OW14104   2.261   0.946   2.596
 4402SOL    HW114105   2.200   0.916   2.669
 4402SOL    HW214106   2.356   0.944   2.628
 4403SOL     OW14107   0.609   5.232   1.564
 4403SOL    HW114108   0.533   5.280   1.520
 4403SOL    HW214109   0.693   5.246   1.512
 4404SOL     OW14110   0.759   6.952   6.324
 4404SOL    HW114111   0.713   6.871   6.359
 4404SOL    HW214112   0.854   6.954   6.356
 4405SOL     OW14113   1.951   5.428   2.471
 4405SOL    HW114114   1.981   5.333   2.480
 4405SOL    HW214115   1.866   5.431   2.417
 4406SOL     OW14116   6.246   4.124   2.430
 4406SOL    HW114117   6.221   4.185   2.355
 4406SOL    HW214118   6.175   4.055   2.442
 4407SOL     OW14119   5.901   6.810   1.145
 4407SOL    HW114120   5.993   6.841   1.121
 4407SOL    HW214121   5.855   6.773   1.064
 4408SOL     OW14122   3.943   0.753   0.505
 4408SOL    HW114123   4.032   0.707   0.508
 4408SOL    HW214124   3.935   0.814   0.584
 4409SOL     OW14125   3.055   0.669   3.480
 4409SOL    HW114126   3.048   0.570   3.495
 4409SOL    HW214127   3.067   0.715   3.569
 4410SOL     OW14128   0.522   0.467   0.949
 4410SOL    HW114129   0.557   0.379   0.981
 4410SOL    HW214130   0.436   0.488   0.994
 4411SOL     OW14131   4.637   4.624   5.411
 4411SOL    HW114132   4.701   4.694   5.380
 4411SOL    HW214133   4.622   4.633   5.509
 4412SOL     OW14134   4.563   6.274   1.887
 4412SOL    HW114135   4.552   6.247   1.791
 4412SOL    HW214136   4.502   6.350   1.907
 4413SOL     OW14137   4.278   5.947   3.847
 4413SOL    HW114138   4.295   5.972   3.752
 4413SOL    HW214139   4.356   5.896   3.882
 4414SOL     OW14140   5.249   3.675   1.462
 4414SOL    HW114141   5.314   3.741   1.498
 4414SOL    HW214142   5.298   3.595   1.428
 4415SOL     OW14143   1.422   3.849   1.058
 4415SOL    HW114144   1.509   3.860   1.010
 4415SOL    HW214145   1.412   3.923   1.126
 4416SOL     OW14146   5.041   2.688   4.004
 4416SOL    HW114147   4.943   2.667   4.004
 4416SOL    HW214148   5.072   2.703   4.098
 4417SOL     OW14149   0.132   4.142   1.585
 4417SOL    HW114150   0.126   4.195   1.500
 4417SOL    HW214151   0.040   4.133   1.624
 4418SOL     OW14152   6.430   0.714   6.091
 4418SOL    HW114153   6.400   0.662   6.011
 4418SOL    HW214154   6.394   0.672   6.174
 4419SOL     OW14155   6.728   5.852   6.734
 4419SOL    HW114156   6.756   5.948   6.722
 4419SOL    HW214157   6.636   5.839   6.698
 4420SOL     OW14158   4.009   1.720   0.944
 4420SOL    HW114159   3.971   1.777   0.871
 4420SOL    HW214160   3.945   1.717   1.021
 4421SOL     OW14161   2.025   2.933   0.487
 4421SOL    HW114162   1.985   3.024   0.497
 4421SOL    HW214163   2.049   2.917   0.391
 4422SOL     OW14164   0.061   2.910   5.901
 4422SOL    HW114165   0.125   2.975   5.860
 4422SOL    HW214166   0.092   2.886   5.993
 4423SOL     OW14167   6.558   4.393   4.662
 4423SOL    HW114168   6.520   4.380   4.571
 4423SOL    HW214169   6.658   4.392   4.657
 4424SOL     OW14170   4.627   5.717   2.716
 4424SOL    HW114171   4.583   5.770   2.788
 4424SOL    HW214172   4.562   5.698   2.643
 4425SOL     OW14173   0.672   5.598   1.049
 4425SOL    HW114174   0.614   5.584   1.129
 4425SOL    HW214175   0.628   5.661   0.985
 4426SOL     OW14176   0.369   0.521   4.399
 4426SOL    HW114177   0.336   0.595   4.457
 4426SOL    HW214178   0.324   0.526   4.310
 4427SOL     OW14179   2.142   5.941   2.468
 4427SOL    HW114180   2.183   5.980   2.550
 4427SOL    HW214181   2.109   5.849   2.488
 4428SOL     OW14182   6.768   5.556   3.174
 4428SOL    HW114183   6.728   5.466   3.189
 4428SOL    HW214184   6.766   5.608   3.260
 4429SOL     OW14185   2.856   6.454   3.320
 4429SOL    HW114186   2.920   6.467   3.396
 4429SOL    HW214187   2.861   6.532   3.258
 4430SOL     OW14188   6.005   3.580   5.240
 4430SOL    HW114189   5.965   3.657   5.191
 4430SOL    HW214190   6.004   3.499   5.182
 4431SOL     OW14191   3.990   6.640   4.769
 4431SOL    HW114192   3.904   6.645   4.821
 4431SOL    HW214193   4.066   6.661   4.830
 4432SOL     OW14194   0.964   3.613   5.743
 4432SOL    HW114195   0.956   3.517   5.714
 4432SOL    HW214196   0.943   3.673   5.666
 4433SOL     OW14197   1.034   0.665   4.120
 4433SOL    HW114198   1.108   0.733   4.119
 4433SOL    HW214199   0.946   0.713   4.118
 4434SOL     OW14200   6.931   0.700   1.618
 4434SOL    HW114201   6.957   0.796   1.626
 4434SOL    HW214202   6.849   0.683   1.673
 4435SOL     OW14203   2.086   3.980   0.811
 4435SOL    HW114204   2.116   3.893   0.771
 4435SOL    HW214205   2.126   4.056   0.759
 4436SOL     OW14206   4.312   2.227   1.698
 4436SOL    HW114207   4.274   2.188   1.782
 4436SOL    HW214208   4.341   2.153   1.637
 4437SOL     OW14209   6.358   4.412   0.044
 4437SOL    HW114210   6.371   4.326   7.025
 4437SOL    HW214211   6.430   4.423   0.113
 4438SOL     OW14212   4.198   1.126   4.817
 4438SOL    HW114213   4.271   1.078   4.865
 4438SOL    HW214214   4.109   1.093   4.848
 4439SOL     OW14215   2.230   5.851   2.933
 4439SOL    HW114216   2.131   5.842   2.944
 4439SOL    HW214217   2.268   5.901   3.011
 4440SOL     OW14218   1.088   4.590   5.489
 4440SOL    HW114219   1.001   4.608   5.535
 4440SOL    HW214220   1.160   4.644   5.532
 4441SOL     OW14221   6.957   2.026   1.034
 4441SOL    HW114222   6.915   2.058   0.949
 4441SOL    HW214223   6.910   1.944   1.066
 4442SOL     OW14224   2.064   4.829   1.029
 4442SOL    HW114225   2.138   4.762   1.024
 4442SOL    HW214226   1.984   4.794   0.981
 4443SOL     OW14227   0.636   5.920   6.054
 4443SOL    HW114228   0.595   6.001   6.012
 4443SOL    HW214229   0.576   5.887   6.127
 4444SOL     OW14230   5.678   5.406   0.489
 4444SOL    HW114231   5.767   5.395   0.445
 4444SOL    HW214232   5.630   5.483   0.448
 4445SOL     OW14233   2.084   4.197   0.063
 4445SOL    HW114234   2.050   4.146   7.014
 4445SOL    HW214235   2.167   4.152   0.098
 4446SOL     OW14236   4.318   1.676   2.120
 4446SOL    HW114237   4.227   1.710   2.092
 4446SOL    HW214238   4.374   1.753   2.149
 4447SOL     OW14239   3.970   5.758   5.528
 4447SOL    HW114240   3.932   5.756   5.435
 4447SOL    HW214241   3.949   5.671   5.573
 4448SOL     OW14242   3.370   6.582   2.247
 4448SOL    HW114243   3.434   6.509   2.222
 4448SOL    HW214244   3.347   6.575   2.344
 4449SOL     OW14245   3.770   2.108   5.814
 4449SOL    HW114246   3.712   2.172   5.763
 4449SOL    HW214247   3.727   2.017   5.815
 4450SOL     OW14248   2.242   6.628   0.331
 4450SOL    HW114249   2.157   6.580   0.355
 4450SOL    HW214250   2.318   6.587   0.381
 4451SOL     OW14251   4.699   5.386   3.318
 4451SOL    HW114252   4.725   5.479   3.292
 4451SOL    HW214253   4.776   5.324   3.301
 4452SOL     OW14254   5.069   5.122   3.733
 4452SOL    HW114255   4.998   5.188   3.752
 4452SOL    HW214256   5.086   5.067   3.815
 4453SOL     OW14257   0.533   4.651   0.882
 4453SOL    HW114258   0.479   4.724   0.924
 4453SOL    HW214259   0.509   4.644   0.785
 4454SOL     OW14260   1.349   2.003   0.521
 4454SOL    HW114261   1.276   2.037   0.461
 4454SOL    HW214262   1.361   2.067   0.598
 4455SOL     OW14263   1.695   0.624   4.556
 4455SOL    HW114264   1.640   0.590   4.480
 4455SOL    HW214265   1.705   0.723   4.547
 4456SOL     OW14266   1.906   6.260   4.239
 4456SOL    HW114267   1.848   6.181   4.223
 4456SOL    HW214268   1.850   6.340   4.260
 4457SOL     OW14269   1.103   1.443   4.285
 4457SOL    HW114270   1.145   1.407   4.368
 4457SOL    HW214271   1.123   1.383   4.208
 4458SOL     OW14272   1.394   3.224   6.402
 4458SOL    HW114273   1.303   3.258   6.424
 4458SOL    HW214274   1.449   3.220   6.485
 4459SOL     OW14275   0.696   3.875   3.088
 4459SOL    HW114276   0.627   3.944   3.069
 4459SOL    HW214277   0.781   3.919   3.118
 4460SOL     OW14278   0.304   2.652   5.152
 4460SOL    HW114279   0.399   2.654   5.182
 4460SOL    HW214280   0.268   2.745   5.147
 4461SOL     OW14281   2.212   0.787   0.964
 4461SOL    HW114282   2.170   0.840   0.890
 4461SOL    HW214283   2.240   0.697   0.928
 4462SOL     OW14284   6.365   3.893   2.329
 4462SOL    HW114285   6.337   3.987   2.348
 4462SOL    HW214286   6.338   3.868   2.236
 4463SOL     OW14287   5.480   1.601   0.020
 4463SOL    HW114288   5.518   1.657   0.093
 4463SOL    HW214289   5.412   1.654   6.999
 4464SOL     OW14290   0.507   3.417   1.657
 4464SOL    HW114291   0.554   3.371   1.733
 4464SOL    HW214292   0.501   3.515   1.675
 4465SOL     OW14293   4.222   5.562   1.993
 4465SOL    HW114294   4.259   5.513   1.915
 4465SOL    HW214295   4.142   5.615   1.964
 4466SOL     OW14296   0.673   3.222   2.419
 4466SOL    HW114297   0.678   3.124   2.402
 4466SOL    HW214298   0.594   3.242   2.478
 4467SOL     OW14299   5.263   4.956   1.927
 4467SOL    HW114300   5.276   4.946   1.828
 4467SOL    HW214301   5.234   5.049   1.947
 4468SOL     OW14302   1.789   2.766   1.187
 4468SOL    HW114303   1.827   2.759   1.279
 4468SOL    HW214304   1.690   2.752   1.190
 4469SOL     OW14305   2.197   6.237   1.229
 4469SOL    HW114306   2.235   6.288   1.152
 4469SOL    HW214307   2.215   6.287   1.314
 4470SOL     OW14308   0.487   7.030   2.835
 4470SOL    HW114309   0.540   0.002   2.920
 4470SOL    HW214310   0.458   6.936   2.816
 4471SOL     OW14311   0.809   0.703   6.679
 4471SOL    HW114312   0.829   0.635   6.750
 4471SOL    HW214313   0.813   0.659   6.589
 4472SOL     OW14314   1.214   2.705   1.121
 4472SOL    HW114315   1.170   2.793   1.139
 4472SOL    HW214316   1.232   2.696   1.024
 4473SOL     OW14317   0.236   3.079   4.783
 4473SOL    HW114318   0.240   2.998   4.724
 4473SOL    HW214319   0.146   3.121   4.777
 4474SOL     OW14320   2.407   6.183   0.700
 4474SOL    HW114321   2.336   6.114   0.712
 4474SOL    HW214322   2.433   6.220   0.789
 4475SOL     OW14323   0.418   3.482   0.312
 4475SOL    HW114324   0.455   3.389   0.315
 4475SOL    HW214325   0.489   3.546   0.281
 4476SOL     OW14326   5.087   0.987   3.725
 4476SOL    HW114327   5.147   0.946   3.656
 4476SOL    HW214328   5.132   0.984   3.814
 4477SOL     OW14329   0.169   1.290   4.206
 4477SOL    HW114330   0.164   1.390   4.218
 4477SOL    HW214331   0.224   1.251   4.279
 4478SOL     OW14332   1.869   0.843   2.029
 4478SOL    HW114333   1.932   0.765   2.037
 4478SOL    HW214334   1.886   0.908   2.102
 4479SOL     OW14335   2.067   2.646   6.320
 4479SOL    HW114336   2.083   2.731   6.269
 4479SOL    HW214337   2.078   2.568   6.259
 4480SOL     OW14338   0.014   6.797   3.555
 4480SOL    HW114339   6.990   6.789   3.470
 4480SOL    HW214340   6.983   6.790   3.633
 4481SOL     OW14341   2.140   4.013   5.946
 4481SOL    HW114342   2.069   3.950   5.915
 4481SOL    HW214343   2.158   4.080   5.874
 4482SOL     OW14344   2.462   0.461   1.201
 4482SOL    HW114345   2.503   0.547   1.231
 4482SOL    HW214346   2.515   0.384   1.236
 4483SOL     OW14347   1.019   3.713   0.457
 4483SOL    HW114348   1.049   3.727   0.552
 4483SOL    HW214349   0.927   3.751   0.446
 4484SOL     OW14350   3.046   0.962   0.027
 4484SOL    HW114351   3.127   1.015   7.028
 4484SOL    HW214352   3.002   1.008   0.104
 4485SOL     OW14353   0.526   3.656   5.023
 4485SOL    HW114354   0.573   3.742   5.002
 4485SOL    HW214355   0.442   3.649   4.969
 4486SOL     OW14356   4.999   4.340   3.665
 4486SOL    HW114357   4.992   4.436   3.640
 4486SOL    HW214358   4.915   4.292   3.637
 4487SOL     OW14359   0.249   3.097   6.540
 4487SOL    HW114360   0.156   3.100   6.576
 4487SOL    HW214361   0.298   3.020   6.581
 4488SOL     OW14362   6.856   4.008   3.574
 4488SOL    HW114363   6.858   3.936   3.506
 4488SOL    HW214364   6.767   4.053   3.574
 4489SOL     OW14365   3.660   5.729   6.638
 4489SOL    HW114366   3.746   5.702   6.682
 4489SOL    HW214367   3.618   5.803   6.689
 4490SOL     OW14368   5.573   1.649   2.009
 4490SOL    HW114369   5.616   1.590   2.077
 4490SOL    HW214370   5.558   1.599   1.924
 4491SOL     OW14371   0.613   4.170   3.065
 4491SOL    HW114372   0.601   4.170   3.165
 4491SOL    HW214373   0.532   4.210   3.022
 4492SOL     OW14374   6.089   1.465   2.428
 4492SOL    HW114375   6.038   1.418   2.356
 4492SOL    HW214376   6.081   1.564   2.416
 4493SOL     OW14377   5.050   1.814   5.487
 4493SOL    HW114378   5.126   1.749   5.481
 4493SOL    HW214379   5.063   1.886   5.419
 4494SOL     OW14380   1.847   0.995   2.225
 4494SOL    HW114381   1.753   0.997   2.259
 4494SOL    HW214382   1.884   1.088   2.223
 4495SOL     OW14383   4.726   6.462   0.772
 4495SOL    HW114384   4.630   6.459   0.745
 4495SOL    HW214385   4.779   6.397   0.716
 4496SOL     OW14386   2.491   6.210   6.242
 4496SOL    HW114387   2.578   6.193   6.290
 4496SOL    HW214388   2.480   6.141   6.170
 4497SOL     OW14389   4.042   0.239   5.701
 4497SOL    HW114390   4.046   0.335   5.673
 4497SOL    HW214391   4.133   0.209   5.729
 4498SOL     OW14392   1.034   4.854   4.327
 4498SOL    HW114393   0.970   4.930   4.334
 4498SOL    HW214394   0.985   4.772   4.299
 4499SOL     OW14395   6.195   1.061   2.085
 4499SOL    HW114396   6.184   1.058   2.185
 4499SOL    HW214397   6.160   0.976   2.046
 4500SOL     OW14398   3.233   6.699   0.217
 4500SOL    HW114399   3.194   6.704   0.309
 4500SOL    HW214400   3.293   6.777   0.201
 4501SOL     OW14401   6.461   0.258   2.333
 4501SOL    HW114402   6.472   0.235   2.430
 4501SOL    HW214403   6.455   0.174   2.279
 4502SOL     OW14404   1.479   4.207   6.536
 4502SOL    HW114405   1.547   4.212   6.610
 4502SOL    HW214406   1.509   4.264   6.460
 4503SOL     OW14407   3.976   1.499   2.516
 4503SOL    HW114408   4.032   1.416   2.514
 4503SOL    HW214409   4.018   1.569   2.458
 4504SOL     OW14410   1.549   2.343   3.802
 4504SOL    HW114411   1.609   2.288   3.744
 4504SOL    HW214412   1.520   2.289   3.881
 4505SOL     OW14413   6.460   3.304   3.543
 4505SOL    HW114414   6.468   3.214   3.501
 4505SOL    HW214415   6.382   3.305   3.606
 4506SOL     OW14416   4.016   3.745   0.156
 4506SOL    HW114417   3.976   3.825   0.111
 4506SOL    HW214418   4.116   3.754   0.159
 4507SOL     OW14419   6.044   2.508   2.843
 4507SOL    HW114420   6.043   2.423   2.895
 4507SOL    HW214421   6.001   2.494   2.754
 4508SOL     OW14422   6.097   4.977   0.822
 4508SOL    HW114423   6.028   5.033   0.777
 4508SOL    HW214424   6.123   5.019   0.909
 4509SOL     OW14425   5.385   1.760   2.186
 4509SOL    HW114426   5.458   1.723   2.128
 4509SOL    HW214427   5.302   1.771   2.131
 4510SOL     OW14428   4.833   1.306   4.629
 4510SOL    HW114429   4.873   1.344   4.712
 4510SOL    HW214430   4.741   1.345   4.615
 4511SOL     OW14431   0.116   4.711   6.684
 4511SOL    HW114432   0.123   4.809   6.699
 4511SOL    HW214433   0.020   4.687   6.667
 4512SOL     OW14434   3.282   3.205   5.376
 4512SOL    HW114435   3.347   3.202   5.300
 4512SOL    HW214436   3.322   3.158   5.455
 4513SOL     OW14437   0.163   0.336   0.719
 4513SOL    HW114438   0.130   0.369   0.807
 4513SOL    HW214439   0.250   0.380   0.698
 4514SOL     OW14440   4.814   4.687   6.563
 4514SOL    HW114441   4.757   4.674   6.482
 4514SOL    HW214442   4.890   4.748   6.540
 4515SOL     OW14443   4.223   0.066   6.251
 4515SOL    HW114444   4.225   0.018   6.163
 4515SOL    HW214445   4.191   0.160   6.236
 4516SOL     OW14446   3.612   2.276   5.678
 4516SOL    HW114447   3.627   2.374   5.668
 4516SOL    HW214448   3.520   2.253   5.647
 4517SOL     OW14449   3.611   0.406   4.732
 4517SOL    HW114450   3.596   0.329   4.794
 4517SOL    HW214451   3.527   0.426   4.682
 4518SOL     OW14452   0.258   7.009   0.514
 4518SOL    HW114453   0.188   0.020   0.573
 4518SOL    HW214454   0.257   0.023   0.425
 4519SOL     OW14455   4.985   7.023   6.677
 4519SOL    HW114456   5.061   7.022   6.612
 4519SOL    HW214457   4.984   6.937   6.727
 4520SOL     OW14458   4.877   4.926   5.694
 4520SOL    HW114459   4.947   4.994   5.717
 4520SOL    HW214460   4.814   4.964   5.627
 4521SOL     OW14461   4.738   2.375   4.697
 4521SOL    HW114462   4.654   2.428   4.687
 4521SOL    HW214463   4.786   2.371   4.609
 4522SOL     OW14464   6.111   3.299   3.352
 4522SOL    HW114465   6.051   3.362   3.302
 4522SOL    HW214466   6.160   3.350   3.423
 4523SOL     OW14467   6.813   3.475   6.709
 4523SOL    HW114468   6.889   3.502   6.768
 4523SOL    HW214469   6.757   3.406   6.755
 4524SOL     OW14470   1.785   3.680   2.189
 4524SOL    HW114471   1.878   3.683   2.152
 4524SOL    HW214472   1.746   3.589   2.176
 4525SOL     OW14473   3.819   2.276   6.010
 4525SOL    HW114474   3.795   2.222   5.930
 4525SOL    HW214475   3.918   2.273   6.024
 4526SOL     OW14476   1.918   0.323   5.464
 4526SOL    HW114477   1.875   0.410   5.490
 4526SOL    HW214478   1.874   0.288   5.381
 4527SOL     OW14479   0.329   2.019   2.849
 4527SOL    HW114480   0.368   2.062   2.931
 4527SOL    HW214481   0.321   1.921   2.864
 4528SOL     OW14482   5.162   0.846   4.731
 4528SOL    HW114483   5.238   0.830   4.794
 4528SOL    HW214484   5.096   0.771   4.739
 4529SOL     OW14485   2.193   1.942   4.082
 4529SOL    HW114486   2.152   1.889   4.007
 4529SOL    HW214487   2.292   1.946   4.069
 4530SOL     OW14488   4.034   4.824   6.521
 4530SOL    HW114489   3.977   4.792   6.445
 4530SOL    HW214490   4.075   4.746   6.567
 4531SOL     OW14491   2.134   0.206   5.277
 4531SOL    HW114492   2.065   0.234   5.344
 4531SOL    HW214493   2.090   0.171   5.195
 4532SOL     OW14494   5.892   1.242   2.217
 4532SOL    HW114495   5.900   1.176   2.141
 4532SOL    HW214496   5.909   1.195   2.303
 4533SOL     OW14497   2.728   6.303   1.472
 4533SOL    HW114498   2.716   6.255   1.385
 4533SOL    HW214499   2.675   6.256   1.543
 4534SOL     OW14500   5.778   1.285   4.464
 4534SOL    HW114501   5.802   1.293   4.367
 4534SOL    HW214502   5.836   1.346   4.518
 4535SOL     OW14503   1.577   0.783   6.882
 4535SOL    HW114504   1.574   0.867   6.827
 4535SOL    HW214505   1.520   0.713   6.840
 4536SOL     OW14506   3.871   1.122   5.730
 4536SOL    HW114507   3.812   1.185   5.782
 4536SOL    HW214508   3.957   1.169   5.708
 4537SOL     OW14509   3.181   3.422   3.010
 4537SOL    HW114510   3.231   3.505   2.985
 4537SOL    HW214511   3.152   3.428   3.106
 4538SOL     OW14512   0.933   2.404   0.559
 4538SOL    HW114513   1.025   2.404   0.521
 4538SOL    HW214514   0.866   2.404   0.485
 4539SOL     OW14515   0.800   5.041   4.412
 4539SOL    HW114516   0.722   4.985   4.383
 4539SOL    HW214517   0.833   5.095   4.334
 4540SOL     OW14518   1.494   1.798   0.661
 4540SOL    HW114519   1.480   1.884   0.612
 4540SOL    HW214520   1.415   1.738   0.648
 4541SOL     OW14521   3.713   3.208   6.909
 4541SOL    HW114522   3.767   3.273   6.856
 4541SOL    HW214523   3.621   3.201   6.870
 4542SOL     OW14524   0.379   1.672   0.091
 4542SOL    HW114525   0.433   1.691   0.009
 4542SOL    HW214526   0.283   1.695   0.073
 4543SOL     OW14527   4.473   1.459   1.164
 4543SOL    HW114528   4.524   1.543   1.151
 4543SOL    HW214529   4.377   1.474   1.140
 4544SOL     OW14530   4.828   6.099   0.838
 4544SOL    HW114531   4.742   6.096   0.889
 4544SOL    HW214532   4.815   6.056   0.748
 4545SOL     OW14533   2.668   2.871   5.589
 4545SOL    HW114534   2.628   2.962   5.601
 4545SOL    HW214535   2.648   2.814   5.669
 4546SOL     OW14536   4.202   6.987   6.654
 4546SOL    HW114537   4.138   6.965   6.727
 4546SOL    HW214538   4.159   6.971   6.565
 4547SOL     OW14539   0.303   0.520   0.537
 4547SOL    HW114540   0.334   0.500   0.444
 4547SOL    HW214541   0.208   0.552   0.535
 4548SOL     OW14542   3.572   1.047   2.170
 4548SOL    HW114543   3.563   1.114   2.244
 4548SOL    HW214544   3.493   0.986   2.169
 4549SOL     OW14545   6.349   3.594   4.130
 4549SOL    HW114546   6.398   3.682   4.131
 4549SOL    HW214547   6.385   3.537   4.057
 4550SOL     OW14548   2.296   5.791   5.815
 4550SOL    HW114549   2.196   5.796   5.813
 4550SOL    HW214550   2.334   5.866   5.760
 4551SOL     OW14551   3.165   2.756   5.994
 4551SOL    HW114552   3.264   2.759   5.979
 4551SOL    HW214553   3.143   2.682   6.058
 4552SOL     OW14554   5.126   0.784   6.866
 4552SOL    HW114555   5.133   0.878   6.897
 4552SOL    HW214556   5.183   0.724   6.922
 4553SOL     OW14557   0.068   6.436   0.136
 4553SOL    HW114558   0.129   6.481   0.201
 4553SOL    HW214559   0.078   6.477   0.046
 4554SOL     OW14560   6.068   6.647   3.312
 4554SOL    HW114561   6.016   6.562   3.299
 4554SOL    HW214562   6.020   6.723   3.268
 4555SOL     OW14563   0.418   0.492   2.199
 4555SOL    HW114564   0.487   0.450   2.140
 4555SOL    HW214565   0.424   0.453   2.291
 4556SOL     OW14566   5.525   4.596   4.292
 4556SOL    HW114567   5.579   4.622   4.373
 4556SOL    HW214568   5.585   4.551   4.226
 4557SOL     OW14569   6.672   4.862   4.450
 4557SOL    HW114570   6.734   4.916   4.393
 4557SOL    HW214571   6.635   4.920   4.523
 4558SOL     OW14572   0.905   4.310   4.537
 4558SOL    HW114573   0.913   4.328   4.439
 4558SOL    HW214574   0.996   4.293   4.575
 4559SOL     OW14575   0.207   2.660   4.222
 4559SOL    HW114576   0.268   2.733   4.252
 4559SOL    HW214577   0.119   2.669   4.269
 4560SOL     OW14578   6.075   4.619   3.259
 4560SOL    HW114579   5.984   4.658   3.264
 4560SOL    HW214580   6.078   4.546   3.190
 4561SOL     OW14581   4.722   2.597   4.467
 4561SOL    HW114582   4.775   2.518   4.435
 4561SOL    HW214583   4.725   2.670   4.399
 4562SOL     OW14584   4.285   0.961   0.951
 4562SOL    HW114585   4.288   1.012   1.036
 4562SOL    HW214586   4.216   1.000   0.890
 4563SOL     OW14587   1.181   4.342   1.611
 4563SOL    HW114588   1.098   4.387   1.644
 4563SOL    HW214589   1.258   4.405   1.617
 4564SOL     OW14590   1.782   4.387   2.514
 4564SOL    HW114591   1.845   4.339   2.452
 4564SOL    HW214592   1.723   4.447   2.460
 4565SOL     OW14593   2.170   0.491   5.524
 4565SOL    HW114594   2.152   0.460   5.431
 4565SOL    HW214595   2.214   0.416   5.575
 4566SOL     OW14596   6.929   4.684   3.136
 4566SOL    HW114597   6.968   4.677   3.043
 4566SOL    HW214598   6.913   4.591   3.171
 4567SOL     OW14599   6.870   0.215   0.124
 4567SOL    HW114600   6.834   0.299   0.167
 4567SOL    HW214601   6.965   0.203   0.151
 4568SOL     OW14602   0.912   4.796   3.457
 4568SOL    HW114603   0.882   4.856   3.531
 4568SOL    HW214604   0.857   4.813   3.376
 4569SOL     OW14605   1.463   2.450   3.483
 4569SOL    HW114606   1.464   2.549   3.494
 4569SOL    HW214607   1.557   2.417   3.467
 4570SOL     OW14608   5.504   5.530   0.904
 4570SOL    HW114609   5.583   5.503   0.849
 4570SOL    HW214610   5.446   5.450   0.921
 4571SOL     OW14611   1.836   4.106   5.611
 4571SOL    HW114612   1.814   4.133   5.518
 4571SOL    HW214613   1.787   4.022   5.634
 4572SOL     OW14614   4.534   3.208   1.688
 4572SOL    HW114615   4.504   3.160   1.606
 4572SOL    HW214616   4.553   3.141   1.760
 4573SOL     OW14617   2.013   4.916   0.658
 4573SOL    HW114618   2.024   5.010   0.691
 4573SOL    HW214619   1.978   4.859   0.733
 4574SOL     OW14620   4.757   0.300   2.011
 4574SOL    HW114621   4.770   0.399   2.001
 4574SOL    HW214622   4.845   0.256   2.025
 4575SOL     OW14623   7.020   1.144   5.364
 4575SOL    HW114624   6.974   1.128   5.452
 4575SOL    HW214625   0.054   1.069   5.346
 4576SOL     OW14626   3.539   3.942   6.859
 4576SOL    HW114627   3.543   3.843   6.874
 4576SOL    HW214628   3.451   3.976   6.890
 4577SOL     OW14629   0.656   1.698   2.022
 4577SOL    HW114630   0.563   1.732   2.038
 4577SOL    HW214631   0.664   1.605   2.057
 4578SOL     OW14632   1.807   1.205   3.067
 4578SOL    HW114633   1.878   1.262   3.026
 4578SOL    HW214634   1.728   1.202   3.005
 4579SOL     OW14635   4.523   0.728   3.466
 4579SOL    HW114636   4.460   0.737   3.544
 4579SOL    HW214637   4.476   0.755   3.382
 4580SOL     OW14638   1.024   1.096   1.370
 4580SOL    HW114639   1.092   1.092   1.442
 4580SOL    HW214640   0.941   1.140   1.404
 4581SOL     OW14641   2.958   0.435   1.038
 4581SOL    HW114642   2.885   0.502   1.045
 4581SOL    HW214643   2.925   0.346   1.069
 4582SOL     OW14644   6.848   1.040   3.519
 4582SOL    HW114645   6.900   0.997   3.594
 4582SOL    HW214646   6.837   1.137   3.537
 4583SOL     OW14647   1.774   6.913   6.986
 4583SOL    HW114648   1.730   7.000   7.008
 4583SOL    HW214649   1.782   6.904   6.887
 4584SOL     OW14650   0.200   1.783   3.702
 4584SOL    HW114651   0.239   1.799   3.793
 4584SOL    HW214652   0.115   1.730   3.712
 4585SOL     OW14653   1.577   2.966   2.919
 4585SOL    HW114654   1.676   2.953   2.921
 4585SOL    HW214655   1.555   3.062   2.938
 4586SOL     OW14656   6.495   5.043   5.497
 4586SOL    HW114657   6.507   5.133   5.455
 4586SOL    HW214658   6.509   4.972   5.427
 4587SOL     OW14659   4.419   3.910   5.848
 4587SOL    HW114660   4.473   3.970   5.907
 4587SOL    HW214661   4.396   3.826   5.897
 4588SOL     OW14662   2.955   4.205   6.260
 4588SOL    HW114663   2.953   4.258   6.175
 4588SOL    HW214664   2.870   4.154   6.270
 4589SOL     OW14665   5.470   6.155   2.154
 4589SOL    HW114666   5.403   6.170   2.226
 4589SOL    HW214667   5.426   6.111   2.075
 4590SOL     OW14668   2.457   5.691   1.431
 4590SOL    HW114669   2.363   5.700   1.398
 4590SOL    HW214670   2.496   5.605   1.398
 4591SOL     OW14671   2.145   0.970   4.906
 4591SOL    HW114672   2.178   1.031   4.978
 4591SOL    HW214673   2.161   1.013   4.817
 4592SOL     OW14674   2.780   2.124   4.011
 4592SOL    HW114675   2.823   2.103   3.923
 4592SOL    HW214676   2.851   2.151   4.076
 4593SOL     OW14677   1.277   5.769   4.421
 4593SOL    HW114678   1.180   5.746   4.432
 4593SOL    HW214679   1.309   5.819   4.502
 4594SOL     OW14680   2.040   6.472   4.144
 4594SOL    HW114681   2.131   6.467   4.104
 4594SOL    HW214682   2.000   6.380   4.147
 4595SOL     OW14683   5.787   1.940   6.383
 4595SOL    HW114684   5.831   1.924   6.295
 4595SOL    HW214685   5.829   2.020   6.427
 4596SOL     OW14686   1.457   1.645   2.098
 4596SOL    HW114687   1.387   1.573   2.094
 4596SOL    HW214688   1.539   1.613   2.052
 4597SOL     OW14689   2.382   6.211   0.409
 4597SOL    HW114690   2.352   6.130   0.358
 4597SOL    HW214691   2.404   6.185   0.503
 4598SOL     OW14692   0.762   3.140   0.134
 4598SOL    HW114693   0.698   3.185   0.073
 4598SOL    HW214694   0.822   3.080   0.082
 4599SOL     OW14695   3.313   6.549   2.516
 4599SOL    HW114696   3.220   6.562   2.481
 4599SOL    HW214697   3.313   6.561   2.615
 4600SOL     OW14698   0.190   6.218   6.405
 4600SOL    HW114699   0.211   6.264   6.491
 4600SOL    HW214700   0.224   6.124   6.408
 4601SOL     OW14701   1.466   0.612   5.591
 4601SOL    HW114702   1.410   0.529   5.591
 4601SOL    HW214703   1.548   0.597   5.536
 4602SOL     OW14704   4.153   1.545   6.601
 4602SOL    HW114705   4.246   1.558   6.567
 4602SOL    HW214706   4.121   1.629   6.646
 4603SOL     OW14707   3.957   6.846   1.105
 4603SOL    HW114708   3.906   6.812   1.026
 4603SOL    HW214709   3.915   6.811   1.189
 4604SOL     OW14710   0.567   0.085   3.740
 4604SOL    HW114711   0.505   0.161   3.721
 4604SOL    HW214712   0.660   0.120   3.752
 4605SOL     OW14713   4.542   0.881   1.628
 4605SOL    HW114714   4.570   0.967   1.587
 4605SOL    HW214715   4.609   0.810   1.608
 4606SOL     OW14716   6.738   6.957   5.049
 4606SOL    HW114717   6.814   7.017   5.075
 4606SOL    HW214718   6.678   6.944   5.128
 4607SOL     OW14719   3.205   1.718   1.230
 4607SOL    HW114720   3.119   1.753   1.192
 4607SOL    HW214721   3.255   1.793   1.273
 4608SOL     OW14722   0.070   2.543   5.219
 4608SOL    HW114723   0.158   2.575   5.185
 4608SOL    HW214724   0.082   2.507   5.312
 4609SOL     OW14725   5.883   5.091   6.479
 4609SOL    HW114726   5.834   5.039   6.549
 4609SOL    HW214727   5.838   5.180   6.467
 4610SOL     OW14728   5.240   5.048   6.627
 4610SOL    HW114729   5.270   5.000   6.544
 4610SOL    HW214730   5.277   5.001   6.707
 4611SOL     OW14731   6.945   1.285   6.861
 4611SOL    HW114732   7.022   1.260   6.802
 4611SOL    HW214733   6.943   1.384   6.873
 4612SOL     OW14734   2.783   1.237   3.158
 4612SOL    HW114735   2.690   1.246   3.123
 4612SOL    HW214736   2.792   1.151   3.209
 4613SOL     OW14737   1.541   5.575   2.400
 4613SOL    HW114738   1.489   5.592   2.316
 4613SOL    HW214739   1.631   5.538   2.376
 4614SOL     OW14740   0.211   4.641   2.862
 4614SOL    HW114741   0.121   4.683   2.870
 4614SOL    HW214742   0.278   4.698   2.910
 4615SOL     OW14743   1.383   4.601   6.784
 4615SOL    HW114744   1.468   4.651   6.774
 4615SOL    HW214745   1.386   4.546   6.868
 4616SOL     OW14746   1.330   4.019   6.673
 4616SOL    HW114747   1.237   4.043   6.645
 4616SOL    HW214748   1.392   4.093   6.649
 4617SOL     OW14749   0.424   3.572   3.569
 4617SOL    HW114750   0.326   3.581   3.554
 4617SOL    HW214751   0.447   3.598   3.663
 4618SOL     OW14752   2.204   4.265   5.462
 4618SOL    HW114753   2.131   4.205   5.496
 4618SOL    HW214754   2.293   4.219   5.474
 4619SOL     OW14755   4.568   5.733   6.495
 4619SOL    HW114756   4.474   5.756   6.517
 4619SOL    HW214757   4.571   5.677   6.412
 4620SOL     OW14758   1.100   4.677   1.436
 4620SOL    HW114759   1.125   4.702   1.342
 4620SOL    HW214760   1.183   4.654   1.487
 4621SOL     OW14761   3.212   0.273   2.963
 4621SOL    HW114762   3.167   0.204   2.907
 4621SOL    HW214763   3.307   0.283   2.934
 4622SOL     OW14764   5.287   7.014   0.538
 4622SOL    HW114765   5.293   0.042   0.456
 4622SOL    HW214766   5.371   7.024   0.591
 4623SOL     OW14767   2.944   4.856   2.820
 4623SOL    HW114768   2.879   4.821   2.888
 4623SOL    HW214769   3.027   4.887   2.867
 4624SOL     OW14770   5.025   1.930   1.173
 4624SOL    HW114771   5.030   1.914   1.272
 4624SOL    HW214772   5.030   1.843   1.125
 4625SOL     OW14773   1.462   6.935   1.839
 4625SOL    HW114774   1.514   6.880   1.774
 4625SOL    HW214775   1.430   7.018   1.794
 4626SOL     OW14776   4.161   3.288   1.919
 4626SOL    HW114777   4.247   3.281   1.969
 4626SOL    HW214778   4.177   3.275   1.822
 4627SOL     OW14779   5.871   0.139   5.060
 4627SOL    HW114780   5.955   0.186   5.086
 4627SOL    HW214781   5.814   0.124   5.140
 4628SOL     OW14782   6.712   4.566   2.759
 4628SOL    HW114783   6.677   4.658   2.778
 4628SOL    HW214784   6.657   4.499   2.809
 4629SOL     OW14785   1.777   5.512   0.432
 4629SOL    HW114786   1.854   5.450   0.447
 4629SOL    HW214787   1.694   5.470   0.468
 4630SOL     OW14788   1.806   3.941   1.437
 4630SOL    HW114789   1.744   3.870   1.470
 4630SOL    HW214790   1.838   3.918   1.345
 4631SOL     OW14791   6.200   1.404   2.682
 4631SOL    HW114792   6.142   1.470   2.730
 4631SOL    HW214793   6.170   1.397   2.587
 4632SOL     OW14794   2.627   4.859   3.840
 4632SOL    HW114795   2.701   4.818   3.895
 4632SOL    HW214796   2.540   4.820   3.868
 4633SOL     OW14797   5.777   3.083   4.032
 4633SOL    HW114798   5.761   3.002   3.975
 4633SOL    HW214799   5.693   3.135   4.039
 4634SOL     OW14800   3.557   3.069   4.420
 4634SOL    HW114801   3.653   3.095   4.421
 4634SOL    HW214802   3.528   3.049   4.326
 4635SOL     OW14803   4.431   6.508   2.237
 4635SOL    HW114804   4.337   6.499   2.271
 4635SOL    HW214805   4.495   6.482   2.308
 4636SOL     OW14806   1.365   6.056   6.359
 4636SOL    HW114807   1.289   6.092   6.412
 4636SOL    HW214808   1.451   6.077   6.405
 4637SOL     OW14809   2.267   2.273   3.147
 4637SOL    HW114810   2.233   2.312   3.061
 4637SOL    HW214811   2.359   2.307   3.165
 4638SOL     OW14812   3.747   4.561   0.947
 4638SOL    HW114813   3.762   4.462   0.944
 4638SOL    HW214814   3.653   4.581   0.918
 4639SOL     OW14815   4.117   2.009   2.274
 4639SOL    HW114816   4.089   2.016   2.179
 4639SOL    HW214817   4.037   2.002   2.333
 4640SOL     OW14818   6.380   2.607   1.110
 4640SOL    HW114819   6.285   2.584   1.092
 4640SOL    HW214820   6.386   2.701   1.143
 4641SOL     OW14821   1.071   5.869   4.682
 4641SOL    HW114822   1.165   5.844   4.705
 4641SOL    HW214823   1.045   5.952   4.731
 4642SOL     OW14824   6.199   1.233   5.835
 4642SOL    HW114825   6.160   1.227   5.743
 4642SOL    HW214826   6.292   1.197   5.834
 4643SOL     OW14827   0.663   1.659   0.490
 4643SOL    HW114828   0.716   1.619   0.415
 4643SOL    HW214829   0.580   1.606   0.504
 4644SOL     OW14830   1.067   0.924   1.005
 4644SOL    HW114831   0.982   0.874   1.023
 4644SOL    HW214832   1.077   0.998   1.071
 4645SOL     OW14833   5.976   2.310   4.797
 4645SOL    HW114834   6.002   2.243   4.867
 4645SOL    HW214835   5.997   2.274   4.707
 4646SOL     OW14836   1.331   4.405   2.481
 4646SOL    HW114837   1.396   4.377   2.411
 4646SOL    HW214838   1.368   4.483   2.532
 4647SOL     OW14839   1.931   6.872   2.335
 4647SOL    HW114840   1.908   6.938   2.407
 4647SOL    HW214841   1.981   6.919   2.262
 4648SOL     OW14842   2.962   1.043   4.414
 4648SOL    HW114843   2.925   0.950   4.416
 4648SOL    HW214844   3.040   1.046   4.351
 4649SOL     OW14845   5.205   1.640   0.621
 4649SOL    HW114846   5.117   1.688   0.625
 4649SOL    HW214847   5.193   1.552   0.577
 4650SOL     OW14848   4.028   5.364   1.113
 4650SOL    HW114849   4.087   5.286   1.092
 4650SOL    HW214850   3.932   5.337   1.104
 4651SOL     OW14851   0.472   3.993   6.920
 4651SOL    HW114852   0.375   3.973   6.911
 4651SOL    HW214853   0.522   3.947   6.846
 4652SOL     OW14854   6.778   0.350   5.396
 4652SOL    HW114855   6.829   0.374   5.314
 4652SOL    HW214856   6.794   0.254   5.418
 4653SOL     OW14857   6.536   5.843   0.562
 4653SOL    HW114858   6.500   5.891   0.482
 4653SOL    HW214859   6.479   5.863   0.641
 4654SOL     OW14860   0.586   1.182   5.798
 4654SOL    HW114861   0.596   1.094   5.844
 4654SOL    HW214862   0.548   1.168   5.707
 4655SOL     OW14863   4.836   4.184   2.770
 4655SOL    HW114864   4.908   4.155   2.707
 4655SOL    HW214865   4.876   4.212   2.857
 4656SOL     OW14866   5.274   0.813   1.618
 4656SOL    HW114867   5.227   0.813   1.706
 4656SOL    HW214868   5.224   0.755   1.554
 4657SOL     OW14869   3.761   1.414   2.725
 4657SOL    HW114870   3.818   1.436   2.646
 4657SOL    HW214871   3.668   1.448   2.709
 4658SOL     OW14872   1.480   1.697   6.649
 4658SOL    HW114873   1.565   1.732   6.611
 4658SOL    HW214874   1.486   1.698   6.749
 4659SOL     OW14875   2.178   4.189   0.605
 4659SOL    HW114876   2.245   4.161   0.536
 4659SOL    HW214877   2.120   4.261   0.568
 4660SOL     OW14878   0.079   4.793   4.271
 4660SOL    HW114879   0.132   4.860   4.323
 4660SOL    HW214880   0.001   4.839   4.228
 4661SOL     OW14881   0.786   1.383   5.820
 4661SOL    HW114882   0.703   1.327   5.820
 4661SOL    HW214883   0.860   1.334   5.867
 4662SOL     OW14884   2.905   0.509   5.874
 4662SOL    HW114885   2.858   0.477   5.792
 4662SOL    HW214886   3.003   0.490   5.865
 4663SOL     OW14887   0.511   0.107   0.221
 4663SOL    HW114888   0.463   0.026   0.189
 4663SOL    HW214889   0.585   0.080   0.282
 4664SOL     OW14890   5.972   6.285   6.185
 4664SOL    HW114891   5.911   6.349   6.232
 4664SOL    HW214892   6.047   6.259   6.245
 4665SOL     OW14893   6.889   0.675   2.866
 4665SOL    HW114894   6.815   0.711   2.810
 4665SOL    HW214895   6.921   0.746   2.929
 4666SOL     OW14896   1.655   2.822   5.818
 4666SOL    HW114897   1.610   2.753   5.762
 4666SOL    HW214898   1.655   2.793   5.914
 4667SOL     OW14899   6.393   2.873   1.147
 4667SOL    HW114900   6.454   2.952   1.142
 4667SOL    HW214901   6.347   2.872   1.236
 4668SOL     OW14902   4.332   1.837   4.954
 4668SOL    HW114903   4.269   1.803   5.025
 4668SOL    HW214904   4.426   1.829   4.987
 4669SOL     OW14905   5.164   6.865   6.192
 4669SOL    HW114906   5.189   6.961   6.190
 4669SOL    HW214907   5.247   6.808   6.187
 4670SOL     OW14908   0.015   3.408   6.547
 4670SOL    HW114909   6.973   3.405   6.616
 4670SOL    HW214910   7.011   3.455   6.465
 4671SOL     OW14911   7.021   2.776   2.271
 4671SOL    HW114912   0.056   2.746   2.202
 4671SOL    HW214913   6.936   2.805   2.226
 4672SOL     OW14914   3.106   3.703   6.810
 4672SOL    HW114915   3.126   3.619   6.861
 4672SOL    HW214916   3.032   3.753   6.855
 4673SOL     OW14917   5.568   0.933   0.950
 4673SOL    HW114918   5.524   0.979   1.027
 4673SOL    HW214919   5.647   0.987   0.920
 4674SOL     OW14920   1.057   2.888   0.782
 4674SOL    HW114921   1.146   2.847   0.801
 4674SOL    HW214922   0.993   2.866   0.856
 4675SOL     OW14923   1.813   6.039   6.315
 4675SOL    HW114924   1.870   5.969   6.358
 4675SOL    HW214925   1.735   6.058   6.374
 4676SOL     OW14926   0.677   5.547   4.506
 4676SOL    HW114927   0.690   5.624   4.569
 4676SOL    HW214928   0.665   5.463   4.559
 4677SOL     OW14929   3.926   6.879   0.075
 4677SOL    HW114930   3.967   6.957   0.123
 4677SOL    HW214931   3.828   6.875   0.095
 4678SOL     OW14932   2.289   4.605   6.931
 4678SOL    HW114933   2.342   4.582   6.850
 4678SOL    HW214934   2.303   4.535   7.001
 4679SOL     OW14935   2.359   6.644   5.340
 4679SOL    HW114936   2.448   6.635   5.385
 4679SOL    HW214937   2.338   6.560   5.290
 4680SOL     OW14938   0.792   4.958   0.268
 4680SOL    HW114939   0.707   4.923   0.305
 4680SOL    HW214940   0.791   4.951   0.168
 4681SOL     OW14941   6.407   5.939   4.726
 4681SOL    HW114942   6.365   5.888   4.800
 4681SOL    HW214943   6.492   5.894   4.699
 4682SOL     OW14944   2.458   0.358   0.461
 4682SOL    HW114945   2.510   0.413   0.395
 4682SOL    HW214946   2.465   0.261   0.436
 4683SOL     OW14947   0.898   4.742   3.066
 4683SOL    HW114948   0.840   4.806   3.117
 4683SOL    HW214949   0.937   4.789   2.987
 4684SOL     OW14950   1.713   1.103   4.996
 4684SOL    HW114951   1.774   1.028   5.021
 4684SOL    HW214952   1.636   1.068   4.944
 4685SOL     OW14953   5.096   4.796   4.719
 4685SOL    HW114954   5.189   4.775   4.748
 4685SOL    HW214955   5.093   4.888   4.680
 4686SOL     OW14956   4.661   5.733   0.005
 4686SOL    HW114957   4.656   5.635   7.016
 4686SOL    HW214958   4.592   5.756   0.075
 4687SOL     OW14959   4.763   6.578   4.369
 4687SOL    HW114960   4.728   6.539   4.454
 4687SOL    HW214961   4.694   6.637   4.328
 4688SOL     OW14962   0.203   1.807   0.337
 4688SOL    HW114963   0.147   1.867   0.396
 4688SOL    HW214964   0.150   1.782   0.256
 4689SOL     OW14965   1.666   5.320   4.829
 4689SOL    HW114966   1.612   5.349   4.750
 4689SOL    HW214967   1.644   5.225   4.851
 4690SOL     OW14968   2.399   1.819   0.775
 4690SOL    HW114969   2.383   1.730   0.732
 4690SOL    HW214970   2.355   1.891   0.722
 4691SOL     OW14971   3.337   4.353   0.202
 4691SOL    HW114972   3.406   4.288   0.233
 4691SOL    HW214973   3.377   4.418   0.139
 4692SOL     OW14974   0.861   5.803   3.676
 4692SOL    HW114975   0.775   5.783   3.629
 4692SOL    HW214976   0.893   5.894   3.652
 4693SOL     OW14977   0.974   0.787   2.500
 4693SOL    HW114978   0.886   0.765   2.456
 4693SOL    HW214979   1.038   0.711   2.486
 4694SOL     OW14980   1.075   0.698   5.642
 4694SOL    HW114981   1.148   0.760   5.669
 4694SOL    HW214982   1.090   0.668   5.548
 4695SOL     OW14983   3.198   2.969   2.472
 4695SOL    HW114984   3.131   3.035   2.437
 4695SOL    HW214985   3.171   2.939   2.563
 4696SOL     OW14986   6.315   3.292   0.840
 4696SOL    HW114987   6.359   3.299   0.930
 4696SOL    HW214988   6.240   3.227   0.845
 4697SOL     OW14989   1.087   5.894   6.769
 4697SOL    HW114990   1.009   5.892   6.832
 4697SOL    HW214991   1.141   5.811   6.780
 4698SOL     OW14992   6.257   3.307   2.444
 4698SOL    HW114993   6.262   3.407   2.445
 4698SOL    HW214994   6.183   3.277   2.503
 4699SOL     OW14995   6.901   6.235   3.215
 4699SOL    HW114996   6.956   6.186   3.282
 4699SOL    HW214997   6.939   6.220   3.123
 4700SOL     OW14998   5.047   6.473   0.383
 4700SOL    HW114999   5.020   6.568   0.399
 4700SOL    HW215000   5.147   6.468   0.374
 4701SOL     OW15001   1.173   0.513   6.909
 4701SOL    HW115002   1.254   0.491   6.854
 4701SOL    HW215003   1.094   0.463   6.873
 4702SOL     OW15004   2.448   3.653   0.307
 4702SOL    HW115005   2.529   3.613   0.265
 4702SOL    HW215006   2.371   3.647   0.243
 4703SOL     OW15007   0.758   0.549   2.196
 4703SOL    HW115008   0.787   0.629   2.143
 4703SOL    HW215009   0.767   0.467   2.139
 4704SOL     OW15010   4.678   7.026   6.771
 4704SOL    HW115011   4.674   0.096   6.771
 4704SOL    HW215012   4.755   6.996   6.828
 4705SOL     OW15013   3.990   3.673   4.251
 4705SOL    HW115014   3.977   3.762   4.295
 4705SOL    HW215015   3.993   3.685   4.152
 4706SOL     OW15016   5.261   4.665   0.027
 4706SOL    HW115017   5.221   4.579   7.025
 4706SOL    HW215018   5.304   4.713   6.980
 4707SOL     OW15019   2.824   5.409   1.267
 4707SOL    HW115020   2.828   5.452   1.177
 4707SOL    HW215021   2.862   5.471   1.335
 4708SOL     OW15022   1.367   3.263   2.363
 4708SOL    HW115023   1.402   3.175   2.330
 4708SOL    HW215024   1.393   3.335   2.299
 4709SOL     OW15025   2.694   4.479   0.610
 4709SOL    HW115026   2.597   4.466   0.629
 4709SOL    HW215027   2.734   4.393   0.579
 4710SOL     OW15028   5.302   3.055   1.222
 4710SOL    HW115029   5.285   3.101   1.135
 4710SOL    HW215030   5.215   3.026   1.262
 4711SOL     OW15031   2.789   6.894   3.279
 4711SOL    HW115032   2.738   6.907   3.364
 4711SOL    HW215033   2.730   6.852   3.211
 4712SOL     OW15034   1.816   4.065   6.682
 4712SOL    HW115035   1.813   3.968   6.708
 4712SOL    HW215036   1.900   4.083   6.631
 4713SOL     OW15037   1.805   5.624   0.695
 4713SOL    HW115038   1.774   5.714   0.724
 4713SOL    HW215039   1.802   5.617   0.595
 4714SOL     OW15040   3.801   2.543   1.294
 4714SOL    HW115041   3.730   2.473   1.294
 4714SOL    HW215042   3.772   2.619   1.236
 4715SOL     OW15043   4.918   3.844   4.805
 4715SOL    HW115044   4.884   3.938   4.807
 4715SOL    HW215045   4.880   3.794   4.883
 4716SOL     OW15046   2.802   5.268   6.759
 4716SOL    HW115047   2.765   5.339   6.700
 4716SOL    HW215048   2.850   5.200   6.704
 4717SOL     OW15049   2.254   5.202   4.292
 4717SOL    HW115050   2.204   5.240   4.370
 4717SOL    HW215051   2.330   5.146   4.325
 4718SOL     OW15052   5.301   0.961   0.022
 4718SOL    HW115053   5.276   0.917   0.108
 4718SOL    HW215054   5.400   0.954   0.009
 4719SOL     OW15055   4.462   2.833   1.742
 4719SOL    HW115056   4.378   2.868   1.702
 4719SOL    HW215057   4.516   2.909   1.778
 4720SOL     OW15058   3.114   1.295   3.392
 4720SOL    HW115059   3.064   1.210   3.408
 4720SOL    HW215060   3.065   1.372   3.433
 4721SOL     OW15061   1.584   1.626   1.290
 4721SOL    HW115062   1.619   1.719   1.296
 4721SOL    HW215063   1.484   1.628   1.284
 4722SOL     OW15064   3.338   0.259   2.409
 4722SOL    HW115065   3.425   0.213   2.393
 4722SOL    HW215066   3.267   0.217   2.353
 4723SOL     OW15067   3.121   0.093   5.206
 4723SOL    HW115068   3.032   0.086   5.251
 4723SOL    HW215069   3.184   0.027   5.247
 4724SOL     OW15070   4.818   4.757   1.203
 4724SOL    HW115071   4.795   4.831   1.266
 4724SOL    HW215072   4.748   4.685   1.210
 4725SOL     OW15073   6.445   5.736   2.607
 4725SOL    HW115074   6.408   5.716   2.517
 4725SOL    HW215075   6.523   5.676   2.625
 4726SOL     OW15076   6.975   6.815   4.705
 4726SOL    HW115077   7.030   6.747   4.655
 4726SOL    HW215078   7.006   6.818   4.800
 4727SOL     OW15079   6.411   6.532   1.188
 4727SOL    HW115080   6.487   6.472   1.210
 4727SOL    HW215081   6.398   6.533   1.088
 4728SOL     OW15082   6.332   0.779   0.051
 4728SOL    HW115083   6.263   0.844   0.083
 4728SOL    HW215084   6.402   0.769   0.121
 4729SOL     OW15085   2.880   0.811   0.891
 4729SOL    HW115086   2.814   0.815   0.816
 4729SOL    HW215087   2.914   0.903   0.911
 4730SOL     OW15088   1.996   0.532   5.746
 4730SOL    HW115089   2.014   0.622   5.785
 4730SOL    HW215090   2.069   0.509   5.681
 4731SOL     OW15091   4.944   1.820   6.716
 4731SOL    HW115092   5.013   1.893   6.713
 4731SOL    HW215093   4.959   1.759   6.638
 4732SOL     OW15094   0.425   0.699   6.997
 4732SOL    HW115095   0.516   0.668   7.025
 4732SOL    HW215096   0.416   0.797   7.016
 4733SOL     OW15097   6.979   3.464   3.675
 4733SOL    HW115098   6.936   3.377   3.651
 4733SOL    HW215099   6.930   3.506   3.750
 4734SOL     OW15100   5.725   4.556   5.522
 4734SOL    HW115101   5.761   4.496   5.593
 4734SOL    HW215102   5.631   4.582   5.545
 4735SOL     OW15103   0.238   4.116   3.754
 4735SOL    HW115104   0.156   4.058   3.757
 4735SOL    HW215105   0.280   4.110   3.664
 4736SOL     OW15106   1.697   0.237   1.445
 4736SOL    HW115107   1.741   0.326   1.427
 4736SOL    HW215108   1.732   0.199   1.530
 4737SOL     OW15109   3.292   5.079   1.799
 4737SOL    HW115110   3.283   5.179   1.804
 4737SOL    HW215111   3.237   5.045   1.723
 4738SOL     OW15112   0.285   6.210   2.479
 4738SOL    HW115113   0.252   6.227   2.386
 4738SOL    HW215114   0.339   6.126   2.480
 4739SOL     OW15115   4.213   6.685   1.502
 4739SOL    HW115116   4.134   6.727   1.546
 4739SOL    HW215117   4.182   6.623   1.429
 4740SOL     OW15118   0.509   2.270   4.044
 4740SOL    HW115119   0.490   2.367   4.037
 4740SOL    HW215120   0.515   2.243   4.141
 4741SOL     OW15121   3.877   3.787   1.880
 4741SOL    HW115122   3.858   3.697   1.842
 4741SOL    HW215123   3.961   3.783   1.935
 4742SOL     OW15124   4.658   0.609   1.221
 4742SOL    HW115125   4.612   0.522   1.202
 4742SOL    HW215126   4.591   0.676   1.252
 4743SOL     OW15127   1.665   6.090   0.877
 4743SOL    HW115128   1.566   6.074   0.885
 4743SOL    HW215129   1.680   6.175   0.826
 4744SOL     OW15130   1.745   6.204   1.526
 4744SOL    HW115131   1.739   6.134   1.455
 4744SOL    HW215132   1.819   6.182   1.589
 4745SOL     OW15133   1.615   3.345   0.530
 4745SOL    HW115134   1.532   3.289   0.535
 4745SOL    HW215135   1.652   3.358   0.621
 4746SOL     OW15136   4.973   5.481   4.380
 4746SOL    HW115137   5.020   5.396   4.403
 4746SOL    HW215138   4.990   5.504   4.284
 4747SOL     OW15139   3.670   0.612   7.010
 4747SOL    HW115140   3.611   0.534   6.990
 4747SOL    HW215141   3.743   0.584   0.043
 4748SOL     OW15142   2.129   0.163   2.465
 4748SOL    HW115143   2.106   0.155   2.368
 4748SOL    HW215144   2.173   0.079   2.496
 4749SOL     OW15145   2.138   1.381   1.001
 4749SOL    HW115146   2.100   1.354   0.912
 4749SOL    HW215147   2.237   1.367   1.000
 4750SOL     OW15148   4.571   3.317   6.395
 4750SOL    HW115149   4.488   3.276   6.359
 4750SOL    HW215150   4.610   3.380   6.328
 4751SOL     OW15151   4.420   0.977   2.389
 4751SOL    HW115152   4.416   1.003   2.293
 4751SOL    HW215153   4.513   0.951   2.413
 4752SOL     OW15154   5.852   1.463   6.796
 4752SOL    HW115155   5.773   1.435   6.741
 4752SOL    HW215156   5.820   1.493   6.886
 4753SOL     OW15157   2.350   6.453   4.974
 4753SOL    HW115158   2.372   6.426   5.067
 4753SOL    HW215159   2.352   6.552   4.966
 4754SOL     OW15160   5.034   4.383   0.187
 4754SOL    HW115161   5.105   4.434   0.235
 4754SOL    HW215162   4.947   4.431   0.196
 4755SOL     OW15163   1.024   1.382   0.975
 4755SOL    HW115164   1.098   1.319   0.952
 4755SOL    HW215165   0.973   1.405   0.892
 4756SOL     OW15166   6.838   3.738   5.486
 4756SOL    HW115167   6.928   3.714   5.522
 4756SOL    HW215168   6.771   3.735   5.561
 4757SOL     OW15169   1.810   3.217   0.364
 4757SOL    HW115170   1.891   3.274   0.353
 4757SOL    HW215171   1.743   3.264   0.422
 4758SOL     OW15172   2.611   5.108   2.677
 4758SOL    HW115173   2.563   5.110   2.590
 4758SOL    HW215174   2.705   5.142   2.664
 4759SOL     OW15175   0.773   6.090   2.548
 4759SOL    HW115176   0.761   6.153   2.624
 4759SOL    HW215177   0.776   6.141   2.462
 4760SOL     OW15178   1.874   6.567   1.326
 4760SOL    HW115179   1.892   6.655   1.370
 4760SOL    HW215180   1.815   6.512   1.385
 4761SOL     OW15181   4.976   6.510   1.779
 4761SOL    HW115182   4.906   6.502   1.708
 4761SOL    HW215183   5.050   6.569   1.746
 4762SOL     OW15184   1.317   0.569   2.982
 4762SOL    HW115185   1.365   0.651   2.950
 4762SOL    HW215186   1.220   0.578   2.962
 4763SOL     OW15187   5.542   5.129   2.180
 4763SOL    HW115188   5.523   5.032   2.163
 4763SOL    HW215189   5.566   5.142   2.276
 4764SOL     OW15190   4.767   2.867   6.829
 4764SOL    HW115191   4.759   2.932   6.905
 4764SOL    HW215192   4.847   2.808   6.844
 4765SOL     OW15193   4.192   2.014   6.153
 4765SOL    HW115194   4.271   2.029   6.093
 4765SOL    HW215195   4.108   2.029   6.102
 4766SOL     OW15196   1.014   0.921   4.722
 4766SOL    HW115197   1.091   0.864   4.751
 4766SOL    HW215198   1.029   0.951   4.628
 4767SOL     OW15199   2.082   4.666   3.692
 4767SOL    HW115200   2.013   4.720   3.644
 4767SOL    HW215201   2.171   4.710   3.683
 4768SOL     OW15202   4.597   2.141   6.267
 4768SOL    HW115203   4.642   2.229   6.279
 4768SOL    HW215204   4.512   2.140   6.321
 4769SOL     OW15205   1.882   2.951   1.007
 4769SOL    HW115206   1.891   2.921   0.912
 4769SOL    HW215207   1.835   2.881   1.060
 4770SOL     OW15208   6.837   1.545   3.123
 4770SOL    HW115209   6.918   1.542   3.066
 4770SOL    HW215210   6.812   1.640   3.142
 4771SOL     OW15211   2.353   0.296   4.158
 4771SOL    HW115212   2.314   0.258   4.242
 4771SOL    HW215213   2.329   0.393   4.151
 4772SOL     OW15214   2.476   4.559   3.178
 4772SOL    HW115215   2.548   4.575   3.246
 4772SOL    HW215216   2.517   4.548   3.088
 4773SOL     OW15217   2.794   5.290   4.891
 4773SOL    HW115218   2.854   5.367   4.910
 4773SOL    HW215219   2.769   5.291   4.794
 4774SOL     OW15220   0.869   4.340   0.780
 4774SOL    HW115221   0.846   4.251   0.820
 4774SOL    HW215222   0.858   4.412   0.848
 4775SOL     OW15223   5.605   5.396   4.797
 4775SOL    HW115224   5.684   5.452   4.772
 4775SOL    HW215225   5.635   5.321   4.856
 4776SOL     OW15226   6.968   1.868   5.071
 4776SOL    HW115227   0.022   1.877   5.125
 4776SOL    HW215228   6.937   1.773   5.073
 4777SOL     OW15229   1.536   6.793   3.147
 4777SOL    HW115230   1.465   6.752   3.205
 4777SOL    HW215231   1.498   6.875   3.103
 4778SOL     OW15232   1.976   0.209   6.852
 4778SOL    HW115233   2.049   0.183   6.915
 4778SOL    HW215234   1.998   0.178   6.760
 4779SOL     OW15235   4.825   1.031   4.671
 4779SOL    HW115236   4.778   0.966   4.611
 4779SOL    HW215237   4.833   1.120   4.625
 4780SOL     OW15238   4.767   2.947   4.494
 4780SOL    HW115239   4.779   2.889   4.413
 4780SOL    HW215240   4.697   3.016   4.477
 4781SOL     OW15241   1.702   5.505   1.821
 4781SOL    HW115242   1.787   5.452   1.823
 4781SOL    HW215243   1.722   5.601   1.842
 4782SOL     OW15244   1.205   6.156   3.255
 4782SOL    HW115245   1.225   6.224   3.184
 4782SOL    HW215246   1.283   6.149   3.317
 4783SOL     OW15247   0.593   3.380   6.425
 4783SOL    HW115248   0.543   3.315   6.368
 4783SOL    HW215249   0.623   3.457   6.369
 4784SOL     OW15250   5.459   2.799   0.178
 4784SOL    HW115251   5.421   2.827   0.090
 4784SOL    HW215252   5.402   2.835   0.252
 4785SOL     OW15253   0.591   7.021   4.124
 4785SOL    HW115254   0.495   0.020   4.119
 4785SOL    HW215255   0.618   6.979   4.037
 4786SOL     OW15256   1.106   5.537   0.534
 4786SOL    HW115257   1.078   5.602   0.463
 4786SOL    HW215258   1.139   5.453   0.491
 4787SOL     OW15259   5.058   1.118   5.030
 4787SOL    HW115260   5.039   1.208   4.992
 4787SOL    HW215261   5.120   1.127   5.108
 4788SOL     OW15262   6.646   5.511   1.153
 4788SOL    HW115263   6.737   5.475   1.176
 4788SOL    HW215264   6.589   5.437   1.118
 4789SOL     OW15265   6.256   0.734   2.984
 4789SOL    HW115266   6.331   0.797   3.007
 4789SOL    HW215267   6.169   0.776   3.007
 4790SOL     OW15268   6.874   2.082   4.778
 4790SOL    HW115269   6.967   2.047   4.773
 4790SOL    HW215270   6.875   2.177   4.807
 4791SOL     OW15271   0.538   0.556   6.590
 4791SOL    HW115272   0.479   0.487   6.546
 4791SOL    HW215273   0.569   0.621   6.521
 4792SOL     OW15274   0.663   3.817   1.691
 4792SOL    HW115275   0.740   3.771   1.735
 4792SOL    HW215276   0.655   3.784   1.597
 4793SOL     OW15277   0.811   3.846   5.180
 4793SOL    HW115278   0.848   3.899   5.257
 4793SOL    HW215279   0.738   3.897   5.136
 4794SOL     OW15280   4.960   1.610   6.020
 4794SOL    HW115281   4.887   1.635   5.957
 4794SOL    HW215282   5.035   1.675   6.012
 4795SOL     OW15283   0.094   1.154   6.622
 4795SOL    HW115284   0.125   1.142   6.528
 4795SOL    HW215285   0.080   1.064   6.664
 4796SOL     OW15286   5.329   0.957   5.906
 4796SOL    HW115287   5.279   1.039   5.932
 4796SOL    HW215288   5.266   0.893   5.860
 4797SOL     OW15289   2.516   5.424   5.584
 4797SOL    HW115290   2.589   5.362   5.554
 4797SOL    HW215291   2.433   5.406   5.531
 4798SOL     OW15292   2.981   6.263   0.371
 4798SOL    HW115293   2.890   6.285   0.335
 4798SOL    HW215294   3.036   6.220   0.299
 4799SOL     OW15295   3.296   3.086   0.448
 4799SOL    HW115296   3.282   3.047   0.357
 4799SOL    HW215297   3.377   3.144   0.447
 4800SOL     OW15298   1.065   4.790   0.277
 4800SOL    HW115299   1.124   4.869   0.295
 4800SOL    HW215300   0.969   4.820   0.275
 4801SOL     OW15301   4.676   2.430   3.165
 4801SOL    HW115302   4.641   2.458   3.075
 4801SOL    HW215303   4.700   2.333   3.163
 4802SOL     OW15304   6.999   0.840   4.869
 4802SOL    HW115305   7.002   0.863   4.967
 4802SOL    HW215306   0.009   0.750   4.855
 4803SOL     OW15307   4.874   4.028   5.695
 4803SOL    HW115308   4.795   3.984   5.653
 4803SOL    HW215309   4.948   4.035   5.628
 4804SOL     OW15310   5.149   2.461   0.697
 4804SOL    HW115311   5.101   2.375   0.717
 4804SOL    HW215312   5.247   2.444   0.691
 4805SOL     OW15313   5.579   1.276   6.395
 4805SOL    HW115314   5.658   1.283   6.334
 4805SOL    HW215315   5.538   1.367   6.406
 4806SOL     OW15316   1.005   2.503   3.472
 4806SOL    HW115317   0.998   2.526   3.569
 4806SOL    HW215318   1.091   2.540   3.435
 4807SOL     OW15319   0.344   4.329   6.858
 4807SOL    HW115320   0.311   4.276   6.935
 4807SOL    HW215321   0.274   4.396   6.831
 4808SOL     OW15322   3.719   5.928   2.668
 4808SOL    HW115323   3.763   5.887   2.748
 4808SOL    HW215324   3.769   5.900   2.586
 4809SOL     OW15325   2.813   3.732   1.223
 4809SOL    HW115326   2.770   3.732   1.313
 4809SOL    HW215327   2.777   3.657   1.168
 4810SOL     OW15328   1.651   5.523   4.459
 4810SOL    HW115329   1.608   5.514   4.369
 4810SOL    HW215330   1.628   5.443   4.515
 4811SOL     OW15331   3.368   3.248   4.445
 4811SOL    HW115332   3.424   3.166   4.448
 4811SOL    HW215333   3.277   3.225   4.411
 4812SOL     OW15334   2.290   6.446   2.319
 4812SOL    HW115335   2.212   6.509   2.322
 4812SOL    HW215336   2.310   6.413   2.411
 4813SOL     OW15337   0.573   2.767   4.609
 4813SOL    HW115338   0.650   2.721   4.564
 4813SOL    HW215339   0.557   2.727   4.699
 4814SOL     OW15340   6.465   2.441   0.886
 4814SOL    HW115341   6.380   2.388   0.880
 4814SOL    HW215342   6.472   2.482   0.977
 4815SOL     OW15343   6.346   4.069   2.050
 4815SOL    HW115344   6.323   4.149   2.105
 4815SOL    HW215345   6.263   4.016   2.032
 4816SOL     OW15346   2.704   0.520   2.517
 4816SOL    HW115347   2.648   0.438   2.530
 4816SOL    HW215348   2.697   0.551   2.423
 4817SOL     OW15349   3.933   2.571   0.451
 4817SOL    HW115350   3.990   2.634   0.504
 4817SOL    HW215351   3.964   2.477   0.466
 4818SOL     OW15352   4.742   6.283   4.764
 4818SOL    HW115353   4.757   6.202   4.707
 4818SOL    HW215354   4.651   6.279   4.805
 4819SOL     OW15355   2.985   1.151   0.244
 4819SOL    HW115356   2.986   1.231   0.184
 4819SOL    HW215357   2.891   1.129   0.269
 4820SOL     OW15358   6.633   4.299   1.834
 4820SOL    HW115359   6.540   4.289   1.796
 4820SOL    HW215360   6.697   4.315   1.759
 4821SOL     OW15361   0.076   5.820   1.512
 4821SOL    HW115362   0.161   5.865   1.487
 4821SOL    HW215363   0.068   5.815   1.612
 4822SOL     OW15364   0.589   3.610   1.105
 4822SOL    HW115365   0.534   3.682   1.065
 4822SOL    HW215366   0.686   3.633   1.098
 4823SOL     OW15367   0.446   1.491   3.172
 4823SOL    HW115368   0.419   1.422   3.104
 4823SOL    HW215369   0.365   1.519   3.224
 4824SOL     OW15370   5.327   1.412   2.619
 4824SOL    HW115371   5.401   1.349   2.643
 4824SOL    HW215372   5.358   1.474   2.547
 4825SOL     OW15373   1.015   3.272   4.344
 4825SOL    HW115374   0.940   3.254   4.408
 4825SOL    HW215375   1.049   3.365   4.359
 4826SOL     OW15376   6.697   0.001   0.204
 4826SOL    HW115377   6.697   0.024   0.302
 4826SOL    HW215378   6.763   0.059   0.157
 4827SOL     OW15379   5.086   1.781   0.008
 4827SOL    HW115380   5.053   1.874   7.027
 4827SOL    HW215381   5.026   1.718   6.989
 4828SOL     OW15382   5.071   3.433   6.464
 4828SOL    HW115383   5.050   3.524   6.429
 4828SOL    HW215384   5.013   3.414   6.544
 4829SOL     OW15385   3.426   0.462   5.289
 4829SOL    HW115386   3.402   0.426   5.379
 4829SOL    HW215387   3.473   0.550   5.300
 4830SOL     OW15388   4.639   5.269   4.869
 4830SOL    HW115389   4.638   5.367   4.852
 4830SOL    HW215390   4.696   5.249   4.949
 4831SOL     OW15391   5.888   2.178   6.497
 4831SOL    HW115392   5.871   2.274   6.473
 4831SOL    HW215393   5.944   2.174   6.580
 4832SOL     OW15394   1.452   2.878   6.415
 4832SOL    HW115395   1.411   2.933   6.488
 4832SOL    HW215396   1.469   2.937   6.336
 4833SOL     OW15397   6.509   1.917   3.311
 4833SOL    HW115398   6.452   1.846   3.271
 4833SOL    HW215399   6.560   1.963   3.238
 4834SOL     OW15400   6.176   0.256   2.924
 4834SOL    HW115401   6.166   0.329   2.991
 4834SOL    HW215402   6.268   0.217   2.932
 4835SOL     OW15403   1.576   1.505   6.176
 4835SOL    HW115404   1.575   1.520   6.275
 4835SOL    HW215405   1.579   1.407   6.156
 4836SOL     OW15406   5.623   2.987   2.412
 4836SOL    HW115407   5.707   2.939   2.385
 4836SOL    HW215408   5.635   3.085   2.398
 4837SOL     OW15409   0.712   4.966   1.209
 4837SOL    HW115410   0.731   5.063   1.194
 4837SOL    HW215411   0.773   4.912   1.151
 4838SOL     OW15412   2.221   6.091   2.695
 4838SOL    HW115413   2.278   6.053   2.768
 4838SOL    HW215414   2.141   6.135   2.735
 4839SOL     OW15415   0.847   0.316   6.358
 4839SOL    HW115416   0.784   0.267   6.299
 4839SOL    HW215417   0.929   0.261   6.374
 4840SOL     OW15418   6.638   5.957   5.946
 4840SOL    HW115419   6.541   5.971   5.965
 4840SOL    HW215420   6.669   5.872   5.989
 4841SOL     OW15421   1.986   6.199   0.840
 4841SOL    HW115422   1.911   6.236   0.786
 4841SOL    HW215423   1.964   6.206   0.937
 4842SOL     OW15424   3.109   6.815   1.258
 4842SOL    HW115425   3.148   6.894   1.211
 4842SOL    HW215426   3.047   6.767   1.196
 4843SOL     OW15427   1.440   3.497   6.885
 4843SOL    HW115428   1.395   3.490   6.973
 4843SOL    HW215429   1.429   3.589   6.848
 4844SOL     OW15430   1.322   1.440   5.224
 4844SOL    HW115431   1.348   1.345   5.211
 4844SOL    HW215432   1.234   1.457   5.179
 4845SOL     OW15433   5.967   5.902   3.886
 4845SOL    HW115434   5.999   5.956   3.808
 4845SOL    HW215435   5.931   5.815   3.854
 4846SOL     OW15436   0.369   5.426   6.423
 4846SOL    HW115437   0.284   5.424   6.370
 4846SOL    HW215438   0.348   5.447   6.519
 4847SOL     OW15439   4.683   2.768   4.680
 4847SOL    HW115440   4.692   2.687   4.622
 4847SOL    HW215441   4.702   2.850   4.626
 4848SOL     OW15442   2.600   2.943   1.728
 4848SOL    HW115443   2.689   2.946   1.681
 4848SOL    HW215444   2.555   3.032   1.718
 4849SOL     OW15445   2.237   6.934   5.819
 4849SOL    HW115446   2.315   6.886   5.780
 4849SOL    HW215447   2.152   6.897   5.781
 4850SOL     OW15448   3.698   6.938   3.512
 4850SOL    HW115449   3.790   6.944   3.472
 4850SOL    HW215450   3.692   6.856   3.569
 4851SOL     OW15451   4.585   1.409   5.655
 4851SOL    HW115452   4.549   1.323   5.618
 4851SOL    HW215453   4.662   1.439   5.599
 4852SOL     OW15454   2.053   1.771   1.731
 4852SOL    HW115455   2.067   1.677   1.698
 4852SOL    HW215456   2.012   1.769   1.822
 4853SOL     OW15457   3.689   1.538   2.275
 4853SOL    HW115458   3.779   1.507   2.245
 4853SOL    HW215459   3.682   1.637   2.265
 4854SOL     OW15460   3.634   0.117   6.663
 4854SOL    HW115461   3.543   0.158   6.659
 4854SOL    HW215462   3.643   0.063   6.746
 4855SOL     OW15463   6.967   2.513   2.637
 4855SOL    HW115464   7.026   2.549   2.710
 4855SOL    HW215465   6.878   2.490   2.674
 4856SOL     OW15466   0.720   4.298   1.973
 4856SOL    HW115467   0.659   4.352   1.915
 4856SOL    HW215468   0.692   4.307   2.069
 4857SOL     OW15469   0.345   1.032   5.889
 4857SOL    HW115470   0.352   1.028   5.789
 4857SOL    HW215471   0.435   1.017   5.930
 4858SOL     OW15472   1.608   0.327   3.811
 4858SOL    HW115473   1.644   0.419   3.826
 4858SOL    HW215474   1.544   0.328   3.734
 4859SOL     OW15475   3.549   5.926   6.208
 4859SOL    HW115476   3.469   5.986   6.203
 4859SOL    HW215477   3.632   5.981   6.202
 4860SOL     OW15478   3.134   4.501   0.524
 4860SOL    HW115479   3.088   4.563   0.587
 4860SOL    HW215480   3.219   4.543   0.491
 4861SOL     OW15481   4.239   4.176   6.535
 4861SOL    HW115482   4.266   4.082   6.514
 4861SOL    HW215483   4.145   4.192   6.504
 4862SOL     OW15484   0.737   6.855   0.561
 4862SOL    HW115485   0.734   6.941   0.510
 4862SOL    HW215486   0.645   6.816   0.567
 4863SOL     OW15487   5.230   3.999   6.129
 4863SOL    HW115488   5.300   4.058   6.088
 4863SOL    HW215489   5.265   3.905   6.132
 4864SOL     OW15490   3.418   1.306   4.232
 4864SOL    HW115491   3.378   1.255   4.156
 4864SOL    HW215492   3.516   1.285   4.238
 4865SOL     OW15493   1.394   6.503   5.120
 4865SOL    HW115494   1.389   6.603   5.112
 4865SOL    HW215495   1.482   6.471   5.086
 4866SOL     OW15496   6.728   4.341   6.309
 4866SOL    HW115497   6.718   4.264   6.373
 4866SOL    HW215498   6.729   4.307   6.215
 4867SOL     OW15499   4.626   1.005   2.643
 4867SOL    HW115500   4.675   0.978   2.726
 4867SOL    HW215501   4.627   1.105   2.634
 4868SOL     OW15502   6.903   4.768   0.363
 4868SOL    HW115503   6.808   4.798   0.354
 4868SOL    HW215504   6.961   4.823   0.303
 4869SOL     OW15505   0.924   1.838   0.988
 4869SOL    HW115506   0.861   1.881   1.053
 4869SOL    HW215507   0.913   1.879   0.898
 4870SOL     OW15508   0.212   6.934   1.099
 4870SOL    HW115509   0.243   7.028   1.084
 4870SOL    HW215510   0.276   6.887   1.160
 4871SOL     OW15511   0.988   1.771   3.227
 4871SOL    HW115512   0.914   1.835   3.246
 4871SOL    HW215513   1.062   1.784   3.293
 4872SOL     OW15514   6.039   0.419   3.114
 4872SOL    HW115515   6.116   0.462   3.162
 4872SOL    HW215516   5.962   0.483   3.114
 4873SOL     OW15517   6.866   5.482   4.292
 4873SOL    HW115518   6.936   5.442   4.351
 4873SOL    HW215519   6.889   5.577   4.272
 4874SOL     OW15520   4.889   3.495   2.470
 4874SOL    HW115521   4.914   3.491   2.566
 4874SOL    HW215522   4.790   3.500   2.461
 4875SOL     OW15523   6.021   6.220   5.243
 4875SOL    HW115524   6.107   6.233   5.292
 4875SOL    HW215525   6.032   6.248   5.148
 4876SOL     OW15526   0.046   0.838   1.973
 4876SOL    HW115527   6.998   0.844   1.910
 4876SOL    HW215528   0.107   0.916   1.958
 4877SOL     OW15529   0.358   1.568   6.839
 4877SOL    HW115530   0.371   1.521   6.752
 4877SOL    HW215531   0.323   1.504   6.907
 4878SOL     OW15532   6.601   3.708   3.159
 4878SOL    HW115533   6.511   3.734   3.121
 4878SOL    HW215534   6.590   3.629   3.219
 4879SOL     OW15535   5.469   0.480   3.329
 4879SOL    HW115536   5.417   0.444   3.407
 4879SOL    HW215537   5.562   0.502   3.358
 4880SOL     OW15538   0.041   2.678   6.288
 4880SOL    HW115539   0.108   2.737   6.242
 4880SOL    HW215540   0.061   2.582   6.267
 4881SOL     OW15541   0.779   3.598   1.809
 4881SOL    HW115542   0.869   3.557   1.822
 4881SOL    HW215543   0.708   3.537   1.845
 4882SOL     OW15544   5.128   1.892   4.352
 4882SOL    HW115545   5.150   1.973   4.406
 4882SOL    HW215546   5.100   1.818   4.413
 4883SOL     OW15547   5.702   4.489   0.119
 4883SOL    HW115548   5.772   4.425   0.153
 4883SOL    HW215549   5.623   4.437   0.086
 4884SOL     OW15550   2.040   1.258   2.004
 4884SOL    HW115551   2.098   1.295   1.931
 4884SOL    HW215552   2.097   1.228   2.080
 4885SOL     OW15553   1.262   5.160   0.248
 4885SOL    HW115554   1.180   5.123   0.206
 4885SOL    HW215555   1.294   5.097   0.320
 4886SOL     OW15556   3.015   0.587   2.215
 4886SOL    HW115557   2.950   0.514   2.235
 4886SOL    HW215558   3.092   0.550   2.162
 4887SOL     OW15559   4.430   5.478   0.553
 4887SOL    HW115560   4.359   5.533   0.508
 4887SOL    HW215561   4.520   5.517   0.533
 4888SOL     OW15562   4.564   0.186   3.057
 4888SOL    HW115563   4.561   0.272   3.109
 4888SOL    HW215564   4.639   0.130   3.091
 4889SOL     OW15565   6.058   3.118   4.020
 4889SOL    HW115566   6.047   3.215   3.999
 4889SOL    HW215567   5.968   3.075   4.027
 4890SOL     OW15568   6.748   1.638   4.825
 4890SOL    HW115569   6.749   1.640   4.725
 4890SOL    HW215570   6.668   1.586   4.856
 4891SOL     OW15571   2.464   6.198   0.085
 4891SOL    HW115572   2.385   6.173   0.140
 4891SOL    HW215573   2.512   6.115   0.055
 4892SOL     OW15574   5.284   5.217   2.644
 4892SOL    HW115575   5.323   5.188   2.557
 4892SOL    HW215576   5.187   5.238   2.633
 4893SOL     OW15577   1.385   3.211   1.369
 4893SOL    HW115578   1.406   3.309   1.378
 4893SOL    HW215579   1.325   3.197   1.290
 4894SOL     OW15580   4.703   5.727   0.854
 4894SOL    HW115581   4.684   5.630   0.837
 4894SOL    HW215582   4.684   5.748   0.950
 4895SOL     OW15583   6.832   3.961   5.344
 4895SOL    HW115584   6.856   4.046   5.391
 4895SOL    HW215585   6.862   3.883   5.398
 4896SOL     OW15586   2.660   4.977   5.196
 4896SOL    HW115587   2.596   4.908   5.230
 4896SOL    HW215588   2.748   4.934   5.176
 4897SOL     OW15589   2.185   1.166   5.122
 4897SOL    HW115590   2.196   1.265   5.128
 4897SOL    HW215591   2.169   1.128   5.213
 4898SOL     OW15592   4.989   1.734   4.164
 4898SOL    HW115593   5.042   1.798   4.219
 4898SOL    HW215594   4.944   1.667   4.224
 4899SOL     OW15595   6.306   6.480   1.904
 4899SOL    HW115596   6.321   6.455   1.808
 4899SOL    HW215597   6.223   6.436   1.937
 4900SOL     OW15598   3.830   6.067   6.293
 4900SOL    HW115599   3.847   6.082   6.391
 4900SOL    HW215600   3.874   5.981   6.265
 4901SOL     OW15601   1.849   0.634   6.959
 4901SOL    HW115602   1.900   0.699   7.015
 4901SOL    HW215603   1.772   0.680   6.916
 4902SOL     OW15604   3.364   0.181   5.421
 4902SOL    HW115605   3.353   0.102   5.481
 4902SOL    HW215606   3.288   0.245   5.435
 4903SOL     OW15607   5.034   3.827   2.755
 4903SOL    HW115608   5.025   3.846   2.657
 4903SOL    HW215609   4.944   3.832   2.798
 4904SOL     OW15610   1.686   0.587   1.696
 4904SOL    HW115611   1.762   0.541   1.741
 4904SOL    HW215612   1.602   0.568   1.746
 4905SOL     OW15613   2.619   0.662   2.281
 4905SOL    HW115614   2.547   0.658   2.212
 4905SOL    HW215615   2.707   0.680   2.236
 4906SOL     OW15616   5.364   3.694   4.817
 4906SOL    HW115617   5.397   3.706   4.723
 4906SOL    HW215618   5.266   3.674   4.816
 4907SOL     OW15619   3.445   2.324   0.220
 4907SOL    HW115620   3.415   2.264   0.145
 4907SOL    HW215621   3.409   2.290   0.306
 4908SOL     OW15622   3.303   6.828   6.425
 4908SOL    HW115623   3.299   6.915   6.376
 4908SOL    HW215624   3.270   6.840   6.518
 4909SOL     OW15625   4.889   5.380   4.673
 4909SOL    HW115626   4.820   5.415   4.736
 4909SOL    HW215627   4.967   5.443   4.670
 4910SOL     OW15628   3.812   1.866   0.068
 4910SOL    HW115629   3.749   1.790   0.051
 4910SOL    HW215630   3.900   1.846   0.025
 4911SOL     OW15631   6.935   4.381   3.199
 4911SOL    HW115632   6.844   4.362   3.236
 4911SOL    HW215633   6.941   4.347   3.105
 4912SOL     OW15634   6.003   2.557   4.533
 4912SOL    HW115635   6.073   2.563   4.462
 4912SOL    HW215636   6.045   2.525   4.619
 4913SOL     OW15637   0.923   4.210   5.165
 4913SOL    HW115638   0.827   4.234   5.173
 4913SOL    HW215639   0.969   4.272   5.101
 4914SOL     OW15640   3.973   6.588   3.959
 4914SOL    HW115641   3.897   6.535   3.922
 4914SOL    HW215642   4.042   6.525   3.996
 4915SOL     OW15643   3.518   6.088   5.509
 4915SOL    HW115644   3.447   6.155   5.488
 4915SOL    HW215645   3.606   6.134   5.517
 4916SOL     OW15646   5.608   2.320   3.926
 4916SOL    HW115647   5.588   2.269   3.843
 4916SOL    HW215648   5.525   2.330   3.980
 4917SOL     OW15649   4.606   6.169   6.516
 4917SOL    HW115650   4.692   6.189   6.470
 4917SOL    HW215651   4.611   6.198   6.612
 4918SOL     OW15652   5.848   5.416   3.825
 4918SOL    HW115653   5.765   5.370   3.857
 4918SOL    HW215654   5.861   5.398   3.728
 4919SOL     OW15655   3.656   3.819   2.093
 4919SOL    HW115656   3.690   3.881   2.164
 4919SOL    HW215657   3.723   3.810   2.020
 4920SOL     OW15658   5.964   1.089   5.975
 4920SOL    HW115659   6.051   1.040   5.972
 4920SOL    HW215660   5.922   1.089   5.885
 4921SOL     OW15661   7.026   6.690   1.798
 4921SOL    HW115662   0.061   6.739   1.856
 4921SOL    HW215663   7.003   6.747   1.719
 4922SOL     OW15664   4.486   1.438   6.095
 4922SOL    HW115665   4.506   1.514   6.157
 4922SOL    HW215666   4.389   1.437   6.073
 4923SOL     OW15667   3.901   1.375   1.826
 4923SOL    HW115668   3.836   1.450   1.815
 4923SOL    HW215669   3.926   1.340   1.736
 4924SOL     OW15670   2.651   1.501   5.002
 4924SOL    HW115671   2.555   1.473   4.993
 4924SOL    HW215672   2.659   1.599   4.984
 4925SOL     OW15673   4.674   5.597   3.771
 4925SOL    HW115674   4.774   5.594   3.759
 4925SOL    HW215675   4.631   5.542   3.699
 4926SOL     OW15676   5.576   2.884   1.822
 4926SOL    HW115677   5.622   2.884   1.734
 4926SOL    HW215678   5.492   2.939   1.817
 4927SOL     OW15679   2.564   1.505   0.217
 4927SOL    HW115680   2.629   1.580   0.229
 4927SOL    HW215681   2.494   1.509   0.288
 4928SOL     OW15682   6.678   1.335   0.976
 4928SOL    HW115683   6.739   1.302   0.903
 4928SOL    HW215684   6.604   1.388   0.935
 4929SOL     OW15685   6.894   0.378   5.117
 4929SOL    HW115686   6.930   0.285   5.112
 4929SOL    HW215687   6.967   0.444   5.097
 4930SOL     OW15688   4.282   5.532   2.754
 4930SOL    HW115689   4.338   5.596   2.701
 4930SOL    HW215690   4.308   5.438   2.731
 4931SOL     OW15691   6.043   0.138   1.113
 4931SOL    HW115692   6.050   0.056   1.057
 4931SOL    HW215693   6.129   0.189   1.109
 4932SOL     OW15694   3.231   3.664   2.748
 4932SOL    HW115695   3.229   3.566   2.727
 4932SOL    HW215696   3.264   3.715   2.668
 4933SOL     OW15697   1.527   0.303   4.787
 4933SOL    HW115698   1.478   0.256   4.860
 4933SOL    HW215699   1.626   0.295   4.802
 4934SOL     OW15700   3.303   6.690   2.760
 4934SOL    HW115701   3.402   6.702   2.764
 4934SOL    HW215702   3.266   6.687   2.853
 4935SOL     OW15703   6.673   0.529   4.907
 4935SOL    HW115704   6.702   0.490   4.995
 4935SOL    HW215705   6.579   0.563   4.916
 4936SOL     OW15706   4.715   2.602   0.787
 4936SOL    HW115707   4.632   2.611   0.732
 4936SOL    HW215708   4.692   2.563   0.876
 4937SOL     OW15709   4.446   2.692   5.282
 4937SOL    HW115710   4.364   2.739   5.249
 4937SOL    HW215711   4.527   2.746   5.259
 4938SOL     OW15712   3.627   4.304   7.005
 4938SOL    HW115713   3.668   4.236   0.035
 4938SOL    HW215714   3.630   4.272   6.911
 4939SOL     OW15715   4.312   3.897   6.451
 4939SOL    HW115716   4.403   3.896   6.492
 4939SOL    HW215717   4.321   3.893   6.351
 4940SOL     OW15718   2.124   5.765   3.843
 4940SOL    HW115719   2.087   5.702   3.775
 4940SOL    HW215720   2.185   5.715   3.904
 4941SOL     OW15721   5.553   0.655   1.010
 4941SOL    HW115722   5.630   0.613   1.058
 4941SOL    HW215723   5.583   0.741   0.969
 4942SOL     OW15724   4.763   2.463   6.253
 4942SOL    HW115725   4.835   2.427   6.194
 4942SOL    HW215726   4.678   2.469   6.201
 4943SOL     OW15727   5.873   2.810   1.285
 4943SOL    HW115728   5.844   2.889   1.230
 4943SOL    HW215729   5.973   2.806   1.288
 4944SOL     OW15730   2.084   3.733   2.086
 4944SOL    HW115731   2.149   3.672   2.040
 4944SOL    HW215732   2.133   3.792   2.150
 4945SOL     OW15733   0.144   6.004   4.345
 4945SOL    HW115734   0.208   6.045   4.410
 4945SOL    HW215735   0.194   5.964   4.269
 4946SOL     OW15736   6.976   4.099   2.125
 4946SOL    HW115737   7.006   4.015   2.172
 4946SOL    HW215738   0.026   4.151   2.097
 4947SOL     OW15739   6.058   0.859   0.748
 4947SOL    HW115740   6.099   0.860   0.657
 4947SOL    HW215741   6.035   0.953   0.775
 4948SOL     OW15742   2.345   1.692   2.662
 4948SOL    HW115743   2.347   1.746   2.747
 4948SOL    HW215744   2.364   1.752   2.584
 4949SOL     OW15745   5.354   2.161   4.852
 4949SOL    HW115746   5.425   2.227   4.879
 4949SOL    HW215747   5.268   2.186   4.897
 4950SOL     OW15748   3.177   5.460   4.613
 4950SOL    HW115749   3.084   5.492   4.595
 4950SOL    HW215750   3.196   5.468   4.711
 4951SOL     OW15751   4.440   1.802   4.477
 4951SOL    HW115752   4.345   1.817   4.451
 4951SOL    HW215753   4.449   1.803   4.576
 4952SOL     OW15754   6.849   4.568   4.186
 4952SOL    HW115755   6.862   4.650   4.129
 4952SOL    HW215756   6.900   4.492   4.145
 4953SOL     OW15757   1.224   4.790   1.712
 4953SOL    HW115758   1.312   4.749   1.736
 4953SOL    HW215759   1.150   4.728   1.738
 4954SOL     OW15760   6.314   6.097   6.612
 4954SOL    HW115761   6.216   6.118   6.611
 4954SOL    HW215762   6.347   6.086   6.518
 4955SOL     OW15763   1.818   0.467   1.400
 4955SOL    HW115764   1.878   0.505   1.471
 4955SOL    HW215765   1.846   0.503   1.311
 4956SOL     OW15766   6.247   6.434   3.354
 4956SOL    HW115767   6.251   6.360   3.286
 4956SOL    HW215768   6.222   6.519   3.309
 4957SOL     OW15769   1.701   5.776   3.730
 4957SOL    HW115770   1.668   5.849   3.790
 4957SOL    HW215771   1.720   5.694   3.784
 4958SOL     OW15772   6.817   6.845   6.948
 4958SOL    HW115773   6.864   6.933   6.960
 4958SOL    HW215774   6.719   6.857   6.966
 4959SOL     OW15775   0.650   1.888   0.125
 4959SOL    HW115776   0.569   1.932   0.164
 4959SOL    HW215777   0.625   1.842   0.039
 4960SOL     OW15778   3.926   7.030   5.593
 4960SOL    HW115779   3.928   7.019   5.493
 4960SOL    HW215780   3.970   0.086   5.618
 4961SOL     OW15781   5.365   0.607   5.380
 4961SOL    HW115782   5.293   0.606   5.450
 4961SOL    HW215783   5.370   0.518   5.336
 4962SOL     OW15784   6.739   2.272   2.486
 4962SOL    HW115785   6.795   2.192   2.505
 4962SOL    HW215786   6.798   2.350   2.464
 4963SOL     OW15787   6.764   4.652   1.216
 4963SOL    HW115788   6.684   4.592   1.212
 4963SOL    HW215789   6.774   4.700   1.129
 4964SOL     OW15790   3.238   6.678   3.028
 4964SOL    HW115791   3.293   6.601   3.061
 4964SOL    HW215792   3.258   6.759   3.082
 4965SOL     OW15793   0.098   6.301   4.576
 4965SOL    HW115794   0.187   6.259   4.595
 4965SOL    HW215795   0.087   6.313   4.478
 4966SOL     OW15796   4.670   5.279   5.187
 4966SOL    HW115797   4.619   5.220   5.250
 4966SOL    HW215798   4.607   5.341   5.141
 4967SOL     OW15799   5.838   1.920   6.786
 4967SOL    HW115800   5.830   1.838   6.729
 4967SOL    HW215801   5.777   1.913   6.865
 4968SOL     OW15802   5.056   4.179   6.944
 4968SOL    HW115803   5.084   4.186   6.848
 4968SOL    HW215804   5.008   4.263   6.971
 4969SOL     OW15805   1.983   1.710   1.360
 4969SOL    HW115806   2.050   1.673   1.297
 4969SOL    HW215807   1.974   1.650   1.440
 4970SOL     OW15808   1.858   2.515   5.949
 4970SOL    HW115809   1.913   2.532   5.867
 4970SOL    HW215810   1.848   2.601   6.000
 4971SOL     OW15811   6.607   5.416   3.633
 4971SOL    HW115812   6.524   5.389   3.682
 4971SOL    HW215813   6.640   5.339   3.579
 4972SOL     OW15814   1.754   2.322   4.767
 4972SOL    HW115815   1.820   2.302   4.839
 4972SOL    HW215816   1.683   2.382   4.804
 4973SOL     OW15817   5.217   5.649   2.892
 4973SOL    HW115818   5.210   5.589   2.813
 4973SOL    HW215819   5.310   5.643   2.930
 4974SOL     OW15820   4.062   6.677   6.614
 4974SOL    HW115821   3.984   6.732   6.645
 4974SOL    HW215822   4.137   6.737   6.587
 4975SOL     OW15823   3.930   6.646   0.367
 4975SOL    HW115824   3.873   6.574   0.406
 4975SOL    HW215825   4.000   6.672   0.433
 4976SOL     OW15826   2.499   0.826   4.346
 4976SOL    HW115827   2.419   0.846   4.289
 4976SOL    HW215828   2.568   0.898   4.333
 4977SOL     OW15829   3.290   3.022   0.706
 4977SOL    HW115830   3.303   3.037   0.608
 4977SOL    HW215831   3.336   2.938   0.734
 4978SOL     OW15832   6.324   4.310   6.255
 4978SOL    HW115833   6.334   4.321   6.354
 4978SOL    HW215834   6.296   4.397   6.215
 4979SOL     OW15835   2.290   2.176   3.913
 4979SOL    HW115836   2.362   2.214   3.972
 4979SOL    HW215837   2.209   2.234   3.918
 4980SOL     OW15838   1.921   4.589   3.097
 4980SOL    HW115839   1.956   4.678   3.126
 4980SOL    HW215840   1.988   4.544   3.038
 4981SOL     OW15841   5.253   5.940   5.438
 4981SOL    HW115842   5.251   5.896   5.349
 4981SOL    HW215843   5.347   5.963   5.462
 4982SOL     OW15844   2.729   1.793   6.731
 4982SOL    HW115845   2.662   1.837   6.671
 4982SOL    HW215846   2.681   1.743   6.803
 4983SOL     OW15847   6.960   2.777   4.771
 4983SOL    HW115848   6.888   2.710   4.754
 4983SOL    HW215849   6.949   2.854   4.708
 4984SOL     OW15850   4.937   4.328   3.165
 4984SOL    HW115851   4.909   4.232   3.163
 4984SOL    HW215852   4.903   4.372   3.249
 4985SOL     OW15853   5.738   4.249   2.240
 4985SOL    HW115854   5.667   4.181   2.219
 4985SOL    HW215855   5.825   4.202   2.251
 4986SOL     OW15856   4.416   4.920   3.315
 4986SOL    HW115857   4.412   5.020   3.316
 4986SOL    HW215858   4.338   4.885   3.263
 4987SOL     OW15859   0.748   3.283   0.655
 4987SOL    HW115860   0.724   3.266   0.560
 4987SOL    HW215861   0.837   3.243   0.675
 4988SOL     OW15862   1.899   2.118   5.451
 4988SOL    HW115863   1.888   2.211   5.416
 4988SOL    HW215864   1.997   2.098   5.461
 4989SOL     OW15865   0.148   1.158   1.067
 4989SOL    HW115866   0.142   1.251   1.103
 4989SOL    HW215867   0.235   1.118   1.094
 4990SOL     OW15868   1.508   2.060   6.624
 4990SOL    HW115869   1.418   2.043   6.665
 4990SOL    HW215870   1.535   2.155   6.640
 4991SOL     OW15871   2.799   1.968   5.912
 4991SOL    HW115872   2.893   1.946   5.885
 4991SOL    HW215873   2.800   2.013   6.002
 4992SOL     OW15874   4.103   6.312   5.006
 4992SOL    HW115875   4.117   6.363   5.091
 4992SOL    HW215876   4.172   6.339   4.939
 4993SOL     OW15877   1.705   6.431   4.316
 4993SOL    HW115878   1.670   6.473   4.400
 4993SOL    HW215879   1.706   6.500   4.243
 4994SOL     OW15880   0.161   6.229   3.123
 4994SOL    HW115881   0.193   6.256   3.032
 4994SOL    HW215882   0.239   6.205   3.180
 4995SOL     OW15883   5.722   3.007   5.447
 4995SOL    HW115884   5.774   2.969   5.523
 4995SOL    HW215885   5.636   3.045   5.482
 4996SOL     OW15886   0.956   1.503   3.351
 4996SOL    HW115887   0.896   1.424   3.364
 4996SOL    HW215888   0.902   1.583   3.325
 4997SOL     OW15889   0.128   2.726   3.864
 4997SOL    HW115890   0.207   2.767   3.910
 4997SOL    HW215891   0.160   2.658   3.798
 4998SOL     OW15892   0.872   5.592   5.527
 4998SOL    HW115893   0.848   5.649   5.448
 4998SOL    HW215894   0.789   5.567   5.577
 4999SOL     OW15895   6.102   4.427   0.952
 4999SOL    HW115896   6.098   4.484   0.870
 4999SOL    HW215897   6.027   4.361   0.950
 5000SOL     OW15898   6.524   4.930   4.038
 5000SOL    HW115899   6.497   4.834   4.031
 5000SOL    HW215900   6.505   4.963   4.130
 5001SOL     OW15901   4.948   3.668   5.385
 5001SOL    HW115902   4.976   3.691   5.478
 5001SOL    HW215903   4.959   3.569   5.370
 5002SOL     OW15904   1.735   2.360   1.568
 5002SOL    HW115905   1.669   2.305   1.619
 5002SOL    HW215906   1.765   2.437   1.624
 5003SOL     OW15907   6.730   5.082   3.928
 5003SOL    HW115908   6.664   5.029   3.982
 5003SOL    HW215909   6.779   5.145   3.989
 5004SOL     OW15910   2.216   4.459   5.913
 5004SOL    HW115911   2.248   4.485   5.822
 5004SOL    HW215912   2.236   4.532   5.979
 5005SOL     OW15913   4.740   2.065   0.517
 5005SOL    HW115914   4.840   2.063   0.509
 5005SOL    HW215915   4.710   2.158   0.538
 5006SOL     OW15916   5.183   4.523   2.482
 5006SOL    HW115917   5.218   4.616   2.496
 5006SOL    HW215918   5.250   4.470   2.431
 5007SOL     OW15919   4.493   0.533   5.093
 5007SOL    HW115920   4.424   0.461   5.095
 5007SOL    HW215921   4.494   0.581   5.180
 5008SOL     OW15922   6.453   1.396   3.745
 5008SOL    HW115923   6.435   1.460   3.820
 5008SOL    HW215924   6.382   1.406   3.675
 5009SOL     OW15925   2.323   6.376   2.031
 5009SOL    HW115926   2.401   6.325   1.995
 5009SOL    HW215927   2.305   6.348   2.125
 5010SOL     OW15928   3.587   3.556   5.921
 5010SOL    HW115929   3.508   3.522   5.973
 5010SOL    HW215930   3.614   3.645   5.957
 5011SOL     OW15931   1.388   2.010   3.778
 5011SOL    HW115932   1.320   2.075   3.744
 5011SOL    HW215933   1.423   1.955   3.702
 5012SOL     OW15934   5.940   3.026   0.043
 5012SOL    HW115935   5.891   3.085   0.107
 5012SOL    HW215936   6.007   2.970   0.093
 5013SOL     OW15937   4.733   1.979   5.385
 5013SOL    HW115938   4.808   1.913   5.376
 5013SOL    HW215939   4.694   1.998   5.295
 5014SOL     OW15940   0.402   5.550   6.770
 5014SOL    HW115941   0.396   5.451   6.780
 5014SOL    HW215942   0.362   5.595   6.850
 5015SOL     OW15943   5.298   2.089   3.978
 5015SOL    HW115944   5.329   2.172   4.023
 5015SOL    HW215945   5.333   2.086   3.885
 5016SOL     OW15946   2.959   6.164   2.343
 5016SOL    HW115947   2.951   6.219   2.426
 5016SOL    HW215948   2.869   6.128   2.319
 5017SOL     OW15949   1.112   1.954   1.596
 5017SOL    HW115950   1.142   1.912   1.682
 5017SOL    HW215951   1.095   2.051   1.611
 5018SOL     OW15952   6.791   4.757   3.561
 5018SOL    HW115953   6.809   4.844   3.606
 5018SOL    HW215954   6.740   4.773   3.476
 5019SOL     OW15955   2.369   5.503   5.230
 5019SOL    HW115956   2.276   5.490   5.263
 5019SOL    HW215957   2.378   5.463   5.139
 5020SOL     OW15958   4.223   5.075   6.755
 5020SOL    HW115959   4.231   5.137   6.676
 5020SOL    HW215960   4.137   5.023   6.747
 5021SOL     OW15961   1.700   4.460   5.499
 5021SOL    HW115962   1.767   4.455   5.573
 5021SOL    HW215963   1.710   4.382   5.439
 5022SOL     OW15964   2.036   3.867   0.165
 5022SOL    HW115965   2.080   3.879   0.254
 5022SOL    HW215966   1.944   3.906   0.169
 5023SOL     OW15967   0.467   3.235   4.837
 5023SOL    HW115968   0.402   3.165   4.809
 5023SOL    HW215969   0.558   3.196   4.844
 5024SOL     OW15970   4.700   3.872   5.376
 5024SOL    HW115971   4.611   3.911   5.352
 5024SOL    HW215972   4.710   3.873   5.476
 5025SOL     OW15973   6.096   0.608   4.144
 5025SOL    HW115974   6.082   0.638   4.049
 5025SOL    HW215975   6.105   0.689   4.202
 5026SOL     OW15976   0.837   5.539   2.516
 5026SOL    HW115977   0.841   5.562   2.418
 5026SOL    HW215978   0.834   5.623   2.569
 5027SOL     OW15979   1.439   5.846   3.402
 5027SOL    HW115980   1.474   5.796   3.482
 5027SOL    HW215981   1.345   5.818   3.385
 5028SOL     OW15982   0.856   6.781   3.236
 5028SOL    HW115983   0.848   6.713   3.309
 5028SOL    HW215984   0.853   6.873   3.275
 5029SOL     OW15985   6.846   0.929   3.974
 5029SOL    HW115986   6.799   0.841   3.968
 5029SOL    HW215987   6.874   0.959   3.883
 5030SOL     OW15988   1.064   6.553   6.962
 5030SOL    HW115989   1.145   6.561   7.022
 5030SOL    HW215990   1.082   6.600   6.876
 5031SOL     OW15991   5.850   0.709   6.764
 5031SOL    HW115992   5.829   0.669   6.675
 5031SOL    HW215993   5.767   0.748   6.804
 5032SOL     OW15994   1.424   5.149   2.113
 5032SOL    HW115995   1.417   5.060   2.159
 5032SOL    HW215996   1.360   5.213   2.154
 5033SOL     OW15997   0.664   4.469   4.443
 5033SOL    HW115998   0.702   4.396   4.499
 5033SOL    HW215999   0.583   4.507   4.488
 5034SOL     OW16000   0.116   3.070   6.298
 5034SOL    HW116001   0.157   3.089   6.387
 5034SOL    HW216002   0.018   3.058   6.308
 5035SOL     OW16003   6.850   3.966   1.331
 5035SOL    HW116004   6.785   3.891   1.320
 5035SOL    HW216005   6.937   3.941   1.288
 5036SOL     OW16006   1.346   1.170   2.070
 5036SOL    HW116007   1.347   1.147   2.167
 5036SOL    HW216008   1.433   1.142   2.028
 5037SOL     OW16009   5.041   3.584   2.244
 5037SOL    HW116010   4.984   3.586   2.326
 5037SOL    HW216011   4.994   3.534   2.172
 5038SOL     OW16012   3.048   5.925   5.274
 5038SOL    HW116013   3.088   5.833   5.283
 5038SOL    HW216014   3.122   5.992   5.272
 5039SOL     OW16015   1.732   2.350   3.161
 5039SOL    HW116016   1.687   2.438   3.174
 5039SOL    HW216017   1.821   2.351   3.206
 5040SOL     OW16018   3.042   3.440   5.866
 5040SOL    HW116019   3.017   3.366   5.929
 5040SOL    HW216020   3.126   3.416   5.818
 5041SOL     OW16021   7.021   5.322   0.444
 5041SOL    HW116022   6.960   5.351   0.518
 5041SOL    HW216023   0.048   5.246   0.476
 5042SOL     OW16024   6.034   1.708   5.895
 5042SOL    HW116025   6.002   1.647   5.967
 5042SOL    HW216026   5.999   1.678   5.806
 5043SOL     OW16027   4.821   6.131   4.097
 5043SOL    HW116028   4.841   6.035   4.117
 5043SOL    HW216029   4.785   6.175   4.179
 5044SOL     OW16030   6.027   4.361   2.102
 5044SOL    HW116031   5.955   4.291   2.107
 5044SOL    HW216032   6.005   4.426   2.030
 5045SOL     OW16033   5.891   2.798   5.676
 5045SOL    HW116034   5.903   2.896   5.693
 5045SOL    HW216035   5.882   2.750   5.763
 5046SOL     OW16036   4.065   3.349   5.915
 5046SOL    HW116037   4.038   3.310   6.003
 5046SOL    HW216038   3.985   3.360   5.857
 5047SOL     OW16039   0.406   1.279   2.101
 5047SOL    HW116040   0.424   1.185   2.129
 5047SOL    HW216041   0.336   1.320   2.160
 5048SOL     OW16042   5.645   3.313   1.116
 5048SOL    HW116043   5.708   3.344   1.188
 5048SOL    HW216044   5.556   3.293   1.156
 5049SOL     OW16045   1.418   1.939   1.637
 5049SOL    HW116046   1.327   1.928   1.599
 5049SOL    HW216047   1.425   1.887   1.722
 5050SOL     OW16048   2.121   4.719   0.196
 5050SOL    HW116049   2.152   4.801   0.148
 5050SOL    HW216050   2.176   4.707   0.279
 5051SOL     OW16051   2.744   4.048   6.321
 5051SOL    HW116052   2.708   4.022   6.231
 5051SOL    HW216053   2.679   4.024   6.392
 5052SOL     OW16054   5.852   2.747   0.596
 5052SOL    HW116055   5.813   2.657   0.572
 5052SOL    HW216056   5.847   2.761   0.694
 5053SOL     OW16057   1.379   4.054   1.238
 5053SOL    HW116058   1.314   4.129   1.247
 5053SOL    HW216059   1.416   4.031   1.328
 5054SOL     OW16060   3.892   6.216   5.611
 5054SOL    HW116061   3.861   6.125   5.638
 5054SOL    HW216062   3.825   6.257   5.549
 5055SOL     OW16063   1.230   0.881   4.153
 5055SOL    HW116064   1.307   0.913   4.098
 5055SOL    HW216065   1.150   0.938   4.135
 5056SOL     OW16066   3.288   2.386   6.171
 5056SOL    HW116067   3.268   2.291   6.146
 5056SOL    HW216068   3.205   2.430   6.204
 5057SOL     OW16069   0.093   4.370   2.944
 5057SOL    HW116070   0.154   4.446   2.920
 5057SOL    HW216071   0.129   4.323   3.025
 5058SOL     OW16072   3.725   1.759   0.523
 5058SOL    HW116073   3.671   1.675   0.515
 5058SOL    HW216074   3.797   1.760   0.455
 5059SOL     OW16075   5.307   1.815   2.636
 5059SOL    HW116076   5.226   1.759   2.653
 5059SOL    HW216077   5.294   1.869   2.552
 5060SOL     OW16078   6.605   3.018   5.554
 5060SOL    HW116079   6.543   3.064   5.617
 5060SOL    HW216080   6.583   3.044   5.460
 5061SOL     OW16081   3.943   3.179   5.647
 5061SOL    HW116082   3.996   3.129   5.715
 5061SOL    HW216083   3.985   3.168   5.557
 5062SOL     OW16084   5.433   1.570   3.332
 5062SOL    HW116085   5.393   1.478   3.330
 5062SOL    HW216086   5.505   1.576   3.262
 5063SOL     OW16087   0.593   2.213   1.655
 5063SOL    HW116088   0.618   2.225   1.751
 5063SOL    HW216089   0.675   2.212   1.598
 5064SOL     OW16090   6.066   4.891   1.592
 5064SOL    HW116091   5.997   4.819   1.590
 5064SOL    HW216092   6.061   4.944   1.506
 5065SOL     OW16093   2.456   1.831   2.447
 5065SOL    HW116094   2.376   1.878   2.409
 5065SOL    HW216095   2.533   1.894   2.453
 5066SOL     OW16096   1.630   5.441   2.963
 5066SOL    HW116097   1.611   5.524   3.016
 5066SOL    HW216098   1.723   5.411   2.983
 5067SOL     OW16099   5.510   2.476   1.085
 5067SOL    HW116100   5.487   2.554   1.144
 5067SOL    HW216101   5.532   2.509   0.993
 5068SOL     OW16102   1.040   6.188   1.114
 5068SOL    HW116103   0.994   6.100   1.128
 5068SOL    HW216104   0.981   6.262   1.147
 5069SOL     OW16105   4.492   4.953   5.798
 5069SOL    HW116106   4.585   4.965   5.835
 5069SOL    HW216107   4.436   4.905   5.866
 5070SOL     OW16108   6.310   3.827   6.324
 5070SOL    HW116109   6.398   3.836   6.279
 5070SOL    HW216110   6.241   3.800   6.257
 5071SOL     OW16111   3.117   6.032   3.121
 5071SOL    HW116112   3.068   6.076   3.196
 5071SOL    HW216113   3.101   6.084   3.036
 5072SOL     OW16114   0.918   1.646   1.941
 5072SOL    HW116115   0.830   1.680   1.975
 5072SOL    HW216116   0.947   1.568   1.996
 5073SOL     OW16117   1.898   1.202   3.400
 5073SOL    HW116118   1.864   1.286   3.359
 5073SOL    HW216119   1.824   1.135   3.409
 5074SOL     OW16120   3.670   2.078   1.346
 5074SOL    HW116121   3.585   2.024   1.348
 5074SOL    HW216122   3.728   2.051   1.423
 5075SOL     OW16123   6.333   2.523   0.482
 5075SOL    HW116124   6.244   2.558   0.513
 5075SOL    HW216125   6.371   2.464   0.553
 5076SOL     OW16126   0.117   0.937   6.067
 5076SOL    HW116127   0.201   0.938   6.014
 5076SOL    HW216128   0.044   0.896   6.012
 5077SOL     OW16129   0.316   4.539   3.942
 5077SOL    HW116130   0.235   4.516   3.888
 5077SOL    HW216131   0.373   4.457   3.954
 5078SOL     OW16132   6.381   2.174   3.300
 5078SOL    HW116133   6.286   2.145   3.312
 5078SOL    HW216134   6.442   2.101   3.328
 5079SOL     OW16135   1.991   4.145   4.867
 5079SOL    HW116136   2.039   4.061   4.891
 5079SOL    HW216137   1.904   4.149   4.917
 5080SOL     OW16138   6.373   5.457   6.966
 5080SOL    HW116139   6.428   5.458   6.882
 5080SOL    HW216140   6.433   5.468   0.015
 5081SOL     OW16141   2.381   5.043   5.523
 5081SOL    HW116142   2.389   5.017   5.426
 5081SOL    HW216143   2.335   4.970   5.573
 5082SOL     OW16144   5.728   0.063   2.189
 5082SOL    HW116145   5.658   0.020   2.132
 5082SOL    HW216146   5.698   0.065   2.284
 5083SOL     OW16147   0.900   0.025   3.336
 5083SOL    HW116148   0.857   0.100   3.286
 5083SOL    HW216149   0.935   0.059   3.424
 5084SOL     OW16150   3.979   5.177   5.994
 5084SOL    HW116151   3.987   5.205   5.899
 5084SOL    HW216152   3.996   5.079   6.002
 5085SOL     OW16153   0.375   4.360   5.697
 5085SOL    HW116154   0.475   4.354   5.695
 5085SOL    HW216155   0.344   4.438   5.643
 5086SOL     OW16156   0.801   4.564   2.192
 5086SOL    HW116157   0.895   4.533   2.210
 5086SOL    HW216158   0.801   4.625   2.113
 5087SOL     OW16159   0.293   5.479   1.703
 5087SOL    HW116160   0.338   5.449   1.787
 5087SOL    HW216161   0.287   5.401   1.639
 5088SOL     OW16162   4.503   4.996   2.262
 5088SOL    HW116163   4.442   4.992   2.182
 5088SOL    HW216164   4.548   4.908   2.273
 5089SOL     OW16165   5.368   6.593   5.695
 5089SOL    HW116166   5.398   6.588   5.600
 5089SOL    HW216167   5.380   6.686   5.729
 5090SOL     OW16168   2.356   6.649   4.240
 5090SOL    HW116169   2.333   6.575   4.177
 5090SOL    HW216170   2.454   6.669   4.235
 5091SOL     OW16171   6.703   6.091   6.236
 5091SOL    HW116172   6.795   6.113   6.269
 5091SOL    HW216173   6.703   6.090   6.136
 5092SOL     OW16174   4.004   3.173   4.173
 5092SOL    HW116175   3.946   3.252   4.192
 5092SOL    HW216176   4.076   3.167   4.242
 5093SOL     OW16177   3.229   2.144   3.800
 5093SOL    HW116178   3.292   2.171   3.727
 5093SOL    HW216179   3.135   2.158   3.770
 5094SOL     OW16180   1.950   5.934   5.243
 5094SOL    HW116181   1.898   5.854   5.212
 5094SOL    HW216182   2.043   5.929   5.208
 5095SOL     OW16183   6.910   1.280   3.179
 5095SOL    HW116184   6.887   1.377   3.171
 5095SOL    HW216185   6.959   1.265   3.265
 5096SOL     OW16186   6.464   3.167   6.496
 5096SOL    HW116187   6.501   3.223   6.421
 5096SOL    HW216188   6.511   3.078   6.497
 5097SOL     OW16189   1.026   1.042   5.550
 5097SOL    HW116190   1.112   1.031   5.500
 5097SOL    HW216191   0.974   0.957   5.546
 5098SOL     OW16192   3.207   2.052   0.719
 5098SOL    HW116193   3.155   1.978   0.676
 5098SOL    HW216194   3.304   2.033   0.710
 5099SOL     OW16195   2.215   5.554   2.624
 5099SOL    HW116196   2.306   5.563   2.665
 5099SOL    HW216197   2.188   5.458   2.623
 5100SOL     OW16198   5.417   3.884   1.827
 5100SOL    HW116199   5.463   3.874   1.738
 5100SOL    HW216200   5.346   3.814   1.835
 5101SOL     OW16201   3.101   1.443   5.080
 5101SOL    HW116202   3.073   1.536   5.106
 5101SOL    HW216203   3.199   1.432   5.096
 5102SOL     OW16204   5.781   4.599   4.916
 5102SOL    HW116205   5.795   4.683   4.864
 5102SOL    HW216206   5.712   4.542   4.871
 5103SOL     OW16207   0.610   0.250   5.947
 5103SOL    HW116208   0.511   0.256   5.962
 5103SOL    HW216209   0.658   0.269   6.034
 5104SOL     OW16210   4.004   3.803   3.556
 5104SOL    HW116211   3.979   3.839   3.646
 5104SOL    HW216212   4.004   3.703   3.558
 5105SOL     OW16213   4.130   3.252   0.087
 5105SOL    HW116214   4.043   3.233   0.133
 5105SOL    HW216215   4.166   3.168   0.047
 5106SOL     OW16216   3.745   1.097   1.508
 5106SOL    HW116217   3.821   1.034   1.495
 5106SOL    HW216218   3.714   1.132   1.419
 5107SOL     OW16219   6.029   5.255   0.070
 5107SOL    HW116220   5.978   5.170   0.073
 5107SOL    HW216221   5.978   5.323   0.017
 5108SOL     OW16222   4.002   4.499   1.363
 5108SOL    HW116223   4.069   4.565   1.398
 5108SOL    HW216224   4.011   4.492   1.264
 5109SOL     OW16225   1.398   2.433   2.413
 5109SOL    HW116226   1.435   2.363   2.475
 5109SOL    HW216227   1.309   2.463   2.447
 5110SOL     OW16228   3.824   6.253   5.012
 5110SOL    HW116229   3.807   6.161   4.976
 5110SOL    HW216230   3.923   6.271   5.011
 5111SOL     OW16231   2.033   5.734   5.435
 5111SOL    HW116232   1.970   5.788   5.491
 5111SOL    HW216233   2.108   5.792   5.404
 5112SOL     OW16234   1.222   4.953   2.522
 5112SOL    HW116235   1.282   4.888   2.568
 5112SOL    HW216236   1.127   4.931   2.543
 5113SOL     OW16237   1.860   4.010   0.935
 5113SOL    HW116238   1.788   4.043   0.874
 5113SOL    HW216239   1.946   4.004   0.885
 5114SOL     OW16240   4.188   4.769   1.654
 5114SOL    HW116241   4.232   4.792   1.568
 5114SOL    HW216242   4.193   4.670   1.669
 5115SOL     OW16243   1.271   4.603   0.618
 5115SOL    HW116244   1.338   4.560   0.679
 5115SOL    HW216245   1.197   4.538   0.600
 5116SOL     OW16246   0.253   6.472   4.812
 5116SOL    HW116247   0.324   6.447   4.747
 5116SOL    HW216248   0.171   6.500   4.762
 5117SOL     OW16249   0.210   3.138   3.424
 5117SOL    HW116250   0.199   3.098   3.333
 5117SOL    HW216251   0.272   3.217   3.419
 5118SOL     OW16252   4.127   5.336   6.789
 5118SOL    HW116253   4.107   5.239   6.805
 5118SOL    HW216254   4.215   5.360   6.828
 5119SOL     OW16255   5.758   1.984   0.605
 5119SOL    HW116256   5.666   2.016   0.583
 5119SOL    HW216257   5.752   1.895   0.650
 5120SOL     OW16258   5.623   6.499   5.943
 5120SOL    HW116259   5.703   6.476   5.888
 5120SOL    HW216260   5.626   6.596   5.967
 5121SOL     OW16261   1.406   3.172   0.135
 5121SOL    HW116262   1.311   3.149   0.155
 5121SOL    HW216263   1.462   3.089   0.141
 5122SOL     OW16264   4.370   4.656   3.647
 5122SOL    HW116265   4.414   4.591   3.585
 5122SOL    HW216266   4.440   4.710   3.694
 5123SOL     OW16267   4.823   2.159   1.731
 5123SOL    HW116268   4.852   2.118   1.817
 5123SOL    HW216269   4.736   2.119   1.703
 5124SOL     OW16270   0.598   5.914   4.438
 5124SOL    HW116271   0.667   5.945   4.504
 5124SOL    HW216272   0.522   5.872   4.487
 5125SOL     OW16273   6.230   2.434   4.167
 5125SOL    HW116274   6.152   2.434   4.104
 5125SOL    HW216275   6.270   2.343   4.171
 5126SOL     OW16276   2.291   1.002   1.922
 5126SOL    HW116277   2.309   1.024   1.826
 5126SOL    HW216278   2.355   0.931   1.952
 5127SOL     OW16279   2.337   6.842   6.796
 5127SOL    HW116280   2.422   6.798   6.825
 5127SOL    HW216281   2.263   6.776   6.799
 5128SOL     OW16282   4.386   6.419   1.320
 5128SOL    HW116283   4.452   6.345   1.332
 5128SOL    HW216284   4.315   6.414   1.391
 5129SOL     OW16285   6.174   5.897   0.412
 5129SOL    HW116286   6.246   5.917   0.347
 5129SOL    HW216287   6.149   5.981   0.461
 5130SOL     OW16288   6.037   4.888   2.621
 5130SOL    HW116289   6.102   4.826   2.665
 5130SOL    HW216290   6.063   4.903   2.526
 5131SOL     OW16291   2.506   2.589   2.516
 5131SOL    HW116292   2.546   2.579   2.607
 5131SOL    HW216293   2.578   2.585   2.447
 5132SOL     OW16294   2.473   6.006   5.251
 5132SOL    HW116295   2.498   5.959   5.166
 5132SOL    HW216296   2.517   6.095   5.254
 5133SOL     OW16297   3.693   6.343   5.479
 5133SOL    HW116298   3.683   6.338   5.379
 5133SOL    HW216299   3.671   6.435   5.510
 5134SOL     OW16300   6.541   4.003   6.743
 5134SOL    HW116301   6.508   3.930   6.683
 5134SOL    HW216302   6.639   3.989   6.761
 5135SOL     OW16303   6.922   1.917   4.207
 5135SOL    HW116304   6.950   2.007   4.175
 5135SOL    HW216305   6.963   1.898   4.296
 5136SOL     OW16306   3.119   2.182   6.364
 5136SOL    HW116307   3.061   2.205   6.286
 5136SOL    HW216308   3.117   2.258   6.430
 5137SOL     OW16309   3.815   3.551   0.140
 5137SOL    HW116310   3.908   3.587   0.135
 5137SOL    HW216311   3.805   3.476   0.075
 5138SOL     OW16312   2.394   3.948   5.753
 5138SOL    HW116313   2.348   3.983   5.672
 5138SOL    HW216314   2.382   4.012   5.829
 5139SOL     OW16315   0.617   6.825   3.420
 5139SOL    HW116316   0.599   6.912   3.465
 5139SOL    HW216317   0.565   6.820   3.334
 5140SOL     OW16318   2.950   3.026   1.510
 5140SOL    HW116319   2.920   2.931   1.520
 5140SOL    HW216320   2.874   3.088   1.529
 5141SOL     OW16321   1.168   4.353   6.189
 5141SOL    HW116322   1.127   4.262   6.175
 5141SOL    HW216323   1.174   4.372   6.287
 5142SOL     OW16324   5.939   3.464   2.235
 5142SOL    HW116325   6.008   3.534   2.254
 5142SOL    HW216326   5.983   3.378   2.211
 5143SOL     OW16327   6.840   5.101   5.311
 5143SOL    HW116328   6.845   5.025   5.247
 5143SOL    HW216329   6.865   5.069   5.403
 5144SOL     OW16330   1.955   1.942   4.977
 5144SOL    HW116331   2.051   1.925   4.998
 5144SOL    HW216332   1.907   1.969   5.060
 5145SOL     OW16333   3.299   5.623   5.746
 5145SOL    HW116334   3.302   5.652   5.842
 5145SOL    HW216335   3.255   5.695   5.692
 5146SOL     OW16336   2.840   4.705   0.454
 5146SOL    HW116337   2.792   4.751   0.378
 5146SOL    HW216338   2.800   4.615   0.468
 5147SOL     OW16339   7.023   5.052   6.468
 5147SOL    HW116340   6.940   5.011   6.507
 5147SOL    HW216341   7.009   5.151   6.459
 5148SOL     OW16342   0.330   0.826   0.581
 5148SOL    HW116343   0.346   0.737   0.538
 5148SOL    HW216344   0.376   0.829   0.669
 5149SOL     OW16345   7.026   0.270   5.727
 5149SOL    HW116346   0.019   0.265   5.824
 5149SOL    HW216347   7.019   0.177   5.689
 5150SOL     OW16348   2.161   5.239   5.205
 5150SOL    HW116349   2.115   5.321   5.173
 5150SOL    HW216350   2.187   5.182   5.127
 5151SOL     OW16351   4.118   0.964   5.584
 5151SOL    HW116352   4.018   0.962   5.576
 5151SOL    HW216353   4.151   0.874   5.612
 5152SOL     OW16354   0.547   4.856   0.339
 5152SOL    HW116355   0.505   4.766   0.344
 5152SOL    HW216356   0.499   4.919   0.401
 5153SOL     OW16357   2.092   2.436   1.204
 5153SOL    HW116358   2.034   2.466   1.128
 5153SOL    HW216359   2.041   2.371   1.261
 5154SOL     OW16360   1.799   4.775   4.860
 5154SOL    HW116361   1.718   4.722   4.884
 5154SOL    HW216362   1.788   4.815   4.769
 5155SOL     OW16363   3.965   0.612   2.906
 5155SOL    HW116364   3.892   0.564   2.954
 5155SOL    HW216365   4.053   0.570   2.928
 5156SOL     OW16366   5.316   3.028   5.973
 5156SOL    HW116367   5.394   2.966   5.967
 5156SOL    HW216368   5.231   2.974   5.971
 5157SOL     OW16369   6.379   1.906   4.124
 5157SOL    HW116370   6.420   1.908   4.215
 5157SOL    HW216371   6.285   1.873   4.130
 5158SOL     OW16372   3.639   0.725   1.081
 5158SOL    HW116373   3.608   0.697   0.990
 5158SOL    HW216374   3.574   0.791   1.119
 5159SOL     OW16375   2.119   3.347   4.920
 5159SOL    HW116376   2.035   3.352   4.975
 5159SOL    HW216377   2.144   3.251   4.906
 5160SOL     OW16378   2.636   2.379   3.935
 5160SOL    HW116379   2.675   2.295   3.973
 5160SOL    HW216380   2.597   2.434   4.008
 5161SOL     OW16381   2.058   3.372   6.050
 5161SOL    HW116382   2.132   3.310   6.073
 5161SOL    HW216383   1.972   3.321   6.043
 5162SOL     OW16384   6.577   5.554   4.472
 5162SOL    HW116385   6.660   5.519   4.515
 5162SOL    HW216386   6.588   5.553   4.373
 5163SOL     OW16387   5.526   4.341   1.237
 5163SOL    HW116388   5.600   4.388   1.189
 5163SOL    HW216389   5.518   4.378   1.330
 5164SOL     OW16390   6.353   6.267   4.717
 5164SOL    HW116391   6.344   6.201   4.791
 5164SOL    HW216392   6.291   6.344   4.733
 5165SOL     OW16393   5.394   3.394   4.906
 5165SOL    HW116394   5.401   3.380   4.807
 5165SOL    HW216395   5.334   3.472   4.924
 5166SOL     OW16396   1.665   0.104   2.226
 5166SOL    HW116397   1.763   0.122   2.227
 5166SOL    HW216398   1.648   0.008   2.247
 5167SOL     OW16399   2.296   0.324   6.007
 5167SOL    HW116400   2.275   0.335   6.105
 5167SOL    HW216401   2.334   0.233   5.992
 5168SOL     OW16402   3.666   2.078   2.692
 5168SOL    HW116403   3.763   2.090   2.713
 5168SOL    HW216404   3.656   2.006   2.623
 5169SOL     OW16405   4.146   4.575   6.571
 5169SOL    HW116406   4.198   4.534   6.496
 5169SOL    HW216407   4.132   4.507   6.643
 5170SOL     OW16408   4.144   5.334   4.305
 5170SOL    HW116409   4.089   5.289   4.375
 5170SOL    HW216410   4.111   5.307   4.215
 5171SOL     OW16411   2.502   4.792   5.313
 5171SOL    HW116412   2.518   4.781   5.411
 5171SOL    HW216413   2.427   4.856   5.298
 5172SOL     OW16414   1.504   4.610   6.258
 5172SOL    HW116415   1.444   4.636   6.334
 5172SOL    HW216416   1.451   4.561   6.189
 5173SOL     OW16417   0.060   2.487   5.465
 5173SOL    HW116418   0.151   2.506   5.503
 5173SOL    HW216419   0.002   2.447   5.536
 5174SOL     OW16420   2.419   5.278   6.133
 5174SOL    HW116421   2.406   5.228   6.048
 5174SOL    HW216422   2.444   5.373   6.112
 5175SOL     OW16423   0.383   5.757   6.264
 5175SOL    HW116424   0.362   5.854   6.275
 5175SOL    HW216425   0.303   5.703   6.289
 5176SOL     OW16426   5.345   3.811   6.353
 5176SOL    HW116427   5.390   3.898   6.372
 5176SOL    HW216428   5.394   3.737   6.400
 5177SOL     OW16429   5.913   5.415   6.301
 5177SOL    HW116430   5.964   5.495   6.333
 5177SOL    HW216431   5.840   5.394   6.366
 5178SOL     OW16432   2.779   3.666   0.844
 5178SOL    HW116433   2.866   3.690   0.886
 5178SOL    HW216434   2.724   3.614   0.909
 5179SOL     OW16435   3.492   6.571   5.381
 5179SOL    HW116436   3.574   6.593   5.434
 5179SOL    HW216437   3.514   6.569   5.284
 5180SOL     OW16438   4.094   1.730   0.164
 5180SOL    HW116439   4.041   1.726   0.079
 5180SOL    HW216440   4.106   1.826   0.191
 5181SOL     OW16441   2.885   5.833   2.436
 5181SOL    HW116442   2.792   5.818   2.402
 5181SOL    HW216443   2.948   5.838   2.359
 5182SOL     OW16444   4.769   4.087   1.324
 5182SOL    HW116445   4.761   3.992   1.355
 5182SOL    HW216446   4.690   4.110   1.267
 5183SOL     OW16447   3.903   0.601   3.702
 5183SOL    HW116448   3.917   0.606   3.800
 5183SOL    HW216449   3.861   0.685   3.669
 5184SOL     OW16450   1.249   2.586   3.346
 5184SOL    HW116451   1.343   2.612   3.367
 5184SOL    HW216452   1.225   2.617   3.254
 5185SOL     OW16453   3.829   0.150   1.076
 5185SOL    HW116454   3.824   0.059   1.035
 5185SOL    HW216455   3.765   0.156   1.152
 5186SOL     OW16456   5.015   4.315   0.630
 5186SOL    HW116457   4.942   4.328   0.564
 5186SOL    HW216458   5.012   4.222   0.667
 5187SOL     OW16459   4.770   2.647   4.010
 5187SOL    HW116460   4.725   2.667   3.923
 5187SOL    HW216461   4.740   2.558   4.044
 5188SOL     OW16462   0.690   1.347   4.030
 5188SOL    HW116463   0.726   1.356   4.123
 5188SOL    HW216464   0.730   1.267   3.986
 5189SOL     OW16465   4.620   6.189   6.787
 5189SOL    HW116466   4.638   6.096   6.819
 5189SOL    HW216467   4.587   6.245   6.864
 5190SOL     OW16468   2.219   2.872   2.263
 5190SOL    HW116469   2.286   2.934   2.304
 5190SOL    HW216470   2.253   2.841   2.174
 5191SOL     OW16471   4.777   0.144   2.387
 5191SOL    HW116472   4.877   0.146   2.391
 5191SOL    HW216473   4.748   0.078   2.317
 5192SOL     OW16474   6.129   3.952   1.303
 5192SOL    HW116475   6.088   3.867   1.335
 5192SOL    HW216476   6.133   4.018   1.378
 5193SOL     OW16477   3.876   4.835   2.305
 5193SOL    HW116478   3.786   4.875   2.289
 5193SOL    HW216479   3.874   4.737   2.284
 5194SOL     OW16480   5.443   0.946   0.392
 5194SOL    HW116481   5.353   0.988   0.407
 5194SOL    HW216482   5.503   0.966   0.469
 5195SOL     OW16483   0.043   6.810   4.951
 5195SOL    HW116484   0.130   6.853   4.972
 5195SOL    HW216485   0.042   6.717   4.988
 5196SOL     OW16486   6.751   3.791   3.436
 5196SOL    HW116487   6.733   3.791   3.535
 5196SOL    HW216488   6.710   3.710   3.395
 5197SOL     OW16489   3.864   5.498   5.383
 5197SOL    HW116490   3.895   5.500   5.478
 5197SOL    HW216491   3.795   5.569   5.369
 5198SOL     OW16492   4.150   1.953   5.301
 5198SOL    HW116493   4.075   1.934   5.363
 5198SOL    HW216494   4.170   1.872   5.247
 5199SOL     OW16495   6.861   5.632   0.915
 5199SOL    HW116496   6.818   5.594   0.834
 5199SOL    HW216497   6.843   5.573   0.994
 5200SOL     OW16498   6.806   0.269   4.833
 5200SOL    HW116499   6.815   0.303   4.927
 5200SOL    HW216500   6.858   0.328   4.771
 5201SOL     OW16501   6.352   4.598   5.534
 5201SOL    HW116502   6.440   4.595   5.581
 5201SOL    HW216503   6.361   4.557   5.443
 5202SOL     OW16504   3.532   2.476   6.055
 5202SOL    HW116505   3.446   2.438   6.089
 5202SOL    HW216506   3.604   2.462   6.123
 5203SOL     OW16507   1.128   0.889   6.341
 5203SOL    HW116508   1.167   0.961   6.397
 5203SOL    HW216509   1.135   0.801   6.389
 5204SOL     OW16510   1.863   0.448   1.871
 5204SOL    HW116511   1.884   0.499   1.954
 5204SOL    HW216512   1.811   0.366   1.894
 5205SOL     OW16513   0.124   0.092   1.832
 5205SOL    HW116514   0.110   7.023   1.840
 5205SOL    HW216515   0.046   0.134   1.786
 5206SOL     OW16516   0.535   4.775   4.157
 5206SOL    HW116517   0.485   4.707   4.209
 5206SOL    HW216518   0.536   4.749   4.060
 5207SOL     OW16519   4.918   0.139   4.938
 5207SOL    HW116520   4.833   0.186   4.958
 5207SOL    HW216521   4.965   0.184   4.862
 5208SOL     OW16522   7.009   2.195   7.015
 5208SOL    HW116523   6.974   2.169   0.076
 5208SOL    HW216524   0.078   2.210   7.021
 5209SOL     OW16525   5.027   6.313   2.604
 5209SOL    HW116526   5.041   6.315   2.505
 5209SOL    HW216527   5.109   6.344   2.650
 5210SOL     OW16528   5.885   4.324   1.301
 5210SOL    HW116529   5.854   4.393   1.234
 5210SOL    HW216530   5.971   4.354   1.341
 5211SOL     OW16531   5.470   3.083   5.495
 5211SOL    HW116532   5.388   3.048   5.541
 5211SOL    HW216533   5.442   3.145   5.422
 5212SOL     OW16534   6.919   4.081   0.233
 5212SOL    HW116535   6.860   4.024   0.290
 5212SOL    HW216536   6.884   4.082   0.139
 5213SOL     OW16537   3.556   2.891   3.238
 5213SOL    HW116538   3.572   2.842   3.152
 5213SOL    HW216539   3.633   2.953   3.255
 5214SOL     OW16540   5.592   3.509   5.906
 5214SOL    HW116541   5.536   3.512   5.824
 5214SOL    HW216542   5.627   3.416   5.920
 5215SOL     OW16543   0.073   5.704   5.162
 5215SOL    HW116544   0.142   5.692   5.090
 5215SOL    HW216545   0.059   5.802   5.178
 5216SOL     OW16546   6.391   3.875   1.185
 5216SOL    HW116547   6.411   3.913   1.095
 5216SOL    HW216548   6.305   3.914   1.220
 5217SOL     OW16549   4.071   6.468   2.862
 5217SOL    HW116550   3.976   6.493   2.846
 5217SOL    HW216551   4.124   6.551   2.883
 5218SOL     OW16552   5.699   6.914   0.512
 5218SOL    HW116553   5.700   6.990   0.447
 5218SOL    HW216554   5.792   6.881   0.526
 5219SOL     OW16555   3.613   1.525   5.046
 5219SOL    HW116556   3.706   1.561   5.040
 5219SOL    HW216557   3.602   1.448   4.984
 5220SOL     OW16558   2.204   4.950   4.815
 5220SOL    HW116559   2.202   4.854   4.845
 5220SOL    HW216560   2.185   4.955   4.717
 5221SOL     OW16561   5.007   5.815   1.194
 5221SOL    HW116562   4.971   5.813   1.288
 5221SOL    HW216563   5.107   5.807   1.197
 5222SOL     OW16564   6.800   3.791   2.262
 5222SOL    HW116565   6.761   3.852   2.194
 5222SOL    HW216566   6.900   3.794   2.257
 5223SOL     OW16567   0.099   2.765   1.165
 5223SOL    HW116568   0.062   2.682   1.206
 5223SOL    HW216569   0.188   2.746   1.123
 5224SOL     OW16570   1.663   1.151   4.648
 5224SOL    HW116571   1.736   1.120   4.709
 5224SOL    HW216572   1.593   1.198   4.702
 5225SOL     OW16573   6.822   2.346   5.567
 5225SOL    HW116574   6.861   2.254   5.568
 5225SOL    HW216575   6.772   2.361   5.482
 5226SOL     OW16576   0.037   6.352   4.296
 5226SOL    HW116577   7.019   6.281   4.244
 5226SOL    HW216578   0.118   6.381   4.246
 5227SOL     OW16579   1.091   3.175   5.797
 5227SOL    HW116580   1.125   3.212   5.711
 5227SOL    HW216581   1.029   3.099   5.778
 5228SOL     OW16582   1.283   2.079   4.875
 5228SOL    HW116583   1.357   2.081   4.942
 5228SOL    HW216584   1.268   1.985   4.844
 5229SOL     OW16585   3.619   1.894   6.469
 5229SOL    HW116586   3.536   1.948   6.484
 5229SOL    HW216587   3.697   1.941   6.510
 5230SOL     OW16588   6.858   0.258   1.639
 5230SOL    HW116589   6.915   0.338   1.621
 5230SOL    HW216590   6.769   0.288   1.674
 5231SOL     OW16591   6.292   3.405   1.927
 5231SOL    HW116592   6.363   3.341   1.958
 5231SOL    HW216593   6.202   3.365   1.944
 5232SOL     OW16594   1.487   1.827   5.677
 5232SOL    HW116595   1.532   1.884   5.745
 5232SOL    HW216596   1.512   1.732   5.691
 5233SOL     OW16597   3.216   6.673   3.504
 5233SOL    HW116598   3.253   6.695   3.414
 5233SOL    HW216599   3.116   6.682   3.502
 5234SOL     OW16600   2.866   2.568   6.540
 5234SOL    HW116601   2.792   2.531   6.596
 5234SOL    HW216602   2.830   2.594   6.450
 5235SOL     OW16603   2.343   2.574   1.560
 5235SOL    HW116604   2.411   2.507   1.529
 5235SOL    HW216605   2.366   2.664   1.523
 5236SOL     OW16606   2.933   4.790   2.454
 5236SOL    HW116607   2.858   4.771   2.517
 5236SOL    HW216608   3.000   4.850   2.499
 5237SOL     OW16609   2.083   1.622   2.344
 5237SOL    HW116610   2.072   1.706   2.291
 5237SOL    HW216611   2.004   1.562   2.328
 5238SOL     OW16612   6.430   0.577   2.840
 5238SOL    HW116613   6.348   0.595   2.893
 5238SOL    HW216614   6.452   0.480   2.843
 5239SOL     OW16615   2.855   4.154   0.736
 5239SOL    HW116616   2.910   4.208   0.800
 5239SOL    HW216617   2.914   4.087   0.691
 5240SOL     OW16618   2.348   4.204   5.874
 5240SOL    HW116619   2.446   4.208   5.855
 5240SOL    HW216620   2.311   4.297   5.879
 5241SOL     OW16621   1.835   6.543   3.419
 5241SOL    HW116622   1.924   6.589   3.418
 5241SOL    HW216623   1.845   6.452   3.379
 5242SOL     OW16624   4.548   6.424   5.542
 5242SOL    HW116625   4.589   6.369   5.470
 5242SOL    HW216626   4.620   6.463   5.600
 5243SOL     OW16627   2.505   5.327   3.954
 5243SOL    HW116628   2.497   5.231   3.925
 5243SOL    HW216629   2.535   5.330   4.049
 5244SOL     OW16630   4.666   1.134   6.206
 5244SOL    HW116631   4.658   1.227   6.173
 5244SOL    HW216632   4.592   1.114   6.269
 5245SOL     OW16633   3.002   3.969   2.181
 5245SOL    HW116634   2.986   3.871   2.169
 5245SOL    HW216635   2.917   4.014   2.207
 5246SOL     OW16636   6.304   3.520   6.400
 5246SOL    HW116637   6.334   3.609   6.365
 5246SOL    HW216638   6.366   3.449   6.368
 5247SOL     OW16639   4.655   1.320   5.908
 5247SOL    HW116640   4.603   1.356   5.986
 5247SOL    HW216641   4.620   1.361   5.824
 5248SOL     OW16642   4.831   0.816   3.604
 5248SOL    HW116643   4.878   0.904   3.609
 5248SOL    HW216644   4.735   0.831   3.581
 5249SOL     OW16645   6.875   5.294   0.900
 5249SOL    HW116646   6.804   5.224   0.890
 5249SOL    HW216647   6.881   5.322   0.996
 5250SOL     OW16648   1.987   5.181   0.778
 5250SOL    HW116649   2.036   5.174   0.865
 5250SOL    HW216650   1.928   5.262   0.779
 5251SOL     OW16651   0.912   4.584   0.022
 5251SOL    HW116652   0.920   4.485   0.006
 5251SOL    HW216653   1.002   4.626   0.018
 5252SOL     OW16654   3.527   5.438   3.254
 5252SOL    HW116655   3.543   5.517   3.312
 5252SOL    HW216656   3.503   5.469   3.162
 5253SOL     OW16657   0.318   6.115   4.535
 5253SOL    HW116658   0.375   6.170   4.474
 5253SOL    HW216659   0.362   6.107   4.624
 5254SOL     OW16660   4.678   6.162   2.776
 5254SOL    HW116661   4.648   6.171   2.681
 5254SOL    HW216662   4.680   6.252   2.819
 5255SOL     OW16663   0.136   1.038   6.326
 5255SOL    HW116664   0.138   1.000   6.234
 5255SOL    HW216665   0.220   1.014   6.374
 5256SOL     OW16666   4.442   2.112   2.720
 5256SOL    HW116667   4.448   2.014   2.703
 5256SOL    HW216668   4.513   2.140   2.784
 5257SOL     OW16669   4.878   1.307   6.676
 5257SOL    HW116670   4.819   1.289   6.754
 5257SOL    HW216671   4.826   1.357   6.606
 5258SOL     OW16672   5.739   1.562   5.221
 5258SOL    HW116673   5.834   1.591   5.211
 5258SOL    HW216674   5.679   1.622   5.169
 5259SOL     OW16675   5.073   5.651   4.129
 5259SOL    HW116676   4.991   5.611   4.085
 5259SOL    HW216677   5.136   5.682   4.058
 5260SOL     OW16678   2.103   6.225   1.673
 5260SOL    HW116679   2.182   6.282   1.653
 5260SOL    HW216680   2.062   6.254   1.760
 5261SOL     OW16681   6.174   4.755   6.920
 5261SOL    HW116682   6.245   4.768   6.850
 5261SOL    HW216683   6.203   4.799   7.005
 5262SOL     OW16684   2.233   2.074   1.854
 5262SOL    HW116685   2.302   2.140   1.884
 5262SOL    HW216686   2.163   2.064   1.925
 5263SOL     OW16687   1.589   6.270   3.290
 5263SOL    HW116688   1.517   6.214   3.331
 5263SOL    HW216689   1.613   6.234   3.200
 5264SOL     OW16690   7.025   2.511   2.368
 5264SOL    HW116691   7.003   2.607   2.350
 5264SOL    HW216692   7.024   2.495   2.467
 5265SOL     OW16693   0.347   5.906   5.783
 5265SOL    HW116694   0.332   5.866   5.874
 5265SOL    HW216695   0.285   5.864   5.718
 5266SOL     OW16696   1.428   6.963   5.951
 5266SOL    HW116697   1.475   7.021   5.884
 5266SOL    HW216698   1.424   7.011   6.039
 5267SOL     OW16699   5.892   1.509   4.574
 5267SOL    HW116700   5.899   1.559   4.488
 5267SOL    HW216701   5.799   1.519   4.611
 5268SOL     OW16702   5.630   0.286   5.776
 5268SOL    HW116703   5.561   0.329   5.718
 5268SOL    HW216704   5.693   0.355   5.811
 5269SOL     OW16705   1.571   0.562   4.323
 5269SOL    HW116706   1.472   0.564   4.328
 5269SOL    HW216707   1.601   0.476   4.280
 5270SOL     OW16708   0.867   1.781   6.425
 5270SOL    HW116709   0.917   1.716   6.483
 5270SOL    HW216710   0.930   1.821   6.359
 5271SOL     OW16711   1.362   5.760   5.613
 5271SOL    HW116712   1.267   5.788   5.628
 5271SOL    HW216713   1.374   5.731   5.517
 5272SOL     OW16714   4.436   0.363   6.235
 5272SOL    HW116715   4.487   0.440   6.196
 5272SOL    HW216716   4.351   0.350   6.182
 5273SOL     OW16717   2.420   1.182   3.488
 5273SOL    HW116718   2.326   1.214   3.473
 5273SOL    HW216719   2.433   1.094   3.443
 5274SOL     OW16720   5.555   4.446   1.495
 5274SOL    HW116721   5.473   4.448   1.551
 5274SOL    HW216722   5.632   4.412   1.549
 5275SOL     OW16723   5.143   1.066   6.046
 5275SOL    HW116724   5.160   1.139   6.112
 5275SOL    HW216725   5.171   0.979   6.085
 5276SOL     OW16726   3.589   6.319   1.653
 5276SOL    HW116727   3.548   6.377   1.582
 5276SOL    HW216728   3.615   6.231   1.614
 5277SOL     OW16729   2.037   3.535   1.802
 5277SOL    HW116730   2.088   3.521   1.887
 5277SOL    HW216731   1.950   3.579   1.823
 5278SOL     OW16732   3.611   3.372   1.872
 5278SOL    HW116733   3.602   3.428   1.954
 5278SOL    HW216734   3.523   3.330   1.851
 5279SOL     OW16735   1.749   6.333   2.737
 5279SOL    HW116736   1.653   6.308   2.742
 5279SOL    HW216737   1.760   6.417   2.685
 5280SOL     OW16738   3.805   0.723   4.515
 5280SOL    HW116739   3.725   0.765   4.472
 5280SOL    HW216740   3.855   0.791   4.567
 5281SOL     OW16741   6.780   2.556   4.077
 5281SOL    HW116742   6.798   2.512   3.989
 5281SOL    HW216743   6.792   2.489   4.151
 5282SOL     OW16744   4.610   2.397   1.276
 5282SOL    HW116745   4.647   2.306   1.293
 5282SOL    HW216746   4.684   2.464   1.279
 5283SOL     OW16747   4.758   4.497   5.883
 5283SOL    HW116748   4.745   4.399   5.900
 5283SOL    HW216749   4.854   4.521   5.896
 5284SOL     OW16750   5.070   2.753   4.271
 5284SOL    HW116751   5.134   2.824   4.240
 5284SOL    HW216752   5.107   2.706   4.350
 5285SOL     OW16753   4.347   6.282   2.767
 5285SOL    HW116754   4.353   6.309   2.863
 5285SOL    HW216755   4.253   6.261   2.744
 5286SOL     OW16756   2.123   5.075   1.859
 5286SOL    HW116757   2.139   4.982   1.891
 5286SOL    HW216758   2.025   5.094   1.857
 5287SOL     OW16759   1.320   1.140   2.335
 5287SOL    HW116760   1.232   1.136   2.384
 5287SOL    HW216761   1.382   1.202   2.383
 5288SOL     OW16762   4.144   7.026   0.998
 5288SOL    HW116763   4.236   6.997   1.022
 5288SOL    HW216764   4.077   6.978   1.054
 5289SOL     OW16765   1.561   6.650   1.314
 5289SOL    HW116766   1.622   6.578   1.346
 5289SOL    HW216767   1.614   6.727   1.280
 5290SOL     OW16768   5.415   5.644   6.941
 5290SOL    HW116769   5.495   5.704   6.952
 5290SOL    HW216770   5.332   5.694   6.966
 5291SOL     OW16771   1.167   5.543   0.115
 5291SOL    HW116772   1.162   5.640   0.092
 5291SOL    HW216773   1.162   5.488   0.031
 5292SOL     OW16774   5.351   1.824   1.021
 5292SOL    HW116775   5.317   1.829   1.115
 5292SOL    HW216776   5.311   1.745   0.975
 5293SOL     OW16777   2.161   1.657   4.281
 5293SOL    HW116778   2.206   1.623   4.364
 5293SOL    HW216779   2.062   1.650   4.293
 5294SOL     OW16780   3.839   2.529   6.153
 5294SOL    HW116781   3.889   2.531   6.240
 5294SOL    HW216782   3.825   2.434   6.124
 5295SOL     OW16783   6.454   1.557   2.792
 5295SOL    HW116784   6.394   1.529   2.717
 5295SOL    HW216785   6.414   1.636   2.838
 5296SOL     OW16786   0.285   2.789   6.605
 5296SOL    HW116787   0.301   2.692   6.624
 5296SOL    HW216788   0.237   2.831   6.682
 5297SOL     OW16789   1.021   2.259   1.879
 5297SOL    HW116790   1.093   2.190   1.882
 5297SOL    HW216791   1.024   2.308   1.792
 5298SOL     OW16792   1.451   4.653   1.738
 5298SOL    HW116793   1.456   4.595   1.820
 5298SOL    HW216794   1.533   4.710   1.733
 5299SOL     OW16795   3.757   0.245   0.452
 5299SOL    HW116796   3.658   0.260   0.444
 5299SOL    HW216797   3.804   0.333   0.455
 5300SOL     OW16798   6.814   5.022   3.684
 5300SOL    HW116799   6.780   5.055   3.772
 5300SOL    HW216800   6.909   5.051   3.673
 5301SOL     OW16801   6.165   0.559   6.912
 5301SOL    HW116802   6.226   0.611   6.973
 5301SOL    HW216803   6.201   0.562   6.819
 5302SOL     OW16804   7.029   3.929   3.745
 5302SOL    HW116805   6.955   3.956   3.683
 5302SOL    HW216806   6.998   3.938   3.840
 5303SOL     OW16807   1.697   4.416   3.155
 5303SOL    HW116808   1.732   4.323   3.144
 5303SOL    HW216809   1.768   4.482   3.132
 5304SOL     OW16810   4.432   2.456   5.812
 5304SOL    HW116811   4.502   2.517   5.774
 5304SOL    HW216812   4.353   2.509   5.841
 5305SOL     OW16813   3.289   1.928   5.297
 5305SOL    HW116814   3.280   1.836   5.332
 5305SOL    HW216815   3.371   1.934   5.239
 5306SOL     OW16816   2.629   6.905   3.480
 5306SOL    HW116817   2.602   6.829   3.538
 5306SOL    HW216818   2.561   6.977   3.484
 5307SOL     OW16819   5.198   6.757   6.979
 5307SOL    HW116820   5.137   6.687   7.016
 5307SOL    HW216821   5.260   6.715   6.913
 5308SOL     OW16822   6.740   1.361   1.850
 5308SOL    HW116823   6.748   1.302   1.930
 5308SOL    HW216824   6.650   1.349   1.808
 5309SOL     OW16825   4.189   3.529   5.170
 5309SOL    HW116826   4.181   3.433   5.199
 5309SOL    HW216827   4.156   3.539   5.076
 5310SOL     OW16828   5.071   2.723   0.074
 5310SOL    HW116829   5.069   2.821   0.094
 5310SOL    HW216830   5.085   2.672   0.159
 5311SOL     OW16831   6.869   6.284   0.225
 5311SOL    HW116832   6.941   6.346   0.193
 5311SOL    HW216833   6.833   6.318   0.312
 5312SOL     OW16834   0.492   3.373   1.169
 5312SOL    HW116835   0.531   3.459   1.134
 5312SOL    HW216836   0.487   3.378   1.269
 5313SOL     OW16837   0.188   6.487   0.405
 5313SOL    HW116838   0.217   6.577   0.440
 5313SOL    HW216839   0.269   6.430   0.389
 5314SOL     OW16840   3.389   5.293   1.305
 5314SOL    HW116841   3.453   5.235   1.254
 5314SOL    HW216842   3.349   5.239   1.380
 5315SOL     OW16843   5.796   0.965   2.086
 5315SOL    HW116844   5.855   0.992   2.010
 5315SOL    HW216845   5.760   0.873   2.069
 5316SOL     OW16846   5.281   5.389   4.499
 5316SOL    HW116847   5.313   5.453   4.568
 5316SOL    HW216848   5.253   5.304   4.542
 5317SOL     OW16849   6.514   5.017   1.780
 5317SOL    HW116850   6.502   5.012   1.681
 5317SOL    HW216851   6.449   5.082   1.819
 5318SOL     OW16852   6.897   2.413   3.888
 5318SOL    HW116853   6.997   2.407   3.887
 5318SOL    HW216854   6.859   2.322   3.875
 5319SOL     OW16855   3.304   6.274   2.799
 5319SOL    HW116856   3.264   6.303   2.712
 5319SOL    HW216857   3.298   6.348   2.866
 5320SOL     OW16858   6.727   2.743   6.916
 5320SOL    HW116859   6.753   2.839   6.916
 5320SOL    HW216860   6.667   2.724   6.994
 5321SOL     OW16861   3.056   4.376   6.472
 5321SOL    HW116862   3.040   4.464   6.426
 5321SOL    HW216863   2.999   4.306   6.430
 5322SOL     OW16864   2.334   6.647   0.080
 5322SOL    HW116865   2.283   6.637   7.025
 5322SOL    HW216866   2.277   6.619   0.157
 5323SOL     OW16867   5.846   3.161   0.609
 5323SOL    HW116868   5.878   3.251   0.580
 5323SOL    HW216869   5.910   3.091   0.579
 5324SOL     OW16870   4.345   3.042   1.376
 5324SOL    HW116871   4.322   3.046   1.279
 5324SOL    HW216872   4.373   3.133   1.407
 5325SOL     OW16873   3.370   6.315   5.452
 5325SOL    HW116874   3.288   6.372   5.443
 5325SOL    HW216875   3.451   6.373   5.449
 5326SOL     OW16876   6.685   0.826   3.116
 5326SOL    HW116877   6.675   0.734   3.155
 5326SOL    HW216878   6.663   0.894   3.185
 5327SOL     OW16879   6.468   0.220   3.985
 5327SOL    HW116880   6.444   0.137   4.035
 5327SOL    HW216881   6.431   0.300   4.032
 5328SOL     OW16882   3.445   4.869   6.658
 5328SOL    HW116883   3.539   4.890   6.630
 5328SOL    HW216884   3.383   4.941   6.625
 5329SOL     OW16885   0.738   6.065   6.757
 5329SOL    HW116886   0.655   6.013   6.777
 5329SOL    HW216887   0.814   6.027   6.810
 5330SOL     OW16888   4.292   4.585   0.674
 5330SOL    HW116889   4.208   4.631   0.703
 5330SOL    HW216890   4.294   4.579   0.574
 5331SOL     OW16891   5.755   1.144   6.606
 5331SOL    HW116892   5.674   1.197   6.632
 5331SOL    HW216893   5.767   1.146   6.507
 5332SOL     OW16894   6.414   2.354   6.605
 5332SOL    HW116895   6.358   2.351   6.688
 5332SOL    HW216896   6.366   2.308   6.530
 5333SOL     OW16897   0.886   0.032   3.966
 5333SOL    HW116898   0.976   0.046   4.006
 5333SOL    HW216899   0.895   0.020   3.867
 5334SOL     OW16900   3.077   6.088   1.586
 5334SOL    HW116901   3.087   6.009   1.646
 5334SOL    HW216902   3.008   6.069   1.516
 5335SOL     OW16903   0.185   5.101   1.586
 5335SOL    HW116904   0.245   5.056   1.652
 5335SOL    HW216905   0.217   5.083   1.493
 5336SOL     OW16906   1.558   3.448   5.300
 5336SOL    HW116907   1.632   3.462   5.235
 5336SOL    HW216908   1.530   3.352   5.299
 5337SOL     OW16909   6.837   2.123   0.765
 5337SOL    HW116910   6.930   2.120   0.728
 5337SOL    HW216911   6.822   2.210   0.811
 5338SOL     OW16912   0.120   3.631   0.767
 5338SOL    HW116913   0.032   3.593   0.741
 5338SOL    HW216914   0.193   3.574   0.729
 5339SOL     OW16915   5.181   3.144   3.014
 5339SOL    HW116916   5.269   3.166   2.972
 5339SOL    HW216917   5.187   3.057   3.062
 5340SOL     OW16918   4.771   3.263   0.979
 5340SOL    HW116919   4.830   3.335   0.943
 5340SOL    HW216920   4.824   3.181   0.996
 5341SOL     OW16921   4.811   4.848   3.715
 5341SOL    HW116922   4.770   4.886   3.797
 5341SOL    HW216923   4.809   4.916   3.642
 5342SOL     OW16924   6.130   5.638   5.179
 5342SOL    HW116925   6.092   5.636   5.272
 5342SOL    HW216926   6.107   5.552   5.133
 5343SOL     OW16927   3.473   3.210   6.784
 5343SOL    HW116928   3.487   3.179   6.690
 5343SOL    HW216929   3.385   3.177   6.817
 5344SOL     OW16930   6.581   2.155   6.848
 5344SOL    HW116931   6.524   2.106   6.782
 5344SOL    HW216932   6.523   2.195   6.919
 5345SOL     OW16933   3.634   1.061   0.435
 5345SOL    HW116934   3.668   1.060   0.341
 5345SOL    HW216935   3.551   1.006   0.441
 5346SOL     OW16936   2.302   6.344   3.271
 5346SOL    HW116937   2.238   6.296   3.332
 5346SOL    HW216938   2.382   6.288   3.255
 5347SOL     OW16939   6.362   1.379   5.236
 5347SOL    HW116940   6.350   1.299   5.179
 5347SOL    HW216941   6.396   1.351   5.326
 5348SOL     OW16942   4.509   2.881   5.508
 5348SOL    HW116943   4.506   2.800   5.449
 5348SOL    HW216944   4.561   2.953   5.462
 5349SOL     OW16945   0.659   4.310   0.556
 5349SOL    HW116946   0.711   4.239   0.509
 5349SOL    HW216947   0.698   4.326   0.647
 5350SOL     OW16948   1.293   6.853   6.425
 5350SOL    HW116949   1.344   6.915   6.366
 5350SOL    HW216950   1.220   6.809   6.371
 5351SOL     OW16951   0.356   5.708   3.771
 5351SOL    HW116952   0.322   5.712   3.865
 5351SOL    HW216953   0.446   5.751   3.766
 5352SOL     OW16954   0.744   2.443   5.966
 5352SOL    HW116955   0.782   2.356   5.935
 5352SOL    HW216956   0.811   2.490   6.023
 5353SOL     OW16957   3.094   6.378   3.488
 5353SOL    HW116958   3.177   6.321   3.491
 5353SOL    HW216959   3.108   6.459   3.543
 5354SOL     OW16960   3.452   5.857   2.060
 5354SOL    HW116961   3.498   5.769   2.073
 5354SOL    HW216962   3.354   5.842   2.047
 5355SOL     OW16963   5.575   5.234   5.319
 5355SOL    HW116964   5.571   5.253   5.417
 5355SOL    HW216965   5.602   5.139   5.304
 5356SOL     OW16966   0.675   6.925   1.438
 5356SOL    HW116967   0.653   6.847   1.497
 5356SOL    HW216968   0.729   6.992   1.490
 5357SOL     OW16969   6.238   3.752   2.838
 5357SOL    HW116970   6.304   3.813   2.796
 5357SOL    HW216971   6.258   3.657   2.812
 5358SOL     OW16972   5.943   1.065   6.297
 5358SOL    HW116973   5.961   1.030   6.389
 5358SOL    HW216974   6.025   1.055   6.241
 5359SOL     OW16975   2.910   2.196   6.715
 5359SOL    HW116976   2.857   2.269   6.757
 5359SOL    HW216977   2.920   2.120   6.780
 5360SOL     OW16978   5.649   5.436   2.998
 5360SOL    HW116979   5.584   5.409   3.069
 5360SOL    HW216980   5.727   5.374   2.998
 5361SOL     OW16981   1.473   3.782   2.772
 5361SOL    HW116982   1.374   3.779   2.754
 5361SOL    HW216983   1.505   3.876   2.767
 5362SOL     OW16984   6.090   1.286   3.711
 5362SOL    HW116985   6.168   1.225   3.728
 5362SOL    HW216986   6.026   1.279   3.788
 5363SOL     OW16987   6.028   4.997   4.899
 5363SOL    HW116988   6.009   4.999   4.998
 5363SOL    HW216989   6.110   4.942   4.882
 5364SOL     OW16990   4.387   2.501   1.369
 5364SOL    HW116991   4.469   2.456   1.334
 5364SOL    HW216992   4.405   2.537   1.460
 5365SOL     OW16993   3.546   3.409   5.702
 5365SOL    HW116994   3.457   3.431   5.664
 5365SOL    HW216995   3.553   3.444   5.795
 5366SOL     OW16996   0.567   5.061   3.595
 5366SOL    HW116997   0.496   5.055   3.524
 5366SOL    HW216998   0.535   5.016   3.678
 5367SOL     OW16999   6.311   6.138   1.450
 5367SOL    HW117000   6.216   6.169   1.456
 5367SOL    HW217001   6.370   6.201   1.500
 5368SOL     OW17002   6.813   5.939   4.921
 5368SOL    HW117003   6.911   5.937   4.943
 5368SOL    HW217004   6.776   6.029   4.942
 5369SOL     OW17005   3.893   6.800   3.000
 5369SOL    HW117006   3.959   6.870   3.029
 5369SOL    HW217007   3.937   6.739   2.934
 5370SOL     OW17008   2.566   3.135   0.796
 5370SOL    HW117009   2.489   3.077   0.769
 5370SOL    HW217010   2.630   3.142   0.720
 5371SOL     OW17011   6.077   5.266   3.565
 5371SOL    HW117012   6.125   5.348   3.597
 5371SOL    HW217013   5.978   5.284   3.563
 5372SOL     OW17014   0.999   0.357   4.152
 5372SOL    HW117015   0.913   0.308   4.164
 5372SOL    HW217016   1.034   0.342   4.060
 5373SOL     OW17017   4.037   0.062   0.206
 5373SOL    HW117018   4.065   0.158   0.216
 5373SOL    HW217019   4.021   0.023   0.297
 5374SOL     OW17020   1.210   4.292   1.321
 5374SOL    HW117021   1.282   4.357   1.296
 5374SOL    HW217022   1.182   4.309   1.415
 5375SOL     OW17023   2.909   4.855   5.165
 5375SOL    HW117024   2.990   4.845   5.224
 5375SOL    HW217025   2.877   4.765   5.137
 5376SOL     OW17026   0.780   0.526   1.815
 5376SOL    HW117027   0.847   0.595   1.787
 5376SOL    HW217028   0.829   0.445   1.850
 5377SOL     OW17029   0.988   2.658   1.992
 5377SOL    HW117030   0.973   2.726   2.063
 5377SOL    HW217031   1.078   2.615   2.006
 5378SOL     OW17032   5.921   6.863   3.183
 5378SOL    HW117033   5.831   6.858   3.140
 5378SOL    HW217034   5.917   6.920   3.265
 5379SOL     OW17035   2.702   2.417   4.572
 5379SOL    HW117036   2.621   2.364   4.597
 5379SOL    HW217037   2.747   2.373   4.494
 5380SOL     OW17038   5.307   6.664   1.799
 5380SOL    HW117039   5.339   6.720   1.722
 5380SOL    HW217040   5.359   6.579   1.803
 5381SOL     OW17041   3.332   2.085   2.358
 5381SOL    HW117042   3.319   2.160   2.423
 5381SOL    HW217043   3.299   2.000   2.399
 5382SOL     OW17044   4.988   0.666   2.936
 5382SOL    HW117045   4.960   0.600   2.867
 5382SOL    HW217046   5.046   0.622   3.004
 5383SOL     OW17047   2.636   3.929   5.296
 5383SOL    HW117048   2.552   3.934   5.242
 5383SOL    HW217049   2.678   4.019   5.301
 5384SOL     OW17050   4.808   6.378   5.995
 5384SOL    HW117051   4.833   6.330   5.911
 5384SOL    HW217052   4.890   6.390   6.051
 5385SOL     OW17053   3.743   3.975   0.642
 5385SOL    HW117054   3.800   4.036   0.698
 5385SOL    HW217055   3.798   3.897   0.613
 5386SOL     OW17056   4.484   4.464   3.413
 5386SOL    HW117057   4.410   4.450   3.347
 5386SOL    HW217058   4.528   4.376   3.434
 5387SOL     OW17059   0.758   2.365   4.212
 5387SOL    HW117060   0.853   2.378   4.240
 5387SOL    HW217061   0.742   2.416   4.127
 5388SOL     OW17062   6.511   6.388   3.401
 5388SOL    HW117063   6.419   6.414   3.372
 5388SOL    HW217064   6.513   6.377   3.500
 5389SOL     OW17065   5.449   1.600   4.504
 5389SOL    HW117066   5.515   1.553   4.561
 5389SOL    HW217067   5.450   1.562   4.412
 5390SOL     OW17068   5.799   3.091   3.346
 5390SOL    HW117069   5.790   3.129   3.438
 5390SOL    HW217070   5.847   3.003   3.350
 5391SOL     OW17071   4.124   2.775   0.508
 5391SOL    HW117072   4.220   2.794   0.529
 5391SOL    HW217073   4.096   2.830   0.430
 5392SOL     OW17074   5.146   0.867   4.258
 5392SOL    HW117075   5.115   0.778   4.224
 5392SOL    HW217076   5.181   0.857   4.351
 5393SOL     OW17077   4.115   2.236   3.075
 5393SOL    HW117078   4.153   2.148   3.050
 5393SOL    HW217079   4.136   2.303   3.004
 5394SOL     OW17080   6.927   2.797   2.960
 5394SOL    HW117081   6.985   2.746   2.897
 5394SOL    HW217082   6.900   2.738   3.036
 5395SOL     OW17083   0.131   0.745   1.277
 5395SOL    HW117084   0.157   0.745   1.374
 5395SOL    HW217085   0.034   0.766   1.269
 5396SOL     OW17086   4.105   2.608   7.020
 5396SOL    HW117087   4.100   2.671   0.068
 5396SOL    HW217088   4.178   2.542   0.005
 5397SOL     OW17089   0.622   6.780   2.374
 5397SOL    HW117090   0.619   6.859   2.313
 5397SOL    HW217091   0.638   6.697   2.321
 5398SOL     OW17092   5.835   2.416   3.142
 5398SOL    HW117093   5.834   2.324   3.181
 5398SOL    HW217094   5.901   2.473   3.192
 5399SOL     OW17095   2.376   3.211   0.005
 5399SOL    HW117096   2.365   3.116   7.003
 5399SOL    HW217097   2.439   3.259   6.975
 5400SOL     OW17098   5.430   2.663   0.833
 5400SOL    HW117099   5.334   2.689   0.842
 5400SOL    HW217100   5.487   2.729   0.882
 5401SOL     OW17101   4.778   3.834   1.484
 5401SOL    HW117102   4.712   3.864   1.553
 5401SOL    HW217103   4.741   3.755   1.435
 5402SOL     OW17104   1.597   6.255   1.868
 5402SOL    HW117105   1.547   6.179   1.826
 5402SOL    HW217106   1.620   6.231   1.963
 5403SOL     OW17107   5.831   2.290   5.647
 5403SOL    HW117108   5.868   2.275   5.738
 5403SOL    HW217109   5.827   2.388   5.629
 5404SOL     OW17110   4.913   6.306   0.583
 5404SOL    HW117111   4.946   6.350   0.500
 5404SOL    HW217112   4.944   6.210   0.585
 5405SOL     OW17113   6.660   4.970   6.262
 5405SOL    HW117114   6.615   4.951   6.175
 5405SOL    HW217115   6.756   4.941   6.257
 5406SOL     OW17116   2.161   1.096   5.373
 5406SOL    HW117117   2.249   1.085   5.420
 5406SOL    HW217118   2.104   1.161   5.423
 5407SOL     OW17119   2.331   1.338   2.842
 5407SOL    HW117120   2.275   1.266   2.801
 5407SOL    HW217121   2.392   1.297   2.910
 5408SOL     OW17122   1.498   1.945   4.442
 5408SOL    HW117123   1.434   1.960   4.518
 5408SOL    HW217124   1.453   1.964   4.355
 5409SOL     OW17125   0.091   4.015   3.227
 5409SOL    HW117126   0.029   3.945   3.191
 5409SOL    HW217127   0.132   3.982   3.312
 5410SOL     OW17128   5.785   1.905   0.202
 5410SOL    HW117129   5.866   1.850   0.225
 5410SOL    HW217130   5.807   1.966   0.126
 5411SOL     OW17131   3.225   5.707   1.556
 5411SOL    HW117132   3.197   5.644   1.484
 5411SOL    HW217133   3.173   5.688   1.639
 5412SOL     OW17134   1.527   2.219   5.780
 5412SOL    HW117135   1.540   2.121   5.762
 5412SOL    HW217136   1.443   2.251   5.736
 5413SOL     OW17137   6.468   5.508   5.691
 5413SOL    HW117138   6.499   5.536   5.782
 5413SOL    HW217139   6.536   5.449   5.648
 5414SOL     OW17140   5.760   5.810   6.501
 5414SOL    HW117141   5.772   5.844   6.594
 5414SOL    HW217142   5.719   5.719   6.504
 5415SOL     OW17143   1.869   1.836   0.125
 5415SOL    HW117144   1.792   1.813   0.185
 5415SOL    HW217145   1.835   1.851   0.032
 5416SOL     OW17146   3.922   5.834   6.126
 5416SOL    HW117147   4.002   5.866   6.074
 5416SOL    HW217148   3.947   5.753   6.179
 5417SOL     OW17149   5.405   0.063   2.106
 5417SOL    HW117150   5.358   0.142   2.067
 5417SOL    HW217151   5.381   7.011   2.055
 5418SOL     OW17152   0.563   3.439   5.210
 5418SOL    HW117153   0.477   3.449   5.259
 5418SOL    HW217154   0.575   3.515   5.146
 5419SOL     OW17155   4.122   2.192   6.348
 5419SOL    HW117156   4.172   2.132   6.286
 5419SOL    HW217157   4.031   2.210   6.311
 5420SOL     OW17158   2.573   1.759   1.205
 5420SOL    HW117159   2.495   1.714   1.248
 5420SOL    HW217160   2.582   1.728   1.110
 5421SOL     OW17161   4.286   4.963   1.806
 5421SOL    HW117162   4.332   5.014   1.734
 5421SOL    HW217163   4.274   4.867   1.778
 5422SOL     OW17164   2.210   6.942   2.586
 5422SOL    HW117165   2.264   6.951   2.670
 5422SOL    HW217166   2.259   6.883   2.522
 5423SOL     OW17167   4.304   0.100   2.458
 5423SOL    HW117168   4.361   0.061   2.385
 5423SOL    HW217169   4.361   0.157   2.517
 5424SOL     OW17170   3.544   3.307   4.911
 5424SOL    HW117171   3.573   3.222   4.866
 5424SOL    HW217172   3.489   3.284   4.992
 5425SOL     OW17173   1.023   4.866   5.135
 5425SOL    HW117174   1.104   4.925   5.127
 5425SOL    HW217175   1.029   4.792   5.068
 5426SOL     OW17176   1.069   4.524   0.330
 5426SOL    HW117177   1.016   4.472   0.264
 5426SOL    HW217178   1.061   4.622   0.310
 5427SOL     OW17179   4.488   1.872   0.134
 5427SOL    HW117180   4.512   1.969   0.146
 5427SOL    HW217181   4.457   1.834   0.221
 5428SOL     OW17182   4.498   5.572   2.921
 5428SOL    HW117183   4.408   5.542   2.889
 5428SOL    HW217184   4.560   5.493   2.922
 5429SOL     OW17185   2.559   6.758   3.729
 5429SOL    HW117186   2.545   6.733   3.825
 5429SOL    HW217187   2.472   6.789   3.690
 5430SOL     OW17188   1.208   4.331   5.449
 5430SOL    HW117189   1.179   4.421   5.483
 5430SOL    HW217190   1.307   4.320   5.465
 5431SOL     OW17191   5.268   4.455   1.380
 5431SOL    HW117192   5.314   4.370   1.355
 5431SOL    HW217193   5.316   4.533   1.338
 5432SOL     OW17194   0.384   5.035   5.975
 5432SOL    HW117195   0.480   5.046   5.949
 5432SOL    HW217196   0.328   5.101   5.925
 5433SOL     OW17197   2.688   0.339   1.335
 5433SOL    HW117198   2.747   0.377   1.407
 5433SOL    HW217199   2.745   0.311   1.258
 5434SOL     OW17200   5.225   5.658   4.366
 5434SOL    HW117201   5.163   5.652   4.287
 5434SOL    HW217202   5.216   5.576   4.422
 5435SOL     OW17203   6.267   3.554   0.109
 5435SOL    HW117204   6.317   3.630   0.150
 5435SOL    HW217205   6.314   3.524   0.026
 5436SOL     OW17206   1.229   4.738   1.188
 5436SOL    HW117207   1.197   4.822   1.145
 5436SOL    HW217208   1.240   4.667   1.118
 5437SOL     OW17209   3.661   6.501   6.394
 5437SOL    HW117210   3.587   6.525   6.331
 5437SOL    HW217211   3.707   6.419   6.360
 5438SOL     OW17212   5.403   6.863   2.621
 5438SOL    HW117213   5.332   6.793   2.619
 5438SOL    HW217214   5.444   6.872   2.531
 5439SOL     OW17215   1.413   3.942   1.486
 5439SOL    HW117216   1.481   3.890   1.538
 5439SOL    HW217217   1.333   3.959   1.544
 5440SOL     OW17218   6.233   6.877   4.353
 5440SOL    HW117219   6.180   6.931   4.419
 5440SOL    HW217220   6.172   6.815   4.304
 5441SOL     OW17221   5.396   0.853   4.998
 5441SOL    HW117222   5.446   0.920   4.943
 5441SOL    HW217223   5.416   0.867   5.095
 5442SOL     OW17224   2.737   0.634   6.485
 5442SOL    HW117225   2.740   0.734   6.489
 5442SOL    HW217226   2.792   0.596   6.560
 5443SOL     OW17227   5.893   0.915   3.467
 5443SOL    HW117228   5.880   1.012   3.445
 5443SOL    HW217229   5.966   0.878   3.410
 5444SOL     OW17230   0.897   1.327   6.073
 5444SOL    HW117231   0.983   1.369   6.102
 5444SOL    HW217232   0.871   1.257   6.139
 5445SOL     OW17233   5.806   6.551   4.904
 5445SOL    HW117234   5.899   6.575   4.934
 5445SOL    HW217235   5.806   6.531   4.806
 5446SOL     OW17236   2.114   5.127   5.903
 5446SOL    HW117237   2.164   5.040   5.904
 5446SOL    HW217238   2.047   5.127   5.978
 5447SOL     OW17239   6.636   1.973   1.257
 5447SOL    HW117240   6.536   1.970   1.259
 5447SOL    HW217241   6.673   1.919   1.332
 5448SOL     OW17242   6.182   4.822   1.836
 5448SOL    HW117243   6.147   4.853   1.747
 5448SOL    HW217244   6.273   4.782   1.823
 5449SOL     OW17245   2.311   0.345   2.369
 5449SOL    HW117246   2.340   0.261   2.325
 5449SOL    HW217247   2.254   0.324   2.448
 5450SOL     OW17248   4.686   5.862   2.058
 5450SOL    HW117249   4.643   5.946   2.090
 5450SOL    HW217250   4.620   5.788   2.058
 5451SOL     OW17251   1.057   6.010   3.817
 5451SOL    HW117252   1.128   6.050   3.874
 5451SOL    HW217253   1.037   5.917   3.848
 5452SOL     OW17254   2.165   3.927   2.836
 5452SOL    HW117255   2.107   4.001   2.800
 5452SOL    HW217256   2.151   3.845   2.781
 5453SOL     OW17257   5.931   4.784   4.530
 5453SOL    HW117258   6.028   4.803   4.516
 5453SOL    HW217259   5.877   4.856   4.486
 5454SOL     OW17260   5.773   3.879   2.247
 5454SOL    HW117261   5.692   3.934   2.226
 5454SOL    HW217262   5.771   3.794   2.194
 5455SOL     OW17263   2.498   2.087   3.425
 5455SOL    HW117264   2.501   2.127   3.517
 5455SOL    HW217265   2.518   1.989   3.430
 5456SOL     OW17266   5.139   2.695   0.823
 5456SOL    HW117267   5.051   2.740   0.812
 5456SOL    HW217268   5.131   2.598   0.801
 5457SOL     OW17269   6.690   1.618   0.301
 5457SOL    HW117270   6.600   1.576   0.290
 5457SOL    HW217271   6.761   1.547   0.296
 5458SOL     OW17272   6.154   5.130   5.527
 5458SOL    HW117273   6.190   5.213   5.484
 5458SOL    HW217274   6.221   5.096   5.594
 5459SOL     OW17275   2.451   3.651   5.404
 5459SOL    HW117276   2.389   3.711   5.354
 5459SOL    HW217277   2.540   3.695   5.414
 5460SOL     OW17278   0.353   0.787   1.793
 5460SOL    HW117279   0.387   0.873   1.832
 5460SOL    HW217280   0.259   0.772   1.823
 5461SOL     OW17281   5.649   1.441   6.644
 5461SOL    HW117282   5.578   1.435   6.714
 5461SOL    HW217283   5.608   1.466   6.556
 5462SOL     OW17284   5.190   5.309   6.768
 5462SOL    HW117285   5.274   5.347   6.806
 5462SOL    HW217286   5.204   5.213   6.746
 5463SOL     OW17287   2.230   5.449   6.692
 5463SOL    HW117288   2.221   5.535   6.743
 5463SOL    HW217289   2.196   5.374   6.748
 5464SOL     OW17290   1.972   5.535   4.215
 5464SOL    HW117291   1.974   5.503   4.310
 5464SOL    HW217292   2.046   5.600   4.200
 5465SOL     OW17293   0.772   0.831   4.843
 5465SOL    HW117294   0.865   0.826   4.807
 5465SOL    HW217295   0.735   0.739   4.852
 5466SOL     OW17296   4.905   2.196   5.103
 5466SOL    HW117297   4.875   2.265   5.168
 5466SOL    HW217298   4.870   2.218   5.012
 5467SOL     OW17299   5.912   3.523   4.273
 5467SOL    HW117300   5.821   3.492   4.248
 5467SOL    HW217301   5.939   3.600   4.215
 5468SOL     OW17302   0.750   2.963   1.614
 5468SOL    HW117303   0.654   2.989   1.611
 5468SOL    HW217304   0.762   2.888   1.679
 5469SOL     OW17305   4.218   1.976   3.755
 5469SOL    HW117306   4.217   2.069   3.718
 5469SOL    HW217307   4.180   1.976   3.848
 5470SOL     OW17308   2.912   4.791   4.161
 5470SOL    HW117309   2.926   4.808   4.064
 5470SOL    HW217310   3.000   4.790   4.208
 5471SOL     OW17311   5.711   0.501   3.422
 5471SOL    HW117312   5.747   0.409   3.430
 5471SOL    HW217313   5.748   0.559   3.495
 5472SOL     OW17314   2.644   4.111   6.765
 5472SOL    HW117315   2.575   4.152   6.826
 5472SOL    HW217316   2.735   4.127   6.803
 5473SOL     OW17317   2.797   4.796   2.213
 5473SOL    HW117318   2.857   4.783   2.292
 5473SOL    HW217319   2.822   4.730   2.141
 5474SOL     OW17320   1.465   4.787   1.328
 5474SOL    HW117321   1.380   4.748   1.290
 5474SOL    HW217322   1.442   4.846   1.405
 5475SOL     OW17323   0.590   0.806   5.600
 5475SOL    HW117324   0.541   0.728   5.639
 5475SOL    HW217325   0.676   0.819   5.649
 5476SOL     OW17326   1.866   0.655   5.089
 5476SOL    HW117327   1.944   0.603   5.125
 5476SOL    HW217328   1.850   0.628   4.994
 5477SOL     OW17329   2.147   3.707   2.681
 5477SOL    HW117330   2.062   3.662   2.706
 5477SOL    HW217331   2.151   3.718   2.582
 5478SOL     OW17332   6.193   3.511   5.908
 5478SOL    HW117333   6.221   3.514   5.811
 5478SOL    HW217334   6.241   3.584   5.958
 5479SOL     OW17335   4.948   3.153   3.611
 5479SOL    HW117336   4.981   3.087   3.679
 5479SOL    HW217337   4.934   3.242   3.655
 5480SOL     OW17338   1.276   2.971   4.880
 5480SOL    HW117339   1.215   3.028   4.825
 5480SOL    HW217340   1.367   2.968   4.838
 5481SOL     OW17341   4.393   1.184   0.059
 5481SOL    HW117342   4.444   1.103   0.029
 5481SOL    HW217343   4.430   1.265   0.014
 5482SOL     OW17344   5.084   4.376   2.733
 5482SOL    HW117345   5.024   4.449   2.701
 5482SOL    HW217346   5.065   4.293   2.680
 5483SOL     OW17347   6.067   2.095   0.287
 5483SOL    HW117348   6.053   2.098   0.386
 5483SOL    HW217349   6.165   2.105   0.267
 5484SOL     OW17350   6.363   0.498   5.523
 5484SOL    HW117351   6.444   0.474   5.578
 5484SOL    HW217352   6.333   0.418   5.470
 5485SOL     OW17353   2.929   1.009   3.684
 5485SOL    HW117354   2.996   0.936   3.699
 5485SOL    HW217355   2.843   0.970   3.651
 5486SOL     OW17356   0.818   0.264   3.737
 5486SOL    HW117357   0.883   0.309   3.798
 5486SOL    HW217358   0.730   0.311   3.742
 5487SOL     OW17359   4.756   5.069   1.123
 5487SOL    HW117360   4.743   5.067   1.222
 5487SOL    HW217361   4.681   5.021   1.078
 5488SOL     OW17362   5.200   0.673   5.900
 5488SOL    HW117363   5.207   0.711   5.808
 5488SOL    HW217364   5.158   0.582   5.895
 5489SOL     OW17365   0.253   3.768   2.376
 5489SOL    HW117366   0.328   3.757   2.441
 5489SOL    HW217367   0.280   3.731   2.287
 5490SOL     OW17368   3.040   1.930   6.318
 5490SOL    HW117369   3.086   2.018   6.330
 5490SOL    HW217370   3.012   1.895   6.407
 5491SOL     OW17371   6.871   5.793   2.906
 5491SOL    HW117372   6.812   5.862   2.949
 5491SOL    HW217373   6.849   5.789   2.808
 5492SOL     OW17374   0.914   1.147   4.834
 5492SOL    HW117375   0.953   1.063   4.796
 5492SOL    HW217376   0.824   1.164   4.793
 5493SOL     OW17377   3.749   1.875   0.985
 5493SOL    HW117378   3.690   1.800   1.016
 5493SOL    HW217379   3.762   1.867   0.886
 5494SOL     OW17380   5.045   3.131   2.574
 5494SOL    HW117381   5.126   3.074   2.564
 5494SOL    HW217382   5.000   3.140   2.485
 5495SOL     OW17383   3.752   3.007   3.580
 5495SOL    HW117384   3.711   3.095   3.557
 5495SOL    HW217385   3.683   2.948   3.620
 5496SOL     OW17386   5.058   5.789   1.661
 5496SOL    HW117387   5.010   5.710   1.700
 5496SOL    HW217388   5.109   5.836   1.733
 5497SOL     OW17389   5.778   0.202   0.578
 5497SOL    HW117390   5.727   0.216   0.493
 5497SOL    HW217391   5.745   0.266   0.647
 5498SOL     OW17392   4.610   1.583   4.468
 5498SOL    HW117393   4.549   1.508   4.496
 5498SOL    HW217394   4.556   1.664   4.446
 5499SOL     OW17395   0.339   0.739   5.165
 5499SOL    HW117396   0.426   0.767   5.207
 5499SOL    HW217397   0.263   0.781   5.215
 5500SOL     OW17398   2.226   6.608   0.672
 5500SOL    HW117399   2.223   6.591   0.770
 5500SOL    HW217400   2.294   6.549   0.629
 5501SOL     OW17401   3.256   0.467   2.540
 5501SOL    HW117402   3.292   0.394   2.482
 5501SOL    HW217403   3.193   0.428   2.607
 5502SOL     OW17404   4.559   3.460   0.731
 5502SOL    HW117405   4.566   3.560   0.735
 5502SOL    HW217406   4.533   3.425   0.820
 5503SOL     OW17407   0.173   6.908   3.787
 5503SOL    HW117408   0.091   6.933   3.838
 5503SOL    HW217409   0.148   6.876   3.696
 5504SOL     OW17410   2.946   2.269   4.775
 5504SOL    HW117411   3.003   2.291   4.854
 5504SOL    HW217412   2.849   2.282   4.799
 5505SOL     OW17413   3.001   4.652   0.684
 5505SOL    HW117414   2.965   4.629   0.774
 5505SOL    HW217415   2.929   4.694   0.629
 5506SOL     OW17416   0.380   6.809   5.617
 5506SOL    HW117417   0.387   6.738   5.547
 5506SOL    HW217418   0.457   6.872   5.607
 5507SOL     OW17419   3.251   4.986   5.543
 5507SOL    HW117420   3.169   4.988   5.485
 5507SOL    HW217421   3.313   4.915   5.510
 5508SOL     OW17422   1.131   0.554   5.409
 5508SOL    HW117423   1.194   0.501   5.466
 5508SOL    HW217424   1.178   0.585   5.327
 5509SOL     OW17425   6.423   6.935   6.618
 5509SOL    HW117426   6.384   6.864   6.676
 5509SOL    HW217427   6.349   6.996   6.586
 5510SOL     OW17428   6.440   0.299   6.451
 5510SOL    HW117429   6.506   0.226   6.431
 5510SOL    HW217430   6.490   0.381   6.482
 5511SOL     OW17431   0.291   2.797   1.490
 5511SOL    HW117432   0.334   2.873   1.441
 5511SOL    HW217433   0.204   2.827   1.529
 5512SOL     OW17434   6.156   0.790   0.495
 5512SOL    HW117435   6.066   0.751   0.477
 5512SOL    HW217436   6.225   0.718   0.488
 5513SOL     OW17437   2.450   6.038   4.835
 5513SOL    HW117438   2.545   6.012   4.854
 5513SOL    HW217439   2.428   6.123   4.883
 5514SOL     OW17440   6.157   5.797   3.473
 5514SOL    HW117441   6.250   5.809   3.506
 5514SOL    HW217442   6.148   5.839   3.383
 5515SOL     OW17443   6.858   4.223   2.918
 5515SOL    HW117444   6.957   4.231   2.922
 5515SOL    HW217445   6.832   4.164   2.841
 5516SOL     OW17446   1.189   2.273   0.328
 5516SOL    HW117447   1.206   2.366   0.296
 5516SOL    HW217448   1.234   2.208   0.266
 5517SOL     OW17449   2.634   1.030   2.429
 5517SOL    HW117450   2.730   1.025   2.399
 5517SOL    HW217451   2.609   0.944   2.474
 5518SOL     OW17452   5.588   4.231   5.443
 5518SOL    HW117453   5.680   4.259   5.414
 5518SOL    HW217454   5.553   4.161   5.380
 5519SOL     OW17455   5.304   3.929   2.651
 5519SOL    HW117456   5.330   3.901   2.558
 5519SOL    HW217457   5.225   3.875   2.681
 5520SOL     OW17458   1.716   2.393   1.031
 5520SOL    HW117459   1.691   2.386   1.128
 5520SOL    HW217460   1.801   2.445   1.022
 5521SOL     OW17461   5.093   4.964   6.997
 5521SOL    HW117462   5.071   5.061   7.011
 5521SOL    HW217463   5.008   4.911   6.996
 5522SOL     OW17464   2.115   2.160   2.107
 5522SOL    HW117465   2.097   2.247   2.061
 5522SOL    HW217466   2.028   2.120   2.137
 5523SOL     OW17467   3.364   6.893   1.651
 5523SOL    HW117468   3.400   6.849   1.733
 5523SOL    HW217469   3.433   6.957   1.615
 5524SOL     OW17470   6.151   6.463   5.988
 5524SOL    HW117471   6.120   6.385   6.043
 5524SOL    HW217472   6.244   6.446   5.956
 5525SOL     OW17473   6.292   5.849   3.029
 5525SOL    HW117474   6.336   5.763   3.005
 5525SOL    HW217475   6.240   5.837   3.114
 5526SOL     OW17476   4.882   3.046   5.006
 5526SOL    HW117477   4.886   3.124   4.942
 5526SOL    HW217478   4.836   2.969   4.962
 5527SOL     OW17479   1.951   3.617   6.958
 5527SOL    HW117480   1.942   3.523   6.924
 5527SOL    HW217481   2.041   3.652   6.935
 5528SOL     OW17482   6.684   3.292   3.013
 5528SOL    HW117483   6.615   3.236   2.968
 5528SOL    HW217484   6.717   3.245   3.095
 5529SOL     OW17485   1.389   0.942   3.889
 5529SOL    HW117486   1.400   0.853   3.845
 5529SOL    HW217487   1.356   1.009   3.823
 5530SOL     OW17488   6.402   2.895   6.999
 5530SOL    HW117489   6.426   2.924   0.062
 5530SOL    HW217490   6.338   2.960   6.959
 5531SOL     OW17491   1.808   3.059   0.137
 5531SOL    HW117492   1.879   2.999   0.173
 5531SOL    HW217493   1.799   3.139   0.196
 5532SOL     OW17494   2.367   2.124   0.982
 5532SOL    HW117495   2.460   2.091   0.970
 5532SOL    HW217496   2.368   2.213   1.029
 5533SOL     OW17497   3.848   0.158   0.704
 5533SOL    HW117498   3.787   0.220   0.754
 5533SOL    HW217499   3.844   0.180   0.607
 5534SOL     OW17500   0.381   4.006   5.185
 5534SOL    HW117501   0.342   4.094   5.158
 5534SOL    HW217502   0.312   3.934   5.177
 5535SOL     OW17503   5.575   3.618   3.554
 5535SOL    HW117504   5.500   3.669   3.513
 5535SOL    HW217505   5.554   3.599   3.650
 5536SOL     OW17506   2.661   0.650   4.198
 5536SOL    HW117507   2.653   0.660   4.099
 5536SOL    HW217508   2.630   0.733   4.244
 5537SOL     OW17509   4.004   0.799   4.976
 5537SOL    HW117510   4.066   0.731   5.015
 5537SOL    HW217511   4.022   0.888   5.019
 5538SOL     OW17512   5.693   1.897   2.607
 5538SOL    HW117513   5.630   1.882   2.683
 5538SOL    HW217514   5.669   1.836   2.532
 5539SOL     OW17515   2.781   0.075   6.894
 5539SOL    HW117516   2.769   0.013   6.815
 5539SOL    HW217517   2.701   0.134   6.903
 5540SOL     OW17518   5.498   6.609   5.404
 5540SOL    HW117519   5.425   6.631   5.340
 5540SOL    HW217520   5.559   6.689   5.414
 5541SOL     OW17521   4.539   3.220   0.196
 5541SOL    HW117522   4.551   3.311   0.155
 5541SOL    HW217523   4.447   3.212   0.234
 5542SOL     OW17524   4.776   4.528   0.139
 5542SOL    HW117525   4.685   4.523   0.181
 5542SOL    HW217526   4.767   4.521   0.040
 5543SOL     OW17527   1.254   0.309   6.602
 5543SOL    HW117528   1.304   0.346   6.680
 5543SOL    HW217529   1.252   0.209   6.609
 5544SOL     OW17530   3.678   4.879   0.813
 5544SOL    HW117531   3.611   4.951   0.834
 5544SOL    HW217532   3.695   4.878   0.714
 5545SOL     OW17533   5.208   1.267   3.112
 5545SOL    HW117534   5.246   1.307   3.029
 5545SOL    HW217535   5.156   1.336   3.162
 5546SOL     OW17536   0.044   5.385   4.541
 5546SOL    HW117537   0.127   5.381   4.485
 5546SOL    HW217538   0.006   5.293   4.549
 5547SOL     OW17539   5.155   1.758   4.784
 5547SOL    HW117540   5.124   1.735   4.692
 5547SOL    HW217541   5.250   1.789   4.781
 5548SOL     OW17542   0.571   4.227   4.934
 5548SOL    HW117543   0.652   4.265   4.891
 5548SOL    HW217544   0.559   4.132   4.906
 5549SOL     OW17545   3.612   2.892   0.394
 5549SOL    HW117546   3.655   2.882   0.304
 5549SOL    HW217547   3.579   2.986   0.405
 5550SOL     OW17548   2.452   4.271   1.687
 5550SOL    HW117549   2.398   4.351   1.664
 5550SOL    HW217550   2.439   4.248   1.783
 5551SOL     OW17551   1.704   4.795   2.677
 5551SOL    HW117552   1.790   4.746   2.689
 5551SOL    HW217553   1.689   4.857   2.753
 5552SOL     OW17554   0.956   0.477   0.181
 5552SOL    HW117555   1.051   0.455   0.157
 5552SOL    HW217556   0.895   0.409   0.141
 5553SOL     OW17557   5.381   0.570   6.904
 5553SOL    HW117558   5.441   0.645   6.876
 5553SOL    HW217559   5.432   0.484   6.900
 5554SOL     OW17560   6.926   2.445   1.661
 5554SOL    HW117561   6.883   2.393   1.588
 5554SOL    HW217562   6.858   2.468   1.731
 5555SOL     OW17563   1.109   5.185   1.731
 5555SOL    HW117564   1.165   5.111   1.771
 5555SOL    HW217565   1.021   5.148   1.703
 5556SOL     OW17566   0.336   0.955   4.645
 5556SOL    HW117567   0.327   0.916   4.737
 5556SOL    HW217568   0.397   1.035   4.649
 5557SOL     OW17569   4.008   5.957   2.988
 5557SOL    HW117570   4.093   5.926   3.031
 5557SOL    HW217571   4.029   6.029   2.922
 5558SOL     OW17572   4.727   4.048   7.003
 5558SOL    HW117573   4.760   4.143   7.001
 5558SOL    HW217574   4.653   4.040   0.040
 5559SOL     OW17575   3.817   0.980   2.490
 5559SOL    HW117576   3.831   0.945   2.398
 5559SOL    HW217577   3.874   0.928   2.555
 5560SOL     OW17578   0.056   5.576   3.780
 5560SOL    HW117579   0.024   5.501   3.838
 5560SOL    HW217580   0.120   5.540   3.712
 5561SOL     OW17581   3.746   6.936   3.964
 5561SOL    HW117582   3.812   6.882   3.912
 5561SOL    HW217583   3.742   7.029   3.928
 5562SOL     OW17584   3.692   3.457   0.616
 5562SOL    HW117585   3.784   3.437   0.582
 5562SOL    HW217586   3.694   3.466   0.715
 5563SOL     OW17587   2.540   4.725   2.358
 5563SOL    HW117588   2.575   4.803   2.409
 5563SOL    HW217589   2.593   4.714   2.274
 5564SOL     OW17590   4.718   0.221   6.315
 5564SOL    HW117591   4.664   0.203   6.232
 5564SOL    HW217592   4.706   0.146   6.379
 5565SOL     OW17593   3.813   1.455   6.093
 5565SOL    HW117594   3.838   1.358   6.097
 5565SOL    HW217595   3.818   1.486   5.998
 5566SOL     OW17596   1.266   4.896   5.872
 5566SOL    HW117597   1.199   4.893   5.946
 5566SOL    HW217598   1.276   4.990   5.840
 5567SOL     OW17599   0.402   4.533   0.330
 5567SOL    HW117600   0.497   4.500   0.324
 5567SOL    HW217601   0.343   4.476   0.273
 5568SOL     OW17602   4.781   4.773   1.603
 5568SOL    HW117603   4.741   4.857   1.640
 5568SOL    HW217604   4.866   4.752   1.652
 5569SOL     OW17605   2.469   2.638   2.823
 5569SOL    HW117606   2.518   2.659   2.907
 5569SOL    HW217607   2.373   2.664   2.833
 5570SOL     OW17608   6.725   3.588   1.646
 5570SOL    HW117609   6.650   3.627   1.593
 5570SOL    HW217610   6.802   3.568   1.585
 5571SOL     OW17611   6.460   4.969   1.056
 5571SOL    HW117612   6.475   4.871   1.039
 5571SOL    HW217613   6.362   4.987   1.061
 5572SOL     OW17614   1.770   4.299   4.954
 5572SOL    HW117615   1.701   4.328   4.889
 5572SOL    HW217616   1.726   4.276   5.041
 5573SOL     OW17617   3.218   5.061   4.095
 5573SOL    HW117618   3.294   5.058   4.030
 5573SOL    HW217619   3.141   5.109   4.053
 5574SOL     OW17620   0.952   1.740   5.250
 5574SOL    HW117621   0.951   1.820   5.190
 5574SOL    HW217622   0.994   1.765   5.337
 5575SOL     OW17623   0.402   0.126   1.734
 5575SOL    HW117624   0.377   0.038   1.775
 5575SOL    HW217625   0.417   0.114   1.636
 5576SOL     OW17626   1.666   5.337   3.252
 5576SOL    HW117627   1.719   5.324   3.169
 5576SOL    HW217628   1.580   5.286   3.245
 5577SOL     OW17629   1.751   3.272   6.297
 5577SOL    HW117630   1.677   3.339   6.301
 5577SOL    HW217631   1.794   3.277   6.207
 5578SOL     OW17632   3.536   4.157   3.437
 5578SOL    HW117633   3.574   4.158   3.530
 5578SOL    HW217634   3.436   4.163   3.443
 5579SOL     OW17635   6.560   2.909   2.360
 5579SOL    HW117636   6.534   2.997   2.320
 5579SOL    HW217637   6.654   2.888   2.333
 5580SOL     OW17638   5.582   2.105   5.655
 5580SOL    HW117639   5.664   2.160   5.671
 5580SOL    HW217640   5.609   2.012   5.632
 5581SOL     OW17641   1.133   2.586   6.482
 5581SOL    HW117642   1.070   2.642   6.428
 5581SOL    HW217643   1.227   2.618   6.467
 5582SOL     OW17644   2.853   2.682   6.015
 5582SOL    HW117645   2.849   2.607   6.081
 5582SOL    HW217646   2.937   2.674   5.962
 5583SOL     OW17647   5.577   0.181   1.013
 5583SOL    HW117648   5.509   0.253   1.023
 5583SOL    HW217649   5.664   0.211   1.053
 5584SOL     OW17650   1.732   3.395   4.231
 5584SOL    HW117651   1.784   3.458   4.289
 5584SOL    HW217652   1.783   3.375   4.148
 5585SOL     OW17653   5.222   4.986   1.628
 5585SOL    HW117654   5.256   5.045   1.555
 5585SOL    HW217655   5.164   5.039   1.690
 5586SOL     OW17656   0.890   4.720   0.584
 5586SOL    HW117657   0.968   4.745   0.526
 5586SOL    HW217658   0.817   4.682   0.528
 5587SOL     OW17659   6.362   0.609   6.335
 5587SOL    HW117660   6.391   0.513   6.331
 5587SOL    HW217661   6.407   0.654   6.412
 5588SOL     OW17662   3.502   6.756   1.144
 5588SOL    HW117663   3.555   6.785   1.223
 5588SOL    HW217664   3.487   6.834   1.083
 5589SOL     OW17665   6.583   4.702   5.936
 5589SOL    HW117666   6.519   4.679   6.010
 5589SOL    HW217667   6.557   4.790   5.897
 5590SOL     OW17668   5.864   5.615   2.994
 5590SOL    HW117669   5.949   5.569   3.019
 5590SOL    HW217670   5.789   5.548   2.995
 5591SOL     OW17671   5.151   1.323   1.757
 5591SOL    HW117672   5.225   1.298   1.819
 5591SOL    HW217673   5.186   1.326   1.663
 5592SOL     OW17674   0.518   4.523   3.080
 5592SOL    HW117675   0.613   4.492   3.088
 5592SOL    HW217676   0.486   4.558   3.168
 5593SOL     OW17677   0.768   3.753   0.489
 5593SOL    HW117678   0.751   3.751   0.390
 5593SOL    HW217679   0.745   3.665   0.529
 5594SOL     OW17680   6.384   2.035   5.697
 5594SOL    HW117681   6.365   1.949   5.745
 5594SOL    HW217682   6.474   2.069   5.724
 5595SOL     OW17683   0.687   2.361   0.360
 5595SOL    HW117684   0.683   2.399   0.267
 5595SOL    HW217685   0.639   2.422   0.423
 5596SOL     OW17686   3.322   5.687   3.574
 5596SOL    HW117687   3.273   5.756   3.521
 5596SOL    HW217688   3.374   5.732   3.647
 5597SOL     OW17689   4.923   3.424   2.084
 5597SOL    HW117690   4.894   3.336   2.122
 5597SOL    HW217691   4.907   3.424   1.985
 5598SOL     OW17692   5.128   0.824   5.082
 5598SOL    HW117693   5.069   0.904   5.092
 5598SOL    HW217694   5.218   0.853   5.049
 5599SOL     OW17695   0.954   0.666   3.285
 5599SOL    HW117696   0.898   0.587   3.261
 5599SOL    HW217697   0.983   0.713   3.202
 5600SOL     OW17698   1.796   2.564   5.059
 5600SOL    HW117699   1.797   2.636   4.990
 5600SOL    HW217700   1.885   2.559   5.104
 5601SOL     OW17701   2.484   1.040   6.006
 5601SOL    HW117702   2.514   1.030   6.101
 5601SOL    HW217703   2.516   1.128   5.971
 5602SOL     OW17704   1.468   0.504   0.195
 5602SOL    HW117705   1.501   0.517   0.288
 5602SOL    HW217706   1.541   0.467   0.138
 5603SOL     OW17707   6.094   4.637   5.643
 5603SOL    HW117708   6.182   4.622   5.599
 5603SOL    HW217709   6.049   4.549   5.659
 5604SOL     OW17710   5.787   1.481   6.035
 5604SOL    HW117711   5.806   1.427   6.117
 5604SOL    HW217712   5.781   1.421   5.955
 5605SOL     OW17713   1.198   2.068   6.656
 5605SOL    HW117714   1.178   2.092   6.561
 5605SOL    HW217715   1.134   2.116   6.716
 5606SOL     OW17716   6.058   0.063   2.787
 5606SOL    HW117717   5.976   0.100   2.743
 5606SOL    HW217718   6.102   0.134   2.842
 5607SOL     OW17719   5.762   0.472   1.025
 5607SOL    HW117720   5.843   0.521   1.056
 5607SOL    HW217721   5.740   0.399   1.090
 5608SOL     OW17722   4.095   6.359   5.475
 5608SOL    HW117723   4.011   6.326   5.519
 5608SOL    HW217724   4.173   6.308   5.511
 5609SOL     OW17725   1.098   5.415   5.802
 5609SOL    HW117726   1.056   5.505   5.818
 5609SOL    HW217727   1.035   5.357   5.751
 5610SOL     OW17728   4.613   0.602   6.184
 5610SOL    HW117729   4.641   0.633   6.275
 5610SOL    HW217730   4.581   0.680   6.130
 5611SOL     OW17731   1.829   4.198   4.212
 5611SOL    HW117732   1.928   4.199   4.205
 5611SOL    HW217733   1.798   4.282   4.258
 5612SOL     OW17734   2.849   6.810   4.751
 5612SOL    HW117735   2.808   6.895   4.717
 5612SOL    HW217736   2.944   6.827   4.777
 5613SOL     OW17737   3.723   5.471   1.657
 5613SOL    HW117738   3.642   5.468   1.715
 5613SOL    HW217739   3.761   5.564   1.658
 5614SOL     OW17740   4.964   2.254   3.962
 5614SOL    HW117741   4.933   2.213   3.876
 5614SOL    HW217742   5.051   2.302   3.947
 5615SOL     OW17743   1.937   1.530   1.560
 5615SOL    HW117744   1.964   1.449   1.611
 5615SOL    HW217745   1.839   1.546   1.572
 5616SOL     OW17746   1.778   0.213   4.869
 5616SOL    HW117747   1.840   0.224   4.792
 5616SOL    HW217748   1.828   0.223   4.954
 5617SOL     OW17749   0.874   0.564   5.413
 5617SOL    HW117750   0.971   0.541   5.418
 5617SOL    HW217751   0.861   0.660   5.435
 5618SOL     OW17752   6.598   4.662   3.105
 5618SOL    HW117753   6.501   4.676   3.125
 5618SOL    HW217754   6.630   4.579   3.151
 5619SOL     OW17755   2.086   3.894   4.955
 5619SOL    HW117756   2.177   3.934   4.964
 5619SOL    HW217757   2.094   3.797   4.932
 5620SOL     OW17758   4.303   1.514   6.943
 5620SOL    HW117759   4.351   1.597   6.915
 5620SOL    HW217760   4.300   1.509   0.013
 5621SOL     OW17761   2.351   2.110   6.626
 5621SOL    HW117762   2.417   2.121   6.551
 5621SOL    HW217763   2.323   2.014   6.632
 5622SOL     OW17764   5.429   0.877   5.291
 5622SOL    HW117765   5.379   0.792   5.305
 5622SOL    HW217766   5.478   0.901   5.374
 5623SOL     OW17767   0.786   6.100   0.171
 5623SOL    HW117768   0.725   6.113   0.250
 5623SOL    HW217769   0.825   6.008   0.174
 5624SOL     OW17770   0.471   3.953   2.166
 5624SOL    HW117771   0.497   3.957   2.070
 5624SOL    HW217772   0.430   4.040   2.193
 5625SOL     OW17773   6.181   2.429   5.521
 5625SOL    HW117774   6.174   2.376   5.606
 5625SOL    HW217775   6.129   2.384   5.449
 5626SOL     OW17776   5.076   6.073   3.951
 5626SOL    HW117777   5.138   6.024   4.012
 5626SOL    HW217778   4.984   6.073   3.991
 5627SOL     OW17779   0.831   6.420   0.971
 5627SOL    HW117780   0.867   6.375   1.053
 5627SOL    HW217781   0.731   6.424   0.976
 5628SOL     OW17782   1.583   1.556   4.441
 5628SOL    HW117783   1.616   1.528   4.351
 5628SOL    HW217784   1.519   1.632   4.431
 5629SOL     OW17785   3.797   3.017   3.302
 5629SOL    HW117786   3.799   2.974   3.392
 5629SOL    HW217787   3.881   3.069   3.287
 5630SOL     OW17788   6.544   4.224   1.511
 5630SOL    HW117789   6.546   4.213   1.412
 5630SOL    HW217790   6.635   4.250   1.544
 5631SOL     OW17791   5.162   1.363   6.074
 5631SOL    HW117792   5.084   1.426   6.077
 5631SOL    HW217793   5.163   1.317   5.985
 5632SOL     OW17794   2.731   2.358   6.926
 5632SOL    HW117795   2.769   2.445   6.955
 5632SOL    HW217796   2.650   2.374   6.870
 5633SOL     OW17797   0.096   3.184   5.615
 5633SOL    HW117798   0.002   3.151   5.615
 5633SOL    HW217799   0.144   3.147   5.535
 5634SOL     OW17800   5.201   5.883   4.519
 5634SOL    HW117801   5.210   5.790   4.483
 5634SOL    HW217802   5.220   5.949   4.446
 5635SOL     OW17803   3.621   1.881   5.795
 5635SOL    HW117804   3.648   1.805   5.737
 5635SOL    HW217805   3.601   1.847   5.887
 5636SOL     OW17806   3.860   6.398   4.714
 5636SOL    HW117807   3.931   6.469   4.711
 5636SOL    HW217808   3.820   6.396   4.806
 5637SOL     OW17809   6.470   0.369   3.237
 5637SOL    HW117810   6.551   0.328   3.279
 5637SOL    HW217811   6.394   0.367   3.302
 5638SOL     OW17812   6.026   3.499   0.195
 5638SOL    HW117813   5.951   3.502   0.130
 5638SOL    HW217814   6.110   3.531   0.152
 5639SOL     OW17815   4.147   0.317   0.203
 5639SOL    HW117816   4.148   0.416   0.198
 5639SOL    HW217817   4.236   0.281   0.173
 5640SOL     OW17818   1.736   0.108   2.910
 5640SOL    HW117819   1.667   0.096   2.838
 5640SOL    HW217820   1.690   0.120   2.998
 5641SOL     OW17821   6.408   5.807   4.200
 5641SOL    HW117822   6.365   5.840   4.284
 5641SOL    HW217823   6.421   5.708   4.206
 5642SOL     OW17824   1.991   2.170   0.308
 5642SOL    HW117825   1.992   2.252   0.251
 5642SOL    HW217826   2.022   2.091   0.255
 5643SOL     OW17827   5.377   1.852   6.403
 5643SOL    HW117828   5.316   1.840   6.325
 5643SOL    HW217829   5.464   1.807   6.384
 5644SOL     OW17830   2.841   0.843   6.149
 5644SOL    HW117831   2.812   0.769   6.088
 5644SOL    HW217832   2.767   0.911   6.157
 5645SOL     OW17833   5.549   4.020   4.808
 5645SOL    HW117834   5.600   3.951   4.758
 5645SOL    HW217835   5.474   3.977   4.857
 5646SOL     OW17836   1.026   4.164   2.775
 5646SOL    HW117837   1.114   4.160   2.728
 5646SOL    HW217838   0.968   4.089   2.744
 5647SOL     OW17839   5.768   6.691   2.693
 5647SOL    HW117840   5.689   6.741   2.729
 5647SOL    HW217841   5.793   6.728   2.603
 5648SOL     OW17842   5.169   6.022   3.535
 5648SOL    HW117843   5.103   5.984   3.470
 5648SOL    HW217844   5.203   5.949   3.595
 5649SOL     OW17845   0.773   6.763   4.388
 5649SOL    HW117846   0.802   6.742   4.481
 5649SOL    HW217847   0.690   6.711   4.367
 5650SOL     OW17848   6.668   3.936   6.102
 5650SOL    HW117849   6.642   3.924   6.006
 5650SOL    HW217850   6.605   4.000   6.146
 5651SOL     OW17851   2.647   1.245   0.300
 5651SOL    HW117852   2.613   1.187   0.226
 5651SOL    HW217853   2.647   1.341   0.270
 5652SOL     OW17854   0.412   5.865   2.945
 5652SOL    HW117855   0.427   5.848   3.042
 5652SOL    HW217856   0.408   5.964   2.928
 5653SOL     OW17857   0.427   0.156   2.634
 5653SOL    HW117858   0.361   0.226   2.662
 5653SOL    HW217859   0.471   0.118   2.715
 5654SOL     OW17860   2.876   6.151   5.318
 5654SOL    HW117861   2.897   6.058   5.289
 5654SOL    HW217862   2.929   6.217   5.265
 5655SOL     OW17863   5.358   2.586   5.256
 5655SOL    HW117864   5.399   2.677   5.246
 5655SOL    HW217865   5.261   2.596   5.278
 5656SOL     OW17866   6.836   3.543   0.376
 5656SOL    HW117867   6.893   3.530   0.457
 5656SOL    HW217868   6.830   3.457   0.325
 5657SOL     OW17869   5.229   5.734   4.853
 5657SOL    HW117870   5.286   5.815   4.866
 5657SOL    HW217871   5.262   5.683   4.773
 5658SOL     OW17872   2.528   3.104   5.608
 5658SOL    HW117873   2.564   3.161   5.533
 5658SOL    HW217874   2.428   3.102   5.602
 5659SOL     OW17875   2.437   4.304   6.874
 5659SOL    HW117876   2.388   4.219   6.860
 5659SOL    HW217877   2.415   4.368   6.800
 5660SOL     OW17878   4.388   0.116   5.507
 5660SOL    HW117879   4.443   0.033   5.495
 5660SOL    HW217880   4.405   0.154   5.598
 5661SOL     OW17881   0.713   5.679   5.900
 5661SOL    HW117882   0.658   5.748   5.946
 5661SOL    HW217883   0.687   5.675   5.803
 5662SOL     OW17884   3.192   6.386   0.926
 5662SOL    HW117885   3.218   6.447   1.001
 5662SOL    HW217886   3.211   6.291   0.953
 5663SOL     OW17887   1.496   3.561   5.794
 5663SOL    HW117888   1.437   3.549   5.874
 5663SOL    HW217889   1.541   3.650   5.799
 5664SOL     OW17890   4.552   4.979   4.859
 5664SOL    HW117891   4.586   5.072   4.871
 5664SOL    HW217892   4.630   4.918   4.843
 5665SOL     OW17893   1.860   1.560   0.698
 5665SOL    HW117894   1.883   1.463   0.712
 5665SOL    HW217895   1.876   1.610   0.783
 5666SOL     OW17896   5.838   2.601   5.076
 5666SOL    HW117897   5.822   2.580   4.979
 5666SOL    HW217898   5.798   2.690   5.098
 5667SOL     OW17899   2.689   4.867   4.291
 5667SOL    HW117900   2.776   4.838   4.251
 5667SOL    HW217901   2.692   4.854   4.390
 5668SOL     OW17902   4.829   3.990   4.069
 5668SOL    HW117903   4.772   4.025   4.143
 5668SOL    HW217904   4.771   3.952   3.997
 5669SOL     OW17905   5.360   4.420   6.145
 5669SOL    HW117906   5.355   4.519   6.163
 5669SOL    HW217907   5.456   4.394   6.129
 5670SOL     OW17908   1.421   2.853   3.827
 5670SOL    HW117909   1.492   2.923   3.816
 5670SOL    HW217910   1.464   2.764   3.842
 5671SOL     OW17911   6.540   5.103   3.035
 5671SOL    HW117912   6.469   5.171   3.017
 5671SOL    HW217913   6.544   5.038   2.960
 5672SOL     OW17914   5.225   3.121   4.848
 5672SOL    HW117915   5.324   3.112   4.860
 5672SOL    HW217916   5.196   3.067   4.769
 5673SOL     OW17917   1.067   1.980   0.306
 5673SOL    HW117918   1.004   2.048   0.269
 5673SOL    HW217919   1.161   2.005   0.281
 5674SOL     OW17920   2.325   5.083   5.023
 5674SOL    HW117921   2.361   4.992   5.000
 5674SOL    HW217922   2.358   5.149   4.956
 5675SOL     OW17923   2.917   2.417   1.166
 5675SOL    HW117924   2.867   2.491   1.211
 5675SOL    HW217925   2.946   2.446   1.075
 5676SOL     OW17926   3.494   1.186   1.936
 5676SOL    HW117927   3.541   1.118   1.992
 5676SOL    HW217928   3.456   1.257   1.995
 5677SOL     OW17929   0.375   1.703   6.278
 5677SOL    HW117930   0.368   1.630   6.210
 5677SOL    HW217931   0.470   1.734   6.283
 5678SOL     OW17932   3.635   2.044   2.274
 5678SOL    HW117933   3.543   2.067   2.305
 5678SOL    HW217934   3.664   2.109   2.204
 5679SOL     OW17935   0.195   4.126   5.645
 5679SOL    HW117936   0.177   4.117   5.547
 5679SOL    HW217937   0.276   4.183   5.659
 5680SOL     OW17938   0.219   5.734   4.943
 5680SOL    HW117939   0.178   5.703   4.857
 5680SOL    HW217940   0.319   5.730   4.935
 5681SOL     OW17941   1.222   3.805   3.622
 5681SOL    HW117942   1.222   3.905   3.614
 5681SOL    HW217943   1.290   3.767   3.559
 5682SOL     OW17944   2.179   4.428   1.356
 5682SOL    HW117945   2.113   4.423   1.431
 5682SOL    HW217946   2.154   4.362   1.285
 5683SOL     OW17947   6.692   0.301   6.267
 5683SOL    HW117948   6.601   0.342   6.270
 5683SOL    HW217949   6.761   0.373   6.260
 5684SOL     OW17950   2.161   3.066   4.968
 5684SOL    HW117951   2.196   3.076   5.061
 5684SOL    HW217952   2.228   3.019   4.912
 5685SOL     OW17953   2.726   1.407   2.188
 5685SOL    HW117954   2.656   1.458   2.139
 5685SOL    HW217955   2.690   1.378   2.277
 5686SOL     OW17956   5.339   5.516   6.453
 5686SOL    HW117957   5.337   5.565   6.366
 5686SOL    HW217958   5.333   5.418   6.437
 5687SOL     OW17959   2.340   0.064   6.001
 5687SOL    HW117960   2.324   0.017   6.088
 5687SOL    HW217961   2.308   0.008   5.925
 5688SOL     OW17962   1.836   1.961   3.193
 5688SOL    HW117963   1.898   1.988   3.119
 5688SOL    HW217964   1.742   1.986   3.169
 5689SOL     OW17965   0.401   2.871   1.753
 5689SOL    HW117966   0.376   2.867   1.657
 5689SOL    HW217967   0.390   2.781   1.795
 5690SOL     OW17968   3.270   5.313   6.970
 5690SOL    HW117969   3.250   5.332   6.874
 5690SOL    HW217970   3.369   5.300   6.982
 5691SOL     OW17971   4.504   2.380   3.649
 5691SOL    HW117972   4.560   2.303   3.680
 5691SOL    HW217973   4.409   2.366   3.679
 5692SOL     OW17974   6.269   4.470   1.804
 5692SOL    HW117975   6.275   4.454   1.903
 5692SOL    HW217976   6.334   4.541   1.778
 5693SOL     OW17977   4.116   0.207   1.936
 5693SOL    HW117978   4.029   0.231   1.893
 5693SOL    HW217979   4.133   0.267   2.014
 5694SOL     OW17980   0.432   0.379   1.843
 5694SOL    HW117981   0.467   0.436   1.770
 5694SOL    HW217982   0.400   0.292   1.806
 5695SOL     OW17983   2.568   1.165   1.980
 5695SOL    HW117984   2.667   1.164   1.963
 5695SOL    HW217985   2.519   1.153   1.893
 5696SOL     OW17986   0.712   0.258   4.083
 5696SOL    HW117987   0.652   0.219   4.154
 5696SOL    HW217988   0.746   0.184   4.025
 5697SOL     OW17989   6.821   2.281   6.851
 5697SOL    HW117990   6.733   2.234   6.865
 5697SOL    HW217991   6.888   2.245   6.915
 5698SOL     OW17992   3.296   2.099   4.586
 5698SOL    HW117993   3.292   2.000   4.600
 5698SOL    HW217994   3.311   2.144   4.674
 5699SOL     OW17995   2.127   3.045   2.527
 5699SOL    HW117996   2.080   3.097   2.456
 5699SOL    HW217997   2.157   3.108   2.600
 5700SOL     OW17998   6.563   0.347   2.861
 5700SOL    HW117999   6.612   0.365   2.946
 5700SOL    HW218000   6.512   0.261   2.869
 5701SOL     OW18001   1.168   1.119   0.756
 5701SOL    HW118002   1.100   1.047   0.772
 5701SOL    HW218003   1.145   1.169   0.673
 5702SOL     OW18004   1.826   6.838   4.755
 5702SOL    HW118005   1.773   6.923   4.745
 5702SOL    HW218006   1.887   6.827   4.676
 5703SOL     OW18007   0.658   2.781   6.141
 5703SOL    HW118008   0.723   2.856   6.129
 5703SOL    HW218009   0.576   2.799   6.088
 5704SOL     OW18010   3.728   5.233   4.462
 5704SOL    HW118011   3.698   5.274   4.548
 5704SOL    HW218012   3.701   5.136   4.460
 5705SOL     OW18013   6.018   0.762   5.364
 5705SOL    HW118014   6.034   0.858   5.342
 5705SOL    HW218015   5.983   0.755   5.458
 5706SOL     OW18016   5.181   2.023   1.494
 5706SOL    HW118017   5.207   1.978   1.579
 5706SOL    HW218018   5.083   2.043   1.494
 5707SOL     OW18019   6.033   5.296   1.278
 5707SOL    HW118020   6.060   5.390   1.301
 5707SOL    HW218021   5.986   5.255   1.356
 5708SOL     OW18022   5.179   6.216   1.794
 5708SOL    HW118023   5.088   6.233   1.831
 5708SOL    HW218024   5.172   6.171   1.705
 5709SOL     OW18025   0.229   2.829   2.605
 5709SOL    HW118026   0.143   2.867   2.570
 5709SOL    HW218027   0.305   2.868   2.553
 5710SOL     OW18028   4.522   1.508   0.495
 5710SOL    HW118029   4.580   1.544   0.569
 5710SOL    HW218030   4.426   1.514   0.522
 5711SOL     OW18031   4.476   1.842   2.678
 5711SOL    HW118032   4.389   1.865   2.634
 5711SOL    HW218033   4.532   1.789   2.614
 5712SOL     OW18034   6.237   5.928   0.074
 5712SOL    HW118035   6.216   6.025   0.084
 5712SOL    HW218036   6.312   5.903   0.134
 5713SOL     OW18037   1.640   0.997   0.920
 5713SOL    HW118038   1.559   1.029   0.970
 5713SOL    HW218039   1.615   0.975   0.826
 5714SOL     OW18040   6.243   0.035   0.798
 5714SOL    HW118041   6.157   0.076   0.765
 5714SOL    HW218042   6.320   0.085   0.760
 5715SOL     OW18043   0.137   6.698   1.472
 5715SOL    HW118044   0.094   6.759   1.537
 5715SOL    HW218045   0.074   6.679   1.396
 5716SOL     OW18046   0.455   4.756   5.155
 5716SOL    HW118047   0.522   4.683   5.146
 5716SOL    HW218048   0.411   4.772   5.067
 5717SOL     OW18049   0.363   5.381   3.413
 5717SOL    HW118050   0.458   5.409   3.399
 5717SOL    HW218051   0.353   5.284   3.393
 5718SOL     OW18052   0.832   4.092   6.796
 5718SOL    HW118053   0.826   4.042   6.709
 5718SOL    HW218054   0.866   4.030   6.867
 5719SOL     OW18055   2.882   3.783   0.378
 5719SOL    HW118056   2.829   3.731   0.445
 5719SOL    HW218057   2.927   3.720   0.315
 5720SOL     OW18058   3.719   5.268   6.123
 5720SOL    HW118059   3.779   5.270   6.043
 5720SOL    HW218060   3.745   5.193   6.183
 5721SOL     OW18061   2.037   2.865   0.214
 5721SOL    HW118062   2.097   2.849   0.136
 5721SOL    HW218063   1.976   2.787   0.226
 5722SOL     OW18064   1.939   0.397   6.463
 5722SOL    HW118065   1.976   0.444   6.382
 5722SOL    HW218066   1.851   0.437   6.487
 5723SOL     OW18067   4.115   3.051   0.753
 5723SOL    HW118068   4.112   3.140   0.799
 5723SOL    HW218069   4.198   3.002   0.780
 5724SOL     OW18070   5.470   2.063   5.940
 5724SOL    HW118071   5.471   2.051   5.841
 5724SOL    HW218072   5.545   2.010   5.981
 5725SOL     OW18073   6.966   4.504   4.905
 5725SOL    HW118074   0.031   4.478   4.922
 5725SOL    HW218075   6.927   4.443   4.835
 5726SOL     OW18076   4.990   4.375   2.386
 5726SOL    HW118077   5.070   4.431   2.406
 5726SOL    HW218078   4.951   4.402   2.298
 5727SOL     OW18079   1.128   2.612   5.146
 5727SOL    HW118080   1.030   2.600   5.162
 5727SOL    HW218081   1.170   2.523   5.131
 5728SOL     OW18082   3.297   6.985   5.546
 5728SOL    HW118083   3.298   6.885   5.550
 5728SOL    HW218084   3.235   7.020   5.617
 5729SOL     OW18085   2.503   2.073   4.604
 5729SOL    HW118086   2.553   2.044   4.686
 5729SOL    HW218087   2.527   2.013   4.528
 5730SOL     OW18088   6.266   4.275   4.952
 5730SOL    HW118089   6.176   4.286   4.992
 5730SOL    HW218090   6.260   4.215   4.873
 5731SOL     OW18091   0.626   6.511   2.826
 5731SOL    HW118092   0.595   6.551   2.740
 5731SOL    HW218093   0.601   6.571   2.902
 5732SOL     OW18094   6.321   0.730   3.437
 5732SOL    HW118095   6.421   0.728   3.434
 5732SOL    HW218096   6.284   0.691   3.352
 5733SOL     OW18097   2.723   1.118   5.046
 5733SOL    HW118098   2.734   1.201   4.992
 5733SOL    HW218099   2.625   1.100   5.059
 5734SOL     OW18100   1.588   6.672   3.512
 5734SOL    HW118101   1.528   6.593   3.524
 5734SOL    HW218102   1.680   6.641   3.488
 5735SOL     OW18103   2.884   0.691   1.327
 5735SOL    HW118104   2.895   0.602   1.372
 5735SOL    HW218105   2.930   0.761   1.381
 5736SOL     OW18106   1.797   5.118   0.549
 5736SOL    HW118107   1.731   5.084   0.616
 5736SOL    HW218108   1.867   5.172   0.596
 5737SOL     OW18109   5.633   3.957   0.314
 5737SOL    HW118110   5.605   3.993   0.226
 5737SOL    HW218111   5.721   3.910   0.305
 5738SOL     OW18112   0.595   4.755   4.683
 5738SOL    HW118113   0.545   4.673   4.712
 5738SOL    HW218114   0.692   4.744   4.705
 5739SOL     OW18115   0.795   3.055   0.974
 5739SOL    HW118116   0.701   3.022   0.970
 5739SOL    HW218117   0.857   2.979   0.992
 5740SOL     OW18118   4.007   4.765   6.954
 5740SOL    HW118119   3.974   4.822   6.879
 5740SOL    HW218120   3.948   4.685   6.963
 5741SOL     OW18121   0.073   3.033   1.813
 5741SOL    HW118122   7.004   3.041   1.819
 5741SOL    HW218123   0.114   3.124   1.801
 5742SOL     OW18124   0.098   5.795   3.579
 5742SOL    HW118125   0.112   5.742   3.662
 5742SOL    HW218126   0.127   5.741   3.499
 5743SOL     OW18127   1.371   6.142   5.417
 5743SOL    HW118128   1.346   6.238   5.409
 5743SOL    HW218129   1.328   6.103   5.499
 5744SOL     OW18130   5.976   0.394   1.488
 5744SOL    HW118131   6.038   0.320   1.514
 5744SOL    HW218132   6.028   0.468   1.447
 5745SOL     OW18133   1.199   3.351   3.262
 5745SOL    HW118134   1.150   3.367   3.347
 5745SOL    HW218135   1.145   3.388   3.185
 5746SOL     OW18136   6.451   4.205   6.884
 5746SOL    HW118137   6.525   4.272   6.877
 5746SOL    HW218138   6.470   4.129   6.822
 5747SOL     OW18139   1.127   6.388   3.498
 5747SOL    HW118140   1.141   6.291   3.479
 5747SOL    HW218141   1.087   6.399   3.590
 5748SOL     OW18142   1.901   0.177   3.942
 5748SOL    HW118143   1.921   0.259   3.888
 5748SOL    HW218144   1.806   0.179   3.973
 5749SOL     OW18145   1.321   1.084   2.956
 5749SOL    HW118146   1.363   1.162   2.910
 5749SOL    HW218147   1.367   1.067   3.044
 5750SOL     OW18148   5.902   6.423   2.438
 5750SOL    HW118149   5.977   6.383   2.490
 5750SOL    HW218150   5.939   6.475   2.361
 5751SOL     OW18151   0.833   2.997   6.148
 5751SOL    HW118152   0.797   3.039   6.064
 5751SOL    HW218153   0.924   3.034   6.168
 5752SOL     OW18154   1.085   1.412   6.734
 5752SOL    HW118155   1.053   1.323   6.700
 5752SOL    HW218156   1.151   1.450   6.670
 5753SOL     OW18157   4.638   1.781   0.573
 5753SOL    HW118158   4.694   1.862   0.554
 5753SOL    HW218159   4.571   1.769   0.500
 5754SOL     OW18160   5.668   5.766   0.199
 5754SOL    HW118161   5.741   5.816   0.245
 5754SOL    HW218162   5.688   5.762   0.101
 5755SOL     OW18163   3.246   3.687   1.449
 5755SOL    HW118164   3.344   3.673   1.459
 5755SOL    HW218165   3.204   3.700   1.539
 5756SOL     OW18166   6.684   6.356   4.028
 5756SOL    HW118167   6.614   6.312   3.970
 5756SOL    HW218168   6.740   6.286   4.071
 5757SOL     OW18169   6.660   6.321   2.407
 5757SOL    HW118170   6.596   6.289   2.338
 5757SOL    HW218171   6.668   6.253   2.479
 5758SOL     OW18172   2.674   1.610   5.665
 5758SOL    HW118173   2.651   1.705   5.687
 5758SOL    HW218174   2.771   1.594   5.682
 5759SOL     OW18175   0.775   1.588   6.096
 5759SOL    HW118176   0.829   1.637   6.027
 5759SOL    HW218177   0.783   1.489   6.080
 5760SOL     OW18178   6.699   6.069   1.277
 5760SOL    HW118179   6.643   5.986   1.278
 5760SOL    HW218180   6.746   6.080   1.365
 5761SOL     OW18181   4.468   0.414   4.434
 5761SOL    HW118182   4.441   0.331   4.385
 5761SOL    HW218183   4.439   0.407   4.529
 5762SOL     OW18184   5.908   6.226   1.283
 5762SOL    HW118185   5.955   6.313   1.301
 5762SOL    HW218186   5.814   6.244   1.256
 5763SOL     OW18187   2.490   0.954   0.457
 5763SOL    HW118188   2.431   0.953   0.376
 5763SOL    HW218189   2.482   1.043   0.503
 5764SOL     OW18190   4.398   3.212   6.213
 5764SOL    HW118191   4.311   3.163   6.219
 5764SOL    HW218192   4.400   3.267   6.130
 5765SOL     OW18193   6.511   5.486   6.739
 5765SOL    HW118194   6.530   5.402   6.687
 5765SOL    HW218195   6.462   5.551   6.680
 5766SOL     OW18196   2.844   1.047   3.355
 5766SOL    HW118197   2.835   0.973   3.420
 5766SOL    HW218198   2.808   1.132   3.395
 5767SOL     OW18199   5.148   6.848   0.200
 5767SOL    HW118200   5.176   6.826   0.107
 5767SOL    HW218201   5.229   6.860   0.257
 5768SOL     OW18202   6.457   6.868   1.964
 5768SOL    HW118203   6.509   6.857   1.879
 5768SOL    HW218204   6.514   6.841   2.042
 5769SOL     OW18205   1.659   4.848   2.935
 5769SOL    HW118206   1.656   4.942   2.969
 5769SOL    HW218207   1.614   4.787   3.000
 5770SOL     OW18208   5.596   2.152   1.751
 5770SOL    HW118209   5.566   2.057   1.750
 5770SOL    HW218210   5.658   2.167   1.829
 5771SOL     OW18211   1.346   1.341   1.229
 5771SOL    HW118212   1.434   1.296   1.242
 5771SOL    HW218213   1.313   1.375   1.317
 5772SOL     OW18214   6.576   5.382   5.371
 5772SOL    HW118215   6.617   5.357   5.458
 5772SOL    HW218216   6.645   5.378   5.299
 5773SOL     OW18217   5.665   5.775   4.763
 5773SOL    HW118218   5.640   5.868   4.735
 5773SOL    HW218219   5.695   5.776   4.858
 5774SOL     OW18220   2.315   4.901   2.289
 5774SOL    HW118221   2.266   4.930   2.372
 5774SOL    HW218222   2.356   4.811   2.305
 5775SOL     OW18223   0.964   0.967   0.640
 5775SOL    HW118224   0.885   0.912   0.669
 5775SOL    HW218225   0.934   1.036   0.574
 5776SOL     OW18226   4.949   1.144   5.525
 5776SOL    HW118227   4.874   1.127   5.461
 5776SOL    HW218228   4.933   1.094   5.610
 5777SOL     OW18229   5.948   6.926   4.910
 5777SOL    HW118230   5.965   7.001   4.974
 5777SOL    HW218231   5.865   6.946   4.857
 5778SOL     OW18232   2.802   6.922   3.802
 5778SOL    HW118233   2.771   6.836   3.842
 5778SOL    HW218234   2.896   6.910   3.768
 5779SOL     OW18235   3.983   0.030   1.307
 5779SOL    HW118236   3.967   7.012   1.221
 5779SOL    HW218237   3.936   0.118   1.306
 5780SOL     OW18238   6.211   3.999   0.597
 5780SOL    HW118239   6.253   3.922   0.644
 5780SOL    HW218240   6.274   4.077   0.597
 5781SOL     OW18241   3.512   4.147   5.116
 5781SOL    HW118242   3.510   4.227   5.176
 5781SOL    HW218243   3.456   4.075   5.156
 5782SOL     OW18244   4.236   1.483   3.289
 5782SOL    HW118245   4.236   1.568   3.236
 5782SOL    HW218246   4.155   1.429   3.265
 5783SOL     OW18247   3.072   6.017   2.597
 5783SOL    HW118248   3.020   5.941   2.558
 5783SOL    HW218249   3.138   5.981   2.664
 5784SOL     OW18250   1.345   6.126   0.586
 5784SOL    HW118251   1.346   6.084   0.677
 5784SOL    HW218252   1.251   6.127   0.551
 5785SOL     OW18253   2.342   2.513   6.453
 5785SOL    HW118254   2.274   2.583   6.432
 5785SOL    HW218255   2.326   2.477   6.544
 5786SOL     OW18256   0.940   1.963   5.818
 5786SOL    HW118257   0.917   1.881   5.871
 5786SOL    HW218258   0.949   1.939   5.721
 5787SOL     OW18259   0.762   2.558   4.468
 5787SOL    HW118260   0.810   2.498   4.532
 5787SOL    HW218261   0.672   2.519   4.446
 5788SOL     OW18262   0.421   1.810   2.072
 5788SOL    HW118263   0.358   1.806   1.995
 5788SOL    HW218264   0.428   1.904   2.106
 5789SOL     OW18265   2.672   6.757   6.929
 5789SOL    HW118266   2.615   6.774   7.010
 5789SOL    HW218267   2.731   6.677   6.946
 5790SOL     OW18268   6.976   6.495   2.847
 5790SOL    HW118269   6.910   6.542   2.905
 5790SOL    HW218270   0.028   6.551   2.836
 5791SOL     OW18271   4.277   0.454   1.025
 5791SOL    HW118272   4.211   0.379   1.023
 5791SOL    HW218273   4.234   0.535   1.064
 5792SOL     OW18274   5.052   2.308   2.504
 5792SOL    HW118275   5.024   2.346   2.593
 5792SOL    HW218276   5.143   2.344   2.480
 5793SOL     OW18277   4.034   1.487   0.807
 5793SOL    HW118278   4.022   1.585   0.825
 5793SOL    HW218279   3.947   1.439   0.819
 5794SOL     OW18280   3.207   6.021   7.009
 5794SOL    HW118281   3.205   5.924   7.030
 5794SOL    HW218282   3.258   6.036   6.924
 5795SOL     OW18283   0.931   0.587   0.930
 5795SOL    HW118284   0.887   0.506   0.968
 5795SOL    HW218285   0.867   0.664   0.931
 5796SOL     OW18286   4.706   0.480   5.938
 5796SOL    HW118287   4.754   0.395   5.918
 5796SOL    HW218288   4.702   0.494   6.037
 5797SOL     OW18289   6.702   1.899   0.232
 5797SOL    HW118290   6.687   1.916   0.134
 5797SOL    HW218291   6.707   1.800   0.248
 5798SOL     OW18292   2.109   2.688   4.755
 5798SOL    HW118293   2.074   2.711   4.664
 5798SOL    HW218294   2.137   2.592   4.756
 5799SOL     OW18295   2.898   0.084   3.589
 5799SOL    HW118296   2.866   0.164   3.539
 5799SOL    HW218297   2.821   0.043   3.638
 5800SOL     OW18298   1.226   6.144   2.005
 5800SOL    HW118299   1.301   6.091   2.044
 5800SOL    HW218300   1.141   6.092   2.012
 5801SOL     OW18301   1.363   2.021   2.963
 5801SOL    HW118302   1.424   2.053   2.891
 5801SOL    HW218303   1.268   2.042   2.938
 5802SOL     OW18304   0.009   6.913   2.648
 5802SOL    HW118305   6.975   6.839   2.664
 5802SOL    HW218306   7.003   6.998   2.687
 5803SOL     OW18307   0.599   6.987   4.395
 5803SOL    HW118308   0.579   7.020   4.303
 5803SOL    HW218309   0.683   6.933   4.394
 5804SOL     OW18310   6.058   1.782   3.596
 5804SOL    HW118311   6.073   1.865   3.650
 5804SOL    HW218312   6.119   1.710   3.628
 5805SOL     OW18313   1.096   2.860   1.613
 5805SOL    HW118314   1.023   2.798   1.642
 5805SOL    HW218315   1.072   2.901   1.525
 5806SOL     OW18316   6.621   3.750   2.009
 5806SOL    HW118317   6.621   3.827   2.073
 5806SOL    HW218318   6.707   3.750   1.957
 5807SOL     OW18319   1.596   1.058   1.944
 5807SOL    HW118320   1.640   1.143   1.913
 5807SOL    HW218321   1.639   0.980   1.899
 5808SOL     OW18322   6.542   0.098   5.724
 5808SOL    HW118323   6.504   0.136   5.808
 5808SOL    HW218324   6.475   0.039   5.680
 5809SOL     OW18325   0.227   3.618   4.658
 5809SOL    HW118326   0.209   3.716   4.665
 5809SOL    HW218327   0.236   3.579   4.749
 5810SOL     OW18328   1.328   6.446   5.382
 5810SOL    HW118329   1.229   6.440   5.395
 5810SOL    HW218330   1.348   6.470   5.286
 5811SOL     OW18331   3.356   5.050   0.168
 5811SOL    HW118332   3.383   5.067   0.263
 5811SOL    HW218333   3.363   5.135   0.116
 5812SOL     OW18334   6.761   3.407   6.312
 5812SOL    HW118335   6.741   3.480   6.377
 5812SOL    HW218336   6.819   3.442   6.238
 5813SOL     OW18337   6.077   4.977   1.306
 5813SOL    HW118338   5.978   4.971   1.318
 5813SOL    HW218339   6.098   4.990   1.209
 5814SOL     OW18340   5.163   1.544   2.814
 5814SOL    HW118341   5.221   1.527   2.734
 5814SOL    HW218342   5.109   1.462   2.833
 5815SOL     OW18343   6.058   3.597   4.885
 5815SOL    HW118344   6.085   3.661   4.958
 5815SOL    HW218345   6.051   3.505   4.923
 5816SOL     OW18346   6.475   4.653   0.883
 5816SOL    HW118347   6.472   4.553   0.889
 5816SOL    HW218348   6.404   4.692   0.942
 5817SOL     OW18349   6.523   2.742   4.284
 5817SOL    HW118350   6.601   2.804   4.278
 5817SOL    HW218351   6.483   2.730   4.193
 5818SOL     OW18352   2.545   6.819   4.030
 5818SOL    HW118353   2.454   6.856   4.012
 5818SOL    HW218354   2.595   6.881   4.090
 5819SOL     OW18355   4.039   4.235   0.580
 5819SOL    HW118356   4.091   4.151   0.564
 5819SOL    HW218357   4.056   4.299   0.505
 5820SOL     OW18358   0.558   6.577   2.584
 5820SOL    HW118359   0.512   6.495   2.550
 5820SOL    HW218360   0.575   6.640   2.508
 5821SOL     OW18361   6.467   6.708   2.393
 5821SOL    HW118362   6.510   6.641   2.454
 5821SOL    HW218363   6.368   6.707   2.407
 5822SOL     OW18364   0.792   4.383   2.798
 5822SOL    HW118365   0.793   4.425   2.889
 5822SOL    HW218366   0.869   4.319   2.790
 5823SOL     OW18367   2.622   6.344   4.995
 5823SOL    HW118368   2.532   6.388   5.000
 5823SOL    HW218369   2.645   6.325   4.899
 5824SOL     OW18370   2.196   5.403   2.369
 5824SOL    HW118371   2.113   5.429   2.417
 5824SOL    HW218372   2.276   5.443   2.414
 5825SOL     OW18373   3.919   2.152   4.698
 5825SOL    HW118374   3.909   2.075   4.761
 5825SOL    HW218375   3.874   2.131   4.611
 5826SOL     OW18376   1.151   6.374   5.105
 5826SOL    HW118377   1.114   6.389   5.014
 5826SOL    HW218378   1.242   6.416   5.111
 5827SOL     OW18379   2.189   3.750   3.086
 5827SOL    HW118380   2.196   3.791   2.995
 5827SOL    HW218381   2.215   3.817   3.155
 5828SOL     OW18382   4.434   6.841   5.052
 5828SOL    HW118383   4.470   6.748   5.046
 5828SOL    HW218384   4.508   6.905   5.073
 5829SOL     OW18385   2.122   1.097   2.995
 5829SOL    HW118386   2.048   1.158   2.969
 5829SOL    HW218387   2.093   1.039   3.071
 5830SOL     OW18388   4.405   5.253   4.500
 5830SOL    HW118389   4.494   5.208   4.509
 5830SOL    HW218390   4.408   5.316   4.422
 5831SOL     OW18391   2.093   1.522   4.559
 5831SOL    HW118392   2.010   1.474   4.588
 5831SOL    HW218393   2.071   1.617   4.538
 5832SOL     OW18394   2.103   5.115   3.893
 5832SOL    HW118395   2.069   5.128   3.799
 5832SOL    HW218396   2.083   5.197   3.946
 5833SOL     OW18397   2.768   4.784   1.347
 5833SOL    HW118398   2.735   4.843   1.421
 5833SOL    HW218399   2.714   4.801   1.265
 5834SOL     OW18400   5.685   1.876   5.982
 5834SOL    HW118401   5.670   1.781   6.011
 5834SOL    HW218402   5.778   1.904   6.007
 5835SOL     OW18403   4.306   1.256   3.937
 5835SOL    HW118404   4.257   1.272   3.851
 5835SOL    HW218405   4.380   1.191   3.922
 5836SOL     OW18406   5.045   4.925   1.157
 5836SOL    HW118407   4.986   4.846   1.140
 5836SOL    HW218408   5.054   4.940   1.255
 5837SOL     OW18409   2.438   4.737   0.177
 5837SOL    HW118410   2.403   4.692   0.095
 5837SOL    HW218411   2.524   4.694   0.204
 5838SOL     OW18412   3.004   3.097   0.465
 5838SOL    HW118413   2.991   2.998   0.475
 5838SOL    HW218414   3.101   3.119   0.477
 5839SOL     OW18415   2.440   1.431   1.415
 5839SOL    HW118416   2.418   1.418   1.512
 5839SOL    HW218417   2.405   1.520   1.384
 5840SOL     OW18418   6.694   3.824   2.876
 5840SOL    HW118419   6.791   3.803   2.865
 5840SOL    HW218420   6.673   3.838   2.973
 5841SOL     OW18421   5.125   2.115   0.624
 5841SOL    HW118422   5.134   2.087   0.719
 5841SOL    HW218423   5.080   2.042   0.572
 5842SOL     OW18424   3.888   1.927   2.443
 5842SOL    HW118425   3.792   1.936   2.469
 5842SOL    HW218426   3.897   1.856   2.373
 5843SOL     OW18427   2.692   3.246   1.066
 5843SOL    HW118428   2.621   3.234   0.997
 5843SOL    HW218429   2.774   3.195   1.039
 5844SOL     OW18430   0.124   5.344   4.897
 5844SOL    HW118431   0.169   5.258   4.921
 5844SOL    HW218432   0.051   5.327   4.832
 5845SOL     OW18433   2.015   6.200   2.837
 5845SOL    HW118434   1.930   6.249   2.819
 5845SOL    HW218435   2.061   6.242   2.916
 5846SOL     OW18436   0.711   4.587   5.415
 5846SOL    HW118437   0.613   4.603   5.405
 5846SOL    HW218438   0.745   4.639   5.493
 5847SOL     OW18439   1.809   4.266   6.177
 5847SOL    HW118440   1.771   4.174   6.166
 5847SOL    HW218441   1.884   4.278   6.111
 5848SOL     OW18442   2.848   6.086   1.864
 5848SOL    HW118443   2.764   6.042   1.896
 5848SOL    HW218444   2.831   6.184   1.849
 5849SOL     OW18445   2.828   5.820   6.387
 5849SOL    HW118446   2.914   5.846   6.432
 5849SOL    HW218447   2.833   5.725   6.357
 5850SOL     OW18448   5.779   2.111   1.943
 5850SOL    HW118449   5.780   2.016   1.976
 5850SOL    HW218450   5.760   2.172   2.019
 5851SOL     OW18451   1.225   3.249   5.560
 5851SOL    HW118452   1.197   3.242   5.464
 5851SOL    HW218453   1.305   3.309   5.567
 5852SOL     OW18454   4.477   4.823   2.918
 5852SOL    HW118455   4.535   4.849   2.996
 5852SOL    HW218456   4.391   4.785   2.952
 5853SOL     OW18457   3.904   5.024   0.219
 5853SOL    HW118458   3.830   4.963   0.190
 5853SOL    HW218459   3.992   4.983   0.195
 5854SOL     OW18460   2.815   4.617   5.446
 5854SOL    HW118461   2.753   4.547   5.482
 5854SOL    HW218462   2.837   4.596   5.351
 5855SOL     OW18463   1.529   2.166   4.657
 5855SOL    HW118464   1.464   2.134   4.727
 5855SOL    HW218465   1.613   2.196   4.701
 5856SOL     OW18466   0.434   0.729   2.326
 5856SOL    HW118467   0.413   0.632   2.322
 5856SOL    HW218468   0.531   0.743   2.304
 5857SOL     OW18469   5.754   5.386   6.704
 5857SOL    HW118470   5.852   5.363   6.696
 5857SOL    HW218471   5.723   5.365   6.797
 5858SOL     OW18472   2.985   1.411   2.571
 5858SOL    HW118473   3.053   1.449   2.633
 5858SOL    HW218474   2.893   1.436   2.602
 5859SOL     OW18475   5.606   4.996   1.731
 5859SOL    HW118476   5.674   4.944   1.782
 5859SOL    HW218477   5.586   5.081   1.779
 5860SOL     OW18478   1.678   3.435   2.137
 5860SOL    HW118479   1.717   3.367   2.199
 5860SOL    HW218480   1.682   3.401   2.043
 5861SOL     OW18481   5.492   6.898   5.160
 5861SOL    HW118482   5.535   6.857   5.079
 5861SOL    HW218483   5.556   6.896   5.236
 5862SOL     OW18484   6.798   5.031   2.154
 5862SOL    HW118485   6.814   4.960   2.222
 5862SOL    HW218486   6.709   5.015   2.110
 5863SOL     OW18487   3.878   0.174   5.924
 5863SOL    HW118488   3.914   0.087   5.957
 5863SOL    HW218489   3.924   0.199   5.839
 5864SOL     OW18490   3.580   3.668   3.412
 5864SOL    HW118491   3.548   3.763   3.414
 5864SOL    HW218492   3.611   3.645   3.320
 5865SOL     OW18493   5.884   6.457   1.505
 5865SOL    HW118494   5.882   6.540   1.450
 5865SOL    HW218495   5.791   6.433   1.534
 5866SOL     OW18496   3.211   3.680   3.883
 5866SOL    HW118497   3.159   3.761   3.854
 5866SOL    HW218498   3.222   3.681   3.982
 5867SOL     OW18499   4.701   1.523   0.814
 5867SOL    HW118500   4.606   1.537   0.839
 5867SOL    HW218501   4.736   1.439   0.857
 5868SOL     OW18502   0.810   1.109   0.945
 5868SOL    HW118503   0.794   1.141   0.852
 5868SOL    HW218504   0.851   1.183   0.999
 5869SOL     OW18505   2.178   5.320   3.070
 5869SOL    HW118506   2.176   5.417   3.048
 5869SOL    HW218507   2.236   5.305   3.150
 5870SOL     OW18508   4.423   6.552   4.469
 5870SOL    HW118509   4.501   6.502   4.508
 5870SOL    HW218510   4.430   6.551   4.370
 5871SOL     OW18511   4.007   3.513   3.579
 5871SOL    HW118512   4.023   3.423   3.538
 5871SOL    HW218513   3.914   3.517   3.616
 5872SOL     OW18514   3.153   5.628   1.085
 5872SOL    HW118515   3.228   5.568   1.056
 5872SOL    HW218516   3.177   5.723   1.065
 5873SOL     OW18517   4.423   6.510   1.974
 5873SOL    HW118518   4.327   6.504   1.947
 5873SOL    HW218519   4.431   6.508   2.073
 5874SOL     OW18520   6.803   4.289   5.045
 5874SOL    HW118521   6.722   4.294   4.986
 5874SOL    HW218522   6.816   4.377   5.090
 5875SOL     OW18523   3.885   2.376   1.039
 5875SOL    HW118524   3.825   2.425   1.102
 5875SOL    HW218525   3.874   2.277   1.053
 5876SOL     OW18526   3.462   2.934   2.592
 5876SOL    HW118527   3.547   2.942   2.538
 5876SOL    HW218528   3.384   2.936   2.530
 5877SOL     OW18529   5.374   4.240   1.703
 5877SOL    HW118530   5.339   4.173   1.637
 5877SOL    HW218531   5.358   4.332   1.669
 5878SOL     OW18532   1.043   3.728   2.103
 5878SOL    HW118533   1.089   3.797   2.047
 5878SOL    HW218534   0.946   3.750   2.111
 5879SOL     OW18535   2.171   4.511   4.551
 5879SOL    HW118536   2.137   4.424   4.585
 5879SOL    HW218537   2.271   4.509   4.549
 5880SOL     OW18538   3.109   5.111   6.345
 5880SOL    HW118539   3.167   5.101   6.426
 5880SOL    HW218540   3.166   5.109   6.263
 5881SOL     OW18541   1.724   6.316   3.954
 5881SOL    HW118542   1.756   6.225   3.983
 5881SOL    HW218543   1.801   6.380   3.954
 5882SOL     OW18544   4.663   0.303   2.799
 5882SOL    HW118545   4.599   0.359   2.852
 5882SOL    HW218546   4.620   0.275   2.714
 5883SOL     OW18547   1.089   2.860   5.059
 5883SOL    HW118548   1.156   2.893   4.994
 5883SOL    HW218549   1.111   2.766   5.085
 5884SOL     OW18550   0.248   1.062   2.752
 5884SOL    HW118551   0.220   1.037   2.844
 5884SOL    HW218552   0.190   1.137   2.719
 5885SOL     OW18553   5.259   6.624   0.623
 5885SOL    HW118554   5.341   6.681   0.618
 5885SOL    HW218555   5.178   6.682   0.632
 5886SOL     OW18556   5.985   1.507   6.464
 5886SOL    HW118557   5.919   1.580   6.479
 5886SOL    HW218558   6.036   1.490   6.548
 5887SOL     OW18559   3.978   6.176   2.801
 5887SOL    HW118560   4.005   6.156   2.707
 5887SOL    HW218561   3.917   6.255   2.802
 5888SOL     OW18562   6.897   6.454   2.416
 5888SOL    HW118563   6.817   6.411   2.373
 5888SOL    HW218564   6.935   6.392   2.485
 5889SOL     OW18565   3.103   0.285   6.810
 5889SOL    HW118566   3.088   0.348   6.734
 5889SOL    HW218567   3.044   0.310   6.887
 5890SOL     OW18568   4.023   5.377   6.166
 5890SOL    HW118569   4.123   5.384   6.164
 5890SOL    HW218570   3.994   5.297   6.114
 5891SOL     OW18571   1.407   3.403   6.055
 5891SOL    HW118572   1.439   3.329   5.996
 5891SOL    HW218573   1.479   3.428   6.119
 5892SOL     OW18574   1.835   6.105   2.614
 5892SOL    HW118575   1.929   6.125   2.644
 5892SOL    HW218576   1.777   6.184   2.631
 5893SOL     OW18577   1.627   2.478   2.655
 5893SOL    HW118578   1.557   2.540   2.690
 5893SOL    HW218579   1.594   2.383   2.662
 5894SOL     OW18580   1.218   3.556   4.132
 5894SOL    HW118581   1.315   3.534   4.143
 5894SOL    HW218582   1.203   3.652   4.155
 5895SOL     OW18583   5.407   4.263   2.961
 5895SOL    HW118584   5.388   4.307   2.873
 5895SOL    HW218585   5.363   4.173   2.964
 5896SOL     OW18586   5.205   2.643   5.696
 5896SOL    HW118587   5.247   2.572   5.752
 5896SOL    HW218588   5.244   2.732   5.722
 5897SOL     OW18589   4.120   5.129   0.971
 5897SOL    HW118590   4.134   5.191   0.894
 5897SOL    HW218591   4.032   5.083   0.962
 5898SOL     OW18592   2.748   6.657   3.074
 5898SOL    HW118593   2.679   6.729   3.070
 5898SOL    HW218594   2.826   6.683   3.017
 5899SOL     OW18595   4.893   0.748   3.885
 5899SOL    HW118596   4.940   0.786   3.805
 5899SOL    HW218597   4.834   0.672   3.855
 5900SOL     OW18598   3.772   5.071   1.996
 5900SOL    HW118599   3.735   4.980   2.014
 5900SOL    HW218600   3.857   5.063   1.944
 5901SOL     OW18601   2.853   5.987   4.348
 5901SOL    HW118602   2.784   5.980   4.420
 5901SOL    HW218603   2.853   5.904   4.293
 5902SOL     OW18604   6.186   2.409   0.230
 5902SOL    HW118605   6.106   2.375   0.279
 5902SOL    HW218606   6.247   2.456   0.295
 5903SOL     OW18607   0.322   2.331   5.949
 5903SOL    HW118608   0.244   2.285   5.993
 5903SOL    HW218609   0.369   2.389   6.016
 5904SOL     OW18610   1.756   2.988   2.059
 5904SOL    HW118611   1.777   2.964   1.965
 5904SOL    HW218612   1.676   2.937   2.090
 5905SOL     OW18613   0.395   4.189   2.206
 5905SOL    HW118614   0.321   4.199   2.272
 5905SOL    HW218615   0.454   4.269   2.209
 5906SOL     OW18616   0.108   0.538   2.849
 5906SOL    HW118617   0.145   0.523   2.941
 5906SOL    HW218618   0.018   0.581   2.855
 5907SOL     OW18619   2.468   0.719   3.006
 5907SOL    HW118620   2.380   0.680   3.033
 5907SOL    HW218621   2.501   0.781   3.077
 5908SOL     OW18622   0.572   2.586   5.792
 5908SOL    HW118623   0.625   2.523   5.848
 5908SOL    HW218624   0.631   2.625   5.721
 5909SOL     OW18625   6.085   4.504   6.967
 5909SOL    HW118626   6.124   4.468   0.021
 5909SOL    HW218627   6.129   4.591   6.944
 5910SOL     OW18628   1.207   1.421   3.942
 5910SOL    HW118629   1.118   1.466   3.939
 5910SOL    HW218630   1.209   1.345   3.877
 5911SOL     OW18631   6.598   6.059   0.035
 5911SOL    HW118632   6.646   6.104   6.990
 5911SOL    HW218633   6.508   6.028   0.003
 5912SOL     OW18634   0.578   0.511   3.562
 5912SOL    HW118635   0.620   0.533   3.651
 5912SOL    HW218636   0.619   0.570   3.492
 5913SOL     OW18637   6.823   2.485   1.157
 5913SOL    HW118638   6.868   2.540   1.228
 5913SOL    HW218639   6.747   2.537   1.117
 5914SOL     OW18640   0.853   6.970   0.956
 5914SOL    HW118641   0.755   6.980   0.939
 5914SOL    HW218642   0.872   6.875   0.980
 5915SOL     OW18643   4.049   0.656   5.366
 5915SOL    HW118644   4.010   0.574   5.407
 5915SOL    HW218645   4.128   0.686   5.421
 5916SOL     OW18646   1.383   0.444   2.483
 5916SOL    HW118647   1.442   0.485   2.413
 5916SOL    HW218648   1.382   0.345   2.471
 5917SOL     OW18649   2.952   2.828   0.423
 5917SOL    HW118650   3.016   2.752   0.433
 5917SOL    HW218651   2.879   2.802   0.360
 5918SOL     OW18652   3.339   6.816   4.015
 5918SOL    HW118653   3.428   6.801   4.058
 5918SOL    HW218654   3.352   6.863   3.927
 5919SOL     OW18655   2.909   3.563   4.390
 5919SOL    HW118656   2.881   3.656   4.369
 5919SOL    HW218657   2.961   3.526   4.313
 5920SOL     OW18658   1.064   0.508   5.828
 5920SOL    HW118659   1.065   0.580   5.758
 5920SOL    HW218660   0.977   0.459   5.823
 5921SOL     OW18661   2.709   4.870   0.273
 5921SOL    HW118662   2.712   4.855   0.174
 5921SOL    HW218663   2.746   4.960   0.294
 5922SOL     OW18664   5.103   2.037   2.561
 5922SOL    HW118665   5.183   2.009   2.509
 5922SOL    HW218666   5.083   2.133   2.543
 5923SOL     OW18667   6.157   0.807   2.720
 5923SOL    HW118668   6.223   0.797   2.795
 5923SOL    HW218669   6.112   0.719   2.704
 5924SOL     OW18670   6.622   6.579   3.236
 5924SOL    HW118671   6.569   6.664   3.238
 5924SOL    HW218672   6.575   6.509   3.290
 5925SOL     OW18673   4.908   0.792   0.758
 5925SOL    HW118674   4.827   0.760   0.708
 5925SOL    HW218675   4.883   0.809   0.853
 5926SOL     OW18676   5.604   3.257   3.241
 5926SOL    HW118677   5.639   3.165   3.256
 5926SOL    HW218678   5.622   3.286   3.147
 5927SOL     OW18679   0.483   6.347   1.493
 5927SOL    HW118680   0.478   6.248   1.477
 5927SOL    HW218681   0.403   6.377   1.543
 5928SOL     OW18682   3.274   0.500   0.036
 5928SOL    HW118683   3.357   0.454   0.003
 5928SOL    HW218684   3.195   0.440   0.021
 5929SOL     OW18685   1.170   1.150   1.156
 5929SOL    HW118686   1.227   1.230   1.169
 5929SOL    HW218687   1.112   1.136   1.237
 5930SOL     OW18688   1.000   4.374   1.906
 5930SOL    HW118689   0.900   4.369   1.914
 5930SOL    HW218690   1.039   4.282   1.920
 5931SOL     OW18691   4.337   6.020   3.548
 5931SOL    HW118692   4.315   6.105   3.500
 5931SOL    HW218693   4.436   6.014   3.561
 5932SOL     OW18694   3.711   6.423   0.248
 5932SOL    HW118695   3.652   6.350   0.213
 5932SOL    HW218696   3.737   6.485   0.174
 5933SOL     OW18697   6.830   5.966   4.393
 5933SOL    HW118698   6.865   5.900   4.327
 5933SOL    HW218699   6.877   5.953   4.481
 5934SOL     OW18700   3.167   3.878   0.167
 5934SOL    HW118701   3.262   3.859   0.193
 5934SOL    HW218702   3.112   3.795   0.180
 5935SOL     OW18703   1.218   0.013   5.533
 5935SOL    HW118704   1.187   7.013   5.623
 5935SOL    HW218705   1.311   0.050   5.541
 5936SOL     OW18706   3.653   2.960   2.409
 5936SOL    HW118707   3.628   2.896   2.337
 5936SOL    HW218708   3.671   3.051   2.370
 5937SOL     OW18709   0.660   3.161   0.392
 5937SOL    HW118710   0.594   3.086   0.398
 5937SOL    HW218711   0.689   3.171   0.296
 5938SOL     OW18712   0.740   3.738   4.245
 5938SOL    HW118713   0.784   3.731   4.334
 5938SOL    HW218714   0.708   3.648   4.216
 5939SOL     OW18715   4.532   1.115   5.651
 5939SOL    HW118716   4.588   1.077   5.725
 5939SOL    HW218717   4.438   1.081   5.659
 5940SOL     OW18718   4.982   4.790   1.776
 5940SOL    HW118719   5.061   4.749   1.821
 5940SOL    HW218720   4.970   4.885   1.807
 5941SOL     OW18721   0.603   2.087   3.404
 5941SOL    HW118722   0.608   2.080   3.504
 5941SOL    HW218723   0.507   2.098   3.377
 5942SOL     OW18724   4.898   2.604   6.448
 5942SOL    HW118725   4.848   2.676   6.494
 5942SOL    HW218726   4.838   2.558   6.382
 5943SOL     OW18727   2.051   4.894   1.302
 5943SOL    HW118728   1.975   4.900   1.366
 5943SOL    HW218729   2.016   4.889   1.209
 5944SOL     OW18730   6.273   3.748   6.069
 5944SOL    HW118731   6.365   3.721   6.097
 5944SOL    HW218732   6.277   3.835   6.019
 5945SOL     OW18733   6.479   6.644   4.178
 5945SOL    HW118734   6.545   6.693   4.120
 5945SOL    HW218735   6.475   6.687   4.268
 5946SOL     OW18736   2.158   3.389   0.064
 5946SOL    HW118737   2.238   3.331   0.047
 5946SOL    HW218738   2.094   3.382   7.017
 5947SOL     OW18739   3.578   3.392   4.412
 5947SOL    HW118740   3.610   3.446   4.490
 5947SOL    HW218741   3.493   3.346   4.436
 5948SOL     OW18742   4.903   3.868   1.796
 5948SOL    HW118743   4.893   3.931   1.719
 5948SOL    HW218744   4.814   3.847   1.835
 5949SOL     OW18745   1.411   4.152   3.366
 5949SOL    HW118746   1.451   4.244   3.369
 5949SOL    HW218747   1.382   4.132   3.272
 5950SOL     OW18748   2.728   6.549   4.622
 5950SOL    HW118749   2.647   6.562   4.565
 5950SOL    HW218750   2.760   6.639   4.654
 5951SOL     OW18751   6.852   3.066   6.239
 5951SOL    HW118752   6.854   2.966   6.229
 5951SOL    HW218753   6.821   3.107   6.153
 5952SOL     OW18754   3.806   4.002   1.699
 5952SOL    HW118755   3.829   3.924   1.756
 5952SOL    HW218756   3.743   4.062   1.749
 5953SOL     OW18757   6.538   3.292   6.234
 5953SOL    HW118758   6.551   3.236   6.153
 5953SOL    HW218759   6.622   3.343   6.254
 5954SOL     OW18760   2.038   5.101   3.624
 5954SOL    HW118761   2.015   5.137   3.533
 5954SOL    HW218762   2.003   5.008   3.632
 5955SOL     OW18763   3.951   2.864   0.300
 5955SOL    HW118764   3.902   2.822   0.376
 5955SOL    HW218765   3.896   2.857   0.216
 5956SOL     OW18766   4.556   2.841   5.882
 5956SOL    HW118767   4.619   2.912   5.849
 5956SOL    HW218768   4.595   2.797   5.963
 5957SOL     OW18769   6.186   2.100   3.651
 5957SOL    HW118770   6.259   2.045   3.611
 5957SOL    HW218771   6.216   2.195   3.660
 5958SOL     OW18772   2.484   6.091   2.846
 5958SOL    HW118773   2.477   6.067   2.943
 5958SOL    HW218774   2.461   6.188   2.834
 5959SOL     OW18775   5.221   3.631   3.160
 5959SOL    HW118776   5.252   3.538   3.141
 5959SOL    HW218777   5.196   3.639   3.256
 5960SOL     OW18778   5.771   0.320   6.530
 5960SOL    HW118779   5.683   0.339   6.486
 5960SOL    HW218780   5.815   0.407   6.555
 5961SOL     OW18781   3.155   2.064   4.141
 5961SOL    HW118782   3.248   2.101   4.142
 5961SOL    HW218783   3.159   1.965   4.128
 5962SOL     OW18784   4.543   4.504   0.385
 5962SOL    HW118785   4.459   4.454   0.362
 5962SOL    HW218786   4.519   4.592   0.425
 5963SOL     OW18787   1.642   4.107   0.729
 5963SOL    HW118788   1.647   4.175   0.655
 5963SOL    HW218789   1.653   4.016   0.691
 5964SOL     OW18790   1.936   0.265   3.032
 5964SOL    HW118791   1.884   0.181   3.046
 5964SOL    HW218792   1.955   0.308   3.120
 5965SOL     OW18793   2.387   0.386   0.941
 5965SOL    HW118794   2.451   0.425   1.006
 5965SOL    HW218795   2.437   0.331   0.874
 5966SOL     OW18796   2.361   2.117   4.909
 5966SOL    HW118797   2.386   2.211   4.931
 5966SOL    HW218798   2.443   2.066   4.882
 5967SOL     OW18799   4.492   2.381   5.485
 5967SOL    HW118800   4.574   2.353   5.436
 5967SOL    HW218801   4.517   2.422   5.572
 5968SOL     OW18802   6.167   1.962   2.897
 5968SOL    HW118803   6.180   1.943   2.995
 5968SOL    HW218804   6.248   1.931   2.847
 5969SOL     OW18805   5.312   6.870   1.265
 5969SOL    HW118806   5.236   6.808   1.245
 5969SOL    HW218807   5.351   6.904   1.179
 5970SOL     OW18808   6.512   2.678   0.346
 5970SOL    HW118809   6.443   2.626   0.396
 5970SOL    HW218810   6.601   2.634   0.358
 5971SOL     OW18811   6.678   5.301   3.232
 5971SOL    HW118812   6.707   5.228   3.171
 5971SOL    HW218813   6.670   5.266   3.325
 5972SOL     OW18814   5.850   4.971   1.131
 5972SOL    HW118815   5.880   5.061   1.102
 5972SOL    HW218816   5.750   4.970   1.141
 5973SOL     OW18817   3.117   0.951   2.597
 5973SOL    HW118818   3.143   1.016   2.667
 5973SOL    HW218819   3.178   0.871   2.601
 5974SOL     OW18820   5.848   1.028   4.924
 5974SOL    HW118821   5.871   0.934   4.896
 5974SOL    HW218822   5.886   1.092   4.858
 5975SOL     OW18823   4.384   5.102   1.586
 5975SOL    HW118824   4.307   5.160   1.610
 5975SOL    HW218825   4.370   5.064   1.494
 5976SOL     OW18826   1.333   4.005   5.368
 5976SOL    HW118827   1.391   4.011   5.286
 5976SOL    HW218828   1.323   4.096   5.408
 5977SOL     OW18829   6.913   5.405   1.159
 5977SOL    HW118830   6.932   5.492   1.206
 5977SOL    HW218831   6.939   5.329   1.219
 5978SOL     OW18832   3.161   3.762   5.962
 5978SOL    HW118833   3.118   3.673   5.975
 5978SOL    HW218834   3.150   3.791   5.867
 5979SOL     OW18835   6.121   6.928   1.001
 5979SOL    HW118836   6.160   6.991   0.934
 5979SOL    HW218837   6.194   6.885   1.052
 5980SOL     OW18838   3.046   2.859   0.738
 5980SOL    HW118839   3.134   2.904   0.728
 5980SOL    HW218840   2.986   2.886   0.662
 5981SOL     OW18841   3.212   2.700   1.230
 5981SOL    HW118842   3.296   2.721   1.279
 5981SOL    HW218843   3.204   2.601   1.219
 5982SOL     OW18844   5.087   2.545   1.183
 5982SOL    HW118845   5.109   2.467   1.124
 5982SOL    HW218846   5.144   2.623   1.158
 5983SOL     OW18847   6.645   1.502   3.362
 5983SOL    HW118848   6.705   1.489   3.283
 5983SOL    HW218849   6.697   1.487   3.446
 5984SOL     OW18850   6.259   6.264   2.780
 5984SOL    HW118851   6.214   6.320   2.849
 5984SOL    HW218852   6.355   6.290   2.772
 5985SOL     OW18853   7.020   4.067   2.429
 5985SOL    HW118854   7.014   3.977   2.472
 5985SOL    HW218855   6.934   4.088   2.383
 5986SOL     OW18856   3.833   3.443   2.984
 5986SOL    HW118857   3.806   3.534   2.952
 5986SOL    HW218858   3.932   3.432   2.977
 5987SOL     OW18859   6.904   6.152   4.123
 5987SOL    HW118860   6.919   6.081   4.191
 5987SOL    HW218861   6.834   6.122   4.058
 5988SOL     OW18862   1.181   2.862   0.295
 5988SOL    HW118863   1.185   2.890   0.391
 5988SOL    HW218864   1.179   2.944   0.237
 5989SOL     OW18865   2.021   6.772   5.751
 5989SOL    HW118866   1.991   6.685   5.711
 5989SOL    HW218867   1.965   6.846   5.716
 5990SOL     OW18868   2.585   4.029   1.651
 5990SOL    HW118869   2.593   4.004   1.555
 5990SOL    HW218870   2.536   4.116   1.660
 5991SOL     OW18871   5.597   1.234   0.584
 5991SOL    HW118872   5.687   1.199   0.555
 5991SOL    HW218873   5.610   1.311   0.646
 5992SOL     OW18874   2.534   4.994   3.449
 5992SOL    HW118875   2.443   4.967   3.416
 5992SOL    HW218876   2.524   5.045   3.534
 5993SOL     OW18877   5.415   2.157   0.616
 5993SOL    HW118878   5.324   2.117   0.612
 5993SOL    HW218879   5.409   2.252   0.644
 5994SOL     OW18880   7.004   3.776   0.190
 5994SOL    HW118881   6.964   3.706   0.249
 5994SOL    HW218882   6.943   3.793   0.113
 5995SOL     OW18883   5.475   3.211   1.361
 5995SOL    HW118884   5.444   3.210   1.456
 5995SOL    HW218885   5.423   3.144   1.308
 5996SOL     OW18886   2.978   0.079   1.913
 5996SOL    HW118887   2.909   0.150   1.928
 5996SOL    HW218888   2.934   7.019   1.913
 5997SOL     OW18889   6.376   0.460   4.143
 5997SOL    HW118890   6.296   0.520   4.138
 5997SOL    HW218891   6.421   0.471   4.232
 5998SOL     OW18892   6.097   6.018   6.363
 5998SOL    HW118893   6.196   6.033   6.362
 5998SOL    HW218894   6.061   6.044   6.453
 5999SOL     OW18895   5.420   3.480   1.314
 5999SOL    HW118896   5.497   3.531   1.276
 5999SOL    HW218897   5.449   3.387   1.334
 6000SOL     OW18898   1.035   4.995   1.362
 6000SOL    HW118899   0.964   5.044   1.412
 6000SOL    HW218900   0.993   4.927   1.302
 6001SOL     OW18901   6.847   5.702   4.751
 6001SOL    HW118902   6.820   5.796   4.774
 6001SOL    HW218903   6.897   5.662   4.828
 6002SOL     OW18904   5.363   4.715   4.737
 6002SOL    HW118905   5.406   4.773   4.667
 6002SOL    HW218906   5.374   4.758   4.827
 6003SOL     OW18907   2.593   2.170   5.305
 6003SOL    HW118908   2.575   2.072   5.300
 6003SOL    HW218909   2.652   2.198   5.230
 6004SOL     OW18910   5.248   3.509   5.194
 6004SOL    HW118911   5.343   3.506   5.164
 6004SOL    HW218912   5.244   3.517   5.294
 6005SOL     OW18913   4.061   4.236   0.284
 6005SOL    HW118914   4.153   4.203   0.304
 6005SOL    HW218915   3.996   4.161   0.293
 6006SOL     OW18916   3.355   6.284   6.865
 6006SOL    HW118917   3.278   6.312   6.808
 6006SOL    HW218918   3.386   6.193   6.837
 6007SOL     OW18919   2.668   6.838   4.962
 6007SOL    HW118920   2.739   6.814   4.896
 6007SOL    HW218921   2.587   6.780   4.948
 6008SOL     OW18922   2.086   4.057   6.552
 6008SOL    HW118923   2.055   3.964   6.532
 6008SOL    HW218924   2.046   4.120   6.486
 6009SOL     OW18925   3.254   5.697   2.939
 6009SOL    HW118926   3.315   5.739   2.872
 6009SOL    HW218927   3.211   5.616   2.899
 6010SOL     OW18928   0.299   4.758   4.931
 6010SOL    HW118929   0.280   4.754   4.832
 6010SOL    HW218930   0.223   4.803   4.977
 6011SOL     OW18931   5.280   1.792   3.301
 6011SOL    HW118932   5.329   1.706   3.314
 6011SOL    HW218933   5.247   1.825   3.390
 6012SOL     OW18934   6.564   1.083   6.161
 6012SOL    HW118935   6.502   1.073   6.240
 6012SOL    HW218936   6.546   1.170   6.115
 6013SOL     OW18937   5.467   1.171   2.493
 6013SOL    HW118938   5.556   1.203   2.458
 6013SOL    HW218939   5.462   1.187   2.591
 6014SOL     OW18940   3.519   3.681   3.802
 6014SOL    HW118941   3.431   3.652   3.839
 6014SOL    HW218942   3.550   3.616   3.733
 6015SOL     OW18943   6.096   6.811   3.916
 6015SOL    HW118944   5.998   6.829   3.900
 6015SOL    HW218945   6.143   6.898   3.933
 6016SOL     OW18946   4.414   2.384   4.872
 6016SOL    HW118947   4.321   2.397   4.907
 6016SOL    HW218948   4.420   2.297   4.824
 6017SOL     OW18949   1.336   1.782   5.200
 6017SOL    HW118950   1.337   1.882   5.197
 6017SOL    HW218951   1.305   1.752   5.291
 6018SOL     OW18952   2.910   1.448   3.776
 6018SOL    HW118953   2.824   1.398   3.772
 6018SOL    HW218954   2.986   1.383   3.783
 6019SOL     OW18955   6.857   4.602   6.293
 6019SOL    HW118956   6.950   4.574   6.270
 6019SOL    HW218957   6.796   4.523   6.286
 6020SOL     OW18958   0.294   5.531   5.411
 6020SOL    HW118959   0.292   5.435   5.384
 6020SOL    HW218960   0.348   5.584   5.346
 6021SOL     OW18961   5.776   0.513   3.137
 6021SOL    HW118962   5.697   0.562   3.099
 6021SOL    HW218963   5.770   0.515   3.237
 6022SOL     OW18964   6.569   2.872   1.690
 6022SOL    HW118965   6.559   2.971   1.685
 6022SOL    HW218966   6.499   2.835   1.752
 6023SOL     OW18967   4.559   6.548   2.479
 6023SOL    HW118968   4.475   6.602   2.473
 6023SOL    HW218969   4.622   6.591   2.543
 6024SOL     OW18970   0.499   5.781   6.550
 6024SOL    HW118971   0.464   5.705   6.496
 6024SOL    HW218972   0.589   5.808   6.516
 6025SOL     OW18973   3.159   0.894   5.633
 6025SOL    HW118974   3.234   0.942   5.587
 6025SOL    HW218975   3.083   0.957   5.646
 6026SOL     OW18976   5.756   5.613   3.482
 6026SOL    HW118977   5.840   5.587   3.435
 6026SOL    HW218978   5.728   5.704   3.452
 6027SOL     OW18979   5.963   5.002   6.216
 6027SOL    HW118980   5.917   5.004   6.304
 6027SOL    HW218981   5.935   5.082   6.162
 6028SOL     OW18982   6.044   6.138   5.926
 6028SOL    HW118983   6.007   6.208   5.988
 6028SOL    HW218984   5.981   6.124   5.850
 6029SOL     OW18985   3.075   2.161   2.731
 6029SOL    HW118986   3.169   2.151   2.698
 6029SOL    HW218987   3.012   2.160   2.654
 6030SOL     OW18988   5.961   3.363   5.030
 6030SOL    HW118989   5.995   3.272   5.005
 6030SOL    HW218990   5.861   3.363   5.027
 6031SOL     OW18991   6.872   6.528   4.437
 6031SOL    HW118992   6.780   6.490   4.443
 6031SOL    HW218993   6.931   6.464   4.387
 6032SOL     OW18994   3.329   6.820   3.269
 6032SOL    HW118995   3.410   6.762   3.269
 6032SOL    HW218996   3.356   6.916   3.259
 6033SOL     OW18997   0.890   1.652   2.296
 6033SOL    HW118998   0.816   1.587   2.315
 6033SOL    HW218999   0.933   1.679   2.382
 6034SOL     OW19000   0.449   0.394   0.313
 6034SOL    HW119001   0.456   0.344   0.227
 6034SOL    HW219002   0.537   0.391   0.361
 6035SOL     OW19003   2.368   0.601   2.706
 6035SOL    HW119004   2.307   0.615   2.628
 6035SOL    HW219005   2.317   0.616   2.791
 6036SOL     OW19006   6.601   3.122   0.715
 6036SOL    HW119007   6.560   3.212   0.730
 6036SOL    HW219008   6.533   3.051   0.731
 6037SOL     OW19009   4.766   0.731   5.915
 6037SOL    HW119010   4.686   0.784   5.943
 6037SOL    HW219011   4.749   0.633   5.931
 6038SOL     OW19012   1.582   1.217   6.133
 6038SOL    HW119013   1.614   1.149   6.199
 6038SOL    HW219014   1.563   1.172   6.045
 6039SOL     OW19015   3.961   3.193   3.671
 6039SOL    HW119016   4.024   3.190   3.748
 6039SOL    HW219017   3.888   3.126   3.684
 6040SOL     OW19018   0.836   2.102   0.506
 6040SOL    HW119019   0.868   2.124   0.414
 6040SOL    HW219020   0.858   2.177   0.568
 6041SOL     OW19021   0.557   3.072   4.588
 6041SOL    HW119022   0.573   3.091   4.685
 6041SOL    HW219023   0.601   2.986   4.564
 6042SOL     OW19024   2.728   5.891   3.726
 6042SOL    HW119025   2.783   5.957   3.674
 6042SOL    HW219026   2.740   5.907   3.824
 6043SOL     OW19027   2.041   6.627   2.399
 6043SOL    HW119028   2.080   6.640   2.490
 6043SOL    HW219029   2.004   6.714   2.365
 6044SOL     OW19030   0.000   3.088   0.412
 6044SOL    HW119031   0.019   3.174   0.460
 6044SOL    HW219032   6.998   3.019   0.477
 6045SOL     OW19033   4.972   1.064   4.155
 6045SOL    HW119034   5.040   0.991   4.146
 6045SOL    HW219035   4.919   1.071   4.071
 6046SOL     OW19036   3.672   3.529   2.459
 6046SOL    HW119037   3.744   3.497   2.397
 6046SOL    HW219038   3.688   3.625   2.481
 6047SOL     OW19039   0.279   1.310   0.142
 6047SOL    HW119040   0.192   1.331   0.098
 6047SOL    HW219041   0.349   1.295   0.073
 6048SOL     OW19042   5.684   6.008   3.146
 6048SOL    HW119043   5.720   5.999   3.053
 6048SOL    HW219044   5.587   5.985   3.146
 6049SOL     OW19045   5.132   5.006   5.993
 6049SOL    HW119046   5.053   4.950   5.968
 6049SOL    HW219047   5.216   4.957   5.970
 6050SOL     OW19048   2.627   5.253   3.169
 6050SOL    HW119049   2.610   5.344   3.208
 6050SOL    HW219050   2.711   5.216   3.207
 6051SOL     OW19051   0.648   1.183   2.320
 6051SOL    HW119052   0.563   1.210   2.364
 6051SOL    HW219053   0.630   1.107   2.257
 6052SOL     OW19054   5.555   5.616   0.387
 6052SOL    HW119055   5.473   5.568   0.355
 6052SOL    HW219056   5.598   5.663   0.311
 6053SOL     OW19057   3.975   2.534   6.428
 6053SOL    HW119058   4.022   2.459   6.473
 6053SOL    HW219059   3.887   2.550   6.473
 6054SOL     OW19060   4.206   3.733   0.561
 6054SOL    HW119061   4.212   3.699   0.655
 6054SOL    HW219062   4.279   3.693   0.506
 6055SOL     OW19063   3.052   4.294   1.466
 6055SOL    HW119064   2.966   4.322   1.424
 6055SOL    HW219065   3.072   4.199   1.440
 6056SOL     OW19066   5.454   5.667   3.314
 6056SOL    HW119067   5.542   5.646   3.271
 6056SOL    HW219068   5.457   5.758   3.356
 6057SOL     OW19069   5.709   1.138   3.783
 6057SOL    HW119070   5.632   1.078   3.804
 6057SOL    HW219071   5.677   1.216   3.729
 6058SOL     OW19072   0.211   2.472   5.732
 6058SOL    HW119073   0.262   2.418   5.800
 6058SOL    HW219074   0.172   2.552   5.777
 6059SOL     OW19075   3.682   2.443   6.895
 6059SOL    HW119076   3.665   2.444   6.796
 6059SOL    HW219077   3.645   2.527   6.936
 6060SOL     OW19078   1.882   2.638   0.499
 6060SOL    HW119079   1.979   2.646   0.522
 6060SOL    HW219080   1.837   2.577   0.564
 6061SOL     OW19081   3.225   3.980   6.894
 6061SOL    HW119082   3.175   3.938   6.970
 6061SOL    HW219083   3.167   3.981   6.812
 6062SOL     OW19084   2.201   2.126   6.098
 6062SOL    HW119085   2.104   2.118   6.076
 6062SOL    HW219086   2.252   2.147   6.015
 6063SOL     OW19087   4.960   3.872   6.122
 6063SOL    HW119088   4.990   3.963   6.091
 6063SOL    HW219089   5.021   3.841   6.194
 6064SOL     OW19090   5.515   6.273   0.752
 6064SOL    HW119091   5.460   6.247   0.673
 6064SOL    HW219092   5.499   6.209   0.827
 6065SOL     OW19093   2.500   6.217   1.658
 6065SOL    HW119094   2.495   6.229   1.757
 6065SOL    HW219095   2.511   6.120   1.636
 6066SOL     OW19096   5.799   5.712   2.246
 6066SOL    HW119097   5.820   5.616   2.262
 6066SOL    HW219098   5.877   5.756   2.201
 6067SOL     OW19099   0.186   5.621   5.639
 6067SOL    HW119100   0.122   5.691   5.606
 6067SOL    HW219101   0.254   5.601   5.568
 6068SOL     OW19102   4.782   1.733   4.602
 6068SOL    HW119103   4.742   1.748   4.693
 6068SOL    HW219104   4.740   1.652   4.560
 6069SOL     OW19105   0.622   4.969   5.847
 6069SOL    HW119106   0.659   4.948   5.757
 6069SOL    HW219107   0.566   4.893   5.879
 6070SOL     OW19108   2.666   1.098   0.717
 6070SOL    HW119109   2.677   1.185   0.766
 6070SOL    HW219110   2.603   1.039   0.768
 6071SOL     OW19111   5.807   0.728   6.268
 6071SOL    HW119112   5.902   0.721   6.238
 6071SOL    HW219113   5.779   0.824   6.268
 6072SOL     OW19114   6.784   3.015   6.900
 6072SOL    HW119115   6.717   3.063   6.843
 6072SOL    HW219116   6.821   3.079   6.968
 6073SOL     OW19117   4.641   3.797   1.188
 6073SOL    HW119118   4.683   3.717   1.144
 6073SOL    HW219119   4.543   3.782   1.199
 6074SOL     OW19120   0.979   6.342   2.746
 6074SOL    HW119121   1.023   6.257   2.717
 6074SOL    HW219122   0.884   6.323   2.770
 6075SOL     OW19123   6.177   0.051   0.056
 6075SOL    HW119124   6.215   0.111   7.015
 6075SOL    HW219125   6.082   0.029   0.033
 6076SOL     OW19126   0.507   6.588   3.753
 6076SOL    HW119127   0.422   6.596   3.702
 6076SOL    HW219128   0.568   6.663   3.728
 6077SOL     OW19129   4.874   5.905   2.825
 6077SOL    HW119130   4.810   5.829   2.820
 6077SOL    HW219131   4.873   5.956   2.739
 6078SOL     OW19132   5.105   4.653   0.799
 6078SOL    HW119133   5.068   4.744   0.815
 6078SOL    HW219134   5.178   4.635   0.864
 6079SOL     OW19135   3.618   1.957   0.229
 6079SOL    HW119136   3.572   1.872   0.255
 6079SOL    HW219137   3.699   1.937   0.175
 6080SOL     OW19138   0.355   3.503   5.393
 6080SOL    HW119139   0.401   3.441   5.456
 6080SOL    HW219140   0.289   3.559   5.443
 6081SOL     OW19141   1.887   3.996   4.005
 6081SOL    HW119142   1.873   4.095   4.008
 6081SOL    HW219143   1.809   3.949   4.048
 6082SOL     OW19144   5.292   1.595   1.323
 6082SOL    HW119145   5.286   1.686   1.364
 6082SOL    HW219146   5.202   1.567   1.291
 6083SOL     OW19147   4.970   6.807   6.383
 6083SOL    HW119148   5.002   6.726   6.430
 6083SOL    HW219149   5.038   6.836   6.315
 6084SOL     OW19150   6.145   4.982   3.117
 6084SOL    HW119151   6.047   4.972   3.103
 6084SOL    HW219152   6.163   5.066   3.169
 6085SOL     OW19153   0.611   6.597   0.361
 6085SOL    HW119154   0.565   6.626   0.445
 6085SOL    HW219155   0.688   6.539   0.384
 6086SOL     OW19156   3.408   3.437   6.954
 6086SOL    HW119157   3.439   3.490   6.875
 6086SOL    HW219158   3.445   3.345   6.949
 6087SOL     OW19159   4.381   6.732   0.900
 6087SOL    HW119160   4.425   6.766   0.816
 6087SOL    HW219161   4.318   6.659   0.877
 6088SOL     OW19162   4.283   6.114   2.209
 6088SOL    HW119163   4.249   6.140   2.119
 6088SOL    HW219164   4.229   6.037   2.244
 6089SOL     OW19165   6.669   4.062   3.110
 6089SOL    HW119166   6.733   4.102   3.045
 6089SOL    HW219167   6.689   4.096   3.202
 6090SOL     OW19168   3.761   5.682   5.003
 6090SOL    HW119169   3.672   5.707   5.040
 6090SOL    HW219170   3.757   5.589   4.966
 6091SOL     OW19171   0.783   2.169   2.525
 6091SOL    HW119172   0.686   2.144   2.525
 6091SOL    HW219173   0.810   2.195   2.618
 6092SOL     OW19174   2.447   6.903   1.383
 6092SOL    HW119175   2.543   6.876   1.378
 6092SOL    HW219176   2.431   6.980   1.320
 6093SOL     OW19177   2.621   2.657   1.715
 6093SOL    HW119178   2.546   2.641   1.650
 6093SOL    HW219179   2.636   2.755   1.726
 6094SOL     OW19180   0.681   6.695   5.504
 6094SOL    HW119181   0.765   6.670   5.456
 6094SOL    HW219182   0.694   6.784   5.549
 6095SOL     OW19183   5.274   5.187   2.279
 6095SOL    HW119184   5.368   5.176   2.311
 6095SOL    HW219185   5.251   5.284   2.275
 6096SOL     OW19186   4.922   6.059   2.603
 6096SOL    HW119187   4.939   6.155   2.624
 6096SOL    HW219188   4.892   6.050   2.509
 6097SOL     OW19189   2.878   5.369   2.333
 6097SOL    HW119190   2.971   5.379   2.297
 6097SOL    HW219191   2.831   5.297   2.283
 6098SOL     OW19192   6.253   0.605   5.269
 6098SOL    HW119193   6.168   0.651   5.295
 6098SOL    HW219194   6.313   0.599   5.350
 6099SOL     OW19195   3.900   6.984   5.307
 6099SOL    HW119196   3.812   6.938   5.318
 6099SOL    HW219197   3.948   6.947   5.228
 6100SOL     OW19198   0.487   5.884   5.149
 6100SOL    HW119199   0.388   5.868   5.145
 6100SOL    HW219200   0.519   5.921   5.062
 6101SOL     OW19201   0.591   2.611   1.921
 6101SOL    HW119202   0.501   2.575   1.896
 6101SOL    HW219203   0.579   2.700   1.966
 6102SOL     OW19204   3.481   0.284   2.932
 6102SOL    HW119205   3.501   0.380   2.909
 6102SOL    HW219206   3.539   0.255   3.008
 6103SOL     OW19207   5.982   1.048   2.435
 6103SOL    HW119208   6.056   1.074   2.497
 6103SOL    HW219209   5.895   1.048   2.484
 6104SOL     OW19210   6.897   1.104   4.456
 6104SOL    HW119211   6.834   1.029   4.438
 6104SOL    HW219212   6.944   1.088   4.543
 6105SOL     OW19213   4.054   4.526   5.614
 6105SOL    HW119214   4.137   4.562   5.657
 6105SOL    HW219215   4.070   4.515   5.516
 6106SOL     OW19216   6.077   3.969   4.979
 6106SOL    HW119217   6.094   4.050   5.034
 6106SOL    HW219218   6.041   3.995   4.890
 6107SOL     OW19219   5.716   5.011   5.284
 6107SOL    HW119220   5.780   4.943   5.320
 6107SOL    HW219221   5.695   4.990   5.189
 6108SOL     OW19222   2.496   1.201   6.273
 6108SOL    HW119223   2.401   1.183   6.246
 6108SOL    HW219224   2.500   1.285   6.327
 6109SOL     OW19225   0.251   6.363   3.888
 6109SOL    HW119226   0.351   6.363   3.893
 6109SOL    HW219227   0.218   6.269   3.878
 6110SOL     OW19228   1.559   1.057   4.123
 6110SOL    HW119229   1.542   0.996   4.046
 6110SOL    HW219230   1.568   1.151   4.091
 6111SOL     OW19231   2.077   3.281   0.494
 6111SOL    HW119232   2.166   3.237   0.484
 6111SOL    HW219233   2.049   3.321   0.407
 6112SOL     OW19234   4.485   6.275   3.789
 6112SOL    HW119235   4.413   6.239   3.731
 6112SOL    HW219236   4.568   6.291   3.735
 6113SOL     OW19237   3.061   5.258   0.347
 6113SOL    HW119238   3.004   5.334   0.378
 6113SOL    HW219239   3.110   5.285   0.264
 6114SOL     OW19240   4.291   3.006   1.080
 6114SOL    HW119241   4.278   2.922   1.027
 6114SOL    HW219242   4.388   3.027   1.086
 6115SOL     OW19243   0.142   0.564   5.054
 6115SOL    HW119244   0.217   0.628   5.070
 6115SOL    HW219245   0.132   0.504   5.133
 6116SOL     OW19246   6.243   3.182   0.391
 6116SOL    HW119247   6.185   3.173   0.472
 6116SOL    HW219248   6.226   3.104   0.330
 6117SOL     OW19249   2.198   2.207   1.603
 6117SOL    HW119250   2.274   2.271   1.593
 6117SOL    HW219251   2.214   2.147   1.682
 6118SOL     OW19252   5.301   0.610   2.031
 6118SOL    HW119253   5.273   0.535   2.090
 6118SOL    HW219254   5.389   0.588   1.988
 6119SOL     OW19255   0.414   1.267   6.951
 6119SOL    HW119256   0.397   1.191   6.888
 6119SOL    HW219257   0.474   1.334   6.907
 6120SOL     OW19258   3.058   0.133   3.891
 6120SOL    HW119259   3.139   0.189   3.873
 6120SOL    HW219260   2.981   0.168   3.838
 6121SOL     OW19261   2.173   2.052   5.397
 6121SOL    HW119262   2.189   1.992   5.319
 6121SOL    HW219263   2.255   2.053   5.455
 6122SOL     OW19264   4.866   4.754   5.290
 6122SOL    HW119265   4.823   4.714   5.209
 6122SOL    HW219266   4.926   4.829   5.262
 6123SOL     OW19267   6.372   1.135   5.064
 6123SOL    HW119268   6.376   1.177   4.973
 6123SOL    HW219269   6.299   1.066   5.066
 6124SOL     OW19270   2.242   5.517   3.950
 6124SOL    HW119271   2.317   5.457   3.920
 6124SOL    HW219272   2.256   5.543   4.045
 6125SOL     OW19273   3.434   1.683   5.594
 6125SOL    HW119274   3.524   1.670   5.635
 6125SOL    HW219275   3.431   1.641   5.503
 6126SOL     OW19276   6.238   3.021   6.777
 6126SOL    HW119277   6.262   2.978   6.690
 6126SOL    HW219278   6.145   3.056   6.773
 6127SOL     OW19279   5.388   1.437   2.967
 6127SOL    HW119280   5.330   1.470   2.893
 6127SOL    HW219281   5.474   1.489   2.968
 6128SOL     OW19282   5.637   5.564   6.562
 6128SOL    HW119283   5.594   5.532   6.477
 6128SOL    HW219284   5.661   5.485   6.619
 6129SOL     OW19285   2.903   5.855   2.913
 6129SOL    HW119286   2.939   5.944   2.941
 6129SOL    HW219287   2.913   5.790   2.988
 6130SOL     OW19288   5.658   3.080   6.908
 6130SOL    HW119289   5.724   3.154   6.919
 6130SOL    HW219290   5.672   3.035   6.820
 6131SOL     OW19291   6.711   2.156   3.200
 6131SOL    HW119292   6.709   2.253   3.222
 6131SOL    HW219293   6.793   2.134   3.147
 6132SOL     OW19294   4.509   6.621   6.418
 6132SOL    HW119295   4.492   6.569   6.335
 6132SOL    HW219296   4.599   6.598   6.454
 6133SOL     OW19297   0.992   2.281   3.019
 6133SOL    HW119298   1.001   2.276   3.119
 6133SOL    HW219299   0.916   2.340   2.995
 6134SOL     OW19300   0.447   6.673   5.180
 6134SOL    HW119301   0.511   6.734   5.226
 6134SOL    HW219302   0.376   6.728   5.134
 6135SOL     OW19303   6.549   6.997   0.537
 6135SOL    HW119304   6.647   7.014   0.522
 6135SOL    HW219305   6.535   6.899   0.553
 6136SOL     OW19306   0.913   1.835   3.840
 6136SOL    HW119307   0.976   1.900   3.884
 6136SOL    HW219308   0.824   1.840   3.885
 6137SOL     OW19309   6.907   4.795   0.991
 6137SOL    HW119310   6.967   4.781   0.913
 6137SOL    HW219311   6.960   4.827   1.069
 6138SOL     OW19312   5.351   0.664   2.498
 6138SOL    HW119313   5.421   0.655   2.427
 6138SOL    HW219314   5.287   0.736   2.473
 6139SOL     OW19315   1.707   1.534   4.924
 6139SOL    HW119316   1.791   1.487   4.951
 6139SOL    HW219317   1.730   1.626   4.892
 6140SOL     OW19318   2.142   6.862   3.100
 6140SOL    HW119319   2.079   6.784   3.097
 6140SOL    HW219320   2.210   6.847   3.171
 6141SOL     OW19321   1.212   1.159   0.122
 6141SOL    HW119322   1.228   1.061   0.112
 6141SOL    HW219323   1.147   1.176   0.196
 6142SOL     OW19324   6.398   0.326   1.404
 6142SOL    HW119325   6.316   0.340   1.349
 6142SOL    HW219326   6.389   0.242   1.458
 6143SOL     OW19327   0.717   3.200   5.676
 6143SOL    HW119328   0.694   3.133   5.606
 6143SOL    HW219329   0.800   3.249   5.649
 6144SOL     OW19330   3.299   5.315   2.712
 6144SOL    HW119331   3.225   5.363   2.759
 6144SOL    HW219332   3.387   5.343   2.749
 6145SOL     OW19333   4.824   2.963   3.468
 6145SOL    HW119334   4.820   2.972   3.369
 6145SOL    HW219335   4.859   3.047   3.508
 6146SOL     OW19336   5.930   0.489   5.371
 6146SOL    HW119337   5.951   0.468   5.466
 6146SOL    HW219338   5.957   0.584   5.351
 6147SOL     OW19339   1.314   2.208   5.574
 6147SOL    HW119340   1.278   2.185   5.664
 6147SOL    HW219341   1.241   2.205   5.506
 6148SOL     OW19342   3.667   5.311   6.964
 6148SOL    HW119343   3.700   5.253   6.889
 6148SOL    HW219344   3.735   5.313   0.007
 6149SOL     OW19345   3.833   1.799   1.727
 6149SOL    HW119346   3.764   1.807   1.800
 6149SOL    HW219347   3.816   1.715   1.675
 6150SOL     OW19348   0.185   4.320   4.714
 6150SOL    HW119349   0.213   4.305   4.619
 6150SOL    HW219350   0.169   4.232   4.758
 6151SOL     OW19351   3.955   4.971   3.165
 6151SOL    HW119352   3.901   4.962   3.248
 6151SOL    HW219353   3.929   4.901   3.099
 6152SOL     OW19354   1.230   3.943   2.969
 6152SOL    HW119355   1.252   3.846   2.971
 6152SOL    HW219356   1.208   3.970   2.875
 6153SOL     OW19357   4.904   6.126   1.170
 6153SOL    HW119358   4.845   6.051   1.199
 6153SOL    HW219359   4.874   6.161   1.081
 6154SOL     OW19360   5.016   4.161   2.580
 6154SOL    HW119361   5.018   4.224   2.503
 6154SOL    HW219362   5.038   4.069   2.549
 6155SOL     OW19363   1.829   1.268   3.749
 6155SOL    HW119364   1.864   1.340   3.809
 6155SOL    HW219365   1.904   1.210   3.718
 6156SOL     OW19366   5.374   4.328   2.346
 6156SOL    HW119367   5.460   4.283   2.321
 6156SOL    HW219368   5.310   4.321   2.270
 6157SOL     OW19369   0.529   3.130   1.001
 6157SOL    HW119370   0.505   3.217   1.044
 6157SOL    HW219371   0.551   3.062   1.072
 6158SOL     OW19372   2.918   1.903   5.321
 6158SOL    HW119373   2.971   1.940   5.397
 6158SOL    HW219374   2.960   1.931   5.234
 6159SOL     OW19375   5.714   2.794   0.056
 6159SOL    HW119376   5.721   2.885   0.014
 6159SOL    HW219377   5.641   2.794   0.124
 6160SOL     OW19378   0.634   0.402   1.463
 6160SOL    HW119379   0.614   0.436   1.555
 6160SOL    HW219380   0.643   0.302   1.466
 6161SOL     OW19381   4.702   3.583   6.892
 6161SOL    HW119382   4.634   3.632   6.837
 6161SOL    HW219383   4.742   3.645   6.959
 6162SOL     OW19384   6.898   5.754   1.954
 6162SOL    HW119385   6.970   5.709   1.900
 6162SOL    HW219386   6.817   5.767   1.897
 6163SOL     OW19387   6.163   5.961   2.780
 6163SOL    HW119388   6.141   6.050   2.821
 6163SOL    HW219389   6.221   5.909   2.844
 6164SOL     OW19390   3.343   4.001   3.953
 6164SOL    HW119391   3.404   3.957   4.018
 6164SOL    HW219392   3.388   4.082   3.914
 6165SOL     OW19393   3.358   1.286   0.136
 6165SOL    HW119394   3.451   1.308   0.106
 6165SOL    HW219395   3.297   1.364   0.118
 6166SOL     OW19396   2.802   2.027   6.187
 6166SOL    HW119397   2.731   1.957   6.201
 6166SOL    HW219398   2.888   1.995   6.227
 6167SOL     OW19399   1.621   3.381   3.297
 6167SOL    HW119400   1.533   3.425   3.310
 6167SOL    HW219401   1.692   3.451   3.284
 6168SOL     OW19402   0.369   3.617   4.103
 6168SOL    HW119403   0.335   3.538   4.154
 6168SOL    HW219404   0.319   3.699   4.131
 6169SOL     OW19405   2.423   0.888   6.709
 6169SOL    HW119406   2.328   0.906   6.733
 6169SOL    HW219407   2.440   0.917   6.615
 6170SOL     OW19408   2.682   4.497   0.892
 6170SOL    HW119409   2.598   4.543   0.922
 6170SOL    HW219410   2.696   4.513   0.794
 6171SOL     OW19411   2.255   3.825   1.790
 6171SOL    HW119412   2.183   3.865   1.734
 6171SOL    HW219413   2.231   3.835   1.887
 6172SOL     OW19414   2.496   5.686   2.148
 6172SOL    HW119415   2.569   5.636   2.101
 6172SOL    HW219416   2.408   5.667   2.102
 6173SOL     OW19417   1.534   5.845   2.384
 6173SOL    HW119418   1.632   5.860   2.397
 6173SOL    HW219419   1.513   5.748   2.397
 6174SOL     OW19420   5.597   4.253   1.839
 6174SOL    HW119421   5.509   4.269   1.794
 6174SOL    HW219422   5.665   4.230   1.771
 6175SOL     OW19423   5.485   0.329   3.867
 6175SOL    HW119424   5.416   0.260   3.888
 6175SOL    HW219425   5.492   0.393   3.943
 6176SOL     OW19426   4.996   3.174   6.353
 6176SOL    HW119427   4.914   3.211   6.397
 6176SOL    HW219428   4.969   3.116   6.276
 6177SOL     OW19429   6.833   3.206   2.483
 6177SOL    HW119430   6.770   3.276   2.448
 6177SOL    HW219431   6.784   3.146   2.547
 6178SOL     OW19432   5.822   3.473   1.901
 6178SOL    HW119433   5.766   3.491   1.820
 6178SOL    HW219434   5.819   3.376   1.923
 6179SOL     OW19435   0.710   1.666   5.190
 6179SOL    HW119436   0.802   1.696   5.215
 6179SOL    HW219437   0.655   1.745   5.163
 6180SOL     OW19438   3.452   0.233   6.345
 6180SOL    HW119439   3.455   0.328   6.378
 6180SOL    HW219440   3.527   0.181   6.386
 6181SOL     OW19441   4.306   6.004   6.728
 6181SOL    HW119442   4.285   6.101   6.739
 6181SOL    HW219443   4.313   5.961   6.818
 6182SOL     OW19444   5.093   6.540   6.162
 6182SOL    HW119445   5.026   6.614   6.159
 6182SOL    HW219446   5.157   6.550   6.086
 6183SOL     OW19447   3.585   0.948   2.609
 6183SOL    HW119448   3.621   0.876   2.669
 6183SOL    HW219449   3.660   0.983   2.553
 6184SOL     OW19450   5.981   0.150   6.466
 6184SOL    HW119451   5.977   0.132   6.367
 6184SOL    HW219452   5.900   0.203   6.493
 6185SOL     OW19453   1.229   3.017   5.990
 6185SOL    HW119454   1.209   2.920   5.976
 6185SOL    HW219455   1.169   3.073   5.933
 6186SOL     OW19456   5.235   0.040   4.497
 6186SOL    HW119457   5.251   0.121   4.440
 6186SOL    HW219458   5.312   7.007   4.488
 6187SOL     OW19459   3.165   4.994   4.785
 6187SOL    HW119460   3.214   5.006   4.872
 6187SOL    HW219461   3.078   4.948   4.802
 6188SOL     OW19462   2.702   6.984   1.499
 6188SOL    HW119463   2.669   6.902   1.547
 6188SOL    HW219464   2.783   6.960   1.445
 6189SOL     OW19465   5.098   4.588   3.260
 6189SOL    HW119466   5.036   4.664   3.281
 6189SOL    HW219467   5.044   4.504   3.245
 6190SOL     OW19468   5.090   2.490   5.465
 6190SOL    HW119469   5.135   2.552   5.530
 6190SOL    HW219470   5.023   2.541   5.411
 6191SOL     OW19471   6.281   2.225   6.387
 6191SOL    HW119472   6.292   2.129   6.360
 6191SOL    HW219473   6.198   2.262   6.346
 6192SOL     OW19474   3.206   1.984   0.420
 6192SOL    HW119475   3.131   1.944   0.471
 6192SOL    HW219476   3.293   1.949   0.455
 6193SOL     OW19477   6.309   6.780   1.416
 6193SOL    HW119478   6.392   6.727   1.428
 6193SOL    HW219479   6.245   6.760   1.491
 6194SOL     OW19480   1.560   0.573   0.481
 6194SOL    HW119481   1.536   0.495   0.538
 6194SOL    HW219482   1.636   0.622   0.522
 6195SOL     OW19483   2.749   6.881   5.925
 6195SOL    HW119484   2.685   6.958   5.932
 6195SOL    HW219485   2.726   6.812   5.994
 6196SOL     OW19486   0.005   1.347   5.998
 6196SOL    HW119487   0.014   1.323   6.094
 6196SOL    HW219488   6.971   1.422   5.987
 6197SOL     OW19489   2.344   2.981   0.736
 6197SOL    HW119490   2.274   2.965   0.805
 6197SOL    HW219491   2.359   2.898   0.682
 6198SOL     OW19492   3.777   5.142   2.426
 6198SOL    HW119493   3.710   5.203   2.383
 6198SOL    HW219494   3.729   5.079   2.487
 6199SOL     OW19495   0.845   0.900   6.421
 6199SOL    HW119496   0.805   0.837   6.355
 6199SOL    HW219497   0.940   0.918   6.397
 6200SOL     OW19498   4.016   0.930   6.057
 6200SOL    HW119499   3.971   0.898   6.140
 6200SOL    HW219500   3.953   0.924   5.980
 6201SOL     OW19501   2.332   4.390   4.058
 6201SOL    HW119502   2.352   4.412   4.153
 6201SOL    HW219503   2.272   4.460   4.019
 6202SOL     OW19504   2.909   2.561   1.408
 6202SOL    HW119505   2.869   2.520   1.491
 6202SOL    HW219506   2.994   2.513   1.386
 6203SOL     OW19507   5.540   2.317   5.053
 6203SOL    HW119508   5.474   2.308   5.128
 6203SOL    HW219509   5.629   2.282   5.083
 6204SOL     OW19510   1.679   6.537   6.059
 6204SOL    HW119511   1.700   6.509   6.153
 6204SOL    HW219512   1.737   6.614   6.033
 6205SOL     OW19513   5.164   6.536   0.099
 6205SOL    HW119514   5.261   6.513   0.098
 6205SOL    HW219515   5.128   6.526   0.192
 6206SOL     OW19516   5.768   0.048   3.319
 6206SOL    HW119517   5.668   0.054   3.314
 6206SOL    HW219518   5.807   0.095   3.239
 6207SOL     OW19519   1.983   4.340   4.686
 6207SOL    HW119520   2.006   4.424   4.734
 6207SOL    HW219521   2.004   4.261   4.744
 6208SOL     OW19522   5.788   5.837   6.057
 6208SOL    HW119523   5.829   5.868   6.142
 6208SOL    HW219524   5.812   5.741   6.042
 6209SOL     OW19525   3.266   5.070   1.034
 6209SOL    HW119526   3.192   5.138   1.034
 6209SOL    HW219527   3.275   5.031   0.942
 6210SOL     OW19528   6.827   5.006   3.059
 6210SOL    HW119529   6.764   4.978   3.132
 6210SOL    HW219530   6.837   5.106   3.061
 6211SOL     OW19531   2.597   0.412   5.041
 6211SOL    HW119532   2.503   0.383   5.022
 6211SOL    HW219533   2.598   0.509   5.064
 6212SOL     OW19534   6.819   0.166   3.806
 6212SOL    HW119535   6.913   0.145   3.780
 6212SOL    HW219536   6.760   0.088   3.785
 6213SOL     OW19537   6.751   0.451   0.211
 6213SOL    HW119538   6.765   0.455   0.310
 6213SOL    HW219539   6.791   0.532   0.168
 6214SOL     OW19540   5.855   5.053   2.390
 6214SOL    HW119541   5.854   5.111   2.308
 6214SOL    HW219542   5.846   4.957   2.363
 6215SOL     OW19543   2.478   5.522   1.094
 6215SOL    HW119544   2.502   5.512   1.190
 6215SOL    HW219545   2.461   5.619   1.074
 6216SOL     OW19546   6.866   1.907   2.521
 6216SOL    HW119547   6.886   2.004   2.537
 6216SOL    HW219548   6.906   1.878   2.435
 6217SOL     OW19549   5.239   2.289   1.670
 6217SOL    HW119550   5.279   2.197   1.668
 6217SOL    HW219551   5.183   2.303   1.589
 6218SOL     OW19552   3.928   4.901   4.426
 6218SOL    HW119553   3.830   4.906   4.447
 6218SOL    HW219554   3.977   4.973   4.475
 6219SOL     OW19555   0.369   1.489   3.944
 6219SOL    HW119556   0.316   1.405   3.946
 6219SOL    HW219557   0.454   1.474   3.893
 6220SOL     OW19558   1.738   3.781   5.218
 6220SOL    HW119559   1.663   3.762   5.281
 6220SOL    HW219560   1.707   3.766   5.124
 6221SOL     OW19561   4.363   4.958   4.376
 6221SOL    HW119562   4.332   4.881   4.432
 6221SOL    HW219563   4.392   5.033   4.436
 6222SOL     OW19564   0.329   1.596   1.282
 6222SOL    HW119565   0.249   1.640   1.323
 6222SOL    HW219566   0.412   1.638   1.319
 6223SOL     OW19567   5.095   3.994   4.496
 6223SOL    HW119568   5.024   3.928   4.519
 6223SOL    HW219569   5.141   3.965   4.412
 6224SOL     OW19570   2.269   0.333   4.476
 6224SOL    HW119571   2.263   0.426   4.442
 6224SOL    HW219572   2.267   0.333   4.576
 6225SOL     OW19573   4.281   2.093   6.805
 6225SOL    HW119574   4.213   2.061   6.739
 6225SOL    HW219575   4.273   2.040   6.889
 6226SOL     OW19576   6.476   6.798   4.389
 6226SOL    HW119577   6.554   6.853   4.418
 6226SOL    HW219578   6.394   6.855   4.386
 6227SOL     OW19579   2.786   4.782   0.029
 6227SOL    HW119580   2.842   4.858   7.028
 6227SOL    HW219581   2.713   4.765   6.992
 6228SOL     OW19582   6.737   1.154   2.518
 6228SOL    HW119583   6.767   1.232   2.573
 6228SOL    HW219584   6.641   1.166   2.493
 6229SOL     OW19585   1.564   2.530   1.949
 6229SOL    HW119586   1.594   2.559   2.040
 6229SOL    HW219587   1.527   2.437   1.955
 6230SOL     OW19588   2.217   2.320   3.422
 6230SOL    HW119589   2.273   2.283   3.348
 6230SOL    HW219590   2.268   2.390   3.471
 6231SOL     OW19591   6.744   5.488   1.604
 6231SOL    HW119592   6.752   5.431   1.686
 6231SOL    HW219593   6.824   5.548   1.598
 6232SOL     OW19594   1.101   1.395   7.013
 6232SOL    HW119595   1.140   1.307   0.008
 6232SOL    HW219596   1.087   1.398   6.914
 6233SOL     OW19597   4.410   1.537   6.467
 6233SOL    HW119598   4.378   1.445   6.446
 6233SOL    HW219599   4.501   1.532   6.508
 6234SOL     OW19600   1.831   2.613   3.661
 6234SOL    HW119601   1.855   2.684   3.595
 6234SOL    HW219602   1.739   2.630   3.697
 6235SOL     OW19603   1.969   5.785   2.998
 6235SOL    HW119604   1.924   5.858   3.048
 6235SOL    HW219605   1.903   5.742   2.936
 6236SOL     OW19606   6.576   3.929   0.327
 6236SOL    HW119607   6.487   3.885   0.320
 6236SOL    HW219608   6.563   4.027   0.342
 6237SOL     OW19609   3.890   6.365   6.898
 6237SOL    HW119610   3.881   6.390   6.801
 6237SOL    HW219611   3.824   6.294   6.920
 6238SOL     OW19612   4.538   4.105   1.177
 6238SOL    HW119613   4.540   4.119   1.078
 6238SOL    HW219614   4.563   4.011   1.197
 6239SOL     OW19615   2.451   0.223   3.731
 6239SOL    HW119616   2.433   0.180   3.643
 6239SOL    HW219617   2.508   0.163   3.787
 6240SOL     OW19618   1.533   3.514   0.269
 6240SOL    HW119619   1.604   3.532   0.201
 6240SOL    HW219620   1.574   3.474   0.350
 6241SOL     OW19621   4.801   0.179   1.634
 6241SOL    HW119622   4.833   0.152   1.725
 6241SOL    HW219623   4.705   0.154   1.624
 6242SOL     OW19624   3.890   2.057   3.718
 6242SOL    HW119625   3.792   2.052   3.700
 6242SOL    HW219626   3.907   2.121   3.792
 6243SOL     OW19627   5.458   5.651   2.986
 6243SOL    HW119628   5.523   5.574   2.985
 6243SOL    HW219629   5.486   5.719   2.918
 6244SOL     OW19630   2.094   1.824   2.158
 6244SOL    HW119631   2.182   1.832   2.110
 6244SOL    HW219632   2.047   1.912   2.156
 6245SOL     OW19633   1.995   3.578   0.810
 6245SOL    HW119634   2.029   3.574   0.903
 6245SOL    HW219635   2.040   3.652   0.760
 6246SOL     OW19636   4.365   0.510   6.976
 6246SOL    HW119637   4.374   0.592   6.920
 6246SOL    HW219638   4.291   0.523   0.012
 6247SOL     OW19639   6.751   6.037   3.012
 6247SOL    HW119640   6.721   6.064   3.104
 6247SOL    HW219641   6.673   6.034   2.950
 6248SOL     OW19642   1.137   5.563   1.052
 6248SOL    HW119643   1.081   5.566   0.969
 6248SOL    HW219644   1.077   5.557   1.132
 6249SOL     OW19645   5.791   4.252   6.484
 6249SOL    HW119646   5.700   4.293   6.481
 6249SOL    HW219647   5.814   4.229   6.579
 6250SOL     OW19648   6.184   4.847   5.798
 6250SOL    HW119649   6.268   4.890   5.764
 6250SOL    HW219650   6.171   4.759   5.752
 6251SOL     OW19651   4.699   1.785   0.924
 6251SOL    HW119652   4.657   1.705   0.967
 6251SOL    HW219653   4.694   1.776   0.825
 6252SOL     OW19654   1.930   6.194   5.357
 6252SOL    HW119655   2.025   6.202   5.388
 6252SOL    HW219656   1.908   6.098   5.342
 6253SOL     OW19657   2.743   3.985   1.339
 6253SOL    HW119658   2.664   3.926   1.322
 6253SOL    HW219659   2.739   4.064   1.277
 6254SOL     OW19660   5.272   0.095   0.283
 6254SOL    HW119661   5.191   0.040   0.267
 6254SOL    HW219662   5.339   0.078   0.210
 6255SOL     OW19663   0.012   2.142   3.290
 6255SOL    HW119664   6.962   2.153   3.349
 6255SOL    HW219665   0.017   2.047   3.258
 6256SOL     OW19666   3.648   5.297   4.208
 6256SOL    HW119667   3.686   5.296   4.300
 6256SOL    HW219668   3.680   5.378   4.159
 6257SOL     OW19669   4.303   3.172   0.311
 6257SOL    HW119670   4.278   3.203   0.403
 6257SOL    HW219671   4.236   3.205   0.245
 6258SOL     OW19672   4.827   2.477   2.461
 6258SOL    HW119673   4.886   2.410   2.505
 6258SOL    HW219674   4.858   2.492   2.367
 6259SOL     OW19675   3.155   2.337   1.580
 6259SOL    HW119676   3.200   2.392   1.650
 6259SOL    HW219677   3.225   2.289   1.526
 6260SOL     OW19678   3.472   3.713   0.847
 6260SOL    HW119679   3.462   3.812   0.834
 6260SOL    HW219680   3.409   3.683   0.917
 6261SOL     OW19681   4.627   0.321   6.743
 6261SOL    HW119682   4.665   0.332   6.651
 6261SOL    HW219683   4.552   0.386   6.756
 6262SOL     OW19684   0.513   6.068   5.379
 6262SOL    HW119685   0.480   6.160   5.358
 6262SOL    HW219686   0.491   6.007   5.303
 6263SOL     OW19687   6.364   1.287   0.909
 6263SOL    HW119688   6.420   1.358   0.868
 6263SOL    HW219689   6.368   1.294   1.009
 6264SOL     OW19690   2.229   1.643   6.869
 6264SOL    HW119691   2.146   1.589   6.878
 6264SOL    HW219692   2.256   1.678   6.959
 6265SOL     OW19693   4.911   3.808   1.084
 6265SOL    HW119694   4.828   3.847   1.124
 6265SOL    HW219695   4.898   3.710   1.070
 6266SOL     OW19696   3.042   6.995   2.400
 6266SOL    HW119697   3.124   7.011   2.345
 6266SOL    HW219698   3.056   6.915   2.459
 6267SOL     OW19699   2.522   0.199   6.994
 6267SOL    HW119700   2.492   0.263   0.035
 6267SOL    HW219701   2.443   0.150   6.958
 6268SOL     OW19702   2.567   5.494   3.308
 6268SOL    HW119703   2.545   5.568   3.245
 6268SOL    HW219704   2.485   5.467   3.358
 6269SOL     OW19705   5.925   4.338   0.263
 6269SOL    HW119706   6.018   4.348   0.298
 6269SOL    HW219707   5.927   4.288   0.177
 6270SOL     OW19708   0.665   0.934   4.507
 6270SOL    HW119709   0.738   0.944   4.574
 6270SOL    HW219710   0.661   0.839   4.475
 6271SOL     OW19711   6.421   1.904   1.071
 6271SOL    HW119712   6.433   1.845   0.991
 6271SOL    HW219713   6.325   1.903   1.100
 6272SOL     OW19714   2.027   2.156   3.536
 6272SOL    HW119715   2.094   2.177   3.465
 6272SOL    HW219716   2.021   2.233   3.600
 6273SOL     OW19717   4.255   0.507   2.479
 6273SOL    HW119718   4.221   0.438   2.543
 6273SOL    HW219719   4.185   0.524   2.409
 6274SOL     OW19720   2.775   6.646   6.670
 6274SOL    HW119721   2.750   6.735   6.706
 6274SOL    HW219722   2.768   6.578   6.743
 6275SOL     OW19723   2.954   0.445   4.343
 6275SOL    HW119724   2.867   0.426   4.297
 6275SOL    HW219725   3.026   0.454   4.276
 6276SOL     OW19726   1.279   5.358   3.667
 6276SOL    HW119727   1.225   5.302   3.730
 6276SOL    HW219728   1.221   5.387   3.590
 6277SOL     OW19729   5.512   3.288   4.396
 6277SOL    HW119730   5.431   3.326   4.351
 6277SOL    HW219731   5.586   3.278   4.330
 6278SOL     OW19732   4.325   0.546   4.090
 6278SOL    HW119733   4.231   0.548   4.125
 6278SOL    HW219734   4.344   0.457   4.049
 6279SOL     OW19735   4.826   1.316   6.966
 6279SOL    HW119736   4.887   1.346   0.010
 6279SOL    HW219737   4.731   1.341   6.990
 6280SOL     OW19738   0.935   5.149   5.952
 6280SOL    HW119739   0.857   5.152   6.015
 6280SOL    HW219740   0.906   5.185   5.863
 6281SOL     OW19741   2.820   6.965   5.165
 6281SOL    HW119742   2.835   0.034   5.174
 6281SOL    HW219743   2.755   6.949   5.091
 6282SOL     OW19744   1.245   0.315   3.390
 6282SOL    HW119745   1.208   0.309   3.297
 6282SOL    HW219746   1.287   0.227   3.415
 6283SOL     OW19747   0.785   3.288   5.241
 6283SOL    HW119748   0.706   3.339   5.207
 6283SOL    HW219749   0.775   3.191   5.219
 6284SOL     OW19750   2.561   4.716   6.449
 6284SOL    HW119751   2.659   4.725   6.434
 6284SOL    HW219752   2.537   4.754   6.538
 6285SOL     OW19753   2.269   4.558   2.945
 6285SOL    HW119754   2.362   4.521   2.944
 6285SOL    HW219755   2.267   4.640   3.001
 6286SOL     OW19756   6.302   6.857   4.786
 6286SOL    HW119757   6.381   6.916   4.800
 6286SOL    HW219758   6.283   6.806   4.870
 6287SOL     OW19759   3.641   5.010   2.631
 6287SOL    HW119760   3.640   4.982   2.727
 6287SOL    HW219761   3.584   4.949   2.577
 6288SOL     OW19762   5.624   3.672   1.164
 6288SOL    HW119763   5.712   3.695   1.123
 6288SOL    HW219764   5.574   3.610   1.104
 6289SOL     OW19765   1.067   6.950   2.517
 6289SOL    HW119766   1.070   6.970   2.419
 6289SOL    HW219767   1.081   6.852   2.532
 6290SOL     OW19768   6.004   3.395   3.939
 6290SOL    HW119769   6.007   3.479   3.993
 6290SOL    HW219770   5.964   3.415   3.849
 6291SOL     OW19771   4.139   3.537   3.320
 6291SOL    HW119772   4.141   3.581   3.410
 6291SOL    HW219773   4.133   3.438   3.332
 6292SOL     OW19774   0.015   1.555   1.768
 6292SOL    HW119775   0.032   1.461   1.798
 6292SOL    HW219776   6.976   1.554   1.695
 6293SOL     OW19777   5.483   5.005   0.550
 6293SOL    HW119778   5.483   5.098   0.513
 6293SOL    HW219779   5.498   4.940   0.475
 6294SOL     OW19780   3.788   5.826   2.428
 6294SOL    HW119781   3.793   5.849   2.330
 6294SOL    HW219782   3.747   5.735   2.438
 6295SOL     OW19783   6.837   6.123   5.874
 6295SOL    HW119784   6.836   6.123   5.774
 6295SOL    HW219785   6.775   6.052   5.908
 6296SOL     OW19786   6.765   0.913   2.380
 6296SOL    HW119787   6.784   0.988   2.444
 6296SOL    HW219788   6.851   0.881   2.340
 6297SOL     OW19789   5.538   0.808   5.700
 6297SOL    HW119790   5.438   0.816   5.694
 6297SOL    HW219791   5.567   0.825   5.795
 6298SOL     OW19792   6.905   2.027   3.731
 6298SOL    HW119793   6.863   2.094   3.792
 6298SOL    HW219794   6.974   2.072   3.674
 6299SOL     OW19795   6.295   2.791   0.677
 6299SOL    HW119796   6.388   2.759   0.660
 6299SOL    HW219797   6.230   2.727   0.635
 6300SOL     OW19798   4.913   1.347   3.592
 6300SOL    HW119799   4.932   1.250   3.577
 6300SOL    HW219800   4.855   1.357   3.673
 6301SOL     OW19801   3.158   0.704   0.943
 6301SOL    HW119802   3.195   0.626   0.891
 6301SOL    HW219803   3.062   0.717   0.918
 6302SOL     OW19804   6.601   0.647   2.422
 6302SOL    HW119805   6.667   0.721   2.408
 6302SOL    HW219806   6.583   0.602   2.335
 6303SOL     OW19807   1.630   5.922   4.989
 6303SOL    HW119808   1.551   5.966   5.031
 6303SOL    HW219809   1.675   5.985   4.926
 6304SOL     OW19810   4.113   1.039   5.110
 6304SOL    HW119811   4.065   1.126   5.121
 6304SOL    HW219812   4.171   1.022   5.189
 6305SOL     OW19813   5.075   1.424   2.481
 6305SOL    HW119814   5.075   1.524   2.486
 6305SOL    HW219815   5.147   1.387   2.539
 6306SOL     OW19816   6.245   2.780   4.455
 6306SOL    HW119817   6.284   2.805   4.366
 6306SOL    HW219818   6.316   2.738   4.512
 6307SOL     OW19819   1.907   4.641   0.058
 6307SOL    HW119820   1.986   4.684   0.101
 6307SOL    HW219821   1.823   4.683   0.092
 6308SOL     OW19822   3.866   2.830   5.869
 6308SOL    HW119823   3.898   2.737   5.854
 6308SOL    HW219824   3.776   2.842   5.827
 6309SOL     OW19825   5.760   2.146   5.092
 6309SOL    HW119826   5.823   2.143   5.015
 6309SOL    HW219827   5.751   2.054   5.131
 6310SOL     OW19828   0.290   5.374   4.420
 6310SOL    HW119829   0.376   5.326   4.438
 6310SOL    HW219830   0.295   5.419   4.331
 6311SOL     OW19831   5.982   6.395   4.029
 6311SOL    HW119832   6.034   6.321   4.072
 6311SOL    HW219833   6.043   6.450   3.972
 6312SOL     OW19834   5.188   4.269   5.612
 6312SOL    HW119835   5.098   4.301   5.584
 6312SOL    HW219836   5.259   4.323   5.565
 6313SOL     OW19837   2.354   5.067   4.019
 6313SOL    HW119838   2.304   5.090   4.103
 6313SOL    HW219839   2.295   5.083   3.940
 6314SOL     OW19840   1.475   0.353   3.558
 6314SOL    HW119841   1.390   0.377   3.511
 6314SOL    HW219842   1.546   0.335   3.491
 6315SOL     OW19843   2.357   4.100   0.060
 6315SOL    HW119844   2.422   4.156   0.008
 6315SOL    HW219845   2.407   4.041   0.123
 6316SOL     OW19846   4.378   1.601   5.718
 6316SOL    HW119847   4.446   1.527   5.712
 6316SOL    HW219848   4.425   1.687   5.734
 6317SOL     OW19849   6.062   5.196   4.713
 6317SOL    HW119850   6.161   5.186   4.701
 6317SOL    HW219851   6.030   5.130   4.781
 6318SOL     OW19852   1.898   2.403   4.498
 6318SOL    HW119853   1.856   2.488   4.532
 6318SOL    HW219854   1.827   2.340   4.468
 6319SOL     OW19855   0.681   1.606   2.806
 6319SOL    HW119856   0.627   1.656   2.739
 6319SOL    HW219857   0.691   1.660   2.889
 6320SOL     OW19858   0.256   1.631   3.333
 6320SOL    HW119859   0.157   1.637   3.343
 6320SOL    HW219860   0.299   1.616   3.422
 6321SOL     OW19861   2.756   3.847   5.828
 6321SOL    HW119862   2.795   3.826   5.917
 6321SOL    HW219863   2.659   3.821   5.826
 6322SOL     OW19864   2.128   0.943   6.806
 6322SOL    HW119865   2.073   0.919   6.726
 6322SOL    HW219866   2.109   0.879   6.880
 6323SOL     OW19867   4.461   1.259   1.366
 6323SOL    HW119868   4.480   1.327   1.295
 6323SOL    HW219869   4.414   1.303   1.442
 6324SOL     OW19870   3.715   2.099   6.229
 6324SOL    HW119871   3.717   2.154   6.312
 6324SOL    HW219872   3.747   2.154   6.152
 6325SOL     OW19873   1.924   2.497   2.837
 6325SOL    HW119874   1.967   2.568   2.781
 6325SOL    HW219875   1.888   2.537   2.921
 6326SOL     OW19876   4.259   6.204   1.148
 6326SOL    HW119877   4.301   6.116   1.122
 6326SOL    HW219878   4.327   6.260   1.195
 6327SOL     OW19879   3.984   5.486   5.618
 6327SOL    HW119880   4.060   5.463   5.556
 6327SOL    HW219881   3.972   5.411   5.683
 6328SOL     OW19882   3.078   4.875   6.480
 6328SOL    HW119883   3.062   4.938   6.404
 6328SOL    HW219884   3.096   4.784   6.444
 6329SOL     OW19885   1.130   1.356   2.739
 6329SOL    HW119886   1.168   1.415   2.809
 6329SOL    HW219887   1.067   1.409   2.681
 6330SOL     OW19888   3.491   0.329   0.386
 6330SOL    HW119889   3.471   0.324   0.484
 6330SOL    HW219890   3.514   0.423   0.361
 6331SOL     OW19891   5.383   2.960   2.221
 6331SOL    HW119892   5.388   2.876   2.166
 6331SOL    HW219893   5.460   2.962   2.285
 6332SOL     OW19894   5.216   6.658   2.597
 6332SOL    HW119895   5.157   6.632   2.521
 6332SOL    HW219896   5.174   6.631   2.684
 6333SOL     OW19897   1.670   5.125   2.919
 6333SOL    HW119898   1.749   5.144   2.862
 6333SOL    HW219899   1.586   5.150   2.870
 6334SOL     OW19900   2.679   1.823   2.671
 6334SOL    HW119901   2.605   1.876   2.712
 6334SOL    HW219902   2.749   1.806   2.741
 6335SOL     OW19903   0.490   1.883   0.405
 6335SOL    HW119904   0.411   1.853   0.352
 6335SOL    HW219905   0.551   1.805   0.422
 6336SOL     OW19906   1.116   3.272   5.323
 6336SOL    HW119907   1.070   3.339   5.264
 6336SOL    HW219908   1.071   3.183   5.314
 6337SOL     OW19909   0.036   4.966   4.701
 6337SOL    HW119910   0.133   4.938   4.697
 6337SOL    HW219911   7.010   4.887   4.725
 6338SOL     OW19912   3.703   1.021   4.144
 6338SOL    HW119913   3.688   1.074   4.227
 6338SOL    HW219914   3.781   1.059   4.094
 6339SOL     OW19915   0.311   2.868   4.631
 6339SOL    HW119916   0.402   2.825   4.629
 6339SOL    HW219917   0.241   2.797   4.624
 6340SOL     OW19918   2.293   5.601   4.217
 6340SOL    HW119919   2.328   5.690   4.245
 6340SOL    HW219920   2.285   5.542   4.297
 6341SOL     OW19921   6.579   5.399   2.297
 6341SOL    HW119922   6.665   5.397   2.246
 6341SOL    HW219923   6.520   5.470   2.261
 6342SOL     OW19924   0.973   3.459   0.398
 6342SOL    HW119925   0.972   3.552   0.433
 6342SOL    HW219926   1.066   3.423   0.402
 6343SOL     OW19927   4.655   0.970   0.531
 6343SOL    HW119928   4.693   0.877   0.535
 6343SOL    HW219929   4.583   0.978   0.599
 6344SOL     OW19930   6.826   4.630   4.449
 6344SOL    HW119931   6.821   4.596   4.355
 6344SOL    HW219932   6.764   4.708   4.459
 6345SOL     OW19933   2.622   2.452   1.923
 6345SOL    HW119934   2.703   2.424   1.974
 6345SOL    HW219935   2.648   2.516   1.851
 6346SOL     OW19936   0.272   5.496   4.175
 6346SOL    HW119937   0.341   5.457   4.114
 6346SOL    HW219938   0.277   5.596   4.171
 6347SOL     OW19939   3.064   0.393   0.781
 6347SOL    HW119940   3.026   0.310   0.740
 6347SOL    HW219941   3.035   0.399   0.876
 6348SOL     OW19942   0.744   2.503   4.866
 6348SOL    HW119943   0.663   2.561   4.869
 6348SOL    HW219944   0.716   2.408   4.850
 6349SOL     OW19945   1.591   0.974   0.617
 6349SOL    HW119946   1.530   0.895   0.623
 6349SOL    HW219947   1.540   1.057   0.643
 6350SOL     OW19948   0.057   5.182   3.670
 6350SOL    HW119949   0.018   5.270   3.643
 6350SOL    HW219950   0.130   5.197   3.737
 6351SOL     OW19951   6.875   1.293   2.728
 6351SOL    HW119952   6.883   1.223   2.799
 6351SOL    HW219953   6.833   1.375   2.767
 6352SOL     OW19954   0.450   5.399   2.403
 6352SOL    HW119955   0.482   5.461   2.332
 6352SOL    HW219956   0.351   5.404   2.411
 6353SOL     OW19957   0.730   6.459   1.814
 6353SOL    HW119958   0.722   6.368   1.856
 6353SOL    HW219959   0.825   6.474   1.786
 6354SOL     OW19960   6.897   6.755   4.235
 6354SOL    HW119961   6.833   6.827   4.211
 6354SOL    HW219962   6.860   6.702   4.312
 6355SOL     OW19963   0.869   2.882   2.132
 6355SOL    HW119964   0.928   2.925   2.200
 6355SOL    HW219965   0.790   2.941   2.114
 6356SOL     OW19966   3.192   3.264   0.779
 6356SOL    HW119967   3.257   3.330   0.740
 6356SOL    HW219968   3.215   3.172   0.747
 6357SOL     OW19969   5.168   2.022   0.946
 6357SOL    HW119970   5.118   2.027   1.033
 6357SOL    HW219971   5.264   1.998   0.965
 6358SOL     OW19972   0.831   3.238   4.550
 6358SOL    HW119973   0.808   3.146   4.580
 6358SOL    HW219974   0.747   3.286   4.525
 6359SOL     OW19975   6.965   1.770   6.627
 6359SOL    HW119976   7.018   1.744   6.546
 6359SOL    HW219977   6.988   1.864   6.653
 6360SOL     OW19978   3.237   5.390   4.121
 6360SOL    HW119979   3.259   5.480   4.158
 6360SOL    HW219980   3.146   5.363   4.153
 6361SOL     OW19981   3.004   6.613   6.036
 6361SOL    HW119982   2.908   6.589   6.022
 6361SOL    HW219983   3.011   6.681   6.109
 6362SOL     OW19984   6.337   5.114   6.179
 6362SOL    HW119985   6.267   5.166   6.130
 6362SOL    HW219986   6.296   5.034   6.222
 6363SOL     OW19987   0.635   5.682   4.284
 6363SOL    HW119988   0.624   5.768   4.335
 6363SOL    HW219989   0.660   5.609   4.348
 6364SOL     OW19990   1.982   2.777   6.584
 6364SOL    HW119991   1.926   2.723   6.522
 6364SOL    HW219992   1.957   2.874   6.576
 6365SOL     OW19993   4.739   5.101   2.747
 6365SOL    HW119994   4.801   5.052   2.686
 6365SOL    HW219995   4.735   5.197   2.719
 6366SOL     OW19996   0.214   4.466   4.945
 6366SOL    HW119997   0.203   4.444   4.848
 6366SOL    HW219998   0.284   4.538   4.954
 6367SOL     OW19999   6.040   6.252   2.605
 6367SOL    HW120000   5.983   6.172   2.626
 6367SOL    HW220001   6.104   6.267   2.681
 6368SOL     OW20002   3.682   0.685   3.331
 6368SOL    HW120003   3.603   0.648   3.380
 6368SOL    HW220004   3.705   0.776   3.367
 6369SOL     OW20005   2.248   5.270   5.471
 6369SOL    HW120006   2.311   5.199   5.499
 6369SOL    HW220007   2.231   5.263   5.372
 6370SOL     OW20008   5.111   2.605   1.785
 6370SOL    HW120009   5.189   2.666   1.769
 6370SOL    HW220010   5.031   2.660   1.811
 6371SOL     OW20011   4.843   1.522   4.309
 6371SOL    HW120012   4.802   1.450   4.254
 6371SOL    HW220013   4.772   1.569   4.363
 6372SOL     OW20014   3.137   6.795   2.557
 6372SOL    HW120015   3.097   6.717   2.508
 6372SOL    HW220016   3.185   6.762   2.638
 6373SOL     OW20017   3.490   5.303   0.117
 6373SOL    HW120018   3.531   5.287   0.207
 6373SOL    HW220019   3.562   5.302   0.047
 6374SOL     OW20020   3.123   2.955   2.746
 6374SOL    HW120021   3.103   2.870   2.795
 6374SOL    HW220022   3.169   3.019   2.808
 6375SOL     OW20023   1.881   6.000   2.206
 6375SOL    HW120024   1.851   5.949   2.287
 6375SOL    HW220025   1.945   6.072   2.234
 6376SOL     OW20026   0.911   1.944   5.080
 6376SOL    HW120027   0.969   2.024   5.099
 6376SOL    HW220028   0.885   1.944   4.983
 6377SOL     OW20029   0.954   1.934   3.563
 6377SOL    HW120030   1.016   1.857   3.550
 6377SOL    HW220031   0.895   1.916   3.643
 6378SOL     OW20032   4.516   5.177   3.487
 6378SOL    HW120033   4.436   5.136   3.531
 6378SOL    HW220034   4.486   5.251   3.426
 6379SOL     OW20035   2.287   4.897   2.001
 6379SOL    HW120036   2.300   4.892   2.100
 6379SOL    HW220037   2.372   4.925   1.958
 6380SOL     OW20038   1.271   0.638   5.939
 6380SOL    HW120039   1.289   0.709   5.871
 6380SOL    HW220040   1.190   0.586   5.913
 6381SOL     OW20041   2.987   3.248   2.084
 6381SOL    HW120042   2.917   3.305   2.127
 6381SOL    HW220043   2.970   3.242   1.986
 6382SOL     OW20044   0.920   4.956   4.637
 6382SOL    HW120045   0.854   4.979   4.709
 6382SOL    HW220046   0.878   4.973   4.547
 6383SOL     OW20047   3.862   1.342   3.961
 6383SOL    HW120048   3.881   1.321   3.866
 6383SOL    HW220049   3.782   1.402   3.967
 6384SOL     OW20050   0.075   4.986   2.183
 6384SOL    HW120051   0.148   4.948   2.125
 6384SOL    HW220052   7.017   4.977   2.136
 6385SOL     OW20053   0.876   5.621   5.095
 6385SOL    HW120054   0.934   5.635   5.015
 6385SOL    HW220055   0.848   5.710   5.132
 6386SOL     OW20056   2.342   5.652   1.689
 6386SOL    HW120057   2.383   5.652   1.597
 6386SOL    HW220058   2.372   5.733   1.738
 6387SOL     OW20059   6.346   0.782   5.499
 6387SOL    HW120060   6.376   0.690   5.525
 6387SOL    HW220061   6.427   0.840   5.484
 6388SOL     OW20062   2.148   5.212   2.791
 6388SOL    HW120063   2.238   5.192   2.752
 6388SOL    HW220064   2.160   5.257   2.880
 6389SOL     OW20065   1.283   4.965   1.505
 6389SOL    HW120066   1.256   4.918   1.589
 6389SOL    HW220067   1.207   4.964   1.440
 6390SOL     OW20068   0.902   2.862   4.247
 6390SOL    HW120069   0.882   2.952   4.208
 6390SOL    HW220070   0.999   2.842   4.236
 6391SOL     OW20071   3.753   0.869   7.012
 6391SOL    HW120072   3.701   0.932   6.954
 6391SOL    HW220073   3.715   0.777   7.004
 6392SOL     OW20074   1.641   5.954   4.255
 6392SOL    HW120075   1.697   5.940   4.336
 6392SOL    HW220076   1.578   5.877   4.243
 6393SOL     OW20077   5.139   1.662   0.240
 6393SOL    HW120078   5.140   1.694   0.146
 6393SOL    HW220079   5.058   1.605   0.255
 6394SOL     OW20080   3.276   4.752   1.830
 6394SOL    HW120081   3.362   4.708   1.856
 6394SOL    HW220082   3.287   4.851   1.835
 6395SOL     OW20083   5.750   2.222   0.279
 6395SOL    HW120084   5.663   2.206   0.232
 6395SOL    HW220085   5.815   2.151   0.255
 6396SOL     OW20086   6.501   3.592   6.144
 6396SOL    HW120087   6.513   3.495   6.166
 6396SOL    HW220088   6.548   3.648   6.212
 6397SOL     OW20089   6.441   1.177   0.625
 6397SOL    HW120090   6.350   1.188   0.584
 6397SOL    HW220091   6.435   1.117   0.704
 6398SOL     OW20092   3.916   0.880   1.454
 6398SOL    HW120093   3.938   0.932   1.372
 6398SOL    HW220094   3.980   0.906   1.527
 6399SOL     OW20095   2.081   6.453   6.378
 6399SOL    HW120096   2.166   6.481   6.421
 6399SOL    HW220097   2.090   6.459   6.278
 6400SOL     OW20098   2.864   5.124   4.437
 6400SOL    HW120099   2.942   5.144   4.497
 6400SOL    HW220100   2.840   5.028   4.444
 6401SOL     OW20101   0.816   4.651   4.871
 6401SOL    HW120102   0.887   4.656   4.800
 6401SOL    HW220103   0.858   4.664   4.961
 6402SOL     OW20104   2.147   2.587   3.421
 6402SOL    HW120105   2.087   2.526   3.369
 6402SOL    HW220106   2.230   2.605   3.368
 6403SOL     OW20107   1.286   6.900   1.292
 6403SOL    HW120108   1.233   6.961   1.232
 6403SOL    HW220109   1.350   6.954   1.346
 6404SOL     OW20110   4.975   0.927   2.872
 6404SOL    HW120111   4.941   0.980   2.950
 6404SOL    HW220112   4.973   0.830   2.896
 6405SOL     OW20113   3.535   0.503   1.912
 6405SOL    HW120114   3.580   0.565   1.848
 6405SOL    HW220115   3.554   0.532   2.006
 6406SOL     OW20116   2.686   2.010   3.725
 6406SOL    HW120117   2.613   1.955   3.765
 6406SOL    HW220118   2.742   1.953   3.665
 6407SOL     OW20119   5.169   5.657   6.660
 6407SOL    HW120120   5.194   5.754   6.666
 6407SOL    HW220121   5.234   5.609   6.602
 6408SOL     OW20122   5.420   2.430   0.694
 6408SOL    HW120123   5.507   2.420   0.646
 6408SOL    HW220124   5.424   2.512   0.752
 6409SOL     OW20125   0.823   5.012   1.927
 6409SOL    HW120126   0.725   5.013   1.946
 6409SOL    HW220127   0.869   5.078   1.987
 6410SOL     OW20128   1.088   1.173   1.879
 6410SOL    HW120129   1.100   1.102   1.948
 6410SOL    HW220130   1.025   1.141   1.809
 6411SOL     OW20131   1.190   1.375   3.497
 6411SOL    HW120132   1.216   1.465   3.531
 6411SOL    HW220133   1.138   1.384   3.412
 6412SOL     OW20134   6.014   2.930   4.524
 6412SOL    HW120135   6.104   2.886   4.531
 6412SOL    HW220136   5.975   2.911   4.433
 6413SOL     OW20137   0.274   4.853   0.723
 6413SOL    HW120138   0.336   4.787   0.680
 6413SOL    HW220139   0.190   4.806   0.751
 6414SOL     OW20140   6.449   0.099   2.893
 6414SOL    HW120141   6.479   0.110   2.988
 6414SOL    HW220142   6.468   0.006   2.863
 6415SOL     OW20143   1.795   1.560   2.383
 6415SOL    HW120144   1.727   1.492   2.409
 6415SOL    HW220145   1.761   1.613   2.306
 6416SOL     OW20146   2.613   6.717   6.110
 6416SOL    HW120147   2.594   6.635   6.163
 6416SOL    HW220148   2.546   6.726   6.036
 6417SOL     OW20149   0.753   6.570   4.061
 6417SOL    HW120150   0.709   6.579   3.972
 6417SOL    HW220151   0.787   6.660   4.090
 6418SOL     OW20152   6.841   5.477   2.840
 6418SOL    HW120153   6.751   5.445   2.813
 6418SOL    HW220154   6.839   5.510   2.934
 6419SOL     OW20155   2.234   3.763   0.723
 6419SOL    HW120156   2.322   3.778   0.768
 6419SOL    HW220157   2.249   3.709   0.640
 6420SOL     OW20158   0.887   3.142   6.670
 6420SOL    HW120159   0.904   3.052   6.710
 6420SOL    HW220160   0.792   3.148   6.640
 6421SOL     OW20161   5.456   2.018   0.383
 6421SOL    HW120162   5.380   1.953   0.379
 6421SOL    HW220163   5.450   2.071   0.468
 6422SOL     OW20164   5.956   2.712   3.007
 6422SOL    HW120165   5.858   2.704   3.027
 6422SOL    HW220166   5.986   2.631   2.956
 6423SOL     OW20167   4.676   4.016   0.724
 6423SOL    HW120168   4.772   4.028   0.699
 6423SOL    HW220169   4.654   4.074   0.802
 6424SOL     OW20170   6.333   4.410   5.171
 6424SOL    HW120171   6.408   4.369   5.222
 6424SOL    HW220172   6.317   4.359   5.086
 6425SOL     OW20173   0.378   5.424   0.861
 6425SOL    HW120174   0.279   5.427   0.849
 6425SOL    HW220175   0.412   5.514   0.887
 6426SOL     OW20176   6.861   2.798   3.436
 6426SOL    HW120177   6.787   2.820   3.500
 6426SOL    HW220178   6.948   2.807   3.483
 6427SOL     OW20179   1.045   2.672   5.609
 6427SOL    HW120180   1.137   2.680   5.572
 6427SOL    HW220181   1.048   2.621   5.696
 6428SOL     OW20182   6.413   3.083   4.791
 6428SOL    HW120183   6.335   3.144   4.781
 6428SOL    HW220184   6.470   3.088   4.709
 6429SOL     OW20185   0.971   1.238   5.087
 6429SOL    HW120186   0.996   1.195   5.000
 6429SOL    HW220187   1.006   1.332   5.089
 6430SOL     OW20188   6.165   2.957   0.246
 6430SOL    HW120189   6.107   2.879   0.269
 6430SOL    HW220190   6.259   2.938   0.273
 6431SOL     OW20191   5.925   1.127   2.837
 6431SOL    HW120192   6.015   1.116   2.795
 6431SOL    HW220193   5.925   1.086   2.928
 6432SOL     OW20194   6.052   3.710   0.511
 6432SOL    HW120195   6.095   3.689   0.599
 6432SOL    HW220196   5.960   3.747   0.527
 6433SOL     OW20197   2.428   3.697   1.604
 6433SOL    HW120198   2.436   3.713   1.505
 6433SOL    HW220199   2.384   3.776   1.647
 6434SOL     OW20200   1.686   5.135   0.296
 6434SOL    HW120201   1.753   5.145   0.223
 6434SOL    HW220202   1.732   5.141   0.385
 6435SOL     OW20203   5.078   3.468   0.775
 6435SOL    HW120204   4.990   3.454   0.729
 6435SOL    HW220205   5.122   3.380   0.789
 6436SOL     OW20206   2.168   2.447   2.066
 6436SOL    HW120207   2.210   2.503   1.994
 6436SOL    HW220208   2.240   2.410   2.125
 6437SOL     OW20209   0.382   0.677   0.319
 6437SOL    HW120210   0.290   0.665   0.280
 6437SOL    HW220211   0.439   0.598   0.295
 6438SOL     OW20212   1.187   4.050   3.826
 6438SOL    HW120213   1.200   3.973   3.763
 6438SOL    HW220214   1.180   4.016   3.920
 6439SOL     OW20215   0.336   6.555   2.106
 6439SOL    HW120216   0.255   6.589   2.153
 6439SOL    HW220217   0.310   6.513   2.020
 6440SOL     OW20218   0.329   0.729   2.082
 6440SOL    HW120219   0.237   0.721   2.045
 6440SOL    HW220220   0.350   0.649   2.137
 6441SOL     OW20221   4.478   1.290   2.953
 6441SOL    HW120222   4.482   1.312   3.050
 6441SOL    HW220223   4.551   1.339   2.905
 6442SOL     OW20224   3.311   0.497   3.097
 6442SOL    HW120225   3.347   0.437   3.169
 6442SOL    HW220226   3.227   0.458   3.060
 6443SOL     OW20227   2.443   0.909   0.182
 6443SOL    HW120228   2.482   0.974   0.117
 6443SOL    HW220229   2.374   0.853   0.135
 6444SOL     OW20230   0.719   1.228   2.698
 6444SOL    HW120231   0.780   1.152   2.676
 6444SOL    HW220232   0.763   1.289   2.763
 6445SOL     OW20233   3.373   3.932   5.590
 6445SOL    HW120234   3.421   3.915   5.677
 6445SOL    HW220235   3.314   4.012   5.600
 6446SOL     OW20236   7.020   1.943   0.482
 6446SOL    HW120237   0.030   1.990   0.560
 6446SOL    HW220238   6.949   1.880   0.513
 6447SOL     OW20239   1.620   0.125   3.146
 6447SOL    HW120240   1.590   0.220   3.136
 6447SOL    HW220241   1.579   0.085   3.228
 6448SOL     OW20242   6.993   2.326   2.903
 6448SOL    HW120243   0.022   2.353   2.827
 6448SOL    HW220244   7.021   2.375   2.986
 6449SOL     OW20245   3.989   2.564   0.868
 6449SOL    HW120246   3.952   2.501   0.935
 6449SOL    HW220247   3.944   2.653   0.877
 6450SOL     OW20248   6.794   2.914   0.617
 6450SOL    HW120249   6.859   2.911   0.541
 6450SOL    HW220250   6.758   3.007   0.626
 6451SOL     OW20251   2.677   6.306   3.979
 6451SOL    HW120252   2.717   6.327   3.889
 6451SOL    HW220253   2.586   6.268   3.967
 6452SOL     OW20254   3.688   6.388   5.210
 6452SOL    HW120255   3.617   6.446   5.170
 6452SOL    HW220256   3.736   6.339   5.136
 6453SOL     OW20257   2.120   5.219   6.780
 6453SOL    HW120258   2.040   5.231   6.840
 6453SOL    HW220259   2.099   5.150   6.711
 6454SOL     OW20260   3.639   1.222   4.583
 6454SOL    HW120261   3.556   1.212   4.638
 6454SOL    HW220262   3.717   1.238   4.643
 6455SOL     OW20263   5.907   3.370   6.826
 6455SOL    HW120264   5.866   3.361   6.735
 6455SOL    HW220265   5.965   3.291   6.844
 6456SOL     OW20266   0.411   1.091   5.360
 6456SOL    HW120267   0.492   1.077   5.303
 6456SOL    HW220268   0.349   1.013   5.350
 6457SOL     OW20269   5.898   2.817   2.469
 6457SOL    HW120270   5.988   2.796   2.431
 6457SOL    HW220271   5.839   2.737   2.461
 6458SOL     OW20272   0.868   6.539   3.376
 6458SOL    HW120273   0.909   6.491   3.299
 6458SOL    HW220274   0.786   6.490   3.406
 6459SOL     OW20275   5.279   4.525   1.010
 6459SOL    HW120276   5.295   4.458   0.938
 6459SOL    HW220277   5.184   4.518   1.041
 6460SOL     OW20278   3.131   4.972   1.616
 6460SOL    HW120279   3.116   4.899   1.550
 6460SOL    HW220280   3.049   4.984   1.672
 6461SOL     OW20281   3.049   6.335   5.219
 6461SOL    HW120282   3.092   6.361   5.305
 6461SOL    HW220283   2.999   6.413   5.181
 6462SOL     OW20284   2.092   3.474   3.139
 6462SOL    HW120285   2.006   3.524   3.149
 6462SOL    HW220286   2.167   3.539   3.126
 6463SOL     OW20287   0.894   3.773   5.538
 6463SOL    HW120288   0.820   3.755   5.473
 6463SOL    HW220289   0.961   3.834   5.496
 6464SOL     OW20290   1.676   5.274   2.056
 6464SOL    HW120291   1.657   5.369   2.034
 6464SOL    HW220292   1.593   5.220   2.047
 6465SOL     OW20293   6.238   0.739   2.414
 6465SOL    HW120294   6.278   0.655   2.450
 6465SOL    HW220295   6.245   0.812   2.483
 6466SOL     OW20296   7.016   2.297   5.041
 6466SOL    HW120297   6.995   2.320   4.946
 6466SOL    HW220298   0.000   2.381   5.094
 6467SOL     OW20299   3.679   0.633   6.168
 6467SOL    HW120300   3.689   0.601   6.074
 6467SOL    HW220301   3.584   0.660   6.184
 6468SOL     OW20302   5.410   4.113   1.980
 6468SOL    HW120303   5.444   4.191   1.927
 6468SOL    HW220304   5.413   4.030   1.924
 6469SOL     OW20305   6.172   0.894   5.908
 6469SOL    HW120306   6.184   0.920   5.812
 6469SOL    HW220307   6.260   0.871   5.948
 6470SOL     OW20308   6.281   5.981   4.421
 6470SOL    HW120309   6.286   5.889   4.460
 6470SOL    HW220310   6.185   6.006   4.409
 6471SOL     OW20311   6.197   5.934   5.419
 6471SOL    HW120312   6.197   5.979   5.508
 6471SOL    HW220313   6.285   5.948   5.374
 6472SOL     OW20314   1.698   6.495   1.520
 6472SOL    HW120315   1.728   6.540   1.604
 6472SOL    HW220316   1.719   6.397   1.526
 6473SOL     OW20317   2.607   0.689   4.981
 6473SOL    HW120318   2.557   0.727   4.903
 6473SOL    HW220319   2.704   0.679   4.957
 6474SOL     OW20320   2.691   3.350   5.819
 6474SOL    HW120321   2.714   3.271   5.876
 6474SOL    HW220322   2.736   3.341   5.730
 6475SOL     OW20323   4.881   5.286   3.890
 6475SOL    HW120324   4.818   5.273   3.814
 6475SOL    HW220325   4.831   5.323   3.969
 6476SOL     OW20326   5.494   4.823   2.394
 6476SOL    HW120327   5.416   4.779   2.439
 6476SOL    HW220328   5.469   4.847   2.300
 6477SOL     OW20329   6.596   6.494   7.026
 6477SOL    HW120330   6.514   6.439   7.010
 6477SOL    HW220331   6.573   6.574   0.051
 6478SOL     OW20332   5.139   6.061   1.561
 6478SOL    HW120333   5.138   5.962   1.574
 6478SOL    HW220334   5.141   6.082   1.463
 6479SOL     OW20335   3.422   5.876   2.611
 6479SOL    HW120336   3.520   5.894   2.607
 6479SOL    HW220337   3.386   5.907   2.699
 6480SOL     OW20338   3.035   0.888   1.449
 6480SOL    HW120339   3.070   0.970   1.493
 6480SOL    HW220340   3.066   0.884   1.354
 6481SOL     OW20341   4.557   0.722   0.986
 6481SOL    HW120342   4.512   0.639   0.951
 6481SOL    HW220343   4.539   0.731   1.084
 6482SOL     OW20344   6.592   0.070   6.455
 6482SOL    HW120345   6.690   0.088   6.467
 6482SOL    HW220346   6.557   0.021   6.535
 6483SOL     OW20347   2.284   5.895   1.840
 6483SOL    HW120348   2.216   5.907   1.768
 6483SOL    HW220349   2.249   5.932   1.926
 6484SOL     OW20350   5.325   6.805   3.150
 6484SOL    HW120351   5.365   6.715   3.167
 6484SOL    HW220352   5.251   6.798   3.083
 6485SOL     OW20353   0.696   2.679   3.098
 6485SOL    HW120354   0.725   2.756   3.156
 6485SOL    HW220355   0.599   2.689   3.077
 6486SOL     OW20356   1.995   3.239   3.524
 6486SOL    HW120357   2.058   3.189   3.584
 6486SOL    HW220358   1.971   3.182   3.445
 6487SOL     OW20359   5.688   5.026   3.574
 6487SOL    HW120360   5.642   5.022   3.662
 6487SOL    HW220361   5.625   4.994   3.502
 6488SOL     OW20362   3.374   5.221   5.538
 6488SOL    HW120363   3.297   5.281   5.560
 6488SOL    HW220364   3.347   5.126   5.551
 6489SOL     OW20365   2.532   2.087   6.407
 6489SOL    HW120366   2.493   2.129   6.325
 6489SOL    HW220367   2.632   2.097   6.405
 6490SOL     OW20368   5.219   1.627   0.893
 6490SOL    HW120369   5.201   1.653   0.798
 6490SOL    HW220370   5.164   1.547   0.917
 6491SOL     OW20371   4.494   0.792   6.020
 6491SOL    HW120372   4.406   0.745   6.030
 6491SOL    HW220373   4.477   0.891   6.010
 6492SOL     OW20374   6.186   5.974   5.691
 6492SOL    HW120375   6.185   5.883   5.732
 6492SOL    HW220376   6.116   6.031   5.735
 6493SOL     OW20377   0.966   6.715   4.920
 6493SOL    HW120378   0.946   6.799   4.970
 6493SOL    HW220379   1.065   6.700   4.919
 6494SOL     OW20380   0.850   0.823   3.517
 6494SOL    HW120381   0.886   0.772   3.439
 6494SOL    HW220382   0.807   0.759   3.581
 6495SOL     OW20383   5.658   4.702   2.058
 6495SOL    HW120384   5.666   4.604   2.038
 6495SOL    HW220385   5.706   4.754   1.987
 6496SOL     OW20386   0.637   6.271   3.391
 6496SOL    HW120387   0.726   6.245   3.355
 6496SOL    HW220388   0.637   6.368   3.416
 6497SOL     OW20389   0.491   5.832   0.096
 6497SOL    HW120390   0.406   5.885   0.091
 6497SOL    HW220391   0.546   5.848   0.014
 6498SOL     OW20392   1.460   4.411   3.997
 6498SOL    HW120393   1.452   4.461   3.911
 6498SOL    HW220394   1.484   4.316   3.979
 6499SOL     OW20395   6.316   1.699   3.120
 6499SOL    HW120396   6.321   1.614   3.174
 6499SOL    HW220397   6.241   1.692   3.054
 6500SOL     OW20398   5.876   4.982   3.061
 6500SOL    HW120399   5.842   5.038   2.985
 6500SOL    HW220400   5.824   4.897   3.066
 6501SOL     OW20401   6.888   3.572   0.653
 6501SOL    HW120402   6.864   3.629   0.574
 6501SOL    HW220403   6.806   3.530   0.690
 6502SOL     OW20404   1.097   5.294   1.335
 6502SOL    HW120405   1.103   5.194   1.335
 6502SOL    HW220406   1.176   5.332   1.383
 6503SOL     OW20407   4.528   0.088   4.457
 6503SOL    HW120408   4.569   0.013   4.509
 6503SOL    HW220409   4.577   0.100   4.371
 6504SOL     OW20410   1.758   1.260   0.921
 6504SOL    HW120411   1.705   1.179   0.897
 6504SOL    HW220412   1.729   1.293   1.011
 6505SOL     OW20413   5.732   5.523   0.747
 6505SOL    HW120414   5.761   5.619   0.746
 6505SOL    HW220415   5.700   5.497   0.656
 6506SOL     OW20416   2.423   1.485   0.764
 6506SOL    HW120417   2.496   1.486   0.695
 6506SOL    HW220418   2.357   1.414   0.740
 6507SOL     OW20419   2.857   0.817   2.165
 6507SOL    HW120420   2.881   0.721   2.181
 6507SOL    HW220421   2.875   0.841   2.070
 6508SOL     OW20422   2.339   1.515   2.317
 6508SOL    HW120423   2.247   1.543   2.343
 6508SOL    HW220424   2.390   1.595   2.283
 6509SOL     OW20425   0.616   3.103   4.163
 6509SOL    HW120426   0.715   3.092   4.158
 6509SOL    HW220427   0.578   3.104   4.070
 6510SOL     OW20428   6.332   4.791   6.704
 6510SOL    HW120429   6.284   4.861   6.652
 6510SOL    HW220430   6.427   4.786   6.674
 6511SOL     OW20431   6.901   6.745   5.864
 6511SOL    HW120432   6.935   6.654   5.840
 6511SOL    HW220433   6.964   6.788   5.930
 6512SOL     OW20434   5.287   5.711   3.965
 6512SOL    HW120435   5.325   5.730   3.874
 6512SOL    HW220436   5.282   5.796   4.017
 6513SOL     OW20437   1.140   6.840   3.483
 6513SOL    HW120438   1.155   6.864   3.388
 6513SOL    HW220439   1.227   6.841   3.532
 6514SOL     OW20440   3.430   0.053   3.607
 6514SOL    HW120441   3.341   0.038   3.563
 6514SOL    HW220442   3.418   0.047   3.707
 6515SOL     OW20443   0.642   0.720   3.291
 6515SOL    HW120444   0.629   0.806   3.243
 6515SOL    HW220445   0.681   0.737   3.381
 6516SOL     OW20446   1.319   1.248   5.824
 6516SOL    HW120447   1.306   1.343   5.853
 6516SOL    HW220448   1.412   1.236   5.790
 6517SOL     OW20449   1.978   2.126   0.764
 6517SOL    HW120450   1.879   2.114   0.754
 6517SOL    HW220451   2.002   2.127   0.861
 6518SOL     OW20452   5.830   6.415   0.933
 6518SOL    HW120453   5.848   6.368   0.847
 6518SOL    HW220454   5.748   6.378   0.975
 6519SOL     OW20455   0.973   2.117   3.981
 6519SOL    HW120456   1.068   2.083   3.978
 6519SOL    HW220457   0.925   2.075   4.058
 6520SOL     OW20458   5.848   5.462   1.649
 6520SOL    HW120459   5.755   5.427   1.660
 6520SOL    HW220460   5.855   5.510   1.561
 6521SOL     OW20461   1.439   2.021   5.367
 6521SOL    HW120462   1.531   1.991   5.389
 6521SOL    HW220463   1.418   2.105   5.418
 6522SOL     OW20464   2.523   5.598   4.646
 6522SOL    HW120465   2.534   5.534   4.570
 6522SOL    HW220466   2.465   5.557   4.716
 6523SOL     OW20467   1.666   2.659   6.878
 6523SOL    HW120468   1.691   2.567   6.850
 6523SOL    HW220469   1.664   2.718   6.797
 6524SOL     OW20470   4.050   3.467   4.934
 6524SOL    HW120471   4.004   3.553   4.912
 6524SOL    HW220472   3.982   3.398   4.960
 6525SOL     OW20473   0.577   2.333   4.580
 6525SOL    HW120474   0.517   2.413   4.590
 6525SOL    HW220475   0.546   2.277   4.504
 6526SOL     OW20476   1.505   5.467   4.227
 6526SOL    HW120477   1.582   5.410   4.198
 6526SOL    HW220478   1.420   5.414   4.220
 6527SOL     OW20479   2.426   1.438   4.083
 6527SOL    HW120480   2.471   1.509   4.029
 6527SOL    HW220481   2.476   1.352   4.076
 6528SOL     OW20482   0.559   0.016   3.090
 6528SOL    HW120483   0.488   0.088   3.090
 6528SOL    HW220484   0.540   6.981   3.163
 6529SOL     OW20485   0.026   2.983   2.475
 6529SOL    HW120486   7.022   2.924   2.402
 6529SOL    HW220487   7.028   3.078   2.458
 6530SOL     OW20488   0.780   1.854   0.618
 6530SOL    HW120489   0.719   1.793   0.566
 6530SOL    HW220490   0.777   1.945   0.578
 6531SOL     OW20491   5.094   2.192   4.918
 6531SOL    HW120492   5.090   2.100   4.879
 6531SOL    HW220493   5.045   2.193   5.005
 6532SOL     OW20494   1.250   2.491   6.849
 6532SOL    HW120495   1.237   2.581   6.807
 6532SOL    HW220496   1.169   2.466   6.902
 6533SOL     OW20497   4.515   0.370   1.171
 6533SOL    HW120498   4.515   0.277   1.209
 6533SOL    HW220499   4.427   0.389   1.129
 6534SOL     OW20500   1.974   3.407   0.274
 6534SOL    HW120501   1.907   3.478   0.251
 6534SOL    HW220502   2.039   3.397   0.199
 6535SOL     OW20503   1.972   3.487   5.511
 6535SOL    HW120504   1.993   3.585   5.505
 6535SOL    HW220505   1.960   3.461   5.607
 6536SOL     OW20506   6.689   2.410   6.632
 6536SOL    HW120507   6.591   2.393   6.621
 6536SOL    HW220508   6.724   2.354   6.707
 6537SOL     OW20509   1.333   0.452   6.377
 6537SOL    HW120510   1.425   0.491   6.369
 6537SOL    HW220511   1.330   0.389   6.454
 6538SOL     OW20512   1.852   2.985   5.790
 6538SOL    HW120513   1.779   2.917   5.783
 6538SOL    HW220514   1.838   3.057   5.722
 6539SOL     OW20515   3.290   1.668   6.023
 6539SOL    HW120516   3.193   1.682   6.045
 6539SOL    HW220517   3.346   1.704   6.097
 6540SOL     OW20518   3.703   2.133   4.022
 6540SOL    HW120519   3.741   2.074   4.093
 6540SOL    HW220520   3.777   2.180   3.975
 6541SOL     OW20521   2.902   2.990   5.483
 6541SOL    HW120522   2.855   3.031   5.404
 6541SOL    HW220523   2.844   2.919   5.523
 6542SOL     OW20524   5.744   3.843   3.613
 6542SOL    HW120525   5.717   3.842   3.709
 6542SOL    HW220526   5.688   3.777   3.562
 6543SOL     OW20527   0.825   6.319   6.433
 6543SOL    HW120528   0.799   6.229   6.397
 6543SOL    HW220529   0.887   6.364   6.368
 6544SOL     OW20530   0.260   5.698   2.601
 6544SOL    HW120531   0.307   5.769   2.655
 6544SOL    HW220532   0.167   5.687   2.636
 6545SOL     OW20533   5.880   3.232   6.337
 6545SOL    HW120534   5.848   3.146   6.299
 6545SOL    HW220535   5.943   3.214   6.413
 6546SOL     OW20536   3.754   4.690   6.096
 6546SOL    HW120537   3.663   4.707   6.132
 6546SOL    HW220538   3.762   4.728   6.004
 6547SOL     OW20539   5.082   0.307   6.614
 6547SOL    HW120540   4.992   0.316   6.572
 6547SOL    HW220541   5.080   0.347   6.705
 6548SOL     OW20542   5.720   3.677   5.426
 6548SOL    HW120543   5.702   3.610   5.498
 6548SOL    HW220544   5.777   3.636   5.355
 6549SOL     OW20545   2.938   2.108   2.502
 6549SOL    HW120546   2.986   2.021   2.515
 6549SOL    HW220547   2.841   2.092   2.490
 6550SOL     OW20548   1.117   5.479   3.127
 6550SOL    HW120549   1.175   5.416   3.075
 6550SOL    HW220550   1.174   5.552   3.165
 6551SOL     OW20551   2.976   5.116   2.140
 6551SOL    HW120552   3.028   5.034   2.164
 6551SOL    HW220553   2.887   5.115   2.186
 6552SOL     OW20554   4.540   5.065   6.612
 6552SOL    HW120555   4.536   5.105   6.704
 6552SOL    HW220556   4.464   5.099   6.558
 6553SOL     OW20557   0.049   3.188   3.055
 6553SOL    HW120558   7.007   3.124   3.081
 6553SOL    HW220559   0.042   3.209   2.957
 6554SOL     OW20560   0.047   3.820   4.179
 6554SOL    HW120561   0.077   3.726   4.160
 6554SOL    HW220562   7.003   3.818   4.246
 6555SOL     OW20563   0.517   1.250   1.604
 6555SOL    HW120564   0.539   1.161   1.565
 6555SOL    HW220565   0.564   1.322   1.552
 6556SOL     OW20566   4.011   0.125   4.051
 6556SOL    HW120567   3.943   0.103   4.120
 6556SOL    HW220568   4.089   0.171   4.094
 6557SOL     OW20569   5.305   6.219   0.572
 6557SOL    HW120570   5.251   6.275   0.634
 6557SOL    HW220571   5.246   6.180   0.501
 6558SOL     OW20572   0.071   6.268   5.974
 6558SOL    HW120573   0.029   6.355   6.001
 6558SOL    HW220574   7.030   6.198   5.966
 6559SOL     OW20575   3.229   3.236   1.233
 6559SOL    HW120576   3.329   3.239   1.241
 6559SOL    HW220577   3.200   3.142   1.213
 6560SOL     OW20578   4.444   1.592   0.802
 6560SOL    HW120579   4.390   1.666   0.843
 6560SOL    HW220580   4.389   1.508   0.801
 6561SOL     OW20581   3.510   3.869   4.132
 6561SOL    HW120582   3.595   3.817   4.120
 6561SOL    HW220583   3.448   3.819   4.192
 6562SOL     OW20584   6.854   4.222   5.383
 6562SOL    HW120585   6.825   4.211   5.288
 6562SOL    HW220586   6.953   4.212   5.389
 6563SOL     OW20587   0.953   5.307   2.401
 6563SOL    HW120588   0.902   5.371   2.458
 6563SOL    HW220589   0.947   5.334   2.305
 6564SOL     OW20590   1.647   5.375   2.698
 6564SOL    HW120591   1.720   5.306   2.703
 6564SOL    HW220592   1.635   5.417   2.788
 6565SOL     OW20593   6.474   3.391   5.570
 6565SOL    HW120594   6.424   3.468   5.610
 6565SOL    HW220595   6.412   3.334   5.517
 6566SOL     OW20596   3.541   0.648   0.837
 6566SOL    HW120597   3.582   0.662   0.747
 6566SOL    HW220598   3.445   0.620   0.826
 6567SOL     OW20599   6.070   2.471   0.855
 6567SOL    HW120600   6.074   2.512   0.946
 6567SOL    HW220601   6.124   2.387   0.854
 6568SOL     OW20602   4.537   3.892   1.663
 6568SOL    HW120603   4.601   3.969   1.673
 6568SOL    HW220604   4.444   3.924   1.679
 6569SOL     OW20605   1.288   5.192   6.210
 6569SOL    HW120606   1.329   5.115   6.260
 6569SOL    HW220607   1.354   5.227   6.143
 6570SOL     OW20608   6.597   3.480   2.060
 6570SOL    HW120609   6.587   3.448   1.966
 6570SOL    HW220610   6.605   3.580   2.061
 6571SOL     OW20611   2.439   6.214   3.545
 6571SOL    HW120612   2.417   6.118   3.564
 6571SOL    HW220613   2.354   6.267   3.540
 6572SOL     OW20614   1.332   4.541   6.083
 6572SOL    HW120615   1.321   4.640   6.092
 6572SOL    HW220616   1.248   4.496   6.114
 6573SOL     OW20617   1.535   2.201   1.678
 6573SOL    HW120618   1.467   2.139   1.638
 6573SOL    HW220619   1.572   2.160   1.761
 6574SOL     OW20620   1.723   4.440   4.319
 6574SOL    HW120621   1.725   4.400   4.411
 6574SOL    HW220622   1.741   4.538   4.324
 6575SOL     OW20623   1.969   1.619   2.874
 6575SOL    HW120624   2.001   1.595   2.782
 6575SOL    HW220625   1.874   1.651   2.869
 6576SOL     OW20626   1.301   6.126   4.143
 6576SOL    HW120627   1.357   6.148   4.222
 6576SOL    HW220628   1.211   6.093   4.173
 6577SOL     OW20629   0.166   3.448   5.135
 6577SOL    HW120630   0.213   3.375   5.086
 6577SOL    HW220631   0.206   3.457   5.226
 6578SOL     OW20632   6.331   5.372   3.223
 6578SOL    HW120633   6.425   5.353   3.251
 6578SOL    HW220634   6.324   5.468   3.193
 6579SOL     OW20635   0.240   3.910   3.449
 6579SOL    HW120636   0.198   3.827   3.486
 6579SOL    HW220637   0.330   3.887   3.411
 6580SOL     OW20638   5.796   2.562   1.085
 6580SOL    HW120639   5.816   2.465   1.087
 6580SOL    HW220640   5.759   2.591   1.174
 6581SOL     OW20641   2.474   2.590   5.636
 6581SOL    HW120642   2.457   2.582   5.735
 6581SOL    HW220643   2.414   2.659   5.597
 6582SOL     OW20644   6.929   0.092   2.093
 6582SOL    HW120645   6.944   7.024   2.081
 6582SOL    HW220646   7.009   0.142   2.063
 6583SOL     OW20647   6.132   1.534   6.223
 6583SOL    HW120648   6.121   1.446   6.176
 6583SOL    HW220649   6.096   1.526   6.316
 6584SOL     OW20650   5.479   2.522   0.090
 6584SOL    HW120651   5.478   2.498   7.022
 6584SOL    HW220652   5.503   2.619   0.100
 6585SOL     OW20653   2.908   0.772   1.667
 6585SOL    HW120654   2.962   0.820   1.598
 6585SOL    HW220655   2.811   0.784   1.647
 6586SOL     OW20656   6.710   1.927   6.972
 6586SOL    HW120657   6.667   1.976   6.896
 6586SOL    HW220658   6.686   1.830   6.967
 6587SOL     OW20659   1.935   6.328   2.416
 6587SOL    HW120660   1.932   6.428   2.427
 6587SOL    HW220661   1.844   6.290   2.430
 6588SOL     OW20662   2.812   2.137   0.031
 6588SOL    HW120663   2.790   2.216   7.004
 6588SOL    HW220664   2.800   2.161   0.128
 6589SOL     OW20665   5.160   1.790   6.254
 6589SOL    HW120666   5.086   1.826   6.311
 6589SOL    HW220667   5.135   1.798   6.158
 6590SOL     OW20668   6.670   1.225   5.848
 6590SOL    HW120669   6.700   1.242   5.942
 6590SOL    HW220670   6.744   1.182   5.797
 6591SOL     OW20671   5.538   0.226   3.189
 6591SOL    HW120672   5.631   0.249   3.160
 6591SOL    HW220673   5.495   0.308   3.227
 6592SOL     OW20674   6.112   5.658   4.711
 6592SOL    HW120675   6.047   5.583   4.697
 6592SOL    HW220676   6.075   5.722   4.779
 6593SOL     OW20677   5.173   0.914   2.695
 6593SOL    HW120678   5.144   0.888   2.603
 6593SOL    HW220679   5.092   0.936   2.750
 6594SOL     OW20680   5.819   1.113   6.885
 6594SOL    HW120681   5.747   1.046   6.903
 6594SOL    HW220682   5.823   1.131   6.786
 6595SOL     OW20683   1.962   3.365   6.885
 6595SOL    HW120684   1.866   3.355   6.858
 6595SOL    HW220685   2.020   3.337   6.809
 6596SOL     OW20686   3.277   6.710   5.556
 6596SOL    HW120687   3.319   6.656   5.483
 6596SOL    HW220688   3.200   6.660   5.595
 6597SOL     OW20689   0.018   4.188   6.580
 6597SOL    HW120690   0.049   4.277   6.546
 6597SOL    HW220691   7.029   4.128   6.503
 6598SOL     OW20692   2.310   5.723   4.979
 6598SOL    HW120693   2.399   5.765   4.999
 6598SOL    HW220694   2.324   5.628   4.952
 6599SOL     OW20695   4.329   2.967   5.990
 6599SOL    HW120696   4.402   2.903   5.966
 6599SOL    HW220697   4.364   3.061   5.986
 6600SOL     OW20698   4.049   5.046   4.614
 6600SOL    HW120699   4.117   5.011   4.677
 6600SOL    HW220700   4.073   5.139   4.587
 6601SOL     OW20701   0.856   0.528   1.347
 6601SOL    HW120702   0.778   0.515   1.408
 6601SOL    HW220703   0.860   0.624   1.318
 6602SOL     OW20704   6.653   1.290   1.516
 6602SOL    HW120705   6.588   1.347   1.568
 6602SOL    HW220706   6.623   1.284   1.421
 6603SOL     OW20707   2.449   2.223   1.921
 6603SOL    HW120708   2.510   2.152   1.954
 6603SOL    HW220709   2.500   2.308   1.905
 6604SOL     OW20710   3.825   6.004   4.102
 6604SOL    HW120711   3.867   5.917   4.129
 6604SOL    HW220712   3.851   6.075   4.167
 6605SOL     OW20713   4.992   6.065   0.217
 6605SOL    HW120714   4.958   6.069   0.123
 6605SOL    HW220715   4.949   5.989   0.265
 6606SOL     OW20716   6.737   1.483   2.861
 6606SOL    HW120717   6.775   1.535   2.937
 6606SOL    HW220718   6.663   1.535   2.819
 6607SOL     OW20719   1.310   2.318   3.061
 6607SOL    HW120720   1.306   2.268   3.147
 6607SOL    HW220721   1.226   2.371   3.049
 6608SOL     OW20722   5.324   5.116   5.019
 6608SOL    HW120723   5.295   5.103   5.113
 6608SOL    HW220724   5.354   5.029   4.980
 6609SOL     OW20725   5.538   1.780   0.243
 6609SOL    HW120726   5.632   1.811   0.228
 6609SOL    HW220727   5.496   1.836   0.315
 6610SOL     OW20728   3.687   0.972   0.676
 6610SOL    HW120729   3.670   1.010   0.586
 6610SOL    HW220730   3.772   0.919   0.674
 6611SOL     OW20731   5.762   3.010   3.100
 6611SOL    HW120732   5.794   3.030   3.193
 6611SOL    HW220733   5.841   3.000   3.039
 6612SOL     OW20734   1.356   6.028   6.776
 6612SOL    HW120735   1.269   5.979   6.771
 6612SOL    HW220736   1.347   6.116   6.728
 6613SOL     OW20737   5.193   5.050   0.930
 6613SOL    HW120738   5.123   5.034   0.999
 6613SOL    HW220739   5.163   5.014   0.842
 6614SOL     OW20740   5.548   4.770   5.458
 6614SOL    HW120741   5.646   4.781   5.471
 6614SOL    HW220742   5.499   4.834   5.517
 6615SOL     OW20743   0.098   3.791   4.886
 6615SOL    HW120744   0.009   3.759   4.852
 6615SOL    HW220745   0.090   3.815   4.982
 6616SOL     OW20746   4.653   0.868   4.181
 6616SOL    HW120747   4.671   0.898   4.087
 6616SOL    HW220748   4.713   0.917   4.244
 6617SOL     OW20749   4.417   0.152   4.907
 6617SOL    HW120750   4.372   0.178   4.992
 6617SOL    HW220751   4.366   0.078   4.863
 6618SOL     OW20752   0.039   4.935   1.169
 6618SOL    HW120753   0.068   4.975   1.082
 6618SOL    HW220754   0.108   4.952   1.238
 6619SOL     OW20755   7.000   6.204   1.776
 6619SOL    HW120756   6.932   6.153   1.724
 6619SOL    HW220757   7.026   6.153   1.858
 6620SOL     OW20758   4.248   3.331   5.736
 6620SOL    HW120759   4.249   3.242   5.692
 6620SOL    HW220760   4.166   3.339   5.793
 6621SOL     OW20761   2.398   4.050   0.478
 6621SOL    HW120762   2.407   4.038   0.379
 6621SOL    HW220763   2.488   4.041   0.521
 6622SOL     OW20764   6.447   5.306   0.921
 6622SOL    HW120765   6.452   5.266   1.013
 6622SOL    HW220766   6.357   5.289   0.882
 6623SOL     OW20767   3.564   4.076   2.540
 6623SOL    HW120768   3.466   4.078   2.560
 6623SOL    HW220769   3.616   4.086   2.625
 6624SOL     OW20770   4.401   5.401   4.285
 6624SOL    HW120771   4.303   5.380   4.288
 6624SOL    HW220772   4.429   5.419   4.191
 6625SOL     OW20773   6.104   6.716   0.146
 6625SOL    HW120774   6.187   6.742   0.196
 6625SOL    HW220775   6.035   6.683   0.210
 6626SOL     OW20776   2.575   5.128   3.743
 6626SOL    HW120777   2.658   5.177   3.716
 6626SOL    HW220778   2.595   5.030   3.752
 6627SOL     OW20779   1.892   6.692   1.889
 6627SOL    HW120780   1.828   6.725   1.959
 6627SOL    HW220781   1.861   6.603   1.855
 6628SOL     OW20782   4.211   5.763   3.574
 6628SOL    HW120783   4.235   5.764   3.671
 6628SOL    HW220784   4.225   5.854   3.535
 6629SOL     OW20785   3.388   3.759   0.328
 6629SOL    HW120786   3.430   3.669   0.323
 6629SOL    HW220787   3.355   3.776   0.421
 6630SOL     OW20788   3.322   1.369   6.531
 6630SOL    HW120789   3.353   1.275   6.521
 6630SOL    HW220790   3.293   1.404   6.441
 6631SOL     OW20791   4.266   0.065   1.313
 6631SOL    HW120792   4.304   7.012   1.274
 6631SOL    HW220793   4.166   0.059   1.312
 6632SOL     OW20794   6.469   2.468   3.175
 6632SOL    HW120795   6.518   2.381   3.178
 6632SOL    HW220796   6.486   2.513   3.088
 6633SOL     OW20797   0.716   6.793   1.953
 6633SOL    HW120798   0.754   6.742   2.030
 6633SOL    HW220799   0.784   6.796   1.879
 6634SOL     OW20800   6.889   2.692   5.468
 6634SOL    HW120801   6.948   2.615   5.446
 6634SOL    HW220802   6.820   2.665   5.535
 6635SOL     OW20803   4.293   4.654   3.066
 6635SOL    HW120804   4.208   4.662   3.014
 6635SOL    HW220805   4.273   4.659   3.164
 6636SOL     OW20806   1.458   3.441   4.264
 6636SOL    HW120807   1.550   3.411   4.240
 6636SOL    HW220808   1.393   3.366   4.250
 6637SOL     OW20809   6.707   2.150   1.968
 6637SOL    HW120810   6.700   2.191   2.059
 6637SOL    HW220811   6.615   2.136   1.931
 6638SOL     OW20812   2.206   0.300   6.688
 6638SOL    HW120813   2.141   0.262   6.622
 6638SOL    HW220814   2.162   0.375   6.738
 6639SOL     OW20815   4.240   5.751   6.043
 6639SOL    HW120816   4.289   5.809   6.108
 6639SOL    HW220817   4.256   5.783   5.950
 6640SOL     OW20818   5.966   2.572   3.330
 6640SOL    HW120819   5.882   2.526   3.360
 6640SOL    HW220820   5.955   2.671   3.340
 6641SOL     OW20821   2.539   5.461   0.034
 6641SOL    HW120822   2.474   5.391   0.005
 6641SOL    HW220823   2.549   5.458   0.133
 6642SOL     OW20824   6.495   6.300   6.781
 6642SOL    HW120825   6.567   6.364   6.754
 6642SOL    HW220826   6.485   6.229   6.711
 6643SOL     OW20827   3.628   5.702   0.345
 6643SOL    HW120828   3.723   5.719   0.371
 6643SOL    HW220829   3.566   5.748   0.409
 6644SOL     OW20830   1.757   4.164   2.073
 6644SOL    HW120831   1.748   4.244   2.013
 6644SOL    HW220832   1.670   4.149   2.121
 6645SOL     OW20833   6.219   4.647   5.135
 6645SOL    HW120834   6.282   4.571   5.152
 6645SOL    HW220835   6.126   4.612   5.122
 6646SOL     OW20836   1.577   6.013   3.791
 6646SOL    HW120837   1.527   6.016   3.878
 6646SOL    HW220838   1.521   6.055   3.720
 6647SOL     OW20839   4.078   1.766   2.049
 6647SOL    HW120840   4.015   1.841   2.029
 6647SOL    HW220841   4.076   1.700   1.975
 6648SOL     OW20842   4.125   5.798   1.698
 6648SOL    HW120843   4.097   5.770   1.789
 6648SOL    HW220844   4.187   5.730   1.659
 6649SOL     OW20845   4.435   2.011   5.991
 6649SOL    HW120846   4.507   1.957   6.033
 6649SOL    HW220847   4.473   2.098   5.960
 6650SOL     OW20848   3.140   0.831   3.686
 6650SOL    HW120849   3.220   0.860   3.634
 6650SOL    HW220850   3.168   0.766   3.756
 6651SOL     OW20851   1.435   1.844   0.316
 6651SOL    HW120852   1.373   1.767   0.329
 6651SOL    HW220853   1.444   1.895   0.401
 6652SOL     OW20854   0.914   5.383   3.268
 6652SOL    HW120855   0.929   5.401   3.366
 6652SOL    HW220856   0.962   5.451   3.214
 6653SOL     OW20857   3.220   3.610   3.535
 6653SOL    HW120858   3.296   3.672   3.514
 6653SOL    HW220859   3.144   3.662   3.574
 6654SOL     OW20860   1.737   3.669   1.842
 6654SOL    HW120861   1.662   3.621   1.888
 6654SOL    HW220862   1.762   3.751   1.894
 6655SOL     OW20863   1.806   0.538   0.867
 6655SOL    HW120864   1.852   0.578   0.787
 6655SOL    HW220865   1.766   0.450   0.841
 6656SOL     OW20866   0.179   2.686   2.082
 6656SOL    HW120867   0.156   2.665   1.987
 6656SOL    HW220868   0.273   2.657   2.100
 6657SOL     OW20869   3.208   4.987   5.808
 6657SOL    HW120870   3.214   5.021   5.714
 6657SOL    HW220871   3.258   4.900   5.814
 6658SOL     OW20872   6.215   6.955   6.091
 6658SOL    HW120873   6.208   6.873   6.034
 6658SOL    HW220874   6.310   6.966   6.122
 6659SOL     OW20875   1.600   2.870   6.678
 6659SOL    HW120876   1.604   2.851   6.580
 6659SOL    HW220877   1.664   2.943   6.701
 6660SOL     OW20878   0.858   6.780   2.817
 6660SOL    HW120879   0.951   6.807   2.840
 6660SOL    HW220880   0.860   6.716   2.741
 6661SOL     OW20881   6.949   6.224   3.707
 6661SOL    HW120882   6.953   6.324   3.707
 6661SOL    HW220883   6.860   6.194   3.673
 6662SOL     OW20884   1.589   3.813   5.832
 6662SOL    HW120885   1.611   3.905   5.865
 6662SOL    HW220886   1.556   3.819   5.737
 6663SOL     OW20887   0.488   5.147   2.225
 6663SOL    HW120888   0.405   5.199   2.205
 6663SOL    HW220889   0.507   5.084   2.149
 6664SOL     OW20890   0.014   1.628   2.539
 6664SOL    HW120891   0.026   1.530   2.528
 6664SOL    HW220892   6.948   1.648   2.559
 6665SOL     OW20893   2.710   0.018   2.436
 6665SOL    HW120894   2.804   0.025   2.403
 6665SOL    HW220895   2.684   6.951   2.441
 6666SOL     OW20896   5.356   1.111   0.641
 6666SOL    HW120897   5.453   1.136   0.635
 6666SOL    HW220898   5.320   1.097   0.549
 6667SOL     OW20899   6.523   5.108   4.903
 6667SOL    HW120900   6.498   5.201   4.929
 6667SOL    HW220901   6.451   5.044   4.931
 6668SOL     OW20902   0.190   6.383   1.321
 6668SOL    HW120903   0.215   6.363   1.416
 6668SOL    HW220904   0.140   6.470   1.318
 6669SOL     OW20905   0.880   5.207   2.792
 6669SOL    HW120906   0.892   5.306   2.800
 6669SOL    HW220907   0.954   5.160   2.841
 6670SOL     OW20908   3.973   4.474   0.414
 6670SOL    HW120909   3.958   4.396   0.353
 6670SOL    HW220910   3.890   4.490   0.468
 6671SOL     OW20911   0.639   3.026   5.459
 6671SOL    HW120912   0.549   2.994   5.430
 6671SOL    HW220913   0.703   3.019   5.382
 6672SOL     OW20914   0.468   0.300   5.647
 6672SOL    HW120915   0.549   0.313   5.590
 6672SOL    HW220916   0.489   0.327   5.741
 6673SOL     OW20917   4.858   5.591   1.122
 6673SOL    HW120918   4.906   5.658   1.180
 6673SOL    HW220919   4.922   5.519   1.095
 6674SOL     OW20920   0.589   6.915   5.286
 6674SOL    HW120921   0.673   6.940   5.335
 6674SOL    HW220922   0.510   6.946   5.337
 6675SOL     OW20923   6.801   6.376   0.489
 6675SOL    HW120924   6.833   6.312   0.559
 6675SOL    HW220925   6.861   6.456   0.486
 6676SOL     OW20926   0.565   1.743   1.106
 6676SOL    HW120927   0.521   1.821   1.150
 6676SOL    HW220928   0.589   1.767   1.012
 6677SOL     OW20929   6.621   4.453   0.274
 6677SOL    HW120930   6.598   4.513   0.350
 6677SOL    HW220931   6.719   4.460   0.255
 6678SOL     OW20932   0.478   3.198   4.377
 6678SOL    HW120933   0.542   3.166   4.307
 6678SOL    HW220934   0.500   3.155   4.465
 6679SOL     OW20935   1.450   1.004   4.919
 6679SOL    HW120936   1.490   0.912   4.913
 6679SOL    HW220937   1.379   1.014   4.850
 6680SOL     OW20938   2.957   0.842   6.420
 6680SOL    HW120939   2.928   0.840   6.325
 6680SOL    HW220940   2.879   0.867   6.478
 6681SOL     OW20941   5.200   5.783   0.039
 6681SOL    HW120942   5.225   5.862   0.095
 6681SOL    HW220943   5.102   5.787   0.019
 6682SOL     OW20944   6.743   5.348   1.968
 6682SOL    HW120945   6.699   5.436   1.947
 6682SOL    HW220946   6.782   5.352   2.060
 6683SOL     OW20947   5.086   1.428   4.456
 6683SOL    HW120948   5.080   1.328   4.452
 6683SOL    HW220949   5.046   1.467   4.373
 6684SOL     OW20950   2.018   1.368   2.659
 6684SOL    HW120951   2.073   1.450   2.674
 6684SOL    HW220952   2.078   1.293   2.628
 6685SOL     OW20953   5.537   2.999   6.502
 6685SOL    HW120954   5.491   3.072   6.552
 6685SOL    HW220955   5.470   2.945   6.451
 6686SOL     OW20956   6.099   3.315   4.249
 6686SOL    HW120957   6.157   3.323   4.168
 6686SOL    HW220958   6.036   3.393   4.252
 6687SOL     OW20959   0.772   0.864   0.409
 6687SOL    HW120960   0.852   0.879   0.350
 6687SOL    HW220961   0.747   0.767   0.407
 6688SOL     OW20962   0.775   5.148   2.539
 6688SOL    HW120963   0.850   5.194   2.491
 6688SOL    HW220964   0.789   5.158   2.638
 6689SOL     OW20965   4.440   5.115   6.990
 6689SOL    HW120966   4.349   5.091   6.958
 6689SOL    HW220967   4.490   5.033   7.018
 6690SOL     OW20968   1.246   1.709   0.709
 6690SOL    HW120969   1.253   1.613   0.735
 6690SOL    HW220970   1.154   1.727   0.673
 6691SOL     OW20971   1.771   5.043   1.062
 6691SOL    HW120972   1.724   5.094   0.991
 6691SOL    HW220973   1.863   5.081   1.076
 6692SOL     OW20974   4.588   3.958   6.107
 6692SOL    HW120975   4.613   3.871   6.150
 6692SOL    HW220976   4.604   4.033   6.171
 6693SOL     OW20977   3.697   3.924   5.445
 6693SOL    HW120978   3.625   3.875   5.494
 6693SOL    HW220979   3.786   3.894   5.479
 6694SOL     OW20980   2.717   6.293   0.211
 6694SOL    HW120981   2.657   6.354   0.159
 6694SOL    HW220982   2.707   6.313   0.309
 6695SOL     OW20983   1.684   1.529   6.427
 6695SOL    HW120984   1.663   1.451   6.486
 6695SOL    HW220985   1.688   1.612   6.481
 6696SOL     OW20986   1.845   2.771   1.460
 6696SOL    HW120987   1.847   2.850   1.522
 6696SOL    HW220988   1.935   2.728   1.458
 6697SOL     OW20989   5.160   2.864   3.836
 6697SOL    HW120990   5.075   2.881   3.787
 6697SOL    HW220991   5.145   2.794   3.906
 6698SOL     OW20992   3.109   4.426   0.097
 6698SOL    HW120993   3.075   4.510   0.139
 6698SOL    HW220994   3.200   4.406   0.133
 6699SOL     OW20995   1.294   3.554   6.516
 6699SOL    HW120996   1.242   3.638   6.531
 6699SOL    HW220997   1.326   3.519   6.603
 6700SOL     OW20998   6.978   6.664   6.230
 6700SOL    HW120999   0.044   6.691   6.236
 6700SOL    HW221000   6.926   6.714   6.299
 6701SOL     OW21001   0.403   3.008   1.366
 6701SOL    HW121002   0.463   2.974   1.293
 6701SOL    HW221003   0.439   3.095   1.400
 6702SOL     OW21004   1.310   3.594   0.680
 6702SOL    HW121005   1.260   3.510   0.662
 6702SOL    HW221006   1.341   3.595   0.775
 6703SOL     OW21007   0.499   2.622   6.869
 6703SOL    HW121008   0.436   2.566   6.815
 6703SOL    HW221009   0.475   2.616   6.966
 6704SOL     OW21010   5.066   2.717   3.395
 6704SOL    HW121011   5.058   2.734   3.494
 6704SOL    HW221012   4.977   2.693   3.358
 6705SOL     OW21013   5.826   1.038   0.993
 6705SOL    HW121014   5.816   0.939   1.005
 6705SOL    HW221015   5.869   1.077   1.075
 6706SOL     OW21016   0.989   6.195   6.976
 6706SOL    HW121017   1.051   6.224   0.019
 6706SOL    HW221018   0.972   6.273   6.915
 6707SOL     OW21019   1.199   5.350   2.121
 6707SOL    HW121020   1.133   5.402   2.175
 6707SOL    HW221021   1.230   5.406   2.044
 6708SOL     OW21022   2.292   6.418   1.775
 6708SOL    HW121023   2.275   6.513   1.749
 6708SOL    HW221024   2.268   6.405   1.871
 6709SOL     OW21025   4.921   1.578   3.128
 6709SOL    HW121026   4.974   1.652   3.087
 6709SOL    HW221027   4.825   1.606   3.135
 6710SOL     OW21028   1.747   2.140   0.468
 6710SOL    HW121029   1.839   2.153   0.432
 6710SOL    HW221030   1.743   2.053   0.518
 6711SOL     OW21031   5.235   3.812   0.074
 6711SOL    HW121032   5.153   3.785   0.123
 6711SOL    HW221033   5.299   3.855   0.138
 6712SOL     OW21034   3.360   6.186   1.238
 6712SOL    HW121035   3.453   6.153   1.255
 6712SOL    HW221036   3.318   6.213   1.324
 6713SOL     OW21037   1.714   1.695   3.202
 6713SOL    HW121038   1.634   1.686   3.263
 6713SOL    HW221039   1.778   1.761   3.241
 6714SOL     OW21040   6.561   0.395   4.657
 6714SOL    HW121041   6.612   0.429   4.736
 6714SOL    HW221042   6.558   0.295   4.660
 6715SOL     OW21043   6.408   1.968   0.560
 6715SOL    HW121044   6.489   2.026   0.561
 6715SOL    HW221045   6.414   1.903   0.485
 6716SOL     OW21046   2.767   6.070   0.975
 6716SOL    HW121047   2.859   6.092   0.941
 6716SOL    HW221048   2.728   5.996   0.920
 6717SOL     OW21049   4.075   1.157   6.884
 6717SOL    HW121050   4.073   1.231   6.816
 6717SOL    HW221051   4.071   1.196   6.976
 6718SOL     OW21052   3.455   0.007   0.335
 6718SOL    HW121053   3.477   6.942   0.315
 6718SOL    HW221054   3.468   0.024   0.433
 6719SOL     OW21055   0.667   1.093   5.223
 6719SOL    HW121056   0.751   1.041   5.216
 6719SOL    HW221057   0.682   1.186   5.189
 6720SOL     OW21058   1.670   4.561   1.429
 6720SOL    HW121059   1.768   4.545   1.442
 6720SOL    HW221060   1.656   4.643   1.375
 6721SOL     OW21061   0.409   6.128   2.864
 6721SOL    HW121062   0.440   6.120   2.769
 6721SOL    HW221063   0.374   6.220   2.880
 6722SOL     OW21064   4.998   4.912   6.637
 6722SOL    HW121065   5.086   4.958   6.623
 6722SOL    HW221066   4.928   4.980   6.659
 6723SOL     OW21067   4.483   0.743   2.693
 6723SOL    HW121068   4.510   0.721   2.599
 6723SOL    HW221069   4.514   0.835   2.716
 6724SOL     OW21070   3.839   4.832   5.886
 6724SOL    HW121071   3.861   4.905   5.821
 6724SOL    HW221072   3.847   4.743   5.841
 6725SOL     OW21073   6.976   5.166   1.292
 6725SOL    HW121074   6.928   5.109   1.359
 6725SOL    HW221075   7.012   5.109   1.219
 6726SOL     OW21076   2.306   2.829   2.009
 6726SOL    HW121077   2.319   2.751   1.947
 6726SOL    HW221078   2.290   2.911   1.955
 6727SOL     OW21079   3.251   3.895   0.643
 6727SOL    HW121080   3.153   3.902   0.621
 6727SOL    HW221081   3.265   3.823   0.710
 6728SOL     OW21082   4.551   1.592   4.902
 6728SOL    HW121083   4.484   1.545   4.960
 6728SOL    HW221084   4.590   1.528   4.836
 6729SOL     OW21085   4.745   6.415   3.219
 6729SOL    HW121086   4.764   6.325   3.179
 6729SOL    HW221087   4.767   6.486   3.152
 6730SOL     OW21088   1.453   0.408   2.163
 6730SOL    HW121089   1.531   0.376   2.216
 6730SOL    HW221090   1.459   0.507   2.152
 6731SOL     OW21091   1.943   4.185   2.323
 6731SOL    HW121092   1.891   4.179   2.238
 6731SOL    HW221093   2.028   4.236   2.307
 6732SOL     OW21094   2.484   5.753   0.268
 6732SOL    HW121095   2.552   5.827   0.263
 6732SOL    HW221096   2.446   5.736   0.177
 6733SOL     OW21097   5.859   5.947   4.602
 6733SOL    HW121098   5.896   5.862   4.640
 6733SOL    HW221099   5.760   5.948   4.613
 6734SOL     OW21100   2.778   3.602   5.660
 6734SOL    HW121101   2.806   3.632   5.751
 6734SOL    HW221102   2.773   3.502   5.657
 6735SOL     OW21103   0.727   6.657   6.705
 6735SOL    HW121104   0.717   6.653   6.805
 6735SOL    HW221105   0.815   6.618   6.679
 6736SOL     OW21106   2.197   4.030   2.473
 6736SOL    HW121107   2.134   4.060   2.545
 6736SOL    HW221108   2.249   4.109   2.440
 6737SOL     OW21109   2.084   0.076   0.865
 6737SOL    HW121110   2.022   0.019   0.809
 6737SOL    HW221111   2.123   0.148   0.808
 6738SOL     OW21112   4.833   1.717   1.337
 6738SOL    HW121113   4.834   1.747   1.433
 6738SOL    HW221114   4.912   1.659   1.320
 6739SOL     OW21115   4.028   6.657   5.489
 6739SOL    HW121116   4.070   6.577   5.446
 6739SOL    HW221117   4.091   6.734   5.484
 6740SOL     OW21118   5.861   3.101   5.700
 6740SOL    HW121119   5.937   3.165   5.715
 6740SOL    HW221120   5.787   3.149   5.653
 6741SOL     OW21121   0.459   6.999   6.265
 6741SOL    HW121122   0.445   6.933   6.338
 6741SOL    HW221123   0.376   0.025   6.253
 6742SOL     OW21124   6.313   6.109   4.975
 6742SOL    HW121125   6.255   6.190   4.984
 6742SOL    HW221126   6.256   6.027   4.985
 6743SOL     OW21127   5.900   2.213   1.385
 6743SOL    HW121128   5.951   2.144   1.436
 6743SOL    HW221129   5.809   2.222   1.425
 6744SOL     OW21130   4.816   6.316   4.302
 6744SOL    HW121131   4.897   6.297   4.358
 6744SOL    HW221132   4.806   6.415   4.290
 6745SOL     OW21133   1.047   3.293   2.889
 6745SOL    HW121134   0.949   3.297   2.869
 6745SOL    HW221135   1.098   3.334   2.813
 6746SOL     OW21136   6.694   0.938   0.798
 6746SOL    HW121137   6.596   0.930   0.812
 6746SOL    HW221138   6.719   1.033   0.781
 6747SOL     OW21139   4.676   5.620   6.725
 6747SOL    HW121140   4.632   5.662   6.645
 6747SOL    HW221141   4.775   5.631   6.717
 6748SOL     OW21142   0.226   6.426   1.855
 6748SOL    HW121143   0.148   6.402   1.912
 6748SOL    HW221144   0.201   6.416   1.758
 6749SOL     OW21145   3.195   5.490   1.367
 6749SOL    HW121146   3.268   5.429   1.334
 6749SOL    HW221147   3.139   5.519   1.289
 6750SOL     OW21148   2.266   3.019   5.294
 6750SOL    HW121149   2.247   3.115   5.271
 6750SOL    HW221150   2.330   2.981   5.227
 6751SOL     OW21151   3.927   1.883   5.996
 6751SOL    HW121152   3.870   1.949   5.948
 6751SOL    HW221153   3.877   1.846   6.075
 6752SOL     OW21154   7.005   1.906   6.878
 6752SOL    HW121155   0.041   1.967   6.833
 6752SOL    HW221156   6.919   1.954   6.893
 6753SOL     OW21157   6.335   1.113   0.207
 6753SOL    HW121158   6.354   1.016   0.223
 6753SOL    HW221159   6.419   1.159   0.179
 6754SOL     OW21160   4.616   0.870   6.622
 6754SOL    HW121161   4.708   0.851   6.656
 6754SOL    HW221162   4.596   0.967   6.634
 6755SOL     OW21163   5.409   2.154   3.692
 6755SOL    HW121164   5.483   2.210   3.655
 6755SOL    HW221165   5.344   2.133   3.619
 6756SOL     OW21166   4.851   3.993   3.725
 6756SOL    HW121167   4.862   3.916   3.787
 6756SOL    HW221168   4.838   4.077   3.778
 6757SOL     OW21169   6.155   4.418   1.385
 6757SOL    HW121170   6.114   4.478   1.316
 6757SOL    HW221171   6.246   4.453   1.410
 6758SOL     OW21172   5.881   1.491   3.345
 6758SOL    HW121173   5.855   1.497   3.442
 6758SOL    HW221174   5.890   1.395   3.319
 6759SOL     OW21175   1.321   5.360   2.999
 6759SOL    HW121176   1.336   5.263   2.983
 6759SOL    HW221177   1.396   5.413   2.959
 6760SOL     OW21178   6.826   3.897   5.084
 6760SOL    HW121179   6.761   3.954   5.033
 6760SOL    HW221180   6.812   3.912   5.182
 6761SOL     OW21181   5.904   2.826   6.507
 6761SOL    HW121182   5.872   2.755   6.570
 6761SOL    HW221183   5.972   2.786   6.445
 6762SOL     OW21184   6.954   3.851   2.877
 6762SOL    HW121185   6.949   3.865   2.976
 6762SOL    HW221186   7.027   3.907   2.839
 6763SOL     OW21187   5.687   0.016   4.786
 6763SOL    HW121188   5.664   0.093   4.846
 6763SOL    HW221189   5.686   0.046   4.691
 6764SOL     OW21190   2.148   3.579   6.659
 6764SOL    HW121191   2.149   3.480   6.647
 6764SOL    HW221192   2.056   3.614   6.644
 6765SOL     OW21193   5.081   4.934   2.744
 6765SOL    HW121194   5.153   4.871   2.775
 6765SOL    HW221195   4.998   4.917   2.797
 6766SOL     OW21196   1.881   2.783   6.001
 6766SOL    HW121197   1.859   2.842   5.923
 6766SOL    HW221198   1.956   2.823   6.053
 6767SOL     OW21199   0.553   2.857   5.858
 6767SOL    HW121200   0.555   2.760   5.834
 6767SOL    HW221201   0.496   2.907   5.792
 6768SOL     OW21202   6.409   0.774   6.543
 6768SOL    HW121203   6.495   0.825   6.533
 6768SOL    HW221204   6.376   0.784   6.637
 6769SOL     OW21205   0.997   2.575   6.047
 6769SOL    HW121206   1.011   2.481   6.013
 6769SOL    HW221207   1.080   2.628   6.030
 6770SOL     OW21208   6.971   1.742   4.003
 6770SOL    HW121209   6.946   1.810   4.071
 6770SOL    HW221210   0.036   1.714   4.016
 6771SOL     OW21211   5.991   1.885   2.688
 6771SOL    HW121212   6.043   1.931   2.760
 6771SOL    HW221213   6.026   1.914   2.599
 6772SOL     OW21214   1.315   0.741   2.179
 6772SOL    HW121215   1.248   0.788   2.236
 6772SOL    HW221216   1.384   0.806   2.148
 6773SOL     OW21217   1.878   0.988   2.830
 6773SOL    HW121218   1.907   1.026   2.742
 6773SOL    HW221219   1.780   1.003   2.841
 6774SOL     OW21220   4.175   1.444   5.253
 6774SOL    HW121221   4.208   1.435   5.347
 6774SOL    HW221222   4.081   1.412   5.247
 6775SOL     OW21223   1.386   2.494   4.587
 6775SOL    HW121224   1.422   2.426   4.652
 6775SOL    HW221225   1.462   2.544   4.546
 6776SOL     OW21226   3.467   3.895   3.400
 6776SOL    HW121227   3.486   3.992   3.382
 6776SOL    HW221228   3.405   3.860   3.330
 6777SOL     OW21229   0.462   6.713   6.095
 6777SOL    HW121230   0.540   6.774   6.107
 6777SOL    HW221231   0.454   6.654   6.176
 6778SOL     OW21232   6.587   6.173   2.104
 6778SOL    HW121233   6.521   6.242   2.135
 6778SOL    HW221234   6.540   6.086   2.090
 6779SOL     OW21235   4.860   4.289   6.680
 6779SOL    HW121236   4.947   4.339   6.688
 6779SOL    HW221237   4.786   4.354   6.666
 6780SOL     OW21238   4.818   0.698   2.372
 6780SOL    HW121239   4.828   0.776   2.310
 6780SOL    HW221240   4.735   0.709   2.427
 6781SOL     OW21241   6.156   3.081   3.209
 6781SOL    HW121242   6.151   3.171   3.253
 6781SOL    HW221243   6.090   3.077   3.134
 6782SOL     OW21244   0.495   1.147   2.989
 6782SOL    HW121245   0.459   1.122   3.079
 6782SOL    HW221246   0.463   1.082   2.921
 6783SOL     OW21247   0.276   6.308   6.667
 6783SOL    HW121248   0.373   6.329   6.682
 6783SOL    HW221249   0.250   6.230   6.723
 6784SOL     OW21250   1.317   4.980   0.455
 6784SOL    HW121251   1.283   4.971   0.548
 6784SOL    HW221252   1.373   4.900   0.432
 6785SOL     OW21253   5.368   4.507   1.683
 6785SOL    HW121254   5.353   4.535   1.777
 6785SOL    HW221255   5.364   4.587   1.623
 6786SOL     OW21256   6.588   2.101   5.469
 6786SOL    HW121257   6.643   2.018   5.459
 6786SOL    HW221258   6.491   2.079   5.463
 6787SOL     OW21259   4.086   2.086   1.146
 6787SOL    HW121260   4.142   2.167   1.161
 6787SOL    HW221261   3.989   2.110   1.158
 6788SOL     OW21262   1.191   4.567   0.968
 6788SOL    HW121263   1.145   4.590   0.882
 6788SOL    HW221264   1.185   4.468   0.982
 6789SOL     OW21265   5.591   3.356   2.514
 6789SOL    HW121266   5.610   3.400   2.427
 6789SOL    HW221267   5.493   3.358   2.532
 6790SOL     OW21268   0.227   5.713   0.753
 6790SOL    HW121269   0.179   5.636   0.795
 6790SOL    HW221270   0.160   5.780   0.722
 6791SOL     OW21271   2.525   6.524   3.355
 6791SOL    HW121272   2.607   6.506   3.408
 6791SOL    HW221273   2.454   6.458   3.381
 6792SOL     OW21274   3.398   5.863   6.790
 6792SOL    HW121275   3.438   5.842   6.879
 6792SOL    HW221276   3.379   5.778   6.741
 6793SOL     OW21277   2.593   4.410   6.514
 6793SOL    HW121278   2.690   4.434   6.510
 6793SOL    HW221279   2.585   4.312   6.532
 6794SOL     OW21280   4.832   2.365   4.422
 6794SOL    HW121281   4.889   2.324   4.350
 6794SOL    HW221282   4.737   2.339   4.408
 6795SOL     OW21283   0.830   1.129   2.035
 6795SOL    HW121284   0.772   1.209   2.054
 6795SOL    HW221285   0.902   1.155   1.971
 6796SOL     OW21286   6.621   3.020   2.613
 6796SOL    HW121287   6.675   2.980   2.687
 6796SOL    HW221288   6.592   2.947   2.551
 6797SOL     OW21289   1.918   3.950   1.191
 6797SOL    HW121290   1.970   4.035   1.197
 6797SOL    HW221291   1.867   3.948   1.105
 6798SOL     OW21292   4.779   1.236   1.942
 6798SOL    HW121293   4.711   1.236   2.016
 6798SOL    HW221294   4.737   1.270   1.858
 6799SOL     OW21295   5.659   6.811   3.101
 6799SOL    HW121296   5.598   6.866   3.157
 6799SOL    HW221297   5.623   6.807   3.007
 6800SOL     OW21298   6.561   2.675   2.772
 6800SOL    HW121299   6.497   2.673   2.849
 6800SOL    HW221300   6.630   2.746   2.788
 6801SOL     OW21301   1.685   5.333   5.106
 6801SOL    HW121302   1.611   5.390   5.141
 6801SOL    HW221303   1.690   5.343   5.007
 6802SOL     OW21304   2.819   4.492   1.599
 6802SOL    HW121305   2.814   4.398   1.563
 6802SOL    HW221306   2.857   4.490   1.691
 6803SOL     OW21307   5.981   4.961   6.755
 6803SOL    HW121308   6.013   4.885   6.811
 6803SOL    HW221309   6.047   4.980   6.683
 6804SOL     OW21310   3.366   4.897   2.159
 6804SOL    HW121311   3.281   4.928   2.203
 6804SOL    HW221312   3.346   4.815   2.104
 6805SOL     OW21313   0.597   4.790   3.378
 6805SOL    HW121314   0.600   4.704   3.429
 6805SOL    HW221315   0.519   4.845   3.408
 6806SOL     OW21316   6.145   3.887   2.040
 6806SOL    HW121317   6.226   3.834   2.063
 6806SOL    HW221318   6.082   3.830   1.985
 6807SOL     OW21319   3.470   3.357   2.508
 6807SOL    HW121320   3.547   3.417   2.484
 6807SOL    HW221321   3.463   3.284   2.441
 6808SOL     OW21322   3.943   6.700   3.275
 6808SOL    HW121323   3.918   6.688   3.179
 6808SOL    HW221324   4.038   6.671   3.288
 6809SOL     OW21325   5.365   2.443   0.351
 6809SOL    HW121326   5.436   2.448   0.422
 6809SOL    HW221327   5.408   2.448   0.261
 6810SOL     OW21328   2.618   6.669   4.338
 6810SOL    HW121329   2.717   6.683   4.332
 6810SOL    HW221330   2.581   6.726   4.410
 6811SOL     OW21331   6.370   1.755   1.500
 6811SOL    HW121332   6.315   1.698   1.560
 6811SOL    HW221333   6.461   1.768   1.539
 6812SOL     OW21334   3.482   4.363   5.265
 6812SOL    HW121335   3.536   4.431   5.315
 6812SOL    HW221336   3.391   4.357   5.306
 6813SOL     OW21337   6.983   3.617   2.009
 6813SOL    HW121338   7.020   3.552   1.942
 6813SOL    HW221339   6.975   3.572   2.098
 6814SOL     OW21340   4.231   2.122   1.942
 6814SOL    HW121341   4.131   2.119   1.939
 6814SOL    HW221342   4.261   2.207   1.987
 6815SOL     OW21343   1.225   5.853   0.119
 6815SOL    HW121344   1.274   5.843   0.206
 6815SOL    HW221345   1.145   5.911   0.133
 6816SOL     OW21346   5.817   6.321   4.368
 6816SOL    HW121347   5.823   6.395   4.301
 6816SOL    HW221348   5.889   6.332   4.437
 6817SOL     OW21349   5.532   0.461   2.055
 6817SOL    HW121350   5.630   0.443   2.063
 6817SOL    HW221351   5.496   0.418   1.972
 6818SOL     OW21352   7.007   0.005   5.652
 6818SOL    HW121353   6.931   6.974   5.676
 6818SOL    HW221354   0.061   6.982   5.644
 6819SOL     OW21355   5.417   4.043   0.907
 6819SOL    HW121356   5.396   4.132   0.866
 6819SOL    HW221357   5.495   4.053   0.969
 6820SOL     OW21358   2.272   3.273   1.176
 6820SOL    HW121359   2.357   3.228   1.205
 6820SOL    HW221360   2.200   3.252   1.241
 6821SOL     OW21361   2.774   3.137   6.011
 6821SOL    HW121362   2.759   3.134   6.109
 6821SOL    HW221363   2.872   3.145   5.992
 6822SOL     OW21364   6.581   3.992   4.962
 6822SOL    HW121365   6.511   3.937   4.917
 6822SOL    HW221366   6.583   4.083   4.921
 6823SOL     OW21367   6.697   3.135   6.011
 6823SOL    HW121368   6.699   3.213   5.948
 6823SOL    HW221369   6.714   3.050   5.960
 6824SOL     OW21370   0.789   0.650   3.716
 6824SOL    HW121371   0.718   0.697   3.767
 6824SOL    HW221372   0.872   0.644   3.771
 6825SOL     OW21373   4.511   4.691   1.585
 6825SOL    HW121374   4.476   4.613   1.637
 6825SOL    HW221375   4.610   4.695   1.594
 6826SOL     OW21376   5.875   1.206   3.548
 6826SOL    HW121377   5.861   1.135   3.618
 6826SOL    HW221378   5.935   1.277   3.584
 6827SOL     OW21379   5.201   5.500   5.874
 6827SOL    HW121380   5.147   5.474   5.954
 6827SOL    HW221381   5.143   5.548   5.808
 6828SOL     OW21382   2.455   2.300   2.597
 6828SOL    HW121383   2.359   2.274   2.587
 6828SOL    HW221384   2.464   2.399   2.587
 6829SOL     OW21385   5.372   6.407   4.037
 6829SOL    HW121386   5.337   6.389   4.129
 6829SOL    HW221387   5.306   6.374   3.969
 6830SOL     OW21388   3.969   6.343   2.073
 6830SOL    HW121389   4.029   6.381   2.004
 6830SOL    HW221390   3.876   6.335   2.036
 6831SOL     OW21391   1.961   1.168   6.781
 6831SOL    HW121392   1.972   1.231   6.858
 6831SOL    HW221393   2.043   1.111   6.773
 6832SOL     OW21394   3.120   3.466   6.973
 6832SOL    HW121395   3.206   3.427   7.005
 6832SOL    HW221396   3.085   3.531   0.011
 6833SOL     OW21397   4.818   5.153   6.674
 6833SOL    HW121398   4.720   5.168   6.665
 6833SOL    HW221399   4.860   5.235   6.713
 6834SOL     OW21400   6.052   5.681   5.440
 6834SOL    HW121401   6.085   5.627   5.517
 6834SOL    HW221402   6.101   5.768   5.437
 6835SOL     OW21403   4.095   0.138   3.226
 6835SOL    HW121404   4.008   0.137   3.276
 6835SOL    HW221405   4.077   0.120   3.129
 6836SOL     OW21406   0.685   4.673   6.907
 6836SOL    HW121407   0.653   4.591   6.859
 6836SOL    HW221408   0.762   4.650   6.966
 6837SOL     OW21409   6.452   2.105   1.860
 6837SOL    HW121410   6.393   2.060   1.927
 6837SOL    HW221411   6.415   2.195   1.837
 6838SOL     OW21412   2.397   4.493   6.659
 6838SOL    HW121413   2.350   4.567   6.611
 6838SOL    HW221414   2.470   4.456   6.601
 6839SOL     OW21415   5.775   2.577   5.553
 6839SOL    HW121416   5.779   2.672   5.585
 6839SOL    HW221417   5.685   2.560   5.514
 6840SOL     OW21418   3.306   0.133   4.754
 6840SOL    HW121419   3.219   0.157   4.797
 6840SOL    HW221420   3.381   0.168   4.811
 6841SOL     OW21421   4.448   6.182   0.698
 6841SOL    HW121422   4.476   6.102   0.752
 6841SOL    HW221423   4.482   6.172   0.605
 6842SOL     OW21424   1.295   3.398   3.677
 6842SOL    HW121425   1.327   3.457   3.603
 6842SOL    HW221426   1.241   3.452   3.741
 6843SOL     OW21427   4.891   2.943   1.821
 6843SOL    HW121428   4.828   2.958   1.897
 6843SOL    HW221429   4.892   2.846   1.797
 6844SOL     OW21430   3.312   6.909   5.234
 6844SOL    HW121431   3.383   6.924   5.303
 6844SOL    HW221432   3.352   6.863   5.154
 6845SOL     OW21433   3.572   3.692   6.869
 6845SOL    HW121434   3.671   3.690   6.883
 6845SOL    HW221435   3.549   3.640   6.787
 6846SOL     OW21436   4.115   3.532   3.842
 6846SOL    HW121437   4.213   3.547   3.850
 6846SOL    HW221438   4.088   3.539   3.746
 6847SOL     OW21439   5.302   2.627   2.457
 6847SOL    HW121440   5.397   2.655   2.468
 6847SOL    HW221441   5.245   2.677   2.522
 6848SOL     OW21442   0.733   5.806   5.260
 6848SOL    HW121443   0.648   5.825   5.211
 6848SOL    HW221444   0.765   5.890   5.304
 6849SOL     OW21445   3.188   0.578   4.814
 6849SOL    HW121446   3.116   0.643   4.790
 6849SOL    HW221447   3.226   0.603   4.903
 6850SOL     OW21448   6.648   3.365   1.833
 6850SOL    HW121449   6.612   3.304   1.762
 6850SOL    HW221450   6.726   3.416   1.796
 6851SOL     OW21451   1.801   5.692   6.674
 6851SOL    HW121452   1.838   5.775   6.631
 6851SOL    HW221453   1.709   5.712   6.710
 6852SOL     OW21454   5.835   5.187   2.161
 6852SOL    HW121455   5.753   5.212   2.110
 6852SOL    HW221456   5.908   5.162   2.098
 6853SOL     OW21457   6.216   4.215   4.685
 6853SOL    HW121458   6.258   4.303   4.661
 6853SOL    HW221459   6.253   4.144   4.626
 6854SOL     OW21460   6.295   1.376   6.949
 6854SOL    HW121461   6.244   1.291   6.936
 6854SOL    HW221462   6.392   1.354   6.963
 6855SOL     OW21463   3.088   6.907   1.660
 6855SOL    HW121464   3.037   6.864   1.734
 6855SOL    HW221465   3.186   6.897   1.677
 6856SOL     OW21466   0.816   5.999   5.724
 6856SOL    HW121467   0.731   5.968   5.681
 6856SOL    HW221468   0.892   5.941   5.693
 6857SOL     OW21469   4.945   0.698   0.020
 6857SOL    HW121470   4.957   0.798   0.016
 6857SOL    HW221471   4.942   0.661   6.958
 6858SOL     OW21472   3.413   2.875   6.896
 6858SOL    HW121473   3.443   2.872   6.801
 6858SOL    HW221474   3.385   2.968   6.920
 6859SOL     OW21475   4.325   1.074   0.325
 6859SOL    HW121476   4.340   1.102   0.230
 6859SOL    HW221477   4.386   1.124   0.385
 6860SOL     OW21478   5.039   3.615   6.944
 6860SOL    HW121479   5.016   3.710   6.921
 6860SOL    HW221480   5.006   3.595   0.006
 6861SOL     OW21481   5.758   3.524   0.732
 6861SOL    HW121482   5.769   3.577   0.649
 6861SOL    HW221483   5.845   3.522   0.783
 6862SOL     OW21484   2.681   4.880   4.570
 6862SOL    HW121485   2.743   4.864   4.647
 6862SOL    HW221486   2.592   4.910   4.605
 6863SOL     OW21487   1.151   3.287   3.985
 6863SOL    HW121488   1.162   3.371   4.038
 6863SOL    HW221489   1.238   3.237   3.982
 6864SOL     OW21490   4.018   5.608   6.317
 6864SOL    HW121491   3.962   5.552   6.256
 6864SOL    HW221492   4.011   5.573   6.411
 6865SOL     OW21493   0.668   2.717   4.271
 6865SOL    HW121494   0.749   2.765   4.235
 6865SOL    HW221495   0.696   2.652   4.341
 6866SOL     OW21496   0.735   3.716   2.654
 6866SOL    HW121497   0.694   3.638   2.702
 6866SOL    HW221498   0.710   3.801   2.701
 6867SOL     OW21499   1.908   5.586   3.298
 6867SOL    HW121500   1.951   5.568   3.387
 6867SOL    HW221501   1.866   5.677   3.298
 6868SOL     OW21502   1.886   5.473   4.756
 6868SOL    HW121503   1.815   5.405   4.773
 6868SOL    HW221504   1.866   5.555   4.809
 6869SOL     OW21505   0.366   3.244   5.094
 6869SOL    HW121506   0.382   3.268   4.999
 6869SOL    HW221507   0.444   3.274   5.150
 6870SOL     OW21508   5.667   3.322   3.000
 6870SOL    HW121509   5.625   3.367   2.922
 6870SOL    HW221510   5.763   3.351   3.007
 6871SOL     OW21511   4.871   5.792   1.419
 6871SOL    HW121512   4.927   5.784   1.502
 6871SOL    HW221513   4.775   5.805   1.445
 6872SOL     OW21514   3.249   4.296   0.674
 6872SOL    HW121515   3.291   4.222   0.623
 6872SOL    HW221516   3.214   4.365   0.611
 6873SOL     OW21517   5.533   4.932   4.648
 6873SOL    HW121518   5.546   4.977   4.559
 6873SOL    HW221519   5.620   4.929   4.696
 6874SOL     OW21520   0.637   1.719   6.290
 6874SOL    HW121521   0.707   1.762   6.347
 6874SOL    HW221522   0.677   1.693   6.202
 6875SOL     OW21523   3.831   0.492   4.627
 6875SOL    HW121524   3.744   0.464   4.667
 6875SOL    HW221525   3.825   0.588   4.599
 6876SOL     OW21526   3.594   5.768   4.634
 6876SOL    HW121527   3.658   5.821   4.579
 6876SOL    HW221528   3.558   5.825   4.708
 6877SOL     OW21529   1.411   3.790   6.064
 6877SOL    HW121530   1.479   3.778   5.992
 6877SOL    HW221531   1.320   3.779   6.025
 6878SOL     OW21532   1.181   1.337   4.547
 6878SOL    HW121533   1.147   1.411   4.606
 6878SOL    HW221534   1.280   1.332   4.555
 6879SOL     OW21535   6.959   0.908   5.157
 6879SOL    HW121536   6.869   0.867   5.146
 6879SOL    HW221537   6.954   1.007   5.142
 6880SOL     OW21538   1.147   4.221   4.635
 6880SOL    HW121539   1.171   4.131   4.672
 6880SOL    HW221540   1.218   4.251   4.571
 6881SOL     OW21541   5.448   5.651   1.646
 6881SOL    HW121542   5.492   5.563   1.665
 6881SOL    HW221543   5.385   5.674   1.720
 6882SOL     OW21544   2.333   6.350   5.598
 6882SOL    HW121545   2.351   6.326   5.694
 6882SOL    HW221546   2.420   6.362   5.550
 6883SOL     OW21547   3.029   5.884   2.199
 6883SOL    HW121548   3.024   5.983   2.211
 6883SOL    HW221549   3.082   5.863   2.116
 6884SOL     OW21550   1.866   5.072   2.055
 6884SOL    HW121551   1.898   5.073   2.149
 6884SOL    HW221552   1.806   5.151   2.039
 6885SOL     OW21553   4.307   4.768   5.013
 6885SOL    HW121554   4.244   4.769   5.091
 6885SOL    HW221555   4.335   4.675   4.994
 6886SOL     OW21556   5.227   1.060   1.444
 6886SOL    HW121557   5.211   1.009   1.529
 6886SOL    HW221558   5.156   1.036   1.377
 6887SOL     OW21559   6.154   0.938   5.054
 6887SOL    HW121560   6.058   0.937   5.025
 6887SOL    HW221561   6.210   0.889   4.986
 6888SOL     OW21562   5.774   0.200   4.023
 6888SOL    HW121563   5.871   0.177   4.030
 6888SOL    HW221564   5.762   0.299   4.033
 6889SOL     OW21565   2.036   4.310   6.355
 6889SOL    HW121566   2.111   4.295   6.292
 6889SOL    HW221567   1.949   4.305   6.306
 6890SOL     OW21568   1.910   0.564   1.140
 6890SOL    HW121569   2.006   0.544   1.120
 6890SOL    HW221570   1.855   0.543   1.059
 6891SOL     OW21571   4.529   5.603   5.753
 6891SOL    HW121572   4.464   5.679   5.753
 6891SOL    HW221573   4.619   5.636   5.723
 6892SOL     OW21574   3.327   1.657   4.875
 6892SOL    HW121575   3.403   1.605   4.835
 6892SOL    HW221576   3.363   1.722   4.942
 6893SOL     OW21577   5.094   0.532   1.226
 6893SOL    HW121578   5.144   0.476   1.160
 6893SOL    HW221579   4.998   0.505   1.226
 6894SOL     OW21580   5.965   4.492   6.420
 6894SOL    HW121581   5.913   4.411   6.448
 6894SOL    HW221582   6.003   4.537   6.500
 6895SOL     OW21583   4.346   5.410   5.738
 6895SOL    HW121584   4.264   5.445   5.785
 6895SOL    HW221585   4.421   5.475   5.751
 6896SOL     OW21586   4.581   1.451   2.752
 6896SOL    HW121587   4.521   1.527   2.777
 6896SOL    HW221588   4.656   1.485   2.696
 6897SOL     OW21589   3.777   0.522   1.221
 6897SOL    HW121590   3.850   0.534   1.287
 6897SOL    HW221591   3.741   0.612   1.193
 6898SOL     OW21592   4.261   1.117   2.605
 6898SOL    HW121593   4.182   1.142   2.548
 6898SOL    HW221594   4.330   1.073   2.548
 6899SOL     OW21595   5.664   6.120   6.089
 6899SOL    HW121596   5.747   6.075   6.123
 6899SOL    HW221597   5.643   6.199   6.147
 6900SOL     OW21598   4.544   0.617   6.661
 6900SOL    HW121599   4.596   0.554   6.602
 6900SOL    HW221600   4.574   0.711   6.643
 6901SOL     OW21601   2.005   0.835   0.034
 6901SOL    HW121602   2.080   0.786   0.078
 6901SOL    HW221603   2.018   0.934   0.046
 6902SOL     OW21604   6.824   5.757   2.631
 6902SOL    HW121605   6.793   5.666   2.604
 6902SOL    HW221606   6.873   5.800   2.555
 6903SOL     OW21607   4.754   4.356   0.480
 6903SOL    HW121608   4.673   4.406   0.450
 6903SOL    HW221609   4.777   4.286   0.412
 6904SOL     OW21610   0.620   0.611   2.931
 6904SOL    HW121611   0.549   0.677   2.955
 6904SOL    HW221612   0.669   0.642   2.850
 6905SOL     OW21613   3.406   5.495   1.079
 6905SOL    HW121614   3.472   5.548   1.133
 6905SOL    HW221615   3.390   5.407   1.124
 6906SOL     OW21616   5.948   6.386   3.257
 6906SOL    HW121617   6.029   6.382   3.198
 6906SOL    HW221618   5.923   6.293   3.284
 6907SOL     OW21619   3.450   0.415   1.376
 6907SOL    HW121620   3.488   0.428   1.284
 6907SOL    HW221621   3.362   0.461   1.382
 6908SOL     OW21622   5.589   6.812   6.715
 6908SOL    HW121623   5.604   6.910   6.729
 6908SOL    HW221624   5.552   6.797   6.623
 6909SOL     OW21625   2.498   2.541   7.002
 6909SOL    HW121626   2.578   2.518   0.027
 6909SOL    HW221627   2.428   2.582   0.031
 6910SOL     OW21628   5.434   1.526   1.059
 6910SOL    HW121629   5.354   1.565   1.013
 6910SOL    HW221630   5.419   1.525   1.158
 6911SOL     OW21631   4.299   0.354   5.107
 6911SOL    HW121632   4.232   0.316   5.043
 6911SOL    HW221633   4.273   0.330   5.201
 6912SOL     OW21634   4.179   4.760   2.287
 6912SOL    HW121635   4.173   4.842   2.229
 6912SOL    HW221636   4.263   4.710   2.266
 6913SOL     OW21637   4.759   5.682   5.655
 6913SOL    HW121638   4.833   5.621   5.683
 6913SOL    HW221639   4.779   5.719   5.564
 6914SOL     OW21640   6.451   4.710   0.040
 6914SOL    HW121641   6.461   4.611   0.038
 6914SOL    HW221642   6.354   4.734   0.040
 6915SOL     OW21643   0.454   6.401   0.618
 6915SOL    HW121644   0.491   6.493   0.629
 6915SOL    HW221645   0.451   6.378   0.521
 6916SOL     OW21646   6.298   0.300   5.731
 6916SOL    HW121647   6.269   0.221   5.786
 6916SOL    HW221648   6.318   0.270   5.638
 6917SOL     OW21649   4.583   0.042   5.847
 6917SOL    HW121650   4.588   6.973   5.833
 6917SOL    HW221651   4.548   0.060   5.939
 6918SOL     OW21652   2.342   2.826   3.714
 6918SOL    HW121653   2.248   2.817   3.680
 6918SOL    HW221654   2.405   2.784   3.650
 6919SOL     OW21655   1.411   6.110   3.421
 6919SOL    HW121656   1.429   6.013   3.404
 6919SOL    HW221657   1.392   6.124   3.518
 6920SOL     OW21658   5.441   5.802   4.280
 6920SOL    HW121659   5.361   5.751   4.311
 6920SOL    HW221660   5.515   5.738   4.260
 6921SOL     OW21661   1.098   5.619   3.619
 6921SOL    HW121662   1.169   5.615   3.689
 6921SOL    HW221663   1.034   5.692   3.641
 6922SOL     OW21664   1.892   6.939   0.747
 6922SOL    HW121665   1.813   6.963   0.691
 6922SOL    HW221666   1.861   6.885   0.826
 6923SOL     OW21667   4.954   5.526   3.727
 6923SOL    HW121668   4.962   5.475   3.813
 6923SOL    HW221669   4.986   5.620   3.740
 6924SOL     OW21670   6.160   5.926   2.349
 6924SOL    HW121671   6.212   5.849   2.311
 6924SOL    HW221672   6.116   5.897   2.434
 6925SOL     OW21673   5.089   5.477   2.661
 6925SOL    HW121674   5.006   5.533   2.665
 6925SOL    HW221675   5.064   5.381   2.656
 6926SOL     OW21676   2.742   4.176   5.334
 6926SOL    HW121677   2.704   4.245   5.273
 6926SOL    HW221678   2.834   4.202   5.361
 6927SOL     OW21679   4.202   3.631   0.806
 6927SOL    HW121680   4.110   3.651   0.841
 6927SOL    HW221681   4.259   3.594   0.880
 6928SOL     OW21682   0.096   0.865   6.678
 6928SOL    HW121683   0.169   0.797   6.686
 6928SOL    HW221684   0.044   0.848   6.595
 6929SOL     OW21685   2.765   5.255   1.673
 6929SOL    HW121686   2.813   5.226   1.755
 6929SOL    HW221687   2.829   5.256   1.596
 6930SOL     OW21688   0.156   0.497   3.146
 6930SOL    HW121689   0.252   0.527   3.143
 6930SOL    HW221690   0.153   0.399   3.165
 6931SOL     OW21691   2.252   6.964   0.095
 6931SOL    HW121692   2.338   6.913   0.086
 6931SOL    HW221693   2.233   7.013   0.009
 6932SOL     OW21694   2.477   2.578   0.414
 6932SOL    HW121695   2.479   2.493   0.361
 6932SOL    HW221696   2.465   2.655   0.351
 6933SOL     OW21697   2.233   5.875   5.206
 6933SOL    HW121698   2.243   5.820   5.124
 6933SOL    HW221699   2.323   5.906   5.237
 6934SOL     OW21700   5.596   4.976   6.568
 6934SOL    HW121701   5.524   4.930   6.517
 6934SOL    HW221702   5.565   5.067   6.596
 6935SOL     OW21703   4.773   5.645   3.258
 6935SOL    HW121704   4.744   5.708   3.186
 6935SOL    HW221705   4.843   5.688   3.315
 6936SOL     OW21706   0.668   4.578   0.436
 6936SOL    HW121707   0.712   4.489   0.447
 6936SOL    HW221708   0.652   4.595   0.339
 6937SOL     OW21709   4.533   6.066   6.028
 6937SOL    HW121710   4.545   6.157   6.066
 6937SOL    HW221711   4.530   6.071   5.928
 6938SOL     OW21712   5.756   2.830   5.210
 6938SOL    HW121713   5.739   2.867   5.301
 6938SOL    HW221714   5.672   2.834   5.155
 6939SOL     OW21715   6.663   4.636   1.982
 6939SOL    HW121716   6.627   4.555   2.029
 6939SOL    HW221717   6.727   4.607   1.911
 6940SOL     OW21718   4.359   0.393   4.684
 6940SOL    HW121719   4.269   0.436   4.679
 6940SOL    HW221720   4.349   0.299   4.718
 6941SOL     OW21721   4.139   3.391   4.689
 6941SOL    HW121722   4.223   3.337   4.689
 6941SOL    HW221723   4.132   3.442   4.775
 6942SOL     OW21724   6.056   1.813   6.938
 6942SOL    HW121725   5.984   1.850   6.879
 6942SOL    HW221726   6.030   1.823   0.004
 6943SOL     OW21727   6.008   5.675   6.488
 6943SOL    HW121728   6.052   5.703   6.402
 6943SOL    HW221729   5.917   5.715   6.493
 6944SOL     OW21730   1.497   6.443   0.527
 6944SOL    HW121731   1.572   6.410   0.469
 6944SOL    HW221732   1.436   6.367   0.550
 6945SOL     OW21733   4.774   2.054   6.067
 6945SOL    HW121734   4.709   2.096   6.130
 6945SOL    HW221735   4.751   1.957   6.057
 6946SOL     OW21736   6.163   3.544   3.492
 6946SOL    HW121737   6.225   3.561   3.416
 6946SOL    HW221738   6.130   3.631   3.529
 6947SOL     OW21739   3.847   6.757   1.343
 6947SOL    HW121740   3.796   6.838   1.372
 6947SOL    HW221741   3.827   6.681   1.405
 6948SOL     OW21742   3.891   2.653   5.528
 6948SOL    HW121743   3.928   2.737   5.489
 6948SOL    HW221744   3.964   2.601   5.572
 6949SOL     OW21745   5.068   0.841   2.463
 6949SOL    HW121746   4.968   0.834   2.462
 6949SOL    HW221747   5.106   0.787   2.388
 6950SOL     OW21748   3.366   1.298   3.336
 6950SOL    HW121749   3.406   1.323   3.248
 6950SOL    HW221750   3.267   1.306   3.332
 6951SOL     OW21751   5.194   4.643   5.476
 6951SOL    HW121752   5.097   4.626   5.458
 6951SOL    HW221753   5.249   4.574   5.430
 6952SOL     OW21754   6.991   3.986   5.742
 6952SOL    HW121755   7.016   3.890   5.740
 6952SOL    HW221756   0.035   4.041   5.704
 6953SOL     OW21757   4.912   2.405   4.914
 6953SOL    HW121758   4.856   2.392   4.832
 6953SOL    HW221759   4.994   2.347   4.907
 6954SOL     OW21760   0.289   4.416   1.867
 6954SOL    HW121761   0.373   4.448   1.823
 6954SOL    HW221762   0.210   4.444   1.813
 6955SOL     OW21763   6.824   0.277   3.108
 6955SOL    HW121764   6.815   0.177   3.109
 6955SOL    HW221765   6.862   0.306   3.020
 6956SOL     OW21766   2.419   4.302   0.982
 6956SOL    HW121767   2.376   4.258   1.061
 6956SOL    HW221768   2.516   4.279   0.980
 6957SOL     OW21769   0.831   4.343   0.265
 6957SOL    HW121770   0.820   4.253   0.307
 6957SOL    HW221771   0.814   4.336   0.167
 6958SOL     OW21772   2.505   3.763   5.899
 6958SOL    HW121773   2.452   3.835   5.856
 6958SOL    HW221774   2.474   3.749   5.993
 6959SOL     OW21775   3.670   1.278   4.314
 6959SOL    HW121776   3.667   1.267   4.413
 6959SOL    HW221777   3.766   1.286   4.285
 6960SOL     OW21778   0.555   5.366   0.036
 6960SOL    HW121779   0.491   5.442   0.054
 6960SOL    HW221780   0.542   5.295   0.105
 6961SOL     OW21781   6.082   1.661   2.949
 6961SOL    HW121782   6.037   1.744   2.980
 6961SOL    HW221783   6.066   1.649   2.851
 6962SOL     OW21784   3.846   3.836   1.167
 6962SOL    HW121785   3.806   3.745   1.176
 6962SOL    HW221786   3.933   3.839   1.217
 6963SOL     OW21787   6.180   6.206   2.381
 6963SOL    HW121788   6.146   6.234   2.471
 6963SOL    HW221789   6.163   6.108   2.369
 6964SOL     OW21790   3.034   6.105   5.574
 6964SOL    HW121791   2.997   6.152   5.654
 6964SOL    HW221792   2.972   6.119   5.496
 6965SOL     OW21793   6.572   1.615   5.588
 6965SOL    HW121794   6.517   1.693   5.559
 6965SOL    HW221795   6.667   1.629   5.559
 6966SOL     OW21796   5.377   2.334   4.070
 6966SOL    HW121797   5.303   2.401   4.065
 6966SOL    HW221798   5.395   2.311   4.166
 6967SOL     OW21799   2.405   2.538   5.883
 6967SOL    HW121800   2.315   2.568   5.852
 6967SOL    HW221801   2.407   2.536   5.983
 6968SOL     OW21802   4.232   0.061   4.416
 6968SOL    HW121803   4.329   0.042   4.431
 6968SOL    HW221804   4.193   0.103   4.498
 6969SOL     OW21805   2.817   3.202   0.666
 6969SOL    HW121806   2.881   3.161   0.731
 6969SOL    HW221807   2.863   3.217   0.579
 6970SOL     OW21808   4.694   4.205   0.948
 6970SOL    HW121809   4.767   4.220   1.016
 6970SOL    HW221810   4.686   4.285   0.889
 6971SOL     OW21811   6.294   1.240   1.921
 6971SOL    HW121812   6.243   1.179   1.981
 6971SOL    HW221813   6.321   1.322   1.972
 6972SOL     OW21814   5.598   5.229   4.546
 6972SOL    HW121815   5.510   5.236   4.499
 6972SOL    HW221816   5.624   5.320   4.581
 6973SOL     OW21817   1.605   4.376   3.648
 6973SOL    HW121818   1.514   4.395   3.683
 6973SOL    HW221819   1.646   4.461   3.614
 6974SOL     OW21820   3.783   4.180   5.071
 6974SOL    HW121821   3.689   4.176   5.105
 6974SOL    HW221822   3.792   4.255   5.005
 6975SOL     OW21823   3.266   0.020   6.252
 6975SOL    HW121824   3.170   0.045   6.239
 6975SOL    HW221825   3.319   0.102   6.271
 6976SOL     OW21826   1.230   6.530   0.714
 6976SOL    HW121827   1.241   6.536   0.813
 6976SOL    HW221828   1.318   6.547   0.670
 6977SOL     OW21829   4.762   2.792   2.275
 6977SOL    HW121830   4.729   2.839   2.193
 6977SOL    HW221831   4.756   2.854   2.353
 6978SOL     OW21832   4.483   2.073   3.441
 6978SOL    HW121833   4.572   2.057   3.397
 6978SOL    HW221834   4.456   2.168   3.428
 6979SOL     OW21835   0.659   4.104   3.673
 6979SOL    HW121836   0.645   4.038   3.599
 6979SOL    HW221837   0.635   4.061   3.760
 6980SOL     OW21838   4.473   1.032   4.899
 6980SOL    HW121839   4.467   0.969   4.821
 6980SOL    HW221840   4.508   0.982   4.979
 6981SOL     OW21841   2.848   3.829   6.830
 6981SOL    HW121842   2.845   3.888   6.911
 6981SOL    HW221843   2.767   3.771   6.829
 6982SOL     OW21844   0.363   0.010   5.381
 6982SOL    HW121845   0.387   0.093   5.331
 6982SOL    HW221846   0.321   0.033   5.468
 6983SOL     OW21847   6.176   1.078   2.619
 6983SOL    HW121848   6.180   0.982   2.648
 6983SOL    HW221849   6.230   1.134   2.682
 6984SOL     OW21850   1.829   1.268   5.819
 6984SOL    HW121851   1.894   1.230   5.884
 6984SOL    HW221852   1.840   1.368   5.816
 6985SOL     OW21853   5.097   0.119   3.805
 6985SOL    HW121854   5.024   0.084   3.864
 6985SOL    HW221855   5.167   0.048   3.793
 6986SOL     OW21856   1.428   6.776   5.083
 6986SOL    HW121857   1.527   6.770   5.070
 6986SOL    HW221858   1.406   6.865   5.123
 6987SOL     OW21859   6.804   3.163   6.466
 6987SOL    HW121860   6.834   3.135   6.375
 6987SOL    HW221861   6.791   3.262   6.468
 6988SOL     OW21862   5.574   1.647   6.048
 6988SOL    HW121863   5.486   1.611   6.078
 6988SOL    HW221864   5.644   1.577   6.059
 6989SOL     OW21865   2.154   3.087   3.658
 6989SOL    HW121866   2.242   3.045   3.634
 6989SOL    HW221867   2.109   3.032   3.729
 6990SOL     OW21868   3.718   3.377   0.896
 6990SOL    HW121869   3.653   3.320   0.845
 6990SOL    HW221870   3.780   3.318   0.947
 6991SOL     OW21871   4.113   4.692   5.231
 6991SOL    HW121872   4.034   4.656   5.281
 6991SOL    HW221873   4.172   4.617   5.203
 6992SOL     OW21874   6.076   6.921   4.595
 6992SOL    HW121875   6.052   7.016   4.573
 6992SOL    HW221876   6.109   6.917   4.689
 6993SOL     OW21877   0.184   6.980   3.339
 6993SOL    HW121878   0.214   7.023   3.424
 6993SOL    HW221879   0.107   6.919   3.358
 6994SOL     OW21880   1.552   2.523   0.198
 6994SOL    HW121881   1.456   2.543   0.178
 6994SOL    HW221882   1.564   2.424   0.206
 6995SOL     OW21883   0.899   5.193   4.199
 6995SOL    HW121884   0.958   5.135   4.142
 6995SOL    HW221885   0.949   5.276   4.223
 6996SOL     OW21886   1.980   6.912   6.308
 6996SOL    HW121887   1.916   6.989   6.308
 6996SOL    HW221888   1.932   6.828   6.332
 6997SOL     OW21889   4.700   5.538   4.437
 6997SOL    HW121890   4.632   5.467   4.417
 6997SOL    HW221891   4.792   5.499   4.429
 6998SOL     OW21892   3.126   1.920   2.937
 6998SOL    HW121893   3.116   1.832   2.984
 6998SOL    HW221894   3.037   1.950   2.903
 6999SOL     OW21895   5.512   2.139   0.141
 6999SOL    HW121896   5.510   2.099   0.233
 6999SOL    HW221897   5.440   2.209   0.134
 7000SOL     OW21898   6.586   0.399   1.576
 7000SOL    HW121899   6.526   0.376   1.653
 7000SOL    HW221900   6.544   0.370   1.491
 7001SOL     OW21901   3.079   1.637   6.223
 7001SOL    HW121902   3.030   1.632   6.136
 7001SOL    HW221903   3.074   1.731   6.258
 7002SOL     OW21904   2.151   4.542   1.969
 7002SOL    HW121905   2.075   4.488   1.931
 7002SOL    HW221906   2.185   4.605   1.899
 7003SOL     OW21907   1.602   6.205   5.675
 7003SOL    HW121908   1.506   6.214   5.703
 7003SOL    HW221909   1.628   6.108   5.679
 7004SOL     OW21910   1.344   3.966   6.937
 7004SOL    HW121911   1.343   3.974   6.837
 7004SOL    HW221912   1.263   4.010   6.974
 7005SOL     OW21913   6.640   6.797   5.923
 7005SOL    HW121914   6.656   6.892   5.951
 7005SOL    HW221915   6.723   6.761   5.881
 7006SOL     OW21916   4.414   4.564   3.956
 7006SOL    HW121917   4.391   4.494   3.887
 7006SOL    HW221918   4.340   4.630   3.962
 7007SOL     OW21919   4.595   4.743   2.687
 7007SOL    HW121920   4.613   4.645   2.695
 7007SOL    HW221921   4.561   4.779   2.774
 7008SOL     OW21922   1.040   5.009   4.065
 7008SOL    HW121923   1.010   4.984   3.973
 7008SOL    HW221924   1.019   4.933   4.128
 7009SOL     OW21925   6.904   4.020   1.855
 7009SOL    HW121926   6.878   3.924   1.849
 7009SOL    HW221927   6.906   4.048   1.951
 7010SOL     OW21928   5.238   4.708   6.372
 7010SOL    HW121929   5.262   4.690   6.467
 7010SOL    HW221930   5.143   4.682   6.355
 7011SOL     OW21931   0.850   0.843   5.720
 7011SOL    HW121932   0.936   0.797   5.699
 7011SOL    HW221933   0.865   0.911   5.792
 7012SOL     OW21934   1.429   1.432   1.720
 7012SOL    HW121935   1.400   1.336   1.719
 7012SOL    HW221936   1.517   1.440   1.673
 7013SOL     OW21937   6.407   1.859   2.203
 7013SOL    HW121938   6.421   1.903   2.292
 7013SOL    HW221939   6.496   1.843   2.159
 7014SOL     OW21940   2.328   5.404   0.764
 7014SOL    HW121941   2.417   5.375   0.799
 7014SOL    HW221942   2.285   5.467   0.829
 7015SOL     OW21943   4.844   1.942   2.630
 7015SOL    HW121944   4.776   1.940   2.556
 7015SOL    HW221945   4.936   1.945   2.590
 7016SOL     OW21946   4.393   4.395   1.610
 7016SOL    HW121947   4.426   4.350   1.693
 7016SOL    HW221948   4.447   4.365   1.532
 7017SOL     OW21949   5.015   1.506   5.276
 7017SOL    HW121950   4.964   1.543   5.199
 7017SOL    HW221951   4.951   1.468   5.343
 7018SOL     OW21952   0.774   3.345   2.844
 7018SOL    HW121953   0.690   3.317   2.892
 7018SOL    HW221954   0.754   3.424   2.786
 7019SOL     OW21955   1.034   5.890   1.187
 7019SOL    HW121956   1.004   5.799   1.216
 7019SOL    HW221957   1.099   5.881   1.111
 7020SOL     OW21958   0.164   6.108   6.885
 7020SOL    HW121959   0.197   6.047   6.957
 7020SOL    HW221960   0.082   6.157   6.917
 7021SOL     OW21961   3.654   6.986   6.054
 7021SOL    HW121962   3.748   6.988   6.088
 7021SOL    HW221963   3.599   6.926   6.112
 7022SOL     OW21964   4.724   5.405   6.152
 7022SOL    HW121965   4.759   5.387   6.245
 7022SOL    HW221966   4.690   5.320   6.112
 7023SOL     OW21967   4.691   4.310   2.583
 7023SOL    HW121968   4.725   4.249   2.655
 7023SOL    HW221969   4.715   4.272   2.494
 7024SOL     OW21970   6.091   6.430   1.272
 7024SOL    HW121971   6.189   6.446   1.260
 7024SOL    HW221972   6.047   6.515   1.302
 7025SOL     OW21973   2.521   0.671   0.055
 7025SOL    HW121974   2.457   0.594   0.061
 7025SOL    HW221975   2.507   0.733   0.132
 7026SOL     OW21976   4.058   1.808   1.485
 7026SOL    HW121977   4.044   1.905   1.506
 7026SOL    HW221978   4.099   1.763   1.564
 7027SOL     OW21979   5.571   5.601   3.715
 7027SOL    HW121980   5.611   5.589   3.625
 7027SOL    HW221981   5.523   5.518   3.742
 7028SOL     OW21982   2.773   0.220   4.427
 7028SOL    HW121983   2.823   0.209   4.341
 7028SOL    HW221984   2.837   0.214   4.504
 7029SOL     OW21985   4.167   1.385   4.899
 7029SOL    HW121986   4.228   1.395   4.977
 7029SOL    HW221987   4.183   1.297   4.855
 7030SOL     OW21988   1.905   3.212   4.105
 7030SOL    HW121989   1.994   3.250   4.129
 7030SOL    HW221990   1.881   3.240   4.012
 7031SOL     OW21991   1.436   1.319   4.481
 7031SOL    HW121992   1.495   1.238   4.486
 7031SOL    HW221993   1.493   1.401   4.481
 7032SOL     OW21994   6.145   2.177   3.923
 7032SOL    HW121995   6.068   2.240   3.926
 7032SOL    HW221996   6.147   2.131   3.834
 7033SOL     OW21997   0.761   0.109   5.415
 7033SOL    HW121998   0.856   0.099   5.386
 7033SOL    HW221999   0.744   0.205   5.439
 7034SOL     OW22000   0.109   5.068   3.424
 7034SOL    HW122001   0.102   5.098   3.520
 7034SOL    HW222002   0.048   4.990   3.410
 7035SOL     OW22003   6.553   4.870   2.025
 7035SOL    HW122004   6.591   4.778   2.016
 7035SOL    HW222005   6.553   4.914   1.935
 7036SOL     OW22006   6.273   4.739   1.014
 7036SOL    HW122007   6.189   4.740   0.959
 7036SOL    HW222008   6.263   4.675   1.090
 7037SOL     OW22009   1.513   0.128   6.469
 7037SOL    HW122010   1.423   0.117   6.428
 7037SOL    HW222011   1.516   0.079   6.556
 7038SOL     OW22012   2.245   3.145   4.457
 7038SOL    HW122013   2.320   3.086   4.487
 7038SOL    HW222014   2.220   3.207   4.532
 7039SOL     OW22015   3.364   2.535   6.723
 7039SOL    HW122016   3.304   2.460   6.752
 7039SOL    HW222017   3.418   2.567   6.800
 7040SOL     OW22018   5.152   2.748   6.661
 7040SOL    HW122019   5.182   2.656   6.637
 7040SOL    HW222020   5.124   2.797   6.578
 7041SOL     OW22021   1.946   1.604   3.461
 7041SOL    HW122022   1.995   1.615   3.548
 7041SOL    HW222023   2.012   1.585   3.388
 7042SOL     OW22024   1.423   0.670   6.641
 7042SOL    HW122025   1.446   0.638   6.549
 7042SOL    HW222026   1.365   0.752   6.635
 7043SOL     OW22027   1.892   2.015   2.186
 7043SOL    HW122028   1.837   1.934   2.168
 7043SOL    HW222029   1.850   2.067   2.261
 7044SOL     OW22030   6.629   6.433   1.979
 7044SOL    HW122031   6.544   6.464   1.937
 7044SOL    HW222032   6.625   6.334   1.994
 7045SOL     OW22033   6.630   4.792   0.289
 7045SOL    HW122034   6.579   4.719   0.243
 7045SOL    HW222035   6.573   4.832   0.360
 7046SOL     OW22036   3.283   1.168   3.989
 7046SOL    HW122037   3.218   1.203   3.921
 7046SOL    HW222038   3.360   1.124   3.942
 7047SOL     OW22039   1.374   0.405   2.754
 7047SOL    HW122040   1.393   0.445   2.664
 7047SOL    HW222041   1.370   0.477   2.823
 7048SOL     OW22042   6.541   5.587   0.173
 7048SOL    HW122043   6.526   5.549   0.264
 7048SOL    HW222044   6.607   5.662   0.178
 7049SOL     OW22045   2.122   1.143   6.312
 7049SOL    HW122046   2.095   1.192   6.394
 7049SOL    HW222047   2.164   1.206   6.247
 7050SOL     OW22048   4.128   3.728   4.750
 7050SOL    HW122049   4.221   3.744   4.782
 7050SOL    HW222050   4.130   3.711   4.651
 7051SOL     OW22051   6.527   6.791   2.939
 7051SOL    HW122052   6.542   6.837   2.852
 7051SOL    HW222053   6.437   6.748   2.940
 7052SOL     OW22054   6.701   0.861   5.163
 7052SOL    HW122055   6.646   0.780   5.184
 7052SOL    HW222056   6.654   0.942   5.199
 7053SOL     OW22057   6.546   4.381   5.844
 7053SOL    HW122058   6.562   4.475   5.814
 7053SOL    HW222059   6.616   4.354   5.910
 7054SOL     OW22060   6.597   1.756   1.656
 7054SOL    HW122061   6.639   1.721   1.573
 7054SOL    HW222062   6.664   1.757   1.730
 7055SOL     OW22063   4.495   1.337   4.618
 7055SOL    HW122064   4.405   1.379   4.614
 7055SOL    HW222065   4.495   1.252   4.565
 7056SOL     OW22066   4.005   5.208   4.102
 7056SOL    HW122067   4.022   5.229   4.005
 7056SOL    HW222068   3.976   5.112   4.110
 7057SOL     OW22069   5.891   5.909   2.941
 7057SOL    HW122070   5.883   5.813   2.967
 7057SOL    HW222071   5.866   5.920   2.845
 7058SOL     OW22072   0.068   4.644   4.536
 7058SOL    HW122073   0.011   4.623   4.616
 7058SOL    HW222074   0.010   4.651   4.455
 7059SOL     OW22075   1.756   1.360   2.625
 7059SOL    HW122076   1.856   1.359   2.637
 7059SOL    HW222077   1.723   1.454   2.637
 7060SOL     OW22078   2.926   6.374   1.136
 7060SOL    HW122079   2.834   6.349   1.165
 7060SOL    HW222080   2.963   6.303   1.075
 7061SOL     OW22081   0.295   0.673   2.674
 7061SOL    HW122082   0.252   0.736   2.610
 7061SOL    HW222083   0.224   0.617   2.717
 7062SOL     OW22084   6.447   1.108   5.718
 7062SOL    HW122085   6.483   1.117   5.811
 7062SOL    HW222086   6.486   1.028   5.674
 7063SOL     OW22087   2.326   0.084   2.286
 7063SOL    HW122088   2.402   0.085   2.221
 7063SOL    HW222089   2.323   7.026   2.333
 7064SOL     OW22090   4.182   2.800   0.190
 7064SOL    HW122091   4.215   2.715   0.231
 7064SOL    HW222092   4.097   2.828   0.235
 7065SOL     OW22093   3.277   3.216   2.079
 7065SOL    HW122094   3.286   3.134   2.136
 7065SOL    HW222095   3.186   3.255   2.091
 7066SOL     OW22096   2.549   5.428   1.336
 7066SOL    HW122097   2.641   5.423   1.297
 7066SOL    HW222098   2.513   5.336   1.348
 7067SOL     OW22099   0.307   3.939   4.085
 7067SOL    HW122100   0.290   3.895   3.996
 7067SOL    HW222101   0.236   3.912   4.150
 7068SOL     OW22102   0.752   0.227   2.829
 7068SOL    HW122103   0.819   0.165   2.788
 7068SOL    HW222104   0.775   0.242   2.925
 7069SOL     OW22105   1.304   4.769   4.893
 7069SOL    HW122106   1.244   4.837   4.851
 7069SOL    HW222107   1.281   4.678   4.856
 7070SOL     OW22108   5.303   5.417   3.351
 7070SOL    HW122109   5.380   5.473   3.381
 7070SOL    HW222110   5.229   5.422   3.418
 7071SOL     OW22111   1.681   6.994   5.173
 7071SOL    HW122112   1.622   6.963   5.248
 7071SOL    HW222113   1.688   6.923   5.104
 7072SOL     OW22114   0.479   7.025   6.932
 7072SOL    HW122115   0.439   6.983   7.014
 7072SOL    HW222116   0.549   0.061   6.959
 7073SOL     OW22117   1.985   1.919   6.504
 7073SOL    HW122118   1.996   2.005   6.455
 7073SOL    HW222119   2.071   1.893   6.547
 7074SOL     OW22120   3.235   1.046   0.320
 7074SOL    HW122121   3.138   1.021   0.321
 7074SOL    HW222122   3.249   1.125   0.260
 7075SOL     OW22123   0.765   5.678   2.009
 7075SOL    HW122124   0.665   5.681   2.002
 7075SOL    HW222125   0.792   5.686   2.104
 7076SOL     OW22126   3.601   1.767   6.042
 7076SOL    HW122127   3.523   1.773   6.106
 7076SOL    HW222128   3.686   1.775   6.093
 7077SOL     OW22129   1.886   5.003   6.631
 7077SOL    HW122130   1.952   4.985   6.558
 7077SOL    HW222131   1.804   5.046   6.592
 7078SOL     OW22132   6.662   0.681   1.766
 7078SOL    HW122133   6.624   0.751   1.825
 7078SOL    HW222134   6.639   0.701   1.671
 7079SOL     OW22135   5.521   6.039   5.394
 7079SOL    HW122136   5.518   6.138   5.401
 7079SOL    HW222137   5.616   6.008   5.394
 7080SOL     OW22138   6.077   0.337   3.811
 7080SOL    HW122139   6.023   0.419   3.829
 7080SOL    HW222140   6.091   0.286   3.896
 7081SOL     OW22141   4.699   0.236   5.038
 7081SOL    HW122142   4.651   0.239   5.126
 7081SOL    HW222143   4.638   0.269   4.966
 7082SOL     OW22144   6.099   1.184   6.891
 7082SOL    HW122145   5.999   1.182   6.897
 7082SOL    HW222146   6.133   1.090   6.884
 7083SOL     OW22147   3.379   0.516   5.892
 7083SOL    HW122148   3.444   0.526   5.817
 7083SOL    HW222149   3.404   0.436   5.947
 7084SOL     OW22150   5.871   5.955   0.417
 7084SOL    HW122151   5.822   6.042   0.415
 7084SOL    HW222152   5.970   5.973   0.421
 7085SOL     OW22153   3.997   1.041   1.228
 7085SOL    HW122154   3.974   0.955   1.182
 7085SOL    HW222155   3.955   1.117   1.180
 7086SOL     OW22156   1.189   1.436   6.101
 7086SOL    HW122157   1.249   1.460   6.025
 7086SOL    HW222158   1.200   1.503   6.175
 7087SOL     OW22159   2.271   2.751   5.042
 7087SOL    HW122160   2.326   2.833   5.060
 7087SOL    HW222161   2.261   2.739   4.943
 7088SOL     OW22162   0.548   1.907   5.514
 7088SOL    HW122163   0.540   1.944   5.422
 7088SOL    HW222164   0.609   1.827   5.512
 7089SOL     OW22165   2.884   1.939   1.461
 7089SOL    HW122166   2.856   1.862   1.519
 7089SOL    HW222167   2.805   1.999   1.447
 7090SOL     OW22168   2.373   2.353   5.326
 7090SOL    HW122169   2.453   2.294   5.337
 7090SOL    HW222170   2.399   2.435   5.275
 7091SOL     OW22171   6.693   6.575   0.825
 7091SOL    HW122172   6.634   6.498   0.803
 7091SOL    HW222173   6.787   6.543   0.835
 7092SOL     OW22174   2.773   2.243   0.596
 7092SOL    HW122175   2.865   2.273   0.619
 7092SOL    HW222176   2.706   2.308   0.632
 7093SOL     OW22177   4.388   3.235   5.938
 7093SOL    HW122178   4.328   3.266   5.864
 7093SOL    HW222179   4.481   3.224   5.903
 7094SOL     OW22180   6.735   0.639   6.321
 7094SOL    HW122181   6.706   0.718   6.267
 7094SOL    HW222182   6.818   0.601   6.282
 7095SOL     OW22183   0.199   3.973   0.180
 7095SOL    HW122184   0.250   4.007   0.258
 7095SOL    HW222185   0.107   3.946   0.209
 7096SOL     OW22186   4.900   0.025   2.728
 7096SOL    HW122187   4.955   0.102   2.762
 7096SOL    HW222188   4.956   6.998   2.668
 7097SOL     OW22189   1.988   1.013   1.735
 7097SOL    HW122190   2.050   1.051   1.805
 7097SOL    HW222191   1.899   0.993   1.777
 7098SOL     OW22192   1.209   0.414   6.143
 7098SOL    HW122193   1.230   0.501   6.098
 7098SOL    HW222194   1.240   0.417   6.238
 7099SOL     OW22195   6.922   1.127   5.636
 7099SOL    HW122196   6.967   1.156   5.721
 7099SOL    HW222197   6.850   1.062   5.658
 7100SOL     OW22198   5.646   2.240   1.492
 7100SOL    HW122199   5.679   2.333   1.510
 7100SOL    HW222200   5.625   2.195   1.578
 7101SOL     OW22201   1.565   0.698   4.073
 7101SOL    HW122202   1.603   0.668   4.161
 7101SOL    HW222203   1.629   0.760   4.029
 7102SOL     OW22204   5.007   3.010   0.337
 7102SOL    HW122205   4.954   2.941   0.386
 7102SOL    HW222206   4.998   2.995   0.238
 7103SOL     OW22207   3.165   0.374   5.826
 7103SOL    HW122208   3.234   0.437   5.863
 7103SOL    HW222209   3.170   0.287   5.875
 7104SOL     OW22210   0.704   2.503   2.213
 7104SOL    HW122211   0.607   2.486   2.197
 7104SOL    HW222212   0.730   2.592   2.175
 7105SOL     OW22213   2.199   3.809   5.563
 7105SOL    HW122214   2.256   3.809   5.481
 7105SOL    HW222215   2.218   3.727   5.616
 7106SOL     OW22216   3.193   2.592   5.294
 7106SOL    HW122217   3.124   2.604   5.365
 7106SOL    HW222218   3.180   2.503   5.249
 7107SOL     OW22219   1.971   1.249   0.488
 7107SOL    HW122220   1.875   1.260   0.464
 7107SOL    HW222221   2.004   1.160   0.457
 7108SOL     OW22222   4.570   6.683   1.808
 7108SOL    HW122223   4.525   6.611   1.861
 7108SOL    HW222224   4.549   6.670   1.711
 7109SOL     OW22225   4.115   6.186   6.457
 7109SOL    HW122226   4.171   6.106   6.481
 7109SOL    HW222227   4.051   6.205   6.531
 7110SOL     OW22228   2.933   4.805   3.904
 7110SOL    HW122229   3.027   4.827   3.932
 7110SOL    HW222230   2.934   4.766   3.812
 7111SOL     OW22231   1.721   2.383   3.473
 7111SOL    HW122232   1.768   2.384   3.562
 7111SOL    HW222233   1.731   2.292   3.431
 7112SOL     OW22234   1.758   6.651   2.282
 7112SOL    HW122235   1.847   6.607   2.295
 7112SOL    HW222236   1.770   6.750   2.271
 7113SOL     OW22237   3.795   3.452   5.082
 7113SOL    HW122238   3.780   3.543   5.121
 7113SOL    HW222239   3.832   3.391   5.152
 7114SOL     OW22240   3.699   6.829   0.580
 7114SOL    HW122241   3.668   6.785   0.495
 7114SOL    HW222242   3.681   6.768   0.657
 7115SOL     OW22243   4.293   1.390   1.597
 7115SOL    HW122244   4.310   1.353   1.688
 7115SOL    HW222245   4.361   1.460   1.576
 7116SOL     OW22246   5.850   3.833   3.118
 7116SOL    HW122247   5.926   3.875   3.167
 7116SOL    HW222248   5.766   3.884   3.136
 7117SOL     OW22249   6.054   6.937   2.286
 7117SOL    HW122250   6.054   6.893   2.196
 7117SOL    HW222251   6.136   6.993   2.296
 7118SOL     OW22252   7.028   3.288   2.658
 7118SOL    HW122253   6.965   3.245   2.594
 7118SOL    HW222254   7.004   3.384   2.670
 7119SOL     OW22255   0.906   2.223   2.756
 7119SOL    HW122256   0.880   2.306   2.805
 7119SOL    HW222257   0.997   2.195   2.784
 7120SOL     OW22258   4.758   6.411   2.929
 7120SOL    HW122259   4.808   6.325   2.945
 7120SOL    HW222260   4.804   6.486   2.976
 7121SOL     OW22261   2.984   6.993   1.417
 7121SOL    HW122262   3.023   6.967   1.505
 7121SOL    HW222263   3.020   6.932   1.345
 7122SOL     OW22264   6.590   6.711   0.414
 7122SOL    HW122265   6.580   6.612   0.429
 7122SOL    HW222266   6.585   6.731   0.316
 7123SOL     OW22267   2.613   5.473   0.340
 7123SOL    HW122268   2.526   5.513   0.368
 7123SOL    HW222269   2.599   5.380   0.308
 7124SOL     OW22270   7.017   5.910   0.369
 7124SOL    HW122271   7.012   5.990   0.310
 7124SOL    HW222272   6.986   5.829   0.318
 7125SOL     OW22273   0.092   6.469   3.282
 7125SOL    HW122274   0.096   6.416   3.197
 7125SOL    HW222275   0.037   6.420   3.349
 7126SOL     OW22276   1.782   4.549   1.114
 7126SOL    HW122277   1.759   4.458   1.150
 7126SOL    HW222278   1.827   4.539   1.025
 7127SOL     OW22279   2.505   0.153   4.445
 7127SOL    HW122280   2.447   0.210   4.503
 7127SOL    HW222281   2.595   0.197   4.434
 7128SOL     OW22282   3.066   3.746   1.653
 7128SOL    HW122283   3.108   3.820   1.705
 7128SOL    HW222284   3.065   3.662   1.708
 7129SOL     OW22285   2.445   2.023   1.237
 7129SOL    HW122286   2.430   2.037   1.139
 7129SOL    HW222287   2.491   1.935   1.251
 7130SOL     OW22288   2.753   0.085   2.940
 7130SOL    HW122289   2.835   0.029   2.927
 7130SOL    HW222290   2.710   0.101   2.851
 7131SOL     OW22291   3.011   1.555   3.519
 7131SOL    HW122292   3.095   1.605   3.542
 7131SOL    HW222293   2.977   1.508   3.600
 7132SOL     OW22294   3.166   4.101   1.971
 7132SOL    HW122295   3.112   4.157   1.908
 7132SOL    HW222296   3.105   4.063   2.041
 7133SOL     OW22297   5.943   4.071   2.113
 7133SOL    HW122298   6.009   4.003   2.081
 7133SOL    HW222299   5.853   4.052   2.074
 7134SOL     OW22300   5.531   4.604   2.800
 7134SOL    HW122301   5.523   4.507   2.776
 7134SOL    HW222302   5.562   4.613   2.895
 7135SOL     OW22303   0.636   2.157   5.662
 7135SOL    HW122304   0.615   2.059   5.661
 7135SOL    HW222305   0.553   2.209   5.641
 7136SOL     OW22306   2.527   1.855   6.564
 7136SOL    HW122307   2.541   1.777   6.503
 7136SOL    HW222308   2.524   1.939   6.510
 7137SOL     OW22309   4.573   1.802   5.109
 7137SOL    HW122310   4.585   1.707   5.139
 7137SOL    HW222311   4.662   1.845   5.097
 7138SOL     OW22312   2.245   3.073   6.656
 7138SOL    HW122313   2.252   2.989   6.601
 7138SOL    HW222314   2.280   3.055   6.748
 7139SOL     OW22315   2.871   1.601   0.529
 7139SOL    HW122316   2.861   1.625   0.432
 7139SOL    HW222317   2.903   1.507   0.537
 7140SOL     OW22318   7.014   4.095   5.048
 7140SOL    HW122319   6.960   4.011   5.043
 7140SOL    HW222320   6.952   4.174   5.051
 7141SOL     OW22321   1.105   6.396   1.872
 7141SOL    HW122322   1.197   6.422   1.844
 7141SOL    HW222323   1.106   6.369   1.968
 7142SOL     OW22324   3.680   6.722   3.685
 7142SOL    HW122325   3.745   6.753   3.755
 7142SOL    HW222326   3.625   6.648   3.722
 7143SOL     OW22327   2.403   2.224   4.194
 7143SOL    HW122328   2.439   2.238   4.286
 7143SOL    HW222329   2.326   2.285   4.178
 7144SOL     OW22330   1.504   3.265   3.829
 7144SOL    HW122331   1.539   3.188   3.775
 7144SOL    HW222332   1.438   3.316   3.774
 7145SOL     OW22333   4.338   6.307   5.838
 7145SOL    HW122334   4.306   6.279   5.748
 7145SOL    HW222335   4.261   6.313   5.901
 7146SOL     OW22336   2.970   5.192   1.883
 7146SOL    HW122337   2.967   5.173   1.982
 7146SOL    HW222338   2.979   5.106   1.833
 7147SOL     OW22339   0.208   0.991   3.011
 7147SOL    HW122340   0.259   1.006   3.096
 7147SOL    HW222341   0.111   0.976   3.032
 7148SOL     OW22342   0.164   1.436   0.926
 7148SOL    HW122343   0.251   1.396   0.955
 7148SOL    HW222344   0.116   1.472   1.006
 7149SOL     OW22345   0.396   0.516   4.833
 7149SOL    HW122346   0.334   0.454   4.881
 7149SOL    HW222347   0.352   0.550   4.750
 7150SOL     OW22348   6.060   3.869   6.792
 7150SOL    HW122349   6.087   3.773   6.784
 7150SOL    HW222350   6.039   3.905   6.701
 7151SOL     OW22351   2.550   6.745   0.975
 7151SOL    HW122352   2.599   6.824   1.013
 7151SOL    HW222353   2.508   6.693   1.049
 7152SOL     OW22354   1.175   2.546   4.073
 7152SOL    HW122355   1.274   2.559   4.077
 7152SOL    HW222356   1.151   2.498   3.988
 7153SOL     OW22357   3.382   1.752   3.405
 7153SOL    HW122358   3.467   1.720   3.445
 7153SOL    HW222359   3.384   1.852   3.396
 7154SOL     OW22360   4.102   6.128   5.194
 7154SOL    HW122361   4.155   6.045   5.177
 7154SOL    HW222362   4.119   6.194   5.121
 7155SOL     OW22363   2.169   1.272   3.400
 7155SOL    HW122364   2.075   1.237   3.402
 7155SOL    HW222365   2.186   1.317   3.313
 7156SOL     OW22366   1.577   5.535   5.280
 7156SOL    HW122367   1.632   5.606   5.236
 7156SOL    HW222368   1.623   5.505   5.364
 7157SOL     OW22369   4.940   4.064   0.671
 7157SOL    HW122370   4.965   4.062   0.768
 7157SOL    HW222371   5.000   4.002   0.620
 7158SOL     OW22372   4.923   6.867   4.134
 7158SOL    HW122373   5.019   6.841   4.144
 7158SOL    HW222374   4.865   6.789   4.156
 7159SOL     OW22375   0.853   5.514   0.190
 7159SOL    HW122376   0.808   5.469   0.114
 7159SOL    HW222377   0.946   5.477   0.201
 7160SOL     OW22378   6.226   0.904   1.532
 7160SOL    HW122379   6.244   0.850   1.614
 7160SOL    HW222380   6.302   0.894   1.468
 7161SOL     OW22381   3.764   4.108   4.433
 7161SOL    HW122382   3.681   4.139   4.479
 7161SOL    HW222383   3.837   4.096   4.500
 7162SOL     OW22384   3.426   4.963   4.251
 7162SOL    HW122385   3.374   4.961   4.336
 7162SOL    HW222386   3.363   4.972   4.174
 7163SOL     OW22387   1.601   6.482   2.998
 7163SOL    HW122388   1.686   6.520   2.961
 7163SOL    HW222389   1.574   6.535   3.078
 7164SOL     OW22390   2.397   2.347   4.582
 7164SOL    HW122391   2.308   2.362   4.625
 7164SOL    HW222392   2.426   2.252   4.597
 7165SOL     OW22393   5.124   5.936   2.443
 7165SOL    HW122394   5.071   5.984   2.512
 7165SOL    HW222395   5.165   6.002   2.380
 7166SOL     OW22396   4.061   5.872   2.457
 7166SOL    HW122397   4.115   5.799   2.414
 7166SOL    HW222398   3.965   5.845   2.459
 7167SOL     OW22399   5.119   3.389   6.183
 7167SOL    HW122400   5.217   3.403   6.171
 7167SOL    HW222401   5.100   3.366   6.279
 7168SOL     OW22402   0.624   1.844   3.893
 7168SOL    HW122403   0.668   1.758   3.916
 7168SOL    HW222404   0.585   1.886   3.975
 7169SOL     OW22405   1.813   2.568   6.496
 7169SOL    HW122406   1.849   2.520   6.417
 7169SOL    HW222407   1.723   2.532   6.520
 7170SOL     OW22408   5.690   4.785   3.850
 7170SOL    HW122409   5.785   4.794   3.821
 7170SOL    HW222410   5.646   4.875   3.846
 7171SOL     OW22411   4.390   3.082   5.303
 7171SOL    HW122412   4.490   3.087   5.301
 7171SOL    HW222413   4.361   3.007   5.362
 7172SOL     OW22414   0.363   6.884   1.695
 7172SOL    HW122415   0.303   6.804   1.695
 7172SOL    HW222416   0.454   6.857   1.663
 7173SOL     OW22417   6.197   6.491   4.720
 7173SOL    HW122418   6.265   6.544   4.669
 7173SOL    HW222419   6.137   6.553   4.770
 7174SOL     OW22420   0.882   5.878   6.143
 7174SOL    HW122421   0.901   5.796   6.197
 7174SOL    HW222422   0.791   5.872   6.104
 7175SOL     OW22423   6.029   3.460   5.588
 7175SOL    HW122424   5.957   3.513   5.632
 7175SOL    HW222425   5.990   3.407   5.513
 7176SOL     OW22426   0.291   3.236   1.644
 7176SOL    HW122427   0.335   3.325   1.652
 7176SOL    HW222428   0.359   3.164   1.657
 7177SOL     OW22429   1.231   5.538   1.924
 7177SOL    HW122430   1.199   5.628   1.894
 7177SOL    HW222431   1.304   5.506   1.863
 7178SOL     OW22432   6.605   1.505   6.441
 7178SOL    HW122433   6.505   1.510   6.435
 7178SOL    HW222434   6.641   1.595   6.465
 7179SOL     OW22435   1.692   4.849   6.223
 7179SOL    HW122436   1.787   4.820   6.218
 7179SOL    HW222437   1.633   4.768   6.235
 7180SOL     OW22438   0.297   6.946   2.611
 7180SOL    HW122439   0.205   6.944   2.650
 7180SOL    HW222440   0.338   0.005   2.628
 7181SOL     OW22441   5.649   6.312   2.545
 7181SOL    HW122442   5.740   6.333   2.509
 7181SOL    HW222443   5.593   6.395   2.547
 7182SOL     OW22444   4.132   3.683   5.731
 7182SOL    HW122445   4.105   3.597   5.689
 7182SOL    HW222446   4.210   3.667   5.792
 7183SOL     OW22447   2.052   3.690   3.801
 7183SOL    HW122448   2.027   3.786   3.814
 7183SOL    HW222449   2.078   3.674   3.706
 7184SOL     OW22450   2.387   5.524   3.554
 7184SOL    HW122451   2.347   5.584   3.485
 7184SOL    HW222452   2.458   5.574   3.604
 7185SOL     OW22453   4.206   3.013   0.006
 7185SOL    HW122454   4.206   2.980   6.941
 7185SOL    HW222455   4.195   2.936   0.068
 7186SOL     OW22456   0.252   6.797   4.517
 7186SOL    HW122457   0.218   6.835   4.431
 7186SOL    HW222458   0.308   6.866   4.564
 7187SOL     OW22459   1.561   5.358   0.859
 7187SOL    HW122460   1.512   5.334   0.774
 7187SOL    HW222461   1.659   5.364   0.840
 7188SOL     OW22462   4.888   0.043   1.874
 7188SOL    HW122463   4.876   6.988   1.926
 7188SOL    HW222464   4.904   0.119   1.938
 7189SOL     OW22465   6.574   0.967   5.498
 7189SOL    HW122466   6.654   0.908   5.484
 7189SOL    HW222467   6.564   1.028   5.420
 7190SOL     OW22468   4.388   5.254   3.013
 7190SOL    HW122469   4.304   5.200   3.026
 7190SOL    HW222470   4.442   5.214   2.939
 7191SOL     OW22471   0.874   3.181   1.811
 7191SOL    HW122472   0.967   3.146   1.827
 7191SOL    HW222473   0.841   3.146   1.723
 7192SOL     OW22474   3.799   4.680   6.719
 7192SOL    HW122475   3.764   4.705   6.809
 7192SOL    HW222476   3.760   4.592   6.691
 7193SOL     OW22477   5.475   1.389   4.197
 7193SOL    HW122478   5.483   1.477   4.151
 7193SOL    HW222479   5.384   1.351   4.179
 7194SOL     OW22480   3.339   1.679   1.601
 7194SOL    HW122481   3.435   1.655   1.594
 7194SOL    HW222482   3.326   1.774   1.571
 7195SOL     OW22483   0.507   6.200   1.848
 7195SOL    HW122484   0.492   6.293   1.881
 7195SOL    HW222485   0.441   6.179   1.776
 7196SOL     OW22486   3.513   3.228   1.323
 7196SOL    HW122487   3.611   3.236   1.306
 7196SOL    HW222488   3.494   3.243   1.420
 7197SOL     OW22489   1.296   1.266   4.187
 7197SOL    HW122490   1.325   1.271   4.282
 7197SOL    HW222491   1.373   1.285   4.127
 7198SOL     OW22492   0.383   6.602   5.840
 7198SOL    HW122493   0.417   6.638   5.927
 7198SOL    HW222494   0.384   6.675   5.772
 7199SOL     OW22495   5.285   6.370   2.652
 7199SOL    HW122496   5.311   6.290   2.706
 7199SOL    HW222497   5.347   6.446   2.673
 7200SOL     OW22498   2.530   2.087   2.228
 7200SOL    HW122499   2.594   2.073   2.152
 7200SOL    HW222500   2.581   2.106   2.312
 7201SOL     OW22501   2.142   4.829   3.198
 7201SOL    HW122502   2.182   4.885   3.271
 7201SOL    HW222503   2.135   4.883   3.114
 7202SOL     OW22504   3.218   0.400   5.532
 7202SOL    HW122505   3.213   0.399   5.632
 7202SOL    HW222506   3.195   0.491   5.499
 7203SOL     OW22507   5.776   0.072   6.998
 7203SOL    HW122508   5.834   0.146   0.002
 7203SOL    HW222509   5.833   0.001   6.957
 7204SOL     OW22510   5.884   1.993   3.060
 7204SOL    HW122511   5.867   1.928   2.985
 7204SOL    HW222512   5.955   1.956   3.120
 7205SOL     OW22513   1.760   4.311   1.233
 7205SOL    HW122514   1.757   4.271   1.325
 7205SOL    HW222515   1.677   4.286   1.183
 7206SOL     OW22516   5.731   1.357   1.712
 7206SOL    HW122517   5.790   1.438   1.705
 7206SOL    HW222518   5.679   1.347   1.627
 7207SOL     OW22519   4.104   6.341   1.606
 7207SOL    HW122520   4.070   6.369   1.516
 7207SOL    HW222521   4.034   6.357   1.675
 7208SOL     OW22522   3.050   0.476   5.121
 7208SOL    HW122523   3.024   0.547   5.186
 7208SOL    HW222524   3.142   0.494   5.087
 7209SOL     OW22525   3.055   3.449   4.188
 7209SOL    HW122526   3.138   3.504   4.192
 7209SOL    HW222527   2.999   3.479   4.110
 7210SOL     OW22528   4.716   0.052   4.253
 7210SOL    HW122529   4.745   7.008   4.193
 7210SOL    HW222530   4.796   0.099   4.290
 7211SOL     OW22531   0.983   5.105   2.141
 7211SOL    HW122532   1.023   5.028   2.092
 7211SOL    HW222533   1.048   5.140   2.208
 7212SOL     OW22534   4.996   6.719   3.302
 7212SOL    HW122535   5.041   6.653   3.361
 7212SOL    HW222536   5.064   6.782   3.265
 7213SOL     OW22537   5.137   6.612   4.829
 7213SOL    HW122538   5.064   6.647   4.771
 7213SOL    HW222539   5.109   6.524   4.868
 7214SOL     OW22540   0.665   4.352   5.258
 7214SOL    HW122541   0.690   4.439   5.300
 7214SOL    HW222542   0.641   4.366   5.162
 7215SOL     OW22543   1.008   3.219   2.097
 7215SOL    HW122544   1.053   3.285   2.037
 7215SOL    HW222545   0.912   3.245   2.109
 7216SOL     OW22546   2.909   1.551   2.315
 7216SOL    HW122547   2.847   1.503   2.252
 7216SOL    HW222548   2.909   1.504   2.404
 7217SOL     OW22549   0.512   2.846   2.077
 7217SOL    HW122550   0.424   2.892   2.085
 7217SOL    HW222551   0.584   2.915   2.065
 7218SOL     OW22552   6.246   2.700   5.344
 7218SOL    HW122553   6.151   2.729   5.358
 7218SOL    HW222554   6.269   2.711   5.247
 7219SOL     OW22555   3.471   0.849   1.262
 7219SOL    HW122556   3.559   0.817   1.296
 7219SOL    HW222557   3.467   0.949   1.268
 7220SOL     OW22558   6.329   1.217   2.801
 7220SOL    HW122559   6.380   1.250   2.881
 7220SOL    HW222560   6.293   1.295   2.750
 7221SOL     OW22561   6.209   4.206   5.480
 7221SOL    HW122562   6.304   4.200   5.510
 7221SOL    HW222563   6.157   4.130   5.519
 7222SOL     OW22564   6.864   6.799   3.759
 7222SOL    HW122565   6.911   6.872   3.808
 7222SOL    HW222566   6.843   6.723   3.821
 7223SOL     OW22567   4.793   0.638   5.039
 7223SOL    HW122568   4.698   0.632   5.011
 7223SOL    HW222569   4.822   0.734   5.039
 7224SOL     OW22570   5.920   1.249   3.926
 7224SOL    HW122571   5.882   1.259   4.018
 7224SOL    HW222572   5.846   1.231   3.861
 7225SOL     OW22573   2.908   0.456   1.494
 7225SOL    HW122574   2.942   0.364   1.477
 7225SOL    HW222575   2.911   0.475   1.592
 7226SOL     OW22576   6.287   6.719   5.036
 7226SOL    HW122577   6.371   6.668   5.053
 7226SOL    HW222578   6.245   6.746   5.123
 7227SOL     OW22579   6.842   2.554   5.708
 7227SOL    HW122580   6.792   2.558   5.795
 7227SOL    HW222581   6.828   2.464   5.666
 7228SOL     OW22582   2.506   0.901   3.434
 7228SOL    HW122583   2.470   0.817   3.476
 7228SOL    HW222584   2.527   0.883   3.338
 7229SOL     OW22585   7.017   0.278   3.439
 7229SOL    HW122586   0.034   0.229   3.365
 7229SOL    HW222587   6.948   0.339   3.400
 7230SOL     OW22588   6.505   5.724   1.478
 7230SOL    HW122589   6.544   5.634   1.494
 7230SOL    HW222590   6.425   5.737   1.537
 7231SOL     OW22591   5.837   1.216   0.113
 7231SOL    HW122592   5.762   1.176   0.167
 7231SOL    HW222593   5.840   1.171   0.024
 7232SOL     OW22594   3.907   4.108   0.795
 7232SOL    HW122595   3.930   4.028   0.850
 7232SOL    HW222596   3.986   4.135   0.741
 7233SOL     OW22597   0.832   1.794   5.592
 7233SOL    HW122598   0.792   1.716   5.639
 7233SOL    HW222599   0.927   1.775   5.569
 7234SOL     OW22600   4.980   2.027   3.704
 7234SOL    HW122601   4.889   2.005   3.668
 7234SOL    HW222602   5.044   2.040   3.629
 7235SOL     OW22603   5.868   3.100   4.627
 7235SOL    HW122604   5.915   3.188   4.626
 7235SOL    HW222605   5.931   3.029   4.594
 7236SOL     OW22606   1.761   1.398   3.258
 7236SOL    HW122607   1.725   1.488   3.231
 7236SOL    HW222608   1.753   1.335   3.182
 7237SOL     OW22609   5.336   5.341   4.878
 7237SOL    HW122610   5.337   5.260   4.936
 7237SOL    HW222611   5.425   5.352   4.834
 7238SOL     OW22612   1.639   0.750   1.460
 7238SOL    HW122613   1.649   0.700   1.546
 7238SOL    HW222614   1.726   0.751   1.411
 7239SOL     OW22615   3.953   0.871   1.987
 7239SOL    HW122616   3.965   0.958   1.939
 7239SOL    HW222617   4.013   0.803   1.947
 7240SOL     OW22618   3.039   3.146   2.346
 7240SOL    HW122619   3.013   3.232   2.389
 7240SOL    HW222620   3.040   3.157   2.247
 7241SOL     OW22621   4.148   6.844   4.595
 7241SOL    HW122622   4.166   6.821   4.499
 7241SOL    HW222623   4.127   6.760   4.646
 7242SOL     OW22624   5.885   5.238   1.066
 7242SOL    HW122625   5.912   5.304   0.997
 7242SOL    HW222626   5.942   5.248   1.147
 7243SOL     OW22627   0.401   5.894   0.557
 7243SOL    HW122628   0.455   5.871   0.476
 7243SOL    HW222629   0.340   5.818   0.579
 7244SOL     OW22630   4.783   1.985   1.075
 7244SOL    HW122631   4.849   1.937   1.134
 7244SOL    HW222632   4.740   1.919   1.014
 7245SOL     OW22633   5.978   2.196   4.321
 7245SOL    HW122634   6.072   2.195   4.286
 7245SOL    HW222635   5.918   2.238   4.252
 7246SOL     OW22636   1.111   5.851   5.722
 7246SOL    HW122637   1.128   5.927   5.785
 7246SOL    HW222638   1.085   5.770   5.775
 7247SOL     OW22639   3.602   5.504   3.900
 7247SOL    HW122640   3.698   5.523   3.918
 7247SOL    HW222641   3.546   5.582   3.929
 7248SOL     OW22642   3.252   0.790   4.154
 7248SOL    HW122643   3.306   0.765   4.234
 7248SOL    HW222644   3.225   0.886   4.161
 7249SOL     OW22645   4.638   3.878   5.643
 7249SOL    HW122646   4.560   3.822   5.617
 7249SOL    HW222647   4.689   3.833   5.716
 7250SOL     OW22648   2.701   3.523   6.579
 7250SOL    HW122649   2.687   3.549   6.674
 7250SOL    HW222650   2.614   3.532   6.529
 7251SOL     OW22651   5.810   0.990   5.256
 7251SOL    HW122652   5.802   0.971   5.158
 7251SOL    HW222653   5.729   0.957   5.303
 7252SOL     OW22654   4.415   3.648   5.279
 7252SOL    HW122655   4.497   3.634   5.224
 7252SOL    HW222656   4.338   3.603   5.237
 7253SOL     OW22657   5.295   4.686   1.244
 7253SOL    HW122658   5.326   4.655   1.154
 7253SOL    HW222659   5.211   4.739   1.235
 7254SOL     OW22660   5.781   6.512   4.628
 7254SOL    HW122661   5.843   6.580   4.589
 7254SOL    HW222662   5.738   6.460   4.554
 7255SOL     OW22663   4.055   3.166   3.198
 7255SOL    HW122664   4.023   3.226   3.125
 7255SOL    HW222665   4.124   3.104   3.162
 7256SOL     OW22666   3.481   5.729   4.017
 7256SOL    HW122667   3.484   5.823   4.052
 7256SOL    HW222668   3.436   5.670   4.085
 7257SOL     OW22669   6.216   4.715   2.724
 7257SOL    HW122670   6.295   4.747   2.672
 7257SOL    HW222671   6.172   4.641   2.674
 7258SOL     OW22672   2.812   0.457   5.384
 7258SOL    HW122673   2.850   0.435   5.474
 7258SOL    HW222674   2.713   0.444   5.386
 7259SOL     OW22675   3.386   4.297   6.068
 7259SOL    HW122676   3.318   4.237   6.111
 7259SOL    HW222677   3.472   4.293   6.119
 7260SOL     OW22678   4.551   2.278   2.914
 7260SOL    HW122679   4.532   2.373   2.889
 7260SOL    HW222680   4.634   2.246   2.868
 7261SOL     OW22681   2.608   4.961   1.213
 7261SOL    HW122682   2.683   5.026   1.218
 7261SOL    HW222683   2.583   4.947   1.117
 7262SOL     OW22684   6.449   0.969   4.705
 7262SOL    HW122685   6.374   1.034   4.720
 7262SOL    HW222686   6.537   1.014   4.723
 7263SOL     OW22687   5.292   5.611   1.862
 7263SOL    HW122688   5.235   5.567   1.793
 7263SOL    HW222689   5.252   5.596   1.953
 7264SOL     OW22690   0.626   6.374   4.215
 7264SOL    HW122691   0.609   6.434   4.293
 7264SOL    HW222692   0.632   6.428   4.131
 7265SOL     OW22693   4.420   3.327   6.832
 7265SOL    HW122694   4.406   3.391   6.756
 7265SOL    HW222695   4.367   3.243   6.814
 7266SOL     OW22696   4.134   1.493   1.888
 7266SOL    HW122697   4.161   1.461   1.979
 7266SOL    HW222698   4.051   1.445   1.860
 7267SOL     OW22699   5.427   2.491   4.595
 7267SOL    HW122700   5.471   2.538   4.671
 7267SOL    HW222701   5.497   2.459   4.531
 7268SOL     OW22702   4.255   0.084   0.532
 7268SOL    HW122703   4.259   0.184   0.537
 7268SOL    HW222704   4.331   0.050   0.477
 7269SOL     OW22705   1.246   0.837   1.716
 7269SOL    HW122706   1.320   0.776   1.743
 7269SOL    HW222707   1.158   0.791   1.731
 7270SOL     OW22708   3.269   2.115   2.089
 7270SOL    HW122709   3.319   2.114   2.176
 7270SOL    HW222710   3.171   2.123   2.106
 7271SOL     OW22711   6.039   5.402   4.036
 7271SOL    HW122712   6.096   5.483   4.024
 7271SOL    HW222713   5.979   5.391   3.957
 7272SOL     OW22714   5.953   1.855   0.979
 7272SOL    HW122715   5.964   1.798   0.898
 7272SOL    HW222716   5.862   1.841   1.017
 7273SOL     OW22717   5.844   5.496   5.415
 7273SOL    HW122718   5.910   5.423   5.398
 7273SOL    HW222719   5.892   5.583   5.429
 7274SOL     OW22720   5.348   4.809   4.290
 7274SOL    HW122721   5.410   4.731   4.287
 7274SOL    HW222722   5.355   4.861   4.204
 7275SOL     OW22723   5.948   6.506   1.772
 7275SOL    HW122724   5.933   6.492   1.674
 7275SOL    HW222725   5.922   6.423   1.821
 7276SOL     OW22726   3.458   1.996   3.886
 7276SOL    HW122727   3.519   2.047   3.947
 7276SOL    HW222728   3.367   2.038   3.887
 7277SOL     OW22729   6.163   1.764   4.163
 7277SOL    HW122730   6.097   1.838   4.148
 7277SOL    HW222731   6.160   1.701   4.085
 7278SOL     OW22732   3.972   2.197   3.948
 7278SOL    HW122733   4.054   2.251   3.969
 7278SOL    HW222734   3.991   2.101   3.967
 7279SOL     OW22735   4.177   3.425   1.367
 7279SOL    HW122736   4.089   3.382   1.346
 7279SOL    HW222737   4.162   3.509   1.419
 7280SOL     OW22738   6.750   1.886   5.436
 7280SOL    HW122739   6.751   1.796   5.481
 7280SOL    HW222740   6.704   1.878   5.347
 7281SOL     OW22741   3.372   6.448   3.103
 7281SOL    HW122742   3.419   6.359   3.103
 7281SOL    HW222743   3.273   6.432   3.108
 7282SOL     OW22744   0.101   3.217   0.997
 7282SOL    HW122745   0.167   3.288   0.971
 7282SOL    HW222746   0.015   3.233   0.949
 7283SOL     OW22747   3.317   6.003   2.830
 7283SOL    HW122748   3.311   6.102   2.819
 7283SOL    HW222749   3.337   5.981   2.926
 7284SOL     OW22750   0.504   0.385   2.856
 7284SOL    HW122751   0.593   0.364   2.816
 7284SOL    HW222752   0.509   0.470   2.909
 7285SOL     OW22753   4.660   2.385   2.025
 7285SOL    HW122754   4.606   2.450   2.079
 7285SOL    HW222755   4.755   2.384   2.058
 7286SOL     OW22756   6.802   1.492   4.057
 7286SOL    HW122757   6.866   1.469   4.130
 7286SOL    HW222758   6.816   1.588   4.030
 7287SOL     OW22759   3.512   1.732   4.430
 7287SOL    HW122760   3.440   1.800   4.413
 7287SOL    HW222761   3.471   1.640   4.429
 7288SOL     OW22762   3.213   2.029   1.805
 7288SOL    HW122763   3.133   2.088   1.807
 7288SOL    HW222764   3.271   2.048   1.884
 7289SOL     OW22765   6.749   2.443   1.859
 7289SOL    HW122766   6.661   2.447   1.812
 7289SOL    HW222767   6.744   2.378   1.934
 7290SOL     OW22768   3.553   1.960   4.850
 7290SOL    HW122769   3.478   2.021   4.825
 7290SOL    HW222770   3.535   1.919   4.939
 7291SOL     OW22771   1.427   1.151   0.788
 7291SOL    HW122772   1.330   1.128   0.785
 7291SOL    HW222773   1.443   1.222   0.858
 7292SOL     OW22774   4.032   1.168   2.458
 7292SOL    HW122775   3.951   1.148   2.513
 7292SOL    HW222776   4.029   1.115   2.373
 7293SOL     OW22777   6.413   0.878   4.301
 7293SOL    HW122778   6.361   0.814   4.358
 7293SOL    HW222779   6.362   0.964   4.292
 7294SOL     OW22780   3.716   0.524   3.121
 7294SOL    HW122781   3.684   0.603   3.173
 7294SOL    HW222782   3.780   0.471   3.177
 7295SOL     OW22783   5.411   3.876   1.541
 7295SOL    HW122784   5.441   3.866   1.446
 7295SOL    HW222785   5.345   3.951   1.548
 7296SOL     OW22786   3.518   6.130   2.255
 7296SOL    HW122787   3.595   6.068   2.244
 7296SOL    HW222788   3.450   6.089   2.316
 7297SOL     OW22789   3.726   7.001   0.879
 7297SOL    HW122790   3.798   0.005   0.819
 7297SOL    HW222791   3.745   6.907   0.904
 7298SOL     OW22792   4.024   4.984   1.637
 7298SOL    HW122793   4.017   5.019   1.544
 7298SOL    HW222794   4.102   4.922   1.644
 7299SOL     OW22795   0.616   3.275   6.968
 7299SOL    HW122796   0.680   3.317   6.904
 7299SOL    HW222797   0.542   3.338   6.988
 7300SOL     OW22798   0.779   3.904   1.384
 7300SOL    HW122799   0.877   3.921   1.397
 7300SOL    HW222800   0.762   3.806   1.380
 7301SOL     OW22801   4.407   1.817   0.398
 7301SOL    HW122802   4.371   1.735   0.441
 7301SOL    HW222803   4.349   1.895   0.421
 7302SOL     OW22804   5.603   1.766   6.307
 7302SOL    HW122805   5.633   1.711   6.230
 7302SOL    HW222806   5.677   1.827   6.335
 7303SOL     OW22807   3.258   1.946   1.535
 7303SOL    HW122808   3.235   1.976   1.628
 7303SOL    HW222809   3.205   2.000   1.469
 7304SOL     OW22810   2.514   0.084   0.351
 7304SOL    HW122811   2.460   0.002   0.368
 7304SOL    HW222812   2.611   0.063   0.358
 7305SOL     OW22813   6.785   6.743   6.404
 7305SOL    HW122814   6.740   6.774   6.488
 7305SOL    HW222815   6.725   6.679   6.355
 7306SOL     OW22816   1.242   3.595   0.958
 7306SOL    HW122817   1.335   3.599   0.995
 7306SOL    HW222818   1.197   3.512   0.990
 7307SOL     OW22819   3.278   6.461   1.908
 7307SOL    HW122820   3.368   6.498   1.885
 7307SOL    HW222821   3.289   6.376   1.958
 7308SOL     OW22822   4.107   1.160   2.937
 7308SOL    HW122823   4.176   1.224   2.905
 7308SOL    HW222824   4.031   1.158   2.872
 7309SOL     OW22825   2.135   4.549   3.981
 7309SOL    HW122826   2.076   4.569   3.903
 7309SOL    HW222827   2.080   4.541   4.064
 7310SOL     OW22828   2.604   3.399   6.949
 7310SOL    HW122829   2.699   3.398   6.918
 7310SOL    HW222830   2.545   3.433   6.875
 7311SOL     OW22831   0.724   6.321   5.944
 7311SOL    HW122832   0.792   6.368   6.001
 7311SOL    HW222833   0.661   6.269   6.002
 7312SOL     OW22834   6.176   1.855   4.676
 7312SOL    HW122835   6.077   1.843   4.688
 7312SOL    HW222836   6.224   1.784   4.726
 7313SOL     OW22837   3.470   1.111   2.825
 7313SOL    HW122838   3.456   1.209   2.815
 7313SOL    HW222839   3.498   1.072   2.737
 7314SOL     OW22840   2.010   5.683   5.061
 7314SOL    HW122841   2.073   5.704   5.135
 7314SOL    HW222842   1.999   5.584   5.053
 7315SOL     OW22843   2.407   5.655   2.798
 7315SOL    HW122844   2.325   5.708   2.821
 7315SOL    HW222845   2.489   5.707   2.823
 7316SOL     OW22846   4.128   0.752   1.821
 7316SOL    HW122847   4.160   0.669   1.776
 7316SOL    HW222848   4.111   0.823   1.752
 7317SOL     OW22849   6.167   1.929   1.116
 7317SOL    HW122850   6.184   2.025   1.095
 7317SOL    HW222851   6.085   1.897   1.068
 7318SOL     OW22852   5.141   6.111   1.311
 7318SOL    HW122853   5.179   6.020   1.296
 7318SOL    HW222854   5.073   6.131   1.241
 7319SOL     OW22855   4.730   5.943   6.368
 7319SOL    HW122856   4.735   6.019   6.303
 7319SOL    HW222857   4.653   5.884   6.344
 7320SOL     OW22858   1.124   3.122   0.209
 7320SOL    HW122859   1.079   3.138   0.297
 7320SOL    HW222860   1.056   3.098   0.140
 7321SOL     OW22861   2.055   2.664   5.408
 7321SOL    HW122862   1.986   2.734   5.428
 7321SOL    HW222863   2.133   2.677   5.469
 7322SOL     OW22864   1.950   1.849   4.173
 7322SOL    HW122865   2.036   1.897   4.190
 7322SOL    HW222866   1.956   1.756   4.207
 7323SOL     OW22867   2.086   2.093   1.009
 7323SOL    HW122868   2.180   2.126   1.023
 7323SOL    HW222869   2.032   2.112   1.091
 7324SOL     OW22870   4.898   3.816   4.501
 7324SOL    HW122871   4.944   3.731   4.477
 7324SOL    HW222872   4.847   3.804   4.586
 7325SOL     OW22873   4.288   1.214   6.433
 7325SOL    HW122874   4.233   1.143   6.478
 7325SOL    HW222875   4.372   1.173   6.397
 7326SOL     OW22876   3.415   6.498   0.605
 7326SOL    HW122877   3.407   6.418   0.546
 7326SOL    HW222878   3.324   6.530   0.630
 7327SOL     OW22879   1.459   4.290   2.817
 7327SOL    HW122880   1.417   4.374   2.851
 7327SOL    HW222881   1.554   4.308   2.792
 7328SOL     OW22882   5.023   5.135   6.353
 7328SOL    HW122883   5.002   5.182   6.438
 7328SOL    HW222884   5.054   5.201   6.285
 7329SOL     OW22885   2.759   4.003   0.315
 7329SOL    HW122886   2.799   3.916   0.344
 7329SOL    HW222887   2.738   4.058   0.395
 7330SOL     OW22888   2.552   3.414   0.629
 7330SOL    HW122889   2.528   3.392   0.534
 7330SOL    HW222890   2.614   3.345   0.665
 7331SOL     OW22891   4.854   1.258   2.560
 7331SOL    HW122892   4.817   1.191   2.495
 7331SOL    HW222893   4.932   1.305   2.520
 7332SOL     OW22894   2.951   0.080   5.565
 7332SOL    HW122895   2.871   0.067   5.507
 7332SOL    HW222896   3.030   0.107   5.509
 7333SOL     OW22897   6.113   1.421   1.151
 7333SOL    HW122898   6.083   1.445   1.243
 7333SOL    HW222899   6.212   1.429   1.145
 7334SOL     OW22900   1.171   4.548   4.752
 7334SOL    HW122901   1.254   4.514   4.707
 7334SOL    HW222902   1.104   4.574   4.682
 7335SOL     OW22903   0.616   3.081   2.835
 7335SOL    HW122904   0.651   2.990   2.814
 7335SOL    HW222905   0.685   3.150   2.811
 7336SOL     OW22906   2.286   0.540   0.532
 7336SOL    HW122907   2.339   0.623   0.547
 7336SOL    HW222908   2.343   0.471   0.486
 7337SOL     OW22909   3.564   1.344   3.131
 7337SOL    HW122910   3.641   1.337   3.068
 7337SOL    HW222911   3.547   1.441   3.151
 7338SOL     OW22912   5.288   3.910   0.687
 7338SOL    HW122913   5.349   3.926   0.765
 7338SOL    HW222914   5.199   3.878   0.720
 7339SOL     OW22915   0.045   6.665   4.033
 7339SOL    HW122916   7.026   6.628   4.112
 7339SOL    HW222917   0.130   6.615   4.020
 7340SOL     OW22918   2.769   6.498   6.918
 7340SOL    HW122919   2.697   6.467   6.981
 7340SOL    HW222920   2.856   6.457   6.945
 7341SOL     OW22921   6.114   5.542   3.621
 7341SOL    HW122922   6.179   5.541   3.697
 7341SOL    HW222923   6.116   5.632   3.576
 7342SOL     OW22924   0.317   5.537   0.391
 7342SOL    HW122925   0.304   5.500   0.483
 7342SOL    HW222926   0.394   5.491   0.347
 7343SOL     OW22927   0.048   2.404   3.175
 7343SOL    HW122928   0.038   2.313   3.213
 7343SOL    HW222929   0.142   2.436   3.188
 7344SOL     OW22930   2.097   1.466   6.512
 7344SOL    HW122931   2.144   1.504   6.433
 7344SOL    HW222932   2.039   1.389   6.483
 7345SOL     OW22933   2.006   0.150   6.558
 7345SOL    HW122934   2.014   0.238   6.511
 7345SOL    HW222935   1.938   0.093   6.512
 7346SOL     OW22936   3.432   5.034   3.871
 7346SOL    HW122937   3.508   5.051   3.933
 7346SOL    HW222938   3.453   5.071   3.781
 7347SOL     OW22939   6.449   3.082   3.258
 7347SOL    HW122940   6.453   3.015   3.332
 7347SOL    HW222941   6.355   3.114   3.248
 7348SOL     OW22942   6.111   0.772   6.171
 7348SOL    HW122943   6.084   0.753   6.076
 7348SOL    HW222944   6.173   0.850   6.173
 7349SOL     OW22945   3.909   1.785   1.240
 7349SOL    HW122946   3.948   1.792   1.331
 7349SOL    HW222947   3.949   1.856   1.181
 7350SOL     OW22948   2.093   0.959   3.235
 7350SOL    HW122949   2.086   0.873   3.285
 7350SOL    HW222950   2.129   1.030   3.295
 7351SOL     OW22951   4.638   4.400   0.769
 7351SOL    HW122952   4.716   4.459   0.789
 7351SOL    HW222953   4.640   4.375   0.672
 7352SOL     OW22954   6.630   0.984   3.317
 7352SOL    HW122955   6.620   1.065   3.373
 7352SOL    HW222956   6.639   0.903   3.375
 7353SOL     OW22957   5.318   1.693   5.523
 7353SOL    HW122958   5.322   1.619   5.455
 7353SOL    HW222959   5.378   1.671   5.600
 7354SOL     OW22960   5.728   4.258   5.091
 7354SOL    HW122961   5.739   4.322   5.166
 7354SOL    HW222962   5.630   4.248   5.070
 7355SOL     OW22963   6.699   5.629   0.681
 7355SOL    HW122964   6.676   5.722   0.652
 7355SOL    HW222965   6.616   5.581   0.707
 7356SOL     OW22966   0.027   1.860   5.875
 7356SOL    HW122967   0.003   1.957   5.877
 7356SOL    HW222968   0.080   1.837   5.956
 7357SOL     OW22969   1.019   1.318   0.596
 7357SOL    HW122970   0.959   1.290   0.670
 7357SOL    HW222971   0.979   1.397   0.549
 7358SOL     OW22972   3.770   0.838   3.645
 7358SOL    HW122973   3.709   0.861   3.721
 7358SOL    HW222974   3.740   0.885   3.563
 7359SOL     OW22975   3.000   3.472   3.769
 7359SOL    HW122976   2.982   3.430   3.680
 7359SOL    HW222977   3.068   3.544   3.758
 7360SOL     OW22978   0.847   4.366   6.683
 7360SOL    HW122979   0.779   4.366   6.609
 7360SOL    HW222980   0.860   4.273   6.717
 7361SOL     OW22981   4.191   6.441   1.073
 7361SOL    HW122982   4.172   6.479   1.164
 7361SOL    HW222983   4.220   6.346   1.082
 7362SOL     OW22984   1.453   5.832   6.573
 7362SOL    HW122985   1.445   5.894   6.651
 7362SOL    HW222986   1.362   5.801   6.545
 7363SOL     OW22987   4.522   2.411   6.438
 7363SOL    HW122988   4.492   2.316   6.438
 7363SOL    HW222989   4.572   2.431   6.521
 7364SOL     OW22990   4.804   0.078   0.927
 7364SOL    HW122991   4.719   0.068   0.979
 7364SOL    HW222992   4.849   0.163   0.953
 7365SOL     OW22993   4.479   6.731   1.326
 7365SOL    HW122994   4.520   6.741   1.417
 7365SOL    HW222995   4.431   6.644   1.320
 7366SOL     OW22996   1.514   0.160   0.341
 7366SOL    HW122997   1.464   0.073   0.342
 7366SOL    HW222998   1.478   0.219   0.269
 7367SOL     OW22999   4.206   2.591   6.666
 7367SOL    HW123000   4.211   2.591   6.566
 7367SOL    HW223001   4.171   2.679   6.697
 7368SOL     OW23002   3.160   2.976   4.407
 7368SOL    HW123003   3.132   2.966   4.503
 7368SOL    HW223004   3.133   3.067   4.374
 7369SOL     OW23005   6.117   0.712   6.476
 7369SOL    HW123006   6.110   0.812   6.474
 7369SOL    HW223007   6.189   0.683   6.413
 7370SOL     OW23008   0.715   5.849   0.657
 7370SOL    HW123009   0.707   5.754   0.688
 7370SOL    HW223010   0.667   5.859   0.570
 7371SOL     OW23011   1.413   5.047   4.452
 7371SOL    HW123012   1.375   5.100   4.376
 7371SOL    HW223013   1.416   5.104   4.534
 7372SOL     OW23014   3.267   0.673   5.095
 7372SOL    HW123015   3.295   0.650   5.188
 7372SOL    HW223016   3.198   0.745   5.098
 7373SOL     OW23017   3.326   0.662   1.148
 7373SOL    HW123018   3.369   0.748   1.177
 7373SOL    HW223019   3.294   0.671   1.054
 7374SOL     OW23020   2.374   3.690   6.523
 7374SOL    HW123021   2.311   3.658   6.594
 7374SOL    HW223022   2.403   3.784   6.544
 7375SOL     OW23023   2.896   6.083   3.577
 7375SOL    HW123024   2.910   6.167   3.630
 7375SOL    HW223025   2.936   6.095   3.486
 7376SOL     OW23026   3.312   3.841   6.455
 7376SOL    HW123027   3.356   3.885   6.376
 7376SOL    HW223028   3.224   3.886   6.473
 7377SOL     OW23029   6.433   5.963   1.875
 7377SOL    HW123030   6.381   5.926   1.798
 7377SOL    HW223031   6.376   5.964   1.956
 7378SOL     OW23032   0.492   1.497   5.207
 7378SOL    HW123033   0.570   1.553   5.180
 7378SOL    HW223034   0.492   1.486   5.306
 7379SOL     OW23035   4.633   0.482   0.340
 7379SOL    HW123036   4.674   0.396   0.310
 7379SOL    HW223037   4.661   0.501   0.434
 7380SOL     OW23038   6.643   2.599   6.286
 7380SOL    HW123039   6.612   2.506   6.263
 7380SOL    HW223040   6.571   2.646   6.337
 7381SOL     OW23041   5.143   2.122   6.954
 7381SOL    HW123042   5.163   2.189   7.026
 7381SOL    HW223043   5.229   2.083   6.921
 7382SOL     OW23044   1.107   5.237   3.831
 7382SOL    HW123045   1.116   5.161   3.895
 7382SOL    HW223046   1.044   5.304   3.868
 7383SOL     OW23047   1.761   4.324   2.770
 7383SOL    HW123048   1.763   4.352   2.674
 7383SOL    HW223049   1.781   4.404   2.827
 7384SOL     OW23050   6.217   1.985   0.776
 7384SOL    HW123051   6.155   1.910   0.799
 7384SOL    HW223052   6.295   1.950   0.726
 7385SOL     OW23053   5.249   0.246   1.995
 7385SOL    HW123054   5.220   0.189   1.919
 7385SOL    HW223055   5.317   0.313   1.963
 7386SOL     OW23056   6.467   1.650   5.982
 7386SOL    HW123057   6.487   1.569   5.926
 7386SOL    HW223058   6.529   1.724   5.957
 7387SOL     OW23059   5.317   6.161   3.307
 7387SOL    HW123060   5.352   6.254   3.322
 7387SOL    HW223061   5.229   6.151   3.353
 7388SOL     OW23062   5.361   3.893   5.012
 7388SOL    HW123063   5.325   3.882   5.105
 7388SOL    HW223064   5.357   3.806   4.964
 7389SOL     OW23065   0.771   3.010   5.197
 7389SOL    HW123066   0.763   2.962   5.109
 7389SOL    HW223067   0.857   2.984   5.241
 7390SOL     OW23068   4.416   0.245   0.171
 7390SOL    HW123069   4.480   0.191   0.116
 7390SOL    HW223070   4.461   0.328   0.202
 7391SOL     OW23071   0.416   4.871   0.072
 7391SOL    HW123072   0.361   4.791   0.049
 7391SOL    HW223073   0.457   4.858   0.162
 7392SOL     OW23074   2.414   4.438   2.163
 7392SOL    HW123075   2.338   4.456   2.101
 7392SOL    HW223076   2.498   4.475   2.123
 7393SOL     OW23077   0.753   3.690   7.004
 7393SOL    HW123078   0.684   3.689   6.932
 7393SOL    HW223079   0.837   3.645   6.971
 7394SOL     OW23080   2.105   2.854   6.147
 7394SOL    HW123081   2.125   2.925   6.215
 7394SOL    HW223082   2.162   2.869   6.066
 7395SOL     OW23083   2.626   0.863   6.909
 7395SOL    HW123084   2.580   0.799   6.970
 7395SOL    HW223085   2.572   0.874   6.826
 7396SOL     OW23086   7.011   6.858   2.119
 7396SOL    HW123087   0.000   6.887   2.213
 7396SOL    HW223088   6.968   6.768   2.121
 7397SOL     OW23089   6.299   3.965   4.550
 7397SOL    HW123090   6.272   3.933   4.459
 7397SOL    HW223091   6.263   3.902   4.619
 7398SOL     OW23092   4.459   6.363   3.055
 7398SOL    HW123093   4.392   6.437   3.064
 7398SOL    HW223094   4.551   6.401   3.053
 7399SOL     OW23095   5.082   5.156   4.237
 7399SOL    HW123096   5.123   5.087   4.297
 7399SOL    HW223097   4.983   5.157   4.250
 7400SOL     OW23098   2.996   4.026   0.527
 7400SOL    HW123099   3.056   4.082   0.471
 7400SOL    HW223100   2.969   3.944   0.476
 7401SOL     OW23101   6.041   3.026   5.199
 7401SOL    HW123102   5.978   3.005   5.125
 7401SOL    HW223103   6.036   2.955   5.269
 7402SOL     OW23104   2.032   6.247   4.490
 7402SOL    HW123105   2.035   6.152   4.522
 7402SOL    HW223106   2.018   6.247   4.391
 7403SOL     OW23107   2.465   3.193   1.681
 7403SOL    HW123108   2.506   3.273   1.725
 7403SOL    HW223109   2.460   3.209   1.583
 7404SOL     OW23110   1.095   2.072   2.884
 7404SOL    HW123111   1.038   1.991   2.894
 7404SOL    HW223112   1.077   2.135   2.961
 7405SOL     OW23113   4.003   4.897   6.095
 7405SOL    HW123114   3.984   4.861   6.004
 7405SOL    HW223115   3.994   4.823   6.163
 7406SOL     OW23116   0.683   6.259   2.742
 7406SOL    HW123117   0.692   6.202   2.824
 7406SOL    HW223118   0.667   6.353   2.769
 7407SOL     OW23119   3.163   1.284   5.772
 7407SOL    HW123120   3.195   1.368   5.728
 7407SOL    HW223121   3.240   1.222   5.786
 7408SOL     OW23122   0.649   3.754   5.418
 7408SOL    HW123123   0.680   3.740   5.324
 7408SOL    HW223124   0.551   3.773   5.418
 7409SOL     OW23125   2.515   6.801   4.549
 7409SOL    HW123126   2.417   6.807   4.569
 7409SOL    HW223127   2.564   6.873   4.599
 7410SOL     OW23128   4.373   5.859   5.791
 7410SOL    HW123129   4.443   5.931   5.798
 7410SOL    HW223130   4.294   5.896   5.741
 7411SOL     OW23131   5.337   3.927   5.675
 7411SOL    HW123132   5.413   3.866   5.692
 7411SOL    HW223133   5.301   3.961   5.762
 7412SOL     OW23134   1.944   1.356   6.977
 7412SOL    HW123135   1.878   1.405   0.004
 7412SOL    HW223136   1.979   1.417   6.906
 7413SOL     OW23137   6.905   3.640   3.895
 7413SOL    HW123138   6.875   3.732   3.869
 7413SOL    HW223139   6.988   3.647   3.952
 7414SOL     OW23140   0.403   5.372   1.412
 7414SOL    HW123141   0.396   5.290   1.356
 7414SOL    HW223142   0.367   5.451   1.362
 7415SOL     OW23143   3.438   1.588   3.175
 7415SOL    HW123144   3.410   1.646   3.251
 7415SOL    HW223145   3.441   1.641   3.091
 7416SOL     OW23146   6.878   6.885   2.937
 7416SOL    HW123147   6.831   6.797   2.941
 7416SOL    HW223148   6.877   6.919   2.843
 7417SOL     OW23149   0.189   5.019   0.906
 7417SOL    HW123150   0.236   4.946   0.856
 7417SOL    HW223151   0.254   5.091   0.928
 7418SOL     OW23152   1.231   3.390   0.403
 7418SOL    HW123153   1.286   3.314   0.438
 7418SOL    HW223154   1.290   3.470   0.389
 7419SOL     OW23155   6.121   2.344   5.265
 7419SOL    HW123156   6.151   2.378   5.176
 7419SOL    HW223157   6.024   2.362   5.277
 7420SOL     OW23158   6.728   5.632   2.143
 7420SOL    HW123159   6.743   5.633   2.242
 7420SOL    HW223160   6.806   5.675   2.097
 7421SOL     OW23161   4.116   1.736   1.734
 7421SOL    HW123162   4.019   1.735   1.709
 7421SOL    HW223163   4.143   1.644   1.763
 7422SOL     OW23164   0.918   1.607   0.814
 7422SOL    HW123165   0.836   1.615   0.758
 7422SOL    HW223166   0.912   1.669   0.892
 7423SOL     OW23167   2.695   4.352   0.272
 7423SOL    HW123168   2.623   4.300   0.317
 7423SOL    HW223169   2.762   4.383   0.340
 7424SOL     OW23170   5.030   0.282   4.098
 7424SOL    HW123171   5.004   0.373   4.132
 7424SOL    HW223172   4.950   0.237   4.059
 7425SOL     OW23173   3.303   0.275   4.472
 7425SOL    HW123174   3.310   0.193   4.529
 7425SOL    HW223175   3.271   0.249   4.381
 7426SOL     OW23176   0.415   1.021   6.806
 7426SOL    HW123177   0.504   0.977   6.815
 7426SOL    HW223178   0.361   0.972   6.737
 7427SOL     OW23179   5.545   5.412   5.110
 7427SOL    HW123180   5.458   5.452   5.080
 7427SOL    HW223181   5.531   5.362   5.195
 7428SOL     OW23182   4.667   0.830   5.569
 7428SOL    HW123183   4.579   0.843   5.615
 7428SOL    HW223184   4.738   0.880   5.619
 7429SOL     OW23185   6.375   6.313   3.877
 7429SOL    HW123186   6.439   6.335   3.803
 7429SOL    HW223187   6.309   6.388   3.887
 7430SOL     OW23188   0.625   4.191   3.999
 7430SOL    HW123189   0.602   4.243   4.081
 7430SOL    HW223190   0.691   4.120   4.022
 7431SOL     OW23191   0.202   4.214   2.386
 7431SOL    HW123192   0.205   4.308   2.421
 7431SOL    HW223193   0.117   4.170   2.415
 7432SOL     OW23194   1.702   6.562   5.320
 7432SOL    HW123195   1.799   6.584   5.315
 7432SOL    HW223196   1.686   6.498   5.395
 7433SOL     OW23197   0.576   6.706   0.831
 7433SOL    HW123198   0.607   6.799   0.852
 7433SOL    HW223199   0.578   6.651   0.914
 7434SOL     OW23200   4.218   6.458   0.415
 7434SOL    HW123201   4.144   6.413   0.465
 7434SOL    HW223202   4.221   6.555   0.440
 7435SOL     OW23203   1.621   5.512   0.151
 7435SOL    HW123204   1.540   5.455   0.134
 7435SOL    HW223205   1.638   5.519   0.249
 7436SOL     OW23206   4.277   3.856   0.059
 7436SOL    HW123207   4.359   3.893   0.101
 7436SOL    HW223208   4.241   3.922   7.023
 7437SOL     OW23209   0.002   6.334   5.013
 7437SOL    HW123210   0.034   6.280   5.091
 7437SOL    HW223211   0.069   6.405   4.992
 7438SOL     OW23212   5.496   3.862   1.298
 7438SOL    HW123213   5.415   3.876   1.241
 7438SOL    HW223214   5.557   3.796   1.254
 7439SOL     OW23215   1.537   6.662   2.707
 7439SOL    HW123216   1.606   6.607   2.755
 7439SOL    HW223217   1.479   6.708   2.774
 7440SOL     OW23218   0.946   1.156   3.967
 7440SOL    HW123219   1.017   1.198   3.912
 7440SOL    HW223220   0.916   1.071   3.923
 7441SOL     OW23221   6.389   0.186   3.730
 7441SOL    HW123222   6.384   0.278   3.692
 7441SOL    HW223223   6.433   0.189   3.820
 7442SOL     OW23224   1.700   1.074   6.344
 7442SOL    HW123225   1.725   0.977   6.350
 7442SOL    HW223226   1.629   1.093   6.412
 7443SOL     OW23227   7.017   2.341   1.995
 7443SOL    HW123228   6.988   2.255   1.952
 7443SOL    HW223229   6.984   2.418   1.940
 7444SOL     OW23230   0.897   2.560   5.292
 7444SOL    HW123231   0.823   2.616   5.329
 7444SOL    HW223232   0.916   2.485   5.355
 7445SOL     OW23233   6.036   2.795   1.968
 7445SOL    HW123234   6.054   2.846   1.883
 7445SOL    HW223235   6.089   2.711   1.968
 7446SOL     OW23236   5.971   3.511   3.245
 7446SOL    HW123237   5.934   3.528   3.154
 7446SOL    HW223238   5.896   3.500   3.310
 7447SOL     OW23239   0.509   3.687   6.553
 7447SOL    HW123240   0.559   3.629   6.489
 7447SOL    HW223241   0.419   3.649   6.570
 7448SOL     OW23242   0.195   0.088   6.246
 7448SOL    HW123243   0.145   0.077   6.331
 7448SOL    HW223244   0.131   0.089   6.169
 7449SOL     OW23245   4.071   6.799   1.716
 7449SOL    HW123246   4.108   6.886   1.749
 7449SOL    HW223247   3.977   6.788   1.748
 7450SOL     OW23248   3.590   1.255   1.696
 7450SOL    HW123249   3.550   1.222   1.782
 7450SOL    HW223250   3.643   1.182   1.654
 7451SOL     OW23251   1.305   0.767   2.640
 7451SOL    HW123252   1.237   0.694   2.632
 7451SOL    HW223253   1.285   0.822   2.721
 7452SOL     OW23254   1.849   5.882   3.332
 7452SOL    HW123255   1.843   5.967   3.384
 7452SOL    HW223256   1.775   5.878   3.265
 7453SOL     OW23257   6.642   4.567   5.321
 7453SOL    HW123258   6.590   4.482   5.324
 7453SOL    HW223259   6.706   4.564   5.244
 7454SOL     OW23260   1.151   3.135   6.843
 7454SOL    HW123261   1.132   3.211   6.780
 7454SOL    HW223262   1.073   3.124   6.906
 7455SOL     OW23263   5.085   0.330   0.711
 7455SOL    HW123264   5.064   0.421   0.748
 7455SOL    HW223265   5.005   0.296   0.661
 7456SOL     OW23266   0.851   3.982   6.130
 7456SOL    HW123267   0.938   4.013   6.092
 7456SOL    HW223268   0.828   3.892   6.092
 7457SOL     OW23269   6.936   6.468   6.058
 7457SOL    HW123270   6.839   6.445   6.050
 7457SOL    HW223271   6.947   6.548   6.116
 7458SOL     OW23272   2.557   0.677   0.884
 7458SOL    HW123273   2.498   0.602   0.853
 7458SOL    HW223274   2.618   0.643   0.955
 7459SOL     OW23275   3.573   6.215   4.406
 7459SOL    HW123276   3.608   6.287   4.346
 7459SOL    HW223277   3.582   6.243   4.502
 7460SOL     OW23278   1.113   5.360   0.307
 7460SOL    HW123279   1.168   5.277   0.303
 7460SOL    HW223280   1.147   5.426   0.241
 7461SOL     OW23281   4.081   0.902   4.322
 7461SOL    HW123282   4.147   0.896   4.397
 7461SOL    HW223283   4.104   0.978   4.263
 7462SOL     OW23284   2.357   1.544   3.391
 7462SOL    HW123285   2.396   1.486   3.319
 7462SOL    HW223286   2.277   1.592   3.355
 7463SOL     OW23287   3.669   4.034   2.294
 7463SOL    HW123288   3.638   4.058   2.386
 7463SOL    HW223289   3.610   4.077   2.226
 7464SOL     OW23290   4.524   6.050   0.040
 7464SOL    HW123291   4.447   6.091   7.021
 7464SOL    HW223292   4.496   6.023   0.132
 7465SOL     OW23293   4.196   0.564   3.051
 7465SOL    HW123294   4.186   0.507   3.132
 7465SOL    HW223295   4.281   0.539   3.003
 7466SOL     OW23296   6.035   0.125   0.423
 7466SOL    HW123297   5.973   0.157   0.494
 7466SOL    HW223298   6.030   0.186   0.344
 7467SOL     OW23299   4.676   2.298   0.843
 7467SOL    HW123300   4.653   2.203   0.862
 7467SOL    HW223301   4.670   2.315   0.744
 7468SOL     OW23302   5.667   4.060   4.197
 7468SOL    HW123303   5.639   4.002   4.120
 7468SOL    HW223304   5.721   4.137   4.163
 7469SOL     OW23305   5.155   1.374   2.182
 7469SOL    HW123306   5.106   1.378   2.269
 7469SOL    HW223307   5.234   1.313   2.191
 7470SOL     OW23308   6.970   3.211   3.547
 7470SOL    HW123309   6.918   3.267   3.482
 7470SOL    HW223310   0.028   3.185   3.506
 7471SOL     OW23311   6.529   4.824   5.320
 7471SOL    HW123312   6.569   4.733   5.329
 7471SOL    HW223313   6.477   4.829   5.234
 7472SOL     OW23314   4.200   5.112   3.179
 7472SOL    HW123315   4.124   5.047   3.177
 7472SOL    HW223316   4.183   5.180   3.251
 7473SOL     OW23317   1.378   3.037   5.675
 7473SOL    HW123318   1.439   3.045   5.754
 7473SOL    HW223319   1.338   3.127   5.655
 7474SOL     OW23320   2.389   1.388   3.175
 7474SOL    HW123321   2.336   1.440   3.108
 7474SOL    HW223322   2.441   1.317   3.129
 7475SOL     OW23323   4.734   0.694   6.445
 7475SOL    HW123324   4.702   0.772   6.498
 7475SOL    HW223325   4.834   0.697   6.438
 7476SOL     OW23326   2.099   6.808   4.940
 7476SOL    HW123327   2.043   6.726   4.931
 7476SOL    HW223328   2.096   6.840   5.035
 7477SOL     OW23329   4.981   3.781   4.206
 7477SOL    HW123330   4.946   3.800   4.298
 7477SOL    HW223331   4.953   3.855   4.144
 7478SOL     OW23332   0.639   4.466   1.516
 7478SOL    HW123333   0.727   4.512   1.530
 7478SOL    HW223334   0.613   4.418   1.600
 7479SOL     OW23335   3.902   0.185   5.013
 7479SOL    HW123336   3.831   0.251   5.038
 7479SOL    HW223337   3.862   0.094   5.002
 7480SOL     OW23338   5.970   5.410   0.457
 7480SOL    HW123339   5.963   5.508   0.475
 7480SOL    HW223340   6.064   5.379   0.476
 7481SOL     OW23341   6.179   6.199   0.253
 7481SOL    HW123342   6.146   6.228   0.163
 7481SOL    HW223343   6.271   6.236   0.268
 7482SOL     OW23344   5.217   0.200   4.715
 7482SOL    HW123345   5.143   0.266   4.698
 7482SOL    HW223346   5.237   0.150   4.631
 7483SOL     OW23347   3.699   0.595   6.438
 7483SOL    HW123348   3.713   0.590   6.339
 7483SOL    HW223349   3.616   0.545   6.462
 7484SOL     OW23350   3.582   6.977   1.931
 7484SOL    HW123351   3.529   7.013   2.008
 7484SOL    HW223352   3.549   6.885   1.908
 7485SOL     OW23353   1.034   6.440   4.855
 7485SOL    HW123354   1.007   6.536   4.863
 7485SOL    HW223355   1.092   6.429   4.774
 7486SOL     OW23356   1.104   1.804   5.459
 7486SOL    HW123357   1.187   1.749   5.472
 7486SOL    HW223358   1.124   1.899   5.480
 7487SOL     OW23359   3.528   5.124   3.631
 7487SOL    HW123360   3.546   5.078   3.544
 7487SOL    HW223361   3.509   5.221   3.613
 7488SOL     OW23362   4.566   0.486   4.841
 7488SOL    HW123363   4.493   0.465   4.777
 7488SOL    HW223364   4.527   0.504   4.931
 7489SOL     OW23365   6.826   3.379   4.029
 7489SOL    HW123366   6.810   3.324   3.948
 7489SOL    HW223367   6.837   3.475   4.003
 7490SOL     OW23368   5.837   0.202   3.109
 7490SOL    HW123369   5.910   0.258   3.071
 7490SOL    HW223370   5.793   0.150   3.035
 7491SOL     OW23371   0.247   6.734   0.514
 7491SOL    HW123372   0.192   6.703   0.592
 7491SOL    HW223373   0.254   6.833   0.514
 7492SOL     OW23374   2.541   1.820   3.466
 7492SOL    HW123375   2.554   1.768   3.382
 7492SOL    HW223376   2.545   1.757   3.544
 7493SOL     OW23377   5.064   4.478   6.650
 7493SOL    HW123378   5.047   4.495   6.553
 7493SOL    HW223379   5.049   4.563   6.702
 7494SOL     OW23380   4.838   1.844   1.857
 7494SOL    HW123381   4.857   1.918   1.922
 7494SOL    HW223382   4.796   1.883   1.774
 7495SOL     OW23383   0.918   1.731   2.544
 7495SOL    HW123384   0.990   1.797   2.524
 7495SOL    HW223385   0.844   1.776   2.593
 7496SOL     OW23386   0.598   5.668   5.654
 7496SOL    HW123387   0.561   5.631   5.569
 7496SOL    HW223388   0.578   5.766   5.659
 7497SOL     OW23389   1.950   5.120   2.480
 7497SOL    HW123390   1.859   5.080   2.476
 7497SOL    HW223391   2.008   5.079   2.410
 7498SOL     OW23392   5.892   2.000   4.567
 7498SOL    HW123393   5.807   2.043   4.598
 7498SOL    HW223394   5.961   2.071   4.553
 7499SOL     OW23395   3.901   4.908   3.847
 7499SOL    HW123396   3.881   4.852   3.928
 7499SOL    HW223397   3.974   4.864   3.794
 7500SOL     OW23398   5.040   4.057   1.957
 7500SOL    HW123399   5.017   3.972   1.908
 7500SOL    HW223400   5.087   4.119   1.894
 7501SOL     OW23401   0.809   4.531   4.059
 7501SOL    HW123402   0.900   4.495   4.036
 7501SOL    HW223403   0.740   4.462   4.037
 7502SOL     OW23404   1.850   2.160   3.865
 7502SOL    HW123405   1.924   2.218   3.830
 7502SOL    HW223406   1.789   2.134   3.790
 7503SOL     OW23407   2.391   2.929   6.876
 7503SOL    HW123408   2.460   2.991   6.836
 7503SOL    HW223409   2.387   2.845   6.822
 7504SOL     OW23410   3.854   5.483   4.116
 7504SOL    HW123411   3.907   5.408   4.078
 7504SOL    HW223412   3.870   5.490   4.214
 7505SOL     OW23413   1.910   1.315   4.167
 7505SOL    HW123414   1.857   1.286   4.247
 7505SOL    HW223415   2.005   1.286   4.178
 7506SOL     OW23416   4.345   1.062   3.432
 7506SOL    HW123417   4.390   0.998   3.495
 7506SOL    HW223418   4.375   1.155   3.452
 7507SOL     OW23419   2.366   0.191   5.430
 7507SOL    HW123420   2.359   0.184   5.530
 7507SOL    HW223421   2.277   0.168   5.389
 7508SOL     OW23422   5.334   5.060   3.599
 7508SOL    HW123423   5.254   5.085   3.653
 7508SOL    HW223424   5.313   5.070   3.502
 7509SOL     OW23425   4.020   4.269   6.117
 7509SOL    HW123426   4.103   4.314   6.083
 7509SOL    HW223427   3.966   4.238   6.039
 7510SOL     OW23428   3.549   3.528   4.660
 7510SOL    HW123429   3.452   3.503   4.661
 7510SOL    HW223430   3.560   3.618   4.618
 7511SOL     OW23431   1.362   1.532   2.410
 7511SOL    HW123432   1.277   1.549   2.360
 7511SOL    HW223433   1.367   1.594   2.489
 7512SOL     OW23434   1.487   3.087   2.184
 7512SOL    HW123435   1.571   3.102   2.133
 7512SOL    HW223436   1.418   3.047   2.124
 7513SOL     OW23437   1.516   3.565   6.257
 7513SOL    HW123438   1.435   3.615   6.227
 7513SOL    HW223439   1.551   3.606   6.341
 7514SOL     OW23440   3.760   5.585   3.582
 7514SOL    HW123441   3.730   5.630   3.498
 7514SOL    HW223442   3.712   5.624   3.660
 7515SOL     OW23443   0.290   4.988   2.824
 7515SOL    HW123444   0.371   4.934   2.848
 7515SOL    HW223445   0.216   4.968   2.889
 7516SOL     OW23446   1.970   2.317   1.455
 7516SOL    HW123447   2.032   2.270   1.517
 7516SOL    HW223448   1.878   2.317   1.494
 7517SOL     OW23449   0.515   5.004   1.630
 7517SOL    HW123450   0.553   4.945   1.558
 7517SOL    HW223451   0.547   5.097   1.618
 7518SOL     OW23452   5.311   4.142   3.375
 7518SOL    HW123453   5.286   4.179   3.465
 7518SOL    HW223454   5.405   4.169   3.354
 7519SOL     OW23455   2.026   0.065   4.167
 7519SOL    HW123456   2.003   0.087   4.073
 7519SOL    HW223457   1.981   0.129   4.229
 7520SOL     OW23458   2.305   6.852   3.681
 7520SOL    HW123459   2.229   6.790   3.660
 7520SOL    HW223460   2.297   6.884   3.775
 7521SOL     OW23461   4.626   3.493   5.428
 7521SOL    HW123462   4.629   3.561   5.356
 7521SOL    HW223463   4.569   3.416   5.398
 7522SOL     OW23464   1.926   0.364   2.441
 7522SOL    HW123465   1.975   0.281   2.468
 7522SOL    HW223466   1.856   0.341   2.372
 7523SOL     OW23467   6.698   6.342   6.001
 7523SOL    HW123468   6.647   6.382   5.925
 7523SOL    HW223469   6.753   6.265   5.968
 7524SOL     OW23470   6.260   1.143   4.798
 7524SOL    HW123471   6.320   1.221   4.780
 7524SOL    HW223472   6.166   1.166   4.773
 7525SOL     OW23473   1.002   0.238   0.933
 7525SOL    HW123474   0.960   0.290   1.008
 7525SOL    HW223475   0.937   0.170   0.899
 7526SOL     OW23476   3.372   3.569   5.241
 7526SOL    HW123477   3.401   3.592   5.148
 7526SOL    HW223478   3.451   3.567   5.301
 7527SOL     OW23479   3.928   6.011   1.961
 7527SOL    HW123480   3.892   6.052   1.877
 7527SOL    HW223481   4.017   6.051   1.983
 7528SOL     OW23482   5.966   3.081   6.797
 7528SOL    HW123483   5.890   3.046   6.742
 7528SOL    HW223484   5.956   3.050   6.891
 7529SOL     OW23485   2.239   7.004   4.550
 7529SOL    HW123486   2.287   0.062   4.558
 7529SOL    HW223487   2.270   6.957   4.468
 7530SOL     OW23488   6.735   3.133   3.240
 7530SOL    HW123489   6.816   3.078   3.218
 7530SOL    HW223490   6.655   3.074   3.243
 7531SOL     OW23491   2.365   1.414   4.340
 7531SOL    HW123492   2.373   1.481   4.266
 7531SOL    HW223493   2.365   1.461   4.428
 7532SOL     OW23494   4.897   4.908   2.152
 7532SOL    HW123495   4.876   4.818   2.192
 7532SOL    HW223496   4.980   4.944   2.192
 7533SOL     OW23497   3.424   0.853   4.932
 7533SOL    HW123498   3.470   0.790   4.870
 7533SOL    HW223499   3.381   0.801   5.006
 7534SOL     OW23500   5.169   6.634   4.000
 7534SOL    HW123501   5.185   6.723   4.042
 7534SOL    HW223502   5.255   6.585   3.990
 7535SOL     OW23503   2.765   4.994   0.718
 7535SOL    HW123504   2.698   5.023   0.650
 7535SOL    HW223505   2.719   4.939   0.788
 7536SOL     OW23506   4.171   5.502   5.964
 7536SOL    HW123507   4.074   5.477   5.956
 7536SOL    HW223508   4.178   5.600   5.984
 7537SOL     OW23509   1.794   4.777   5.253
 7537SOL    HW123510   1.812   4.681   5.234
 7537SOL    HW223511   1.861   4.810   5.320
 7538SOL     OW23512   3.276   4.126   4.666
 7538SOL    HW123513   3.219   4.055   4.708
 7538SOL    HW223514   3.223   4.175   4.597
 7539SOL     OW23515   0.922   2.173   4.545
 7539SOL    HW123516   0.988   2.105   4.512
 7539SOL    HW223517   0.943   2.262   4.505
 7540SOL     OW23518   2.011   1.120   0.106
 7540SOL    HW123519   2.034   1.193   0.041
 7540SOL    HW223520   2.086   1.109   0.171
 7541SOL     OW23521   0.021   2.890   5.389
 7541SOL    HW123522   6.990   2.813   5.408
 7541SOL    HW223523   6.996   2.970   5.365
 7542SOL     OW23524   1.657   0.256   5.544
 7542SOL    HW123525   1.739   0.224   5.498
 7542SOL    HW223526   1.670   0.253   5.643
 7543SOL     OW23527   2.985   2.450   0.268
 7543SOL    HW123528   2.919   2.383   0.299
 7543SOL    HW223529   3.063   2.451   0.330
 7544SOL     OW23530   1.519   1.840   2.279
 7544SOL    HW123531   1.617   1.827   2.263
 7544SOL    HW223532   1.468   1.776   2.222
 7545SOL     OW23533   4.118   0.426   3.875
 7545SOL    HW123534   4.028   0.384   3.889
 7545SOL    HW223535   4.175   0.366   3.818
 7546SOL     OW23536   5.373   0.038   5.534
 7546SOL    HW123537   5.286   7.027   5.560
 7546SOL    HW223538   5.370   0.065   5.438
 7547SOL     OW23539   2.987   0.431   7.021
 7547SOL    HW123540   2.978   0.398   0.085
 7547SOL    HW223541   2.902   0.474   6.991
 7548SOL     OW23542   1.740   3.232   1.465
 7548SOL    HW123543   1.677   3.165   1.503
 7548SOL    HW223544   1.803   3.264   1.536
 7549SOL     OW23545   5.588   0.937   2.751
 7549SOL    HW123546   5.503   0.888   2.767
 7549SOL    HW223547   5.611   0.992   2.831
 7550SOL     OW23548   1.452   5.842   0.584
 7550SOL    HW123549   1.469   5.745   0.597
 7550SOL    HW223550   1.534   5.886   0.547
 7551SOL     OW23551   5.074   3.799   6.356
 7551SOL    HW123552   5.035   3.824   6.445
 7551SOL    HW223553   5.172   3.814   6.357
 7552SOL     OW23554   4.036   5.698   4.023
 7552SOL    HW123555   3.979   5.618   4.041
 7552SOL    HW223556   4.089   5.720   4.105
 7553SOL     OW23557   3.915   4.168   5.814
 7553SOL    HW123558   3.968   4.210   5.741
 7553SOL    HW223559   3.927   4.069   5.812
 7554SOL     OW23560   0.007   1.476   1.185
 7554SOL    HW123561   0.025   1.419   1.266
 7554SOL    HW223562   6.938   1.491   1.177
 7555SOL     OW23563   1.609   5.916   5.690
 7555SOL    HW123564   1.543   5.841   5.698
 7555SOL    HW223565   1.663   5.921   5.774
 7556SOL     OW23566   6.342   3.970   3.640
 7556SOL    HW123567   6.348   3.994   3.543
 7556SOL    HW223568   6.357   3.872   3.651
 7557SOL     OW23569   4.181   3.987   0.655
 7557SOL    HW123570   4.167   3.911   0.592
 7557SOL    HW223571   4.218   3.953   0.741
 7558SOL     OW23572   1.797   2.630   3.325
 7558SOL    HW123573   1.776   2.718   3.369
 7558SOL    HW223574   1.771   2.556   3.387
 7559SOL     OW23575   1.085   5.087   0.045
 7559SOL    HW123576   0.986   5.100   0.054
 7559SOL    HW223577   1.103   5.019   7.004
 7560SOL     OW23578   4.635   0.532   5.605
 7560SOL    HW123579   4.653   0.526   5.506
 7560SOL    HW223580   4.675   0.616   5.640
 7561SOL     OW23581   0.022   4.129   0.457
 7561SOL    HW123582   0.013   4.098   0.362
 7561SOL    HW223583   0.102   4.188   0.465
 7562SOL     OW23584   4.596   5.879   4.864
 7562SOL    HW123585   4.585   5.814   4.788
 7562SOL    HW223586   4.634   5.965   4.829
 7563SOL     OW23587   2.182   1.253   4.199
 7563SOL    HW123588   2.224   1.336   4.234
 7563SOL    HW223589   2.218   1.233   4.108
 7564SOL     OW23590   5.694   5.640   4.008
 7564SOL    HW123591   5.773   5.588   3.978
 7564SOL    HW223592   5.658   5.694   3.932
 7565SOL     OW23593   4.709   5.454   7.013
 7565SOL    HW123594   4.732   5.464   0.080
 7565SOL    HW223595   4.792   5.453   6.959
 7566SOL     OW23596   1.464   5.774   4.216
 7566SOL    HW123597   1.397   5.769   4.290
 7566SOL    HW223598   1.476   5.683   4.176
 7567SOL     OW23599   2.617   3.277   0.395
 7567SOL    HW123600   2.712   3.305   0.401
 7567SOL    HW223601   2.602   3.225   0.311
 7568SOL     OW23602   3.809   4.838   2.993
 7568SOL    HW123603   3.855   4.777   2.929
 7568SOL    HW223604   3.717   4.858   2.959
 7569SOL     OW23605   3.850   6.998   2.014
 7569SOL    HW123606   3.755   7.010   1.983
 7569SOL    HW223607   3.901   0.052   1.998
 7570SOL     OW23608   5.845   4.836   4.794
 7570SOL    HW123609   5.907   4.910   4.820
 7570SOL    HW223610   5.864   4.808   4.700
 7571SOL     OW23611   5.653   3.961   1.046
 7571SOL    HW123612   5.644   3.863   1.031
 7571SOL    HW223613   5.737   3.995   1.004
 7572SOL     OW23614   6.888   1.144   2.959
 7572SOL    HW123615   6.792   1.116   2.964
 7572SOL    HW223616   6.909   1.203   3.037
 7573SOL     OW23617   3.088   5.442   5.333
 7573SOL    HW123618   3.165   5.385   5.308
 7573SOL    HW223619   3.003   5.390   5.323
 7574SOL     OW23620   4.822   6.614   2.035
 7574SOL    HW123621   4.804   6.537   2.095
 7574SOL    HW223622   4.877   6.584   1.957
 7575SOL     OW23623   4.762   2.573   5.088
 7575SOL    HW123624   4.674   2.577   5.042
 7575SOL    HW223625   4.827   2.520   5.033
 7576SOL     OW23626   0.025   3.320   1.889
 7576SOL    HW123627   0.002   3.315   1.792
 7576SOL    HW223628   6.974   3.298   1.944
 7577SOL     OW23629   4.582   1.291   4.879
 7577SOL    HW123630   4.561   1.307   4.782
 7577SOL    HW223631   4.564   1.195   4.901
 7578SOL     OW23632   2.385   5.487   4.851
 7578SOL    HW123633   2.441   5.427   4.908
 7578SOL    HW223634   2.303   5.438   4.821
 7579SOL     OW23635   4.260   2.322   3.765
 7579SOL    HW123636   4.192   2.283   3.702
 7579SOL    HW223637   4.214   2.354   3.847
 7580SOL     OW23638   2.065   3.474   2.242
 7580SOL    HW123639   2.071   3.559   2.294
 7580SOL    HW223640   2.111   3.485   2.154
 7581SOL     OW23641   5.362   0.322   0.683
 7581SOL    HW123642   5.398   0.319   0.589
 7581SOL    HW223643   5.267   0.350   0.682
 7582SOL     OW23644   3.449   2.478   1.007
 7582SOL    HW123645   3.470   2.387   1.043
 7582SOL    HW223646   3.502   2.547   1.055
 7583SOL     OW23647   6.722   4.040   2.709
 7583SOL    HW123648   6.751   3.964   2.768
 7583SOL    HW223649   6.623   4.043   2.705
 7584SOL     OW23650   2.447   1.461   1.677
 7584SOL    HW123651   2.426   1.556   1.702
 7584SOL    HW223652   2.543   1.441   1.697
 7585SOL     OW23653   2.040   4.659   6.131
 7585SOL    HW123654   2.060   4.750   6.167
 7585SOL    HW223655   1.984   4.667   6.049
 7586SOL     OW23656   1.997   2.166   2.979
 7586SOL    HW123657   2.069   2.222   2.938
 7586SOL    HW223658   2.037   2.085   3.021
 7587SOL     OW23659   2.663   1.234   5.719
 7587SOL    HW123660   2.639   1.249   5.815
 7587SOL    HW223661   2.589   1.268   5.661
 7588SOL     OW23662   0.567   4.285   1.694
 7588SOL    HW123663   0.621   4.234   1.628
 7588SOL    HW223664   0.483   4.234   1.715
 7589SOL     OW23665   4.919   6.518   6.748
 7589SOL    HW123666   4.977   6.484   6.822
 7589SOL    HW223667   4.929   6.617   6.741
 7590SOL     OW23668   1.540   0.619   5.870
 7590SOL    HW123669   1.445   0.604   5.897
 7590SOL    HW223670   1.543   0.651   5.775
 7591SOL     OW23671   6.286   5.647   6.638
 7591SOL    HW123672   6.238   5.645   6.551
 7591SOL    HW223673   6.233   5.700   6.705
 7592SOL     OW23674   4.723   4.976   5.941
 7592SOL    HW123675   4.795   4.907   5.931
 7592SOL    HW223676   4.718   5.005   6.037
 7593SOL     OW23677   5.620   4.337   0.719
 7593SOL    HW123678   5.551   4.271   0.689
 7593SOL    HW223679   5.576   4.417   0.758
 7594SOL     OW23680   1.130   6.926   3.763
 7594SOL    HW123681   1.084   6.947   3.677
 7594SOL    HW223682   1.168   6.834   3.758
 7595SOL     OW23683   6.123   2.532   6.660
 7595SOL    HW123684   6.148   2.437   6.680
 7595SOL    HW223685   6.176   2.594   6.717
 7596SOL     OW23686   4.754   5.157   2.096
 7596SOL    HW123687   4.667   5.154   2.145
 7596SOL    HW223688   4.785   5.064   2.078
 7597SOL     OW23689   2.107   5.941   1.632
 7597SOL    HW123690   2.090   5.942   1.534
 7597SOL    HW223691   2.128   6.033   1.663
 7598SOL     OW23692   6.466   0.987   1.901
 7598SOL    HW123693   6.403   1.063   1.915
 7598SOL    HW223694   6.494   0.950   1.990
 7599SOL     OW23695   5.782   2.894   2.022
 7599SOL    HW123696   5.709   2.871   1.957
 7599SOL    HW223697   5.869   2.863   1.985
 7600SOL     OW23698   2.524   2.339   3.206
 7600SOL    HW123699   2.547   2.318   3.301
 7600SOL    HW223700   2.536   2.258   3.149
 7601SOL     OW23701   2.329   0.528   5.258
 7601SOL    HW123702   2.411   0.476   5.284
 7601SOL    HW223703   2.354   0.624   5.246
 7602SOL     OW23704   2.332   3.420   5.405
 7602SOL    HW123705   2.407   3.355   5.393
 7602SOL    HW223706   2.369   3.513   5.411
 7603SOL     OW23707   6.767   1.207   2.072
 7603SOL    HW123708   6.685   1.238   2.120
 7603SOL    HW223709   6.760   1.109   2.053
 7604SOL     OW23710   5.136   5.224   0.078
 7604SOL    HW123711   5.227   5.222   0.120
 7604SOL    HW223712   5.095   5.314   0.092
 7605SOL     OW23713   5.913   3.868   6.563
 7605SOL    HW123714   5.921   3.930   6.485
 7605SOL    HW223715   5.960   3.782   6.542
 7606SOL     OW23716   5.615   1.810   3.454
 7606SOL    HW123717   5.623   1.813   3.355
 7606SOL    HW223718   5.565   1.727   3.481
 7607SOL     OW23719   4.900   6.751   6.066
 7607SOL    HW123720   4.886   6.844   6.102
 7607SOL    HW223721   4.867   6.747   5.972
 7608SOL     OW23722   3.317   3.348   4.704
 7608SOL    HW123723   3.330   3.279   4.776
 7608SOL    HW223724   3.344   3.309   4.616
 7609SOL     OW23725   1.832   2.856   3.496
 7609SOL    HW123726   1.748   2.904   3.519
 7609SOL    HW223727   1.899   2.921   3.458
 7610SOL     OW23728   5.815   0.450   2.139
 7610SOL    HW123729   5.745   0.415   2.202
 7610SOL    HW223730   5.899   0.397   2.151
 7611SOL     OW23731   2.335   1.825   1.548
 7611SOL    HW123732   2.417   1.861   1.592
 7611SOL    HW223733   2.255   1.843   1.605
 7612SOL     OW23734   4.476   1.668   2.882
 7612SOL    HW123735   4.379   1.645   2.892
 7612SOL    HW223736   4.486   1.741   2.814
 7613SOL     OW23737   5.768   0.754   2.871
 7613SOL    HW123738   5.711   0.803   2.805
 7613SOL    HW223739   5.713   0.731   2.952
 7614SOL     OW23740   4.441   1.216   0.590
 7614SOL    HW123741   4.398   1.218   0.680
 7614SOL    HW223742   4.463   1.309   0.562
 7615SOL     OW23743   4.213   4.622   6.210
 7615SOL    HW123744   4.118   4.624   6.242
 7615SOL    HW223745   4.230   4.535   6.162
 7616SOL     OW23746   6.980   4.847   3.346
 7616SOL    HW123747   6.995   4.799   3.260
 7616SOL    HW223748   6.882   4.864   3.358
 7617SOL     OW23749   3.467   5.756   3.137
 7617SOL    HW123750   3.412   5.727   3.058
 7617SOL    HW223751   3.443   5.850   3.162
 7618SOL     OW23752   2.189   1.935   0.556
 7618SOL    HW123753   2.116   1.868   0.539
 7618SOL    HW223754   2.155   2.005   0.619
 7619SOL     OW23755   6.027   3.724   6.179
 7619SOL    HW123756   6.023   3.631   6.216
 7619SOL    HW223757   6.084   3.725   6.098
 7620SOL     OW23758   3.308   6.191   1.713
 7620SOL    HW123759   3.408   6.198   1.714
 7620SOL    HW223760   3.272   6.244   1.636
 7621SOL     OW23761   2.043   2.661   0.809
 7621SOL    HW123762   1.972   2.727   0.786
 7621SOL    HW223763   2.084   2.625   0.726
 7622SOL     OW23764   4.241   1.620   1.350
 7622SOL    HW123765   4.223   1.592   1.255
 7622SOL    HW223766   4.174   1.689   1.377
 7623SOL     OW23767   5.894   6.791   5.162
 7623SOL    HW123768   5.985   6.829   5.182
 7623SOL    HW223769   5.878   6.795   5.063
 7624SOL     OW23770   6.985   0.765   4.424
 7624SOL    HW123771   6.920   0.800   4.492
 7624SOL    HW223772   0.017   0.838   4.396
 7625SOL     OW23773   3.448   5.937   0.848
 7625SOL    HW123774   3.516   5.907   0.915
 7625SOL    HW223775   3.493   5.989   0.775
 7626SOL     OW23776   2.594   4.374   5.243
 7626SOL    HW123777   2.571   4.458   5.193
 7626SOL    HW223778   2.587   4.392   5.341
 7627SOL     OW23779   6.848   1.415   0.270
 7627SOL    HW123780   6.812   1.332   0.228
 7627SOL    HW223781   6.895   1.391   0.355
 7628SOL     OW23782   4.615   1.709   1.179
 7628SOL    HW123783   4.542   1.771   1.209
 7628SOL    HW223784   4.690   1.712   1.244
 7629SOL     OW23785   6.021   6.166   2.960
 7629SOL    HW123786   5.997   6.251   2.913
 7629SOL    HW223787   5.962   6.093   2.928
 7630SOL     OW23788   6.391   1.456   2.060
 7630SOL    HW123789   6.405   1.536   2.002
 7630SOL    HW223790   6.476   1.433   2.106
 7631SOL     OW23791   1.461   1.099   3.198
 7631SOL    HW123792   1.553   1.060   3.202
 7631SOL    HW223793   1.441   1.145   3.285
 7632SOL     OW23794   4.378   0.733   5.254
 7632SOL    HW123795   4.295   0.709   5.204
 7632SOL    HW223796   4.356   0.803   5.322
 7633SOL     OW23797   5.515   4.067   6.699
 7633SOL    HW123798   5.453   4.046   6.775
 7633SOL    HW223799   5.551   3.981   6.662
 7634SOL     OW23800   1.160   2.510   2.486
 7634SOL    HW123801   1.119   2.421   2.468
 7634SOL    HW223802   1.134   2.541   2.578
 7635SOL     OW23803   2.474   5.057   5.943
 7635SOL    HW123804   2.460   4.967   5.903
 7635SOL    HW223805   2.567   5.088   5.925
 7636SOL     OW23806   2.044   0.180   3.552
 7636SOL    HW123807   2.006   0.201   3.642
 7636SOL    HW223808   2.135   0.220   3.545
 7637SOL     OW23809   2.917   6.303   3.751
 7637SOL    HW123810   2.979   6.380   3.734
 7637SOL    HW223811   2.947   6.254   3.833
 7638SOL     OW23812   4.171   4.518   1.721
 7638SOL    HW123813   4.248   4.469   1.679
 7638SOL    HW223814   4.085   4.483   1.685
 7639SOL     OW23815   0.266   2.089   4.206
 7639SOL    HW123816   0.198   2.069   4.276
 7639SOL    HW223817   0.352   2.116   4.249
 7640SOL     OW23818   2.467   3.496   5.795
 7640SOL    HW123819   2.549   3.439   5.803
 7640SOL    HW223820   2.491   3.592   5.807
 7641SOL     OW23821   5.971   2.888   3.289
 7641SOL    HW123822   5.978   2.869   3.192
 7641SOL    HW223823   6.057   2.927   3.322
 7642SOL     OW23824   1.591   1.597   2.664
 7642SOL    HW123825   1.586   1.676   2.724
 7642SOL    HW223826   1.632   1.623   2.576
 7643SOL     OW23827   5.798   3.213   3.591
 7643SOL    HW123828   5.796   3.286   3.523
 7643SOL    HW223829   5.832   3.249   3.678
 7644SOL     OW23830   6.582   3.512   3.855
 7644SOL    HW123831   6.629   3.446   3.796
 7644SOL    HW223832   6.492   3.476   3.881
 7645SOL     OW23833   3.306   2.908   0.209
 7645SOL    HW123834   3.391   2.878   0.166
 7645SOL    HW223835   3.289   2.853   0.290
 7646SOL     OW23836   1.221   0.520   1.722
 7646SOL    HW123837   1.194   0.438   1.773
 7646SOL    HW223838   1.225   0.499   1.625
 7647SOL     OW23839   2.272   5.116   0.404
 7647SOL    HW123840   2.276   5.216   0.414
 7647SOL    HW223841   2.179   5.089   0.380
 7648SOL     OW23842   3.591   1.095   3.673
 7648SOL    HW123843   3.579   1.064   3.767
 7648SOL    HW223844   3.514   1.153   3.647
 7649SOL     OW23845   3.188   1.470   1.669
 7649SOL    HW123846   3.094   1.467   1.637
 7649SOL    HW223847   3.228   1.559   1.646
 7650SOL     OW23848   6.100   4.614   0.514
 7650SOL    HW123849   6.031   4.542   0.521
 7650SOL    HW223850   6.148   4.623   0.601
 7651SOL     OW23851   4.977   2.314   6.081
 7651SOL    HW123852   5.070   2.338   6.055
 7651SOL    HW223853   4.971   2.217   6.102
 7652SOL     OW23854   1.005   3.495   3.093
 7652SOL    HW123855   0.924   3.465   3.145
 7652SOL    HW223856   1.008   3.446   3.006
 7653SOL     OW23857   4.404   2.432   2.322
 7653SOL    HW123858   4.468   2.503   2.294
 7653SOL    HW223859   4.416   2.413   2.420
 7654SOL     OW23860   5.208   3.742   3.920
 7654SOL    HW123861   5.213   3.687   4.003
 7654SOL    HW223862   5.210   3.682   3.840
 7655SOL     OW23863   5.216   5.116   5.550
 7655SOL    HW123864   5.260   5.195   5.591
 7655SOL    HW223865   5.127   5.101   5.594
 7656SOL     OW23866   0.953   0.247   4.709
 7656SOL    HW123867   0.930   0.201   4.623
 7656SOL    HW223868   1.039   0.210   4.744
 7657SOL     OW23869   4.145   1.506   4.004
 7657SOL    HW123870   4.067   1.522   3.945
 7657SOL    HW223871   4.203   1.434   3.965
 7658SOL     OW23872   3.843   0.264   6.207
 7658SOL    HW123873   3.840   0.244   6.110
 7658SOL    HW223874   3.787   0.199   6.257
 7659SOL     OW23875   5.216   6.141   6.904
 7659SOL    HW123876   5.167   6.060   6.872
 7659SOL    HW223877   5.150   6.212   6.928
 7660SOL     OW23878   5.757   4.680   4.145
 7660SOL    HW123879   5.750   4.775   4.176
 7660SOL    HW223880   5.800   4.678   4.054
 7661SOL     OW23881   6.012   3.422   4.564
 7661SOL    HW123882   6.094   3.412   4.620
 7661SOL    HW223883   6.038   3.434   4.468
 7662SOL     OW23884   6.101   5.430   3.033
 7662SOL    HW123885   6.160   5.387   3.101
 7662SOL    HW223886   6.157   5.466   2.959
 7663SOL     OW23887   0.111   6.168   0.281
 7663SOL    HW123888   0.126   6.249   0.225
 7663SOL    HW223889   0.055   6.193   0.361
 7664SOL     OW23890   2.835   5.717   5.132
 7664SOL    HW123891   2.784   5.645   5.180
 7664SOL    HW223892   2.847   5.796   5.193
 7665SOL     OW23893   2.633   5.613   4.057
 7665SOL    HW123894   2.550   5.628   4.004
 7665SOL    HW223895   2.629   5.524   4.101
 7666SOL     OW23896   2.463   0.735   1.879
 7666SOL    HW123897   2.387   0.670   1.877
 7666SOL    HW223898   2.482   0.761   1.974
 7667SOL     OW23899   5.528   6.298   5.689
 7667SOL    HW123900   5.464   6.222   5.673
 7667SOL    HW223901   5.480   6.384   5.675
 7668SOL     OW23902   3.145   4.045   1.640
 7668SOL    HW123903   3.089   4.027   1.559
 7668SOL    HW223904   3.093   4.100   1.705
 7669SOL     OW23905   4.518   6.207   4.895
 7669SOL    HW123906   4.597   6.203   4.956
 7669SOL    HW223907   4.448   6.143   4.928
 7670SOL     OW23908   1.371   5.989   0.808
 7670SOL    HW123909   1.285   5.964   0.853
 7670SOL    HW223910   1.390   5.925   0.734
 7671SOL     OW23911   5.378   1.892   4.744
 7671SOL    HW123912   5.370   1.986   4.777
 7671SOL    HW223913   5.403   1.893   4.647
 7672SOL     OW23914   5.968   0.558   1.777
 7672SOL    HW123915   6.051   0.528   1.822
 7672SOL    HW223916   5.953   0.504   1.694
 7673SOL     OW23917   0.195   3.907   6.925
 7673SOL    HW123918   0.199   3.911   7.025
 7673SOL    HW223919   0.138   3.982   6.891
 7674SOL     OW23920   6.331   0.238   5.417
 7674SOL    HW123921   6.395   0.170   5.382
 7674SOL    HW223922   6.251   0.193   5.456
 7675SOL     OW23923   5.113   6.982   3.170
 7675SOL    HW123924   5.151   0.036   3.131
 7675SOL    HW223925   5.180   6.940   3.231
 7676SOL     OW23926   1.140   0.818   1.296
 7676SOL    HW123927   1.152   0.917   1.302
 7676SOL    HW223928   1.195   0.782   1.220
 7677SOL     OW23929   1.639   2.091   3.108
 7677SOL    HW123930   1.689   2.177   3.122
 7677SOL    HW223931   1.552   2.110   3.064
 7678SOL     OW23932   5.568   6.775   5.986
 7678SOL    HW123933   5.510   6.765   6.067
 7678SOL    HW223934   5.524   6.835   5.920
 7679SOL     OW23935   1.338   5.218   4.204
 7679SOL    HW123936   1.388   5.214   4.118
 7679SOL    HW223937   1.245   5.252   4.187
 7680SOL     OW23938   5.596   0.851   6.614
 7680SOL    HW123939   5.579   0.947   6.637
 7680SOL    HW223940   5.587   0.838   6.515
 7681SOL     OW23941   2.805   2.473   6.210
 7681SOL    HW123942   2.731   2.443   6.149
 7681SOL    HW223943   2.877   2.403   6.211
 7682SOL     OW23944   2.808   6.981   0.768
 7682SOL    HW123945   2.846   6.919   0.836
 7682SOL    HW223946   2.747   6.930   0.707
 7683SOL     OW23947   6.908   2.383   3.472
 7683SOL    HW123948   7.006   2.401   3.487
 7683SOL    HW223949   6.884   2.297   3.517
 7684SOL     OW23950   3.889   2.541   5.883
 7684SOL    HW123951   3.913   2.448   5.854
 7684SOL    HW223952   3.864   2.540   5.980
 7685SOL     OW23953   3.827   4.000   1.425
 7685SOL    HW123954   3.909   3.945   1.409
 7685SOL    HW223955   3.809   4.005   1.524
 7686SOL     OW23956   3.207   0.791   3.314
 7686SOL    HW123957   3.160   0.838   3.239
 7686SOL    HW223958   3.142   0.731   3.361
 7687SOL     OW23959   4.633   4.675   6.327
 7687SOL    HW123960   4.542   4.662   6.367
 7687SOL    HW223961   4.657   4.772   6.329
 7688SOL     OW23962   6.636   0.573   3.230
 7688SOL    HW123963   6.725   0.540   3.197
 7688SOL    HW223964   6.574   0.496   3.240
 7689SOL     OW23965   3.492   6.141   4.966
 7689SOL    HW123966   3.559   6.215   4.976
 7689SOL    HW223967   3.400   6.177   4.978
 7690SOL     OW23968   0.659   5.356   2.005
 7690SOL    HW123969   0.624   5.306   2.084
 7690SOL    HW223970   0.750   5.323   1.982
 7691SOL     OW23971   5.969   3.699   5.789
 7691SOL    HW123972   6.044   3.750   5.746
 7691SOL    HW223973   6.005   3.618   5.834
 7692SOL     OW23974   1.316   6.578   1.209
 7692SOL    HW123975   1.403   6.602   1.251
 7692SOL    HW223976   1.245   6.571   1.280
 7693SOL     OW23977   5.414   1.486   0.313
 7693SOL    HW123978   5.499   1.491   0.366
 7693SOL    HW223979   5.403   1.570   0.260
 7694SOL     OW23980   5.537   5.031   3.796
 7694SOL    HW123981   5.454   5.057   3.746
 7694SOL    HW223982   5.566   5.107   3.855
 7695SOL     OW23983   4.745   0.416   6.509
 7695SOL    HW123984   4.755   0.344   6.440
 7695SOL    HW223985   4.747   0.505   6.464
 7696SOL     OW23986   1.471   4.263   5.472
 7696SOL    HW123987   1.452   4.189   5.537
 7696SOL    HW223988   1.537   4.326   5.512
 7697SOL     OW23989   4.529   1.284   2.521
 7697SOL    HW123990   4.430   1.290   2.512
 7697SOL    HW223991   4.560   1.346   2.593
 7698SOL     OW23992   6.637   2.805   5.349
 7698SOL    HW123993   6.710   2.742   5.375
 7698SOL    HW223994   6.553   2.781   5.398
 7699SOL     OW23995   3.162   4.114   0.329
 7699SOL    HW123996   3.172   4.194   0.269
 7699SOL    HW223997   3.128   4.037   0.275
 7700SOL     OW23998   5.581   6.953   4.269
 7700SOL    HW123999   5.559   7.008   4.189
 7700SOL    HW224000   5.606   6.861   4.241
 7701SOL     OW24001   6.784   2.164   5.113
 7701SOL    HW124002   6.794   2.069   5.086
 7701SOL    HW224003   6.868   2.214   5.093
 7702SOL     OW24004   1.868   6.669   6.295
 7702SOL    HW124005   1.893   6.709   6.207
 7702SOL    HW224006   1.927   6.591   6.315
 7703SOL     OW24007   1.000   2.400   5.487
 7703SOL    HW124008   0.983   2.345   5.568
 7703SOL    HW224009   1.096   2.427   5.484
 7704SOL     OW24010   2.642   4.460   1.365
 7704SOL    HW124011   2.696   4.533   1.408
 7704SOL    HW224012   2.592   4.410   1.436
 7705SOL     OW24013   3.689   3.952   4.741
 7705SOL    HW124014   3.622   4.016   4.777
 7705SOL    HW224015   3.724   3.894   4.814
 7706SOL     OW24016   6.678   0.772   5.813
 7706SOL    HW124017   6.632   0.687   5.837
 7706SOL    HW224018   6.628   0.849   5.853
 7707SOL     OW24019   6.997   5.791   6.936
 7707SOL    HW124020   6.976   5.880   6.895
 7707SOL    HW224021   6.930   5.723   6.904
 7708SOL     OW24022   5.100   1.353   4.844
 7708SOL    HW124023   5.166   1.412   4.798
 7708SOL    HW224024   5.113   1.259   4.814
 7709SOL     OW24025   3.949   2.239   1.814
 7709SOL    HW124026   3.858   2.271   1.841
 7709SOL    HW224027   3.983   2.296   1.740
 7710SOL     OW24028   2.791   2.094   6.466
 7710SOL    HW124029   2.834   2.147   6.538
 7710SOL    HW224030   2.844   2.011   6.449
 7711SOL     OW24031   4.845   5.688   4.722
 7711SOL    HW124032   4.848   5.737   4.635
 7711SOL    HW224033   4.898   5.739   4.790
 7712SOL     OW24034   5.328   4.704   6.634
 7712SOL    HW124035   5.341   4.776   6.702
 7712SOL    HW224036   5.416   4.680   6.593
 7713SOL     OW24037   0.646   5.682   6.319
 7713SOL    HW124038   0.679   5.613   6.255
 7713SOL    HW224039   0.553   5.709   6.295
 7714SOL     OW24040   5.334   3.655   4.449
 7714SOL    HW124041   5.403   3.663   4.521
 7714SOL    HW224042   5.325   3.743   4.401
 7715SOL     OW24043   3.970   2.088   2.044
 7715SOL    HW124044   3.956   2.131   1.954
 7715SOL    HW224045   3.902   2.123   2.108
 7716SOL     OW24046   4.435   2.496   4.112
 7716SOL    HW124047   4.530   2.485   4.084
 7716SOL    HW224048   4.424   2.467   4.207
 7717SOL     OW24049   3.409   0.312   6.705
 7717SOL    HW124050   3.363   0.227   6.678
 7717SOL    HW224051   3.379   0.339   6.797
 7718SOL     OW24052   2.952   6.239   4.308
 7718SOL    HW124053   2.873   6.299   4.311
 7718SOL    HW224054   2.923   6.145   4.330
 7719SOL     OW24055   5.985   2.785   5.386
 7719SOL    HW124056   5.916   2.803   5.315
 7719SOL    HW224057   5.939   2.777   5.475
 7720SOL     OW24058   6.084   6.345   2.043
 7720SOL    HW124059   6.091   6.413   2.117
 7720SOL    HW224060   5.988   6.335   2.016
 7721SOL     OW24061   1.011   4.862   2.846
 7721SOL    HW124062   0.955   4.876   2.765
 7721SOL    HW224063   1.033   4.950   2.888
 7722SOL     OW24064   0.685   6.102   4.256
 7722SOL    HW124065   0.658   6.198   4.256
 7722SOL    HW224066   0.635   6.053   4.327
 7723SOL     OW24067   6.950   2.077   0.237
 7723SOL    HW124068   7.006   2.041   0.312
 7723SOL    HW224069   6.870   2.019   0.224
 7724SOL     OW24070   1.998   6.553   6.842
 7724SOL    HW124071   1.949   6.611   6.907
 7724SOL    HW224072   2.096   6.554   6.863
 7725SOL     OW24073   4.894   3.385   4.267
 7725SOL    HW124074   4.928   3.299   4.229
 7725SOL    HW224075   4.865   3.370   4.361
 7726SOL     OW24076   5.084   4.182   2.933
 7726SOL    HW124077   5.072   4.236   3.016
 7726SOL    HW224078   5.109   4.242   2.857
 7727SOL     OW24079   5.683   3.224   2.287
 7727SOL    HW124080   5.647   3.198   2.198
 7727SOL    HW224081   5.690   3.323   2.293
 7728SOL     OW24082   2.219   2.718   2.517
 7728SOL    HW124083   2.315   2.692   2.533
 7728SOL    HW224084   2.212   2.818   2.521
 7729SOL     OW24085   4.860   2.112   7.011
 7729SOL    HW124086   4.943   2.125   6.956
 7729SOL    HW224087   4.883   2.121   0.078
 7730SOL     OW24088   4.265   0.263   2.160
 7730SOL    HW124089   4.318   0.186   2.126
 7730SOL    HW224090   4.316   0.308   2.233
 7731SOL     OW24091   0.093   1.562   4.284
 7731SOL    HW124092   7.027   1.534   4.287
 7731SOL    HW224093   0.104   1.646   4.337
 7732SOL     OW24094   4.115   5.240   0.718
 7732SOL    HW124095   4.118   5.182   0.636
 7732SOL    HW224096   4.030   5.293   0.717
 7733SOL     OW24097   2.725   6.478   0.498
 7733SOL    HW124098   2.778   6.502   0.580
 7733SOL    HW224099   2.769   6.516   0.417
 7734SOL     OW24100   1.541   2.804   2.235
 7734SOL    HW124101   1.568   2.872   2.303
 7734SOL    HW224102   1.456   2.833   2.191
 7735SOL     OW24103   4.982   4.035   0.946
 7735SOL    HW124104   4.943   3.966   1.007
 7735SOL    HW224105   4.975   4.126   0.989
 7736SOL     OW24106   5.893   4.368   6.168
 7736SOL    HW124107   5.853   4.430   6.100
 7736SOL    HW224108   5.919   4.420   6.249
 7737SOL     OW24109   4.614   2.764   0.302
 7737SOL    HW124110   4.659   2.718   0.225
 7737SOL    HW224111   4.549   2.831   0.267
 7738SOL     OW24112   2.383   5.057   0.136
 7738SOL    HW124113   2.325   5.049   0.217
 7738SOL    HW224114   2.373   4.975   0.080
 7739SOL     OW24115   5.327   3.463   2.815
 7739SOL    HW124116   5.373   3.551   2.807
 7739SOL    HW224117   5.234   3.477   2.848
 7740SOL     OW24118   0.520   6.321   3.846
 7740SOL    HW124119   0.540   6.418   3.830
 7740SOL    HW224120   0.549   6.268   3.767
 7741SOL     OW24121   3.055   5.665   4.262
 7741SOL    HW124122   3.029   5.612   4.343
 7741SOL    HW224123   2.973   5.705   4.220
 7742SOL     OW24124   0.110   0.961   4.313
 7742SOL    HW124125   0.202   0.980   4.347
 7742SOL    HW224126   0.047   1.029   4.349
 7743SOL     OW24127   4.920   3.154   2.125
 7743SOL    HW124128   4.859   3.096   2.070
 7743SOL    HW224129   4.992   3.097   2.166
 7744SOL     OW24130   0.265   6.148   5.015
 7744SOL    HW124131   0.237   6.136   4.920
 7744SOL    HW224132   0.272   6.245   5.037
 7745SOL     OW24133   4.936   3.441   5.203
 7745SOL    HW124134   4.855   3.499   5.201
 7745SOL    HW224135   4.954   3.404   5.112
 7746SOL     OW24136   1.733   0.698   6.625
 7746SOL    HW124137   1.713   0.600   6.621
 7746SOL    HW224138   1.647   0.750   6.624
 7747SOL     OW24139   4.809   5.299   0.953
 7747SOL    HW124140   4.880   5.352   1.001
 7747SOL    HW224141   4.794   5.213   1.000
 7748SOL     OW24142   2.312   4.216   6.214
 7748SOL    HW124143   2.343   4.193   6.307
 7748SOL    HW224144   2.339   4.143   6.151
 7749SOL     OW24145   5.646   3.543   6.206
 7749SOL    HW124146   5.651   3.552   6.106
 7749SOL    HW224147   5.737   3.526   6.242
 7750SOL     OW24148   4.686   5.356   2.674
 7750SOL    HW124149   4.712   5.430   2.612
 7750SOL    HW224150   4.719   5.377   2.766
 7751SOL     OW24151   0.526   2.900   1.136
 7751SOL    HW124152   0.589   2.846   1.191
 7751SOL    HW224153   0.448   2.843   1.110
 7752SOL     OW24154   3.715   1.328   3.358
 7752SOL    HW124155   3.787   1.267   3.325
 7752SOL    HW224156   3.645   1.339   3.287
 7753SOL     OW24157   4.241   1.418   5.529
 7753SOL    HW124158   4.267   1.499   5.583
 7753SOL    HW224159   4.264   1.335   5.580
 7754SOL     OW24160   5.158   5.416   1.673
 7754SOL    HW124161   5.202   5.407   1.584
 7754SOL    HW224162   5.062   5.387   1.666
 7755SOL     OW24163   0.131   4.939   5.325
 7755SOL    HW124164   0.073   4.897   5.394
 7755SOL    HW224165   0.227   4.920   5.345
 7756SOL     OW24166   2.234   3.935   2.208
 7756SOL    HW124167   2.325   3.959   2.176
 7756SOL    HW224168   2.222   3.968   2.302
 7757SOL     OW24169   7.017   4.126   0.808
 7757SOL    HW124170   6.937   4.178   0.777
 7757SOL    HW224171   7.019   4.038   0.760
 7758SOL     OW24172   0.485   1.695   5.930
 7758SOL    HW124173   0.572   1.647   5.917
 7758SOL    HW224174   0.412   1.629   5.947
 7759SOL     OW24175   3.547   1.489   2.512
 7759SOL    HW124176   3.463   1.512   2.462
 7759SOL    HW224177   3.621   1.471   2.447
 7760SOL     OW24178   5.141   2.970   6.842
 7760SOL    HW124179   5.140   3.058   6.795
 7760SOL    HW224180   5.128   2.896   6.775
 7761SOL     OW24181   5.284   5.114   3.349
 7761SOL    HW124182   5.334   5.072   3.274
 7761SOL    HW224183   5.282   5.213   3.337
 7762SOL     OW24184   5.124   1.794   2.091
 7762SOL    HW124185   5.040   1.802   2.146
 7762SOL    HW224186   5.119   1.712   2.034
 7763SOL     OW24187   2.204   0.620   2.942
 7763SOL    HW124188   2.185   0.535   2.892
 7763SOL    HW224189   2.169   0.612   3.035
 7764SOL     OW24190   3.751   5.104   5.606
 7764SOL    HW124191   3.672   5.084   5.665
 7764SOL    HW224192   3.718   5.142   5.519
 7765SOL     OW24193   5.497   4.206   4.355
 7765SOL    HW124194   5.555   4.167   4.283
 7765SOL    HW224195   5.403   4.173   4.343
 7766SOL     OW24196   6.501   2.372   6.234
 7766SOL    HW124197   6.441   2.330   6.303
 7766SOL    HW224198   6.446   2.404   6.157
 7767SOL     OW24199   4.251   0.207   4.168
 7767SOL    HW124200   4.334   0.191   4.115
 7767SOL    HW224201   4.238   0.132   4.233
 7768SOL     OW24202   3.163   5.926   4.550
 7768SOL    HW124203   3.066   5.916   4.573
 7768SOL    HW224204   3.203   5.836   4.533
 7769SOL     OW24205   3.536   2.661   6.995
 7769SOL    HW124206   3.521   2.633   0.060
 7769SOL    HW224207   3.494   2.750   6.980
 7770SOL     OW24208   1.132   3.589   3.757
 7770SOL    HW124209   1.058   3.621   3.815
 7770SOL    HW224210   1.184   3.667   3.722
 7771SOL     OW24211   1.186   3.657   5.329
 7771SOL    HW124212   1.167   3.750   5.359
 7771SOL    HW224213   1.101   3.614   5.298
 7772SOL     OW24214   5.413   5.996   1.944
 7772SOL    HW124215   5.328   5.944   1.939
 7772SOL    HW224216   5.465   5.984   1.859
 7773SOL     OW24217   3.009   0.412   6.559
 7773SOL    HW124218   3.036   0.446   6.468
 7773SOL    HW224219   2.962   0.486   6.609
 7774SOL     OW24220   5.332   1.072   2.868
 7774SOL    HW124221   5.255   1.094   2.929
 7774SOL    HW224222   5.299   1.064   2.774
 7775SOL     OW24223   3.668   1.730   1.355
 7775SOL    HW124224   3.752   1.765   1.313
 7775SOL    HW224225   3.690   1.656   1.418
 7776SOL     OW24226   3.526   0.999   3.935
 7776SOL    HW124227   3.588   1.008   4.013
 7776SOL    HW224228   3.494   0.905   3.928
 7777SOL     OW24229   5.483   5.054   3.157
 7777SOL    HW124230   5.432   5.028   3.074
 7777SOL    HW224231   5.498   5.153   3.158
 7778SOL     OW24232   1.053   4.507   2.166
 7778SOL    HW124233   1.082   4.452   2.245
 7778SOL    HW224234   1.084   4.464   2.082
 7779SOL     OW24235   3.455   6.259   2.527
 7779SOL    HW124236   3.413   6.349   2.534
 7779SOL    HW224237   3.391   6.195   2.485
 7780SOL     OW24238   6.939   5.784   4.188
 7780SOL    HW124239   6.861   5.736   4.150
 7780SOL    HW224240   6.976   5.848   4.121
 7781SOL     OW24241   2.477   2.831   0.295
 7781SOL    HW124242   2.394   2.793   0.253
 7781SOL    HW224243   2.452   2.892   0.370
 7782SOL     OW24244   5.966   3.955   4.500
 7782SOL    HW124245   5.998   3.860   4.501
 7782SOL    HW224246   5.987   3.998   4.588
 7783SOL     OW24247   1.293   6.613   3.995
 7783SOL    HW124248   1.361   6.619   4.069
 7783SOL    HW224249   1.206   6.584   4.033
 7784SOL     OW24250   1.764   2.260   2.830
 7784SOL    HW124251   1.783   2.356   2.808
 7784SOL    HW224252   1.838   2.223   2.885
 7785SOL     OW24253   6.575   6.526   2.576
 7785SOL    HW124254   6.627   6.604   2.610
 7785SOL    HW224255   6.634   6.469   2.519
 7786SOL     OW24256   4.974   0.897   6.470
 7786SOL    HW124257   4.957   0.931   6.377
 7786SOL    HW224258   4.973   0.974   6.534
 7787SOL     OW24259   1.501   2.719   1.175
 7787SOL    HW124260   1.529   2.624   1.188
 7787SOL    HW224261   1.406   2.722   1.144
 7788SOL     OW24262   0.855   3.980   2.005
 7788SOL    HW124263   0.795   4.060   2.012
 7788SOL    HW224264   0.807   3.899   2.039
 7789SOL     OW24265   3.617   0.847   5.934
 7789SOL    HW124266   3.586   0.791   6.011
 7789SOL    HW224267   3.592   0.942   5.951
 7790SOL     OW24268   3.895   4.954   4.145
 7790SOL    HW124269   3.874   4.910   4.232
 7790SOL    HW224270   3.809   4.976   4.097
 7791SOL     OW24271   2.596   5.989   1.951
 7791SOL    HW124272   2.607   5.895   1.919
 7791SOL    HW224273   2.548   5.989   2.038
 7792SOL     OW24274   1.568   1.421   2.244
 7792SOL    HW124275   1.591   1.436   2.147
 7792SOL    HW224276   1.497   1.485   2.271
 7793SOL     OW24277   4.942   1.688   1.015
 7793SOL    HW124278   4.855   1.734   0.996
 7793SOL    HW224279   4.952   1.610   0.953
 7794SOL     OW24280   1.758   0.985   3.255
 7794SOL    HW124281   1.804   1.046   3.190
 7794SOL    HW224282   1.763   0.891   3.223
 7795SOL     OW24283   4.054   3.836   1.350
 7795SOL    HW124284   4.140   3.879   1.379
 7795SOL    HW224285   4.023   3.772   1.420
 7796SOL     OW24286   4.012   1.620   0.421
 7796SOL    HW124287   3.969   1.534   0.395
 7796SOL    HW224288   4.037   1.672   0.339
 7797SOL     OW24289   1.392   6.323   2.879
 7797SOL    HW124290   1.327   6.391   2.844
 7797SOL    HW224291   1.463   6.369   2.931
 7798SOL     OW24292   1.886   3.607   1.272
 7798SOL    HW124293   1.865   3.588   1.176
 7798SOL    HW224294   1.984   3.626   1.281
 7799SOL     OW24295   2.381   6.230   3.896
 7799SOL    HW124296   2.283   6.217   3.912
 7799SOL    HW224297   2.405   6.196   3.805
 7800SOL     OW24298   1.568   1.258   2.475
 7800SOL    HW124299   1.563   1.328   2.404
 7800SOL    HW224300   1.652   1.269   2.528
 7801SOL     OW24301   1.818   1.943   0.896
 7801SOL    HW124302   1.901   1.942   0.952
 7801SOL    HW224303   1.744   1.899   0.947
 7802SOL     OW24304   6.149   4.744   4.203
 7802SOL    HW124305   6.177   4.806   4.276
 7802SOL    HW224306   6.064   4.776   4.163
 7803SOL     OW24307   3.117   2.603   6.229
 7803SOL    HW124308   3.210   2.620   6.262
 7803SOL    HW224309   3.053   2.663   6.277
 7804SOL     OW24310   2.657   1.899   5.261
 7804SOL    HW124311   2.651   1.893   5.161
 7804SOL    HW224312   2.753   1.892   5.289
 7805SOL     OW24313   5.420   3.159   6.693
 7805SOL    HW124314   5.472   3.152   6.778
 7805SOL    HW224315   5.395   3.255   6.678
 7806SOL     OW24316   6.258   2.155   5.409
 7806SOL    HW124317   6.291   2.248   5.427
 7806SOL    HW224318   6.188   2.158   5.338
 7807SOL     OW24319   1.893   5.674   5.796
 7807SOL    HW124320   1.793   5.663   5.793
 7807SOL    HW224321   1.920   5.706   5.887
 7808SOL     OW24322   0.157   3.000   4.079
 7808SOL    HW124323   0.209   3.075   4.120
 7808SOL    HW224324   0.084   3.037   4.022
 7809SOL     OW24325   4.367   6.761   2.431
 7809SOL    HW124326   4.281   6.803   2.460
 7809SOL    HW224327   4.417   6.826   2.373
 7810SOL     OW24328   1.852   7.004   5.658
 7810SOL    HW124329   1.812   0.046   5.715
 7810SOL    HW224330   1.788   6.980   5.586
 7811SOL     OW24331   1.146   5.878   3.249
 7811SOL    HW124332   1.196   5.830   3.176
 7811SOL    HW224333   1.178   5.972   3.255
 7812SOL     OW24334   2.957   1.547   5.625
 7812SOL    HW124335   2.931   1.531   5.530
 7812SOL    HW224336   3.052   1.520   5.639
 7813SOL     OW24337   5.715   1.411   0.791
 7813SOL    HW124338   5.645   1.356   0.836
 7813SOL    HW224339   5.776   1.449   0.861
 7814SOL     OW24340   6.250   2.659   1.793
 7814SOL    HW124341   6.235   2.563   1.817
 7814SOL    HW224342   6.332   2.692   1.839
 7815SOL     OW24343   4.721   5.221   3.692
 7815SOL    HW124344   4.764   5.138   3.655
 7815SOL    HW224345   4.636   5.238   3.643
 7816SOL     OW24346   1.282   1.050   5.428
 7816SOL    HW124347   1.296   0.989   5.350
 7816SOL    HW224348   1.312   1.142   5.404
 7817SOL     OW24349   4.380   1.876   6.591
 7817SOL    HW124350   4.336   1.879   6.501
 7817SOL    HW224351   4.479   1.877   6.579
 7818SOL     OW24352   5.915   1.109   3.141
 7818SOL    HW124353   5.880   1.173   3.209
 7818SOL    HW224354   5.939   1.023   3.185
 7819SOL     OW24355   2.070   2.782   4.479
 7819SOL    HW124356   2.137   2.766   4.407
 7819SOL    HW224357   2.030   2.873   4.468
 7820SOL     OW24358   1.653   1.055   5.826
 7820SOL    HW124359   1.700   1.143   5.832
 7820SOL    HW224360   1.610   1.045   5.736
 7821SOL     OW24361   3.937   5.875   6.887
 7821SOL    HW124362   3.949   5.861   6.789
 7821SOL    HW224363   3.914   5.788   6.931
 7822SOL     OW24364   0.734   1.309   4.700
 7822SOL    HW124365   0.810   1.327   4.638
 7822SOL    HW224366   0.753   1.350   4.789
 7823SOL     OW24367   2.764   2.913   6.191
 7823SOL    HW124368   2.798   2.902   6.098
 7823SOL    HW224369   2.840   2.933   6.252
 7824SOL     OW24370   6.157   4.289   2.779
 7824SOL    HW124371   6.139   4.328   2.688
 7824SOL    HW224372   6.116   4.198   2.784
 7825SOL     OW24373   3.691   3.203   3.126
 7825SOL    HW124374   3.608   3.224   3.178
 7825SOL    HW224375   3.741   3.129   3.170
 7826SOL     OW24376   6.576   0.203   0.975
 7826SOL    HW124377   6.536   0.130   1.030
 7826SOL    HW224378   6.528   0.209   0.888
 7827SOL     OW24379   4.383   3.587   0.410
 7827SOL    HW124380   4.386   3.493   0.443
 7827SOL    HW224381   4.470   3.632   0.429
 7828SOL     OW24382   1.186   6.628   0.969
 7828SOL    HW124383   1.246   6.620   1.048
 7828SOL    HW224384   1.091   6.640   1.000
 7829SOL     OW24385   3.701   3.801   2.550
 7829SOL    HW124386   3.627   3.858   2.514
 7829SOL    HW224387   3.789   3.835   2.515
 7830SOL     OW24388   6.647   4.109   0.786
 7830SOL    HW124389   6.675   4.013   0.786
 7830SOL    HW224390   6.709   4.162   0.729
 7831SOL     OW24391   2.167   2.229   0.621
 7831SOL    HW124392   2.090   2.207   0.680
 7831SOL    HW224393   2.134   2.257   0.531
 7832SOL     OW24394   3.536   2.886   6.223
 7832SOL    HW124395   3.579   2.819   6.162
 7832SOL    HW224396   3.547   2.978   6.185
 7833SOL     OW24397   6.856   6.589   1.997
 7833SOL    HW124398   6.785   6.524   1.968
 7833SOL    HW224399   6.878   6.650   1.921
 7834SOL     OW24400   5.567   1.300   0.964
 7834SOL    HW124401   5.525   1.389   0.985
 7834SOL    HW224402   5.524   1.229   1.020
 7835SOL     OW24403   2.091   2.094   4.257
 7835SOL    HW124404   2.011   2.137   4.215
 7835SOL    HW224405   2.151   2.060   4.185
 7836SOL     OW24406   2.085   0.503   6.849
 7836SOL    HW124407   2.050   0.565   6.778
 7836SOL    HW224408   2.012   0.483   6.915
 7837SOL     OW24409   5.542   5.601   2.217
 7837SOL    HW124410   5.550   5.545   2.300
 7837SOL    HW224411   5.613   5.671   2.218
 7838SOL     OW24412   3.690   6.248   4.029
 7838SOL    HW124413   3.726   6.156   4.046
 7838SOL    HW224414   3.602   6.241   3.983
 7839SOL     OW24415   6.602   4.390   3.323
 7839SOL    HW124416   6.518   4.404   3.270
 7839SOL    HW224417   6.594   4.437   3.411
 7840SOL     OW24418   4.679   3.288   5.861
 7840SOL    HW124419   4.779   3.281   5.857
 7840SOL    HW224420   4.648   3.361   5.799
 7841SOL     OW24421   1.131   2.402   6.241
 7841SOL    HW124422   1.192   2.437   6.312
 7841SOL    HW224423   1.084   2.479   6.198
 7842SOL     OW24424   2.553   0.781   2.541
 7842SOL    HW124425   2.576   0.721   2.465
 7842SOL    HW224426   2.493   0.732   2.605
 7843SOL     OW24427   0.401   2.531   2.183
 7843SOL    HW124428   0.350   2.467   2.241
 7843SOL    HW224429   0.454   2.593   2.240
 7844SOL     OW24430   4.117   2.159   3.591
 7844SOL    HW124431   4.023   2.129   3.609
 7844SOL    HW224432   4.118   2.220   3.511
 7845SOL     OW24433   0.423   1.015   4.373
 7845SOL    HW124434   0.383   0.977   4.456
 7845SOL    HW224435   0.513   0.975   4.357
 7846SOL     OW24436   4.606   0.359   2.326
 7846SOL    HW124437   4.663   0.280   2.352
 7846SOL    HW224438   4.628   0.386   2.232
 7847SOL     OW24439   0.189   0.096   6.899
 7847SOL    HW124440   0.246   0.053   6.969
 7847SOL    HW224441   0.227   0.076   6.809
 7848SOL     OW24442   3.550   4.030   1.428
 7848SOL    HW124443   3.646   4.005   1.411
 7848SOL    HW224444   3.535   4.041   1.526
 7849SOL     OW24445   5.152   4.269   4.846
 7849SOL    HW124446   5.102   4.325   4.912
 7849SOL    HW224447   5.228   4.321   4.809
 7850SOL     OW24448   0.905   2.705   4.740
 7850SOL    HW124449   0.996   2.695   4.700
 7850SOL    HW224450   0.865   2.615   4.756
 7851SOL     OW24451   3.746   6.707   0.954
 7851SOL    HW124452   3.675   6.684   1.020
 7851SOL    HW224453   3.715   6.686   0.861
 7852SOL     OW24454   2.837   0.162   0.143
 7852SOL    HW124455   2.816   0.259   0.155
 7852SOL    HW224456   2.817   0.135   0.049
 7853SOL     OW24457   2.208   2.408   0.218
 7853SOL    HW124458   2.225   2.327   0.162
 7853SOL    HW224459   2.112   2.409   0.246
 7854SOL     OW24460   3.721   4.106   3.691
 7854SOL    HW124461   3.696   4.009   3.693
 7854SOL    HW224462   3.763   4.127   3.603
 7855SOL     OW24463   2.927   0.261   4.818
 7855SOL    HW124464   2.993   0.202   4.863
 7855SOL    HW224465   2.968   0.301   4.736
 7856SOL     OW24466   2.605   3.666   6.792
 7856SOL    HW124467   2.568   3.728   6.861
 7856SOL    HW224468   2.534   3.602   6.763
 7857SOL     OW24469   0.533   2.678   4.862
 7857SOL    HW124470   0.565   2.707   4.952
 7857SOL    HW224471   0.460   2.611   4.873
 7858SOL     OW24472   5.423   3.184   2.900
 7858SOL    HW124473   5.408   3.272   2.856
 7858SOL    HW224474   5.514   3.150   2.877
 7859SOL     OW24475   0.489   6.691   0.597
 7859SOL    HW124476   0.398   6.723   0.570
 7859SOL    HW224477   0.504   6.709   0.694
 7860SOL     OW24478   4.576   6.386   1.057
 7860SOL    HW124479   4.546   6.422   0.969
 7860SOL    HW224480   4.546   6.447   1.130
 7861SOL     OW24481   5.776   3.755   0.536
 7861SOL    HW124482   5.761   3.853   0.521
 7861SOL    HW224483   5.725   3.703   0.467
 7862SOL     OW24484   3.142   4.590   1.658
 7862SOL    HW124485   3.064   4.556   1.711
 7862SOL    HW224486   3.191   4.658   1.712
 7863SOL     OW24487   4.282   5.861   2.847
 7863SOL    HW124488   4.302   5.859   2.945
 7863SOL    HW224489   4.245   5.773   2.818
 7864SOL     OW24490   1.047   5.458   5.208
 7864SOL    HW124491   1.019   5.436   5.301
 7864SOL    HW224492   0.974   5.507   5.161
 7865SOL     OW24493   4.615   0.474   3.116
 7865SOL    HW124494   4.659   0.562   3.099
 7865SOL    HW224495   4.546   0.484   3.188
 7866SOL     OW24496   2.741   2.527   5.659
 7866SOL    HW124497   2.646   2.558   5.671
 7866SOL    HW224498   2.766   2.534   5.563
 7867SOL     OW24499   5.970   3.226   1.599
 7867SOL    HW124500   5.871   3.229   1.586
 7867SOL    HW224501   6.001   3.310   1.643
 7868SOL     OW24502   4.822   0.247   0.342
 7868SOL    HW124503   4.777   0.176   0.286
 7868SOL    HW224504   4.897   0.288   0.290
 7869SOL     OW24505   6.286   1.652   4.395
 7869SOL    HW124506   6.239   1.702   4.321
 7869SOL    HW224507   6.383   1.646   4.373
 7870SOL     OW24508   6.913   0.335   2.837
 7870SOL    HW124509   6.841   0.367   2.775
 7870SOL    HW224510   6.982   0.406   2.847
 7871SOL     OW24511   5.465   3.034   4.331
 7871SOL    HW124512   5.467   3.126   4.368
 7871SOL    HW224513   5.549   2.985   4.356
 7872SOL     OW24514   0.137   4.196   3.991
 7872SOL    HW124515   0.178   4.198   3.899
 7872SOL    HW224516   0.126   4.101   4.020
 7873SOL     OW24517   6.827   5.486   4.598
 7873SOL    HW124518   6.833   5.563   4.661
 7873SOL    HW224519   6.919   5.455   4.574
 7874SOL     OW24520   5.875   0.465   0.326
 7874SOL    HW124521   5.878   0.482   0.227
 7874SOL    HW224522   5.963   0.427   0.355
 7875SOL     OW24523   4.716   3.188   0.404
 7875SOL    HW124524   4.659   3.205   0.323
 7875SOL    HW224525   4.791   3.127   0.379
 7876SOL     OW24526   0.315   1.691   4.888
 7876SOL    HW124527   0.347   1.597   4.898
 7876SOL    HW224528   0.388   1.754   4.912
 7877SOL     OW24529   5.693   3.632   2.614
 7877SOL    HW124530   5.656   3.562   2.554
 7877SOL    HW224531   5.791   3.644   2.596
 7878SOL     OW24532   3.657   4.012   1.037
 7878SOL    HW124533   3.629   3.966   0.953
 7878SOL    HW224534   3.748   3.979   1.063
 7879SOL     OW24535   6.794   1.163   4.797
 7879SOL    HW124536   6.750   1.230   4.738
 7879SOL    HW224537   6.846   1.098   4.741
 7880SOL     OW24538   1.528   6.313   6.218
 7880SOL    HW124539   1.498   6.273   6.132
 7880SOL    HW224540   1.459   6.296   6.288
 7881SOL     OW24541   0.947   5.486   4.414
 7881SOL    HW124542   0.971   5.428   4.492
 7881SOL    HW224543   0.848   5.502   4.414
 7882SOL     OW24544   1.827   4.879   1.502
 7882SOL    HW124545   1.772   4.896   1.583
 7882SOL    HW224546   1.780   4.915   1.421
 7883SOL     OW24547   3.172   1.711   2.337
 7883SOL    HW124548   3.081   1.672   2.321
 7883SOL    HW224549   3.207   1.750   2.251
 7884SOL     OW24550   1.099   3.039   4.597
 7884SOL    HW124551   1.087   3.129   4.555
 7884SOL    HW224552   1.019   2.982   4.577
 7885SOL     OW24553   6.146   5.517   2.349
 7885SOL    HW124554   6.068   5.518   2.412
 7885SOL    HW224555   6.222   5.466   2.391
 7886SOL     OW24556   4.107   4.795   2.902
 7886SOL    HW124557   4.074   4.885   2.875
 7886SOL    HW224558   4.169   4.759   2.833
 7887SOL     OW24559   0.968   3.181   0.776
 7887SOL    HW124560   0.896   3.136   0.830
 7887SOL    HW224561   1.051   3.126   0.777
 7888SOL     OW24562   6.656   1.423   5.053
 7888SOL    HW124563   6.616   1.461   5.137
 7888SOL    HW224564   6.736   1.477   5.028
 7889SOL     OW24565   5.479   5.241   0.417
 7889SOL    HW124566   5.562   5.286   0.450
 7889SOL    HW224567   5.416   5.310   0.381
 7890SOL     OW24568   2.243   3.011   3.167
 7890SOL    HW124569   2.206   3.103   3.153
 7890SOL    HW224570   2.252   2.994   3.265
 7891SOL     OW24571   6.587   1.272   4.463
 7891SOL    HW124572   6.629   1.223   4.386
 7891SOL    HW224573   6.561   1.206   4.534
 7892SOL     OW24574   1.339   1.372   4.850
 7892SOL    HW124575   1.332   1.463   4.890
 7892SOL    HW224576   1.423   1.328   4.882
 7893SOL     OW24577   6.130   6.413   0.883
 7893SOL    HW124578   6.034   6.441   0.883
 7893SOL    HW224579   6.146   6.351   0.960
 7894SOL     OW24580   3.522   1.051   6.241
 7894SOL    HW124581   3.528   1.079   6.145
 7894SOL    HW224582   3.435   1.004   6.256
 7895SOL     OW24583   6.168   6.733   2.447
 7895SOL    HW124584   6.110   6.811   2.424
 7895SOL    HW224585   6.160   6.714   2.545
 7896SOL     OW24586   2.416   1.650   0.438
 7896SOL    HW124587   2.318   1.652   0.417
 7896SOL    HW224588   2.452   1.743   0.437
 7897SOL     OW24589   4.696   1.296   0.999
 7897SOL    HW124590   4.659   1.212   0.960
 7897SOL    HW224591   4.627   1.339   1.057
 7898SOL     OW24592   4.869   6.618   3.075
 7898SOL    HW124593   4.902   6.653   3.163
 7898SOL    HW224594   4.834   6.693   3.021
 7899SOL     OW24595   5.854   4.307   2.952
 7899SOL    HW124596   5.819   4.271   2.866
 7899SOL    HW224597   5.783   4.301   3.022
 7900SOL     OW24598   0.262   3.178   0.604
 7900SOL    HW124599   0.341   3.202   0.660
 7900SOL    HW224600   0.228   3.088   0.631
 7901SOL     OW24601   0.523   2.149   0.298
 7901SOL    HW124602   0.600   2.196   0.341
 7901SOL    HW224603   0.508   2.061   0.344
 7902SOL     OW24604   1.727   6.874   1.271
 7902SOL    HW124605   1.670   6.943   1.316
 7902SOL    HW224606   1.801   6.847   1.332
 7903SOL     OW24607   3.034   2.053   5.537
 7903SOL    HW124608   3.047   2.150   5.519
 7903SOL    HW224609   3.110   2.018   5.592
 7904SOL     OW24610   4.789   2.925   2.520
 7904SOL    HW124611   4.765   2.946   2.614
 7904SOL    HW224612   4.828   3.007   2.477
 7905SOL     OW24613   6.277   2.309   1.356
 7905SOL    HW124614   6.263   2.215   1.389
 7905SOL    HW224615   6.375   2.326   1.346
 7906SOL     OW24616   0.815   5.513   6.499
 7906SOL    HW124617   0.903   5.470   6.479
 7906SOL    HW224618   0.781   5.560   6.417
 7907SOL     OW24619   6.123   6.464   2.892
 7907SOL    HW124620   6.141   6.528   2.967
 7907SOL    HW224621   6.080   6.513   2.816
 7908SOL     OW24622   2.075   0.541   6.224
 7908SOL    HW124623   2.144   0.473   6.250
 7908SOL    HW224624   2.120   0.626   6.198
 7909SOL     OW24625   6.736   3.065   1.549
 7909SOL    HW124626   6.748   3.088   1.453
 7909SOL    HW224627   6.791   2.985   1.572
 7910SOL     OW24628   1.545   4.690   4.986
 7910SOL    HW124629   1.485   4.727   4.915
 7910SOL    HW224630   1.515   4.723   5.076
 7911SOL     OW24631   5.844   4.797   5.600
 7911SOL    HW124632   5.807   4.704   5.590
 7911SOL    HW224633   5.942   4.791   5.622
 7912SOL     OW24634   5.818   5.786   0.657
 7912SOL    HW124635   5.871   5.827   0.732
 7912SOL    HW224636   5.821   5.847   0.578
 7913SOL     OW24637   1.566   5.257   6.904
 7913SOL    HW124638   1.568   5.182   6.969
 7913SOL    HW224639   1.526   5.226   6.818
 7914SOL     OW24640   1.043   7.001   4.525
 7914SOL    HW124641   0.991   6.987   4.609
 7914SOL    HW224642   0.983   0.007   4.454
 7915SOL     OW24643   2.751   5.064   2.283
 7915SOL    HW124644   2.652   5.070   2.266
 7915SOL    HW224645   2.779   4.968   2.281
 7916SOL     OW24646   0.955   0.257   3.504
 7916SOL    HW124647   0.892   0.268   3.582
 7916SOL    HW224648   1.030   0.323   3.512
 7917SOL     OW24649   4.918   1.827   2.244
 7917SOL    HW124650   4.862   1.894   2.292
 7917SOL    HW224651   4.858   1.761   2.198
 7918SOL     OW24652   1.988   3.165   2.900
 7918SOL    HW124653   2.071   3.163   2.845
 7918SOL    HW224654   1.941   3.253   2.888
 7919SOL     OW24655   0.706   6.339   4.501
 7919SOL    HW124656   0.724   6.241   4.514
 7919SOL    HW224657   0.791   6.386   4.480
 7920SOL     OW24658   4.875   0.105   1.356
 7920SOL    HW124659   4.846   0.100   1.451
 7920SOL    HW224660   4.948   0.040   1.339
 7921SOL     OW24661   5.305   2.837   0.607
 7921SOL    HW124662   5.352   2.749   0.618
 7921SOL    HW224663   5.247   2.854   0.687
 7922SOL     OW24664   2.663   0.134   2.700
 7922SOL    HW124665   2.681   0.088   2.613
 7922SOL    HW224666   2.593   0.205   2.687
 7923SOL     OW24667   4.457   0.623   0.206
 7923SOL    HW124668   4.514   0.699   0.174
 7923SOL    HW224669   4.514   0.556   0.253
 7924SOL     OW24670   5.776   6.036   0.100
 7924SOL    HW124671   5.836   5.957   0.087
 7924SOL    HW224672   5.684   6.004   0.124
 7925SOL     OW24673   1.404   4.975   6.331
 7925SOL    HW124674   1.488   4.944   6.287
 7925SOL    HW224675   1.364   4.899   6.384
 7926SOL     OW24676   5.239   5.825   5.795
 7926SOL    HW124677   5.251   5.799   5.891
 7926SOL    HW224678   5.282   5.756   5.737
 7927SOL     OW24679   4.698   6.803   3.845
 7927SOL    HW124680   4.633   6.740   3.887
 7927SOL    HW224681   4.756   6.753   3.780
 7928SOL     OW24682   5.799   1.996   3.888
 7928SOL    HW124683   5.855   2.053   3.829
 7928SOL    HW224684   5.706   1.989   3.851
 7929SOL     OW24685   4.519   4.166   5.768
 7929SOL    HW124686   4.570   4.169   5.854
 7929SOL    HW224687   4.534   4.078   5.723
 7930SOL     OW24688   4.310   5.757   6.606
 7930SOL    HW124689   4.212   5.742   6.594
 7930SOL    HW224690   4.326   5.852   6.631
 7931SOL     OW24691   5.042   1.422   0.945
 7931SOL    HW124692   5.025   1.351   1.012
 7931SOL    HW224693   5.052   1.381   0.854
 7932SOL     OW24694   1.059   3.995   1.339
 7932SOL    HW124695   1.053   3.918   1.275
 7932SOL    HW224696   1.073   4.080   1.287
 7933SOL     OW24697   1.115   1.822   7.001
 7933SOL    HW124698   1.127   1.820   6.901
 7933SOL    HW224699   1.037   1.879   7.024
 7934SOL     OW24700   0.122   5.420   0.839
 7934SOL    HW124701   0.081   5.393   0.751
 7934SOL    HW224702   0.067   5.384   0.914
 7935SOL     OW24703   6.831   3.382   3.388
 7935SOL    HW124704   6.751   3.433   3.420
 7935SOL    HW224705   6.803   3.292   3.356
 7936SOL     OW24706   2.548   6.166   3.280
 7936SOL    HW124707   2.632   6.113   3.268
 7936SOL    HW224708   2.532   6.181   3.377
 7937SOL     OW24709   4.467   0.846   1.248
 7937SOL    HW124710   4.391   0.909   1.231
 7937SOL    HW224711   4.531   0.890   1.311
 7938SOL     OW24712   2.582   6.849   3.041
 7938SOL    HW124713   2.560   6.934   3.087
 7938SOL    HW224714   2.564   6.858   2.943
 7939SOL     OW24715   1.543   0.870   2.588
 7939SOL    HW124716   1.448   0.839   2.590
 7939SOL    HW224717   1.604   0.793   2.569
 7940SOL     OW24718   6.099   1.854   5.069
 7940SOL    HW124719   6.138   1.787   5.005
 7940SOL    HW224720   6.073   1.937   5.019
 7941SOL     OW24721   3.453   6.970   0.991
 7941SOL    HW124722   3.394   0.008   1.035
 7941SOL    HW224723   3.525   7.017   0.940
 7942SOL     OW24724   1.256   4.188   0.603
 7942SOL    HW124725   1.311   4.179   0.520
 7942SOL    HW224726   1.193   4.265   0.593
 7943SOL     OW24727   1.284   6.285   6.120
 7943SOL    HW124728   1.208   6.233   6.159
 7943SOL    HW224729   1.252   6.376   6.094
 7944SOL     OW24730   1.783   1.850   1.260
 7944SOL    HW124731   1.797   1.945   1.289
 7944SOL    HW224732   1.862   1.795   1.285
 7945SOL     OW24733   6.202   3.428   2.859
 7945SOL    HW124734   6.176   3.362   2.788
 7945SOL    HW224735   6.302   3.437   2.862
 7946SOL     OW24736   4.232   1.822   6.350
 7946SOL    HW124737   4.311   1.763   6.334
 7946SOL    HW224738   4.244   1.908   6.299
 7947SOL     OW24739   6.985   3.643   6.339
 7947SOL    HW124740   0.053   3.642   6.359
 7947SOL    HW224741   6.971   3.638   6.240
 7948SOL     OW24742   1.320   6.156   1.052
 7948SOL    HW124743   1.331   6.107   0.966
 7948SOL    HW224744   1.223   6.167   1.072
 7949SOL     OW24745   2.653   5.539   5.264
 7949SOL    HW124746   2.563   5.514   5.229
 7949SOL    HW224747   2.646   5.561   5.361
 7950SOL     OW24748   6.491   4.219   5.572
 7950SOL    HW124749   6.578   4.171   5.564
 7950SOL    HW224750   6.442   4.188   5.654
 7951SOL     OW24751   4.014   0.025   2.978
 7951SOL    HW124752   3.927   0.071   2.962
 7951SOL    HW224753   4.073   0.038   2.898
 7952SOL     OW24754   6.500   3.555   5.177
 7952SOL    HW124755   6.577   3.562   5.241
 7952SOL    HW224756   6.433   3.490   5.212
 7953SOL     OW24757   1.761   0.315   0.342
 7953SOL    HW124758   1.672   0.270   0.332
 7953SOL    HW224759   1.760   0.372   0.424
 7954SOL     OW24760   3.631   3.008   0.086
 7954SOL    HW124761   3.672   3.084   0.036
 7954SOL    HW224762   3.697   2.932   0.091
 7955SOL     OW24763   0.616   1.403   6.791
 7955SOL    HW124764   0.603   1.329   6.725
 7955SOL    HW224765   0.666   1.478   6.747
 7956SOL     OW24766   0.111   6.979   0.187
 7956SOL    HW124767   0.035   6.920   0.216
 7956SOL    HW224768   0.094   0.042   0.218
 7957SOL     OW24769   5.208   1.262   5.783
 7957SOL    HW124770   5.127   1.314   5.756
 7957SOL    HW224771   5.202   1.170   5.746
 7958SOL     OW24772   4.357   2.489   0.037
 7958SOL    HW124773   4.450   2.466   0.066
 7958SOL    HW224774   4.336   2.441   6.982
 7959SOL     OW24775   4.998   2.991   0.064
 7959SOL    HW124776   4.905   3.021   0.045
 7959SOL    HW224777   5.055   3.003   7.012
 7960SOL     OW24778   1.061   1.495   5.078
 7960SOL    HW124779   1.068   1.582   5.127
 7960SOL    HW224780   0.996   1.504   5.003
 7961SOL     OW24781   5.966   0.108   0.758
 7961SOL    HW124782   5.899   0.135   0.690
 7961SOL    HW224783   6.009   0.189   0.797
 7962SOL     OW24784   6.052   6.659   4.905
 7962SOL    HW124785   6.121   6.666   4.976
 7962SOL    HW224786   6.018   6.750   4.883
 7963SOL     OW24787   5.695   6.266   2.978
 7963SOL    HW124788   5.735   6.264   3.069
 7963SOL    HW224789   5.752   6.321   2.917
 7964SOL     OW24790   6.510   3.288   1.418
 7964SOL    HW124791   6.430   3.347   1.434
 7964SOL    HW224792   6.592   3.345   1.410
 7965SOL     OW24793   4.921   1.654   6.489
 7965SOL    HW124794   4.839   1.647   6.546
 7965SOL    HW224795   4.917   1.585   6.417
 7966SOL     OW24796   5.621   3.571   5.012
 7966SOL    HW124797   5.622   3.528   5.103
 7966SOL    HW224798   5.550   3.530   4.956
 7967SOL     OW24799   1.583   4.680   0.968
 7967SOL    HW124800   1.666   4.647   1.013
 7967SOL    HW224801   1.504   4.659   1.025
 7968SOL     OW24802   2.080   2.766   3.615
 7968SOL    HW124803   2.115   2.685   3.567
 7968SOL    HW224804   1.988   2.786   3.583
 7969SOL     OW24805   3.358   4.466   6.447
 7969SOL    HW124806   3.410   4.381   6.443
 7969SOL    HW224807   3.376   4.512   6.534
 7970SOL     OW24808   6.631   2.820   3.988
 7970SOL    HW124809   6.593   2.736   4.027
 7970SOL    HW224810   6.730   2.820   3.997
 7971SOL     OW24811   3.054   1.079   6.762
 7971SOL    HW124812   3.107   0.996   6.777
 7971SOL    HW224813   2.957   1.061   6.777
 7972SOL     OW24814   3.942   3.928   4.346
 7972SOL    HW124815   4.017   3.928   4.412
 7972SOL    HW224816   3.888   4.012   4.356
 7973SOL     OW24817   6.468   4.912   2.326
 7973SOL    HW124818   6.408   4.856   2.269
 7973SOL    HW224819   6.450   4.894   2.423
 7974SOL     OW24820   0.658   3.451   4.884
 7974SOL    HW124821   0.596   3.385   4.841
 7974SOL    HW224822   0.606   3.513   4.942
 7975SOL     OW24823   4.519   0.058   7.025
 7975SOL    HW124824   4.502   0.110   6.942
 7975SOL    HW224825   4.543   6.994   7.002
 7976SOL     OW24826   0.767   0.607   0.338
 7976SOL    HW124827   0.736   0.524   0.384
 7976SOL    HW224828   0.863   0.597   0.312
 7977SOL     OW24829   5.209   5.294   2.919
 7977SOL    HW124830   5.149   5.365   2.957
 7977SOL    HW224831   5.257   5.332   2.839
 7978SOL     OW24832   6.990   3.576   1.445
 7978SOL    HW124833   0.035   3.560   1.508
 7978SOL    HW224834   7.018   3.644   1.377
 7979SOL     OW24835   3.034   2.703   5.507
 7979SOL    HW124836   3.087   2.779   5.468
 7979SOL    HW224837   3.016   2.721   5.603
 7980SOL     OW24838   3.552   5.218   1.879
 7980SOL    HW124839   3.484   5.146   1.892
 7980SOL    HW224840   3.644   5.179   1.891
 7981SOL     OW24841   1.676   3.483   4.598
 7981SOL    HW124842   1.719   3.513   4.683
 7981SOL    HW224843   1.746   3.443   4.538
 7982SOL     OW24844   6.812   1.088   6.665
 7982SOL    HW124845   6.770   1.084   6.756
 7982SOL    HW224846   6.793   1.177   6.624
 7983SOL     OW24847   3.725   0.669   2.088
 7983SOL    HW124848   3.688   0.673   2.181
 7983SOL    HW224849   3.788   0.745   2.074
 7984SOL     OW24850   6.503   3.057   2.991
 7984SOL    HW124851   6.487   3.069   3.089
 7984SOL    HW224852   6.449   2.980   2.957
 7985SOL     OW24853   3.017   3.065   5.717
 7985SOL    HW124854   3.075   3.075   5.636
 7985SOL    HW224855   2.922   3.054   5.689
 7986SOL     OW24856   3.971   1.006   3.953
 7986SOL    HW124857   4.036   1.046   4.018
 7986SOL    HW224858   3.951   1.072   3.881
 7987SOL     OW24859   1.103   3.143   6.467
 7987SOL    HW124860   1.078   3.150   6.370
 7987SOL    HW224861   1.021   3.146   6.523
 7988SOL     OW24862   6.276   0.766   0.901
 7988SOL    HW124863   6.177   0.767   0.886
 7988SOL    HW224864   6.322   0.740   0.817
 7989SOL     OW24865   0.370   4.694   1.346
 7989SOL    HW124866   0.377   4.595   1.342
 7989SOL    HW224867   0.459   4.734   1.369
 7990SOL     OW24868   4.589   5.069   4.599
 7990SOL    HW124869   4.601   5.043   4.695
 7990SOL    HW224870   4.672   5.113   4.565
 7991SOL     OW24871   5.840   0.771   4.356
 7991SOL    HW124872   5.870   0.675   4.360
 7991SOL    HW224873   5.920   0.830   4.361
 7992SOL     OW24874   1.788   0.405   6.801
 7992SOL    HW124875   1.850   0.334   6.834
 7992SOL    HW224876   1.807   0.491   6.849
 7993SOL     OW24877   6.362   6.172   0.755
 7993SOL    HW124878   6.461   6.165   0.752
 7993SOL    HW224879   6.333   6.255   0.708
 7994SOL     OW24880   0.282   0.688   4.619
 7994SOL    HW124881   0.192   0.664   4.656
 7994SOL    HW224882   0.292   0.788   4.620
 7995SOL     OW24883   0.236   5.996   1.370
 7995SOL    HW124884   0.185   5.993   1.284
 7995SOL    HW224885   0.329   5.963   1.355
 7996SOL     OW24886   2.278   6.435   3.558
 7996SOL    HW124887   2.274   6.508   3.490
 7996SOL    HW224888   2.204   6.370   3.542
 7997SOL     OW24889   2.226   1.476   5.865
 7997SOL    HW124890   2.174   1.471   5.950
 7997SOL    HW224891   2.164   1.464   5.788
 7998SOL     OW24892   2.188   0.528   1.134
 7998SOL    HW124893   2.275   0.507   1.179
 7998SOL    HW224894   2.197   0.615   1.085
 7999SOL     OW24895   0.399   0.576   3.105
 7999SOL    HW124896   0.375   0.655   3.048
 7999SOL    HW224897   0.498   0.562   3.103
 8000SOL     OW24898   4.229   5.933   0.636
 8000SOL    HW124899   4.226   5.862   0.565
 8000SOL    HW224900   4.322   5.943   0.670
 8001SOL     OW24901   4.901   4.386   1.600
 8001SOL    HW124902   4.985   4.368   1.649
 8001SOL    HW224903   4.824   4.388   1.664
 8002SOL     OW24904   1.087   0.479   4.598
 8002SOL    HW124905   1.068   0.496   4.501
 8002SOL    HW224906   1.022   0.411   4.633
 8003SOL     OW24907   2.844   5.666   3.123
 8003SOL    HW124908   2.850   5.573   3.087
 8003SOL    HW224909   2.855   5.664   3.222
 8004SOL     OW24910   2.125   3.380   4.111
 8004SOL    HW124911   2.194   3.394   4.039
 8004SOL    HW224912   2.101   3.467   4.152
 8005SOL     OW24913   2.768   0.177   3.850
 8005SOL    HW124914   2.778   0.081   3.826
 8005SOL    HW224915   2.714   0.185   3.934
 8006SOL     OW24916   5.271   5.188   6.150
 8006SOL    HW124917   5.206   5.254   6.111
 8006SOL    HW224918   5.243   5.095   6.127
 8007SOL     OW24919   0.061   0.718   0.781
 8007SOL    HW124920   0.071   0.804   0.832
 8007SOL    HW224921   0.046   0.738   0.684
 8008SOL     OW24922   4.350   4.690   0.945
 8008SOL    HW124923   4.358   4.673   0.847
 8008SOL    HW224924   4.365   4.604   0.994
 8009SOL     OW24925   6.594   1.238   1.241
 8009SOL    HW124926   6.671   1.216   1.181
 8009SOL    HW224927   6.553   1.154   1.275
 8010SOL     OW24928   3.731   0.516   5.934
 8010SOL    HW124929   3.696   0.501   5.842
 8010SOL    HW224930   3.812   0.459   5.949
 8011SOL     OW24931   3.992   2.085   2.655
 8011SOL    HW124932   4.033   2.009   2.706
 8011SOL    HW224933   3.979   2.058   2.560
 8012SOL     OW24934   6.333   0.787   4.909
 8012SOL    HW124935   6.344   0.710   4.846
 8012SOL    HW224936   6.365   0.871   4.864
 8013SOL     OW24937   3.844   0.151   3.330
 8013SOL    HW124938   3.754   0.164   3.371
 8013SOL    HW224939   3.883   0.065   3.362
 8014SOL     OW24940   2.405   2.600   3.314
 8014SOL    HW124941   2.488   2.556   3.279
 8014SOL    HW224942   2.377   2.674   3.253
 8015SOL     OW24943   3.337   6.688   4.803
 8015SOL    HW124944   3.362   6.598   4.840
 8015SOL    HW224945   3.399   6.711   4.728
 8016SOL     OW24946   3.536   2.751   5.319
 8016SOL    HW124947   3.516   2.659   5.351
 8016SOL    HW224948   3.460   2.785   5.262
 8017SOL     OW24949   6.165   6.231   1.080
 8017SOL    HW124950   6.228   6.162   1.116
 8017SOL    HW224951   6.130   6.287   1.156
 8018SOL     OW24952   2.782   3.942   1.053
 8018SOL    HW124953   2.854   3.908   0.992
 8018SOL    HW224954   2.774   3.881   1.132
 8019SOL     OW24955   2.262   3.612   0.490
 8019SOL    HW124956   2.195   3.540   0.469
 8019SOL    HW224957   2.336   3.608   0.423
 8020SOL     OW24958   6.948   0.433   6.867
 8020SOL    HW124959   6.993   0.404   6.782
 8020SOL    HW224960   7.002   0.402   6.945
 8021SOL     OW24961   1.108   3.411   0.727
 8021SOL    HW124962   1.052   3.490   0.752
 8021SOL    HW224963   1.053   3.328   0.729
 8022SOL     OW24964   4.096   6.730   2.336
 8022SOL    HW124965   4.073   6.768   2.425
 8022SOL    HW224966   4.136   6.639   2.348
 8023SOL     OW24967   4.049   5.138   2.476
 8023SOL    HW124968   4.060   5.112   2.572
 8023SOL    HW224969   3.955   5.119   2.447
 8024SOL     OW24970   2.519   1.182   6.582
 8024SOL    HW124971   2.441   1.235   6.615
 8024SOL    HW224972   2.490   1.124   6.506
 8025SOL     OW24973   0.820   6.305   1.239
 8025SOL    HW124974   0.817   6.324   1.337
 8025SOL    HW224975   0.765   6.224   1.219
 8026SOL     OW24976   0.661   6.711   6.404
 8026SOL    HW124977   0.620   6.629   6.445
 8026SOL    HW224978   0.760   6.708   6.415
 8027SOL     OW24979   4.242   0.331   6.832
 8027SOL    HW124980   4.304   0.284   6.769
 8027SOL    HW224981   4.295   0.394   6.890
 8028SOL     OW24982   3.835   6.179   6.576
 8028SOL    HW124983   3.746   6.142   6.603
 8028SOL    HW224984   3.839   6.277   6.597
 8029SOL     OW24985   0.611   0.331   2.081
 8029SOL    HW124986   0.675   0.256   2.067
 8029SOL    HW224987   0.560   0.348   1.996
 8030SOL     OW24988   0.316   4.459   1.025
 8030SOL    HW124989   0.307   4.419   0.934
 8030SOL    HW224990   0.386   4.530   1.023
 8031SOL     OW24991   6.839   0.321   2.145
 8031SOL    HW124992   6.837   0.319   2.245
 8031SOL    HW224993   6.872   0.233   2.111
 8032SOL     OW24994   0.230   2.683   0.399
 8032SOL    HW124995   0.133   2.700   0.416
 8032SOL    HW224996   0.275   2.770   0.381
 8033SOL     OW24997   3.309   4.231   1.190
 8033SOL    HW124998   3.219   4.197   1.164
 8033SOL    HW224999   3.300   4.301   1.261
 8034SOL     OW25000   0.892   0.130   5.664
 8034SOL    HW125001   0.824   0.080   5.717
 8034SOL    HW225002   0.894   0.094   5.570
 8035SOL     OW25003   5.985   0.158   4.557
 8035SOL    HW125004   5.926   0.216   4.500
 8035SOL    HW225005   5.983   0.191   4.652
 8036SOL     OW25006   4.880   3.764   3.876
 8036SOL    HW125007   4.883   3.694   3.947
 8036SOL    HW225008   4.913   3.726   3.790
 8037SOL     OW25009   2.591   1.294   5.964
 8037SOL    HW125010   2.516   1.359   5.973
 8037SOL    HW225011   2.669   1.325   6.019
 8038SOL     OW25012   6.457   5.627   2.132
 8038SOL    HW125013   6.538   5.590   2.085
 8038SOL    HW225014   6.383   5.639   2.065
 8039SOL     OW25015   2.111   2.290   5.168
 8039SOL    HW125016   2.083   2.378   5.207
 8039SOL    HW225017   2.177   2.246   5.229
 8040SOL     OW25018   0.588   6.429   6.493
 8040SOL    HW125019   0.680   6.410   6.458
 8040SOL    HW225020   0.584   6.400   6.589
 8041SOL     OW25021   3.258   1.407   3.070
 8041SOL    HW125022   3.291   1.314   3.055
 8041SOL    HW225023   3.330   1.461   3.113
 8042SOL     OW25024   3.661   3.801   5.990
 8042SOL    HW125025   3.671   3.857   6.072
 8042SOL    HW225026   3.608   3.852   5.922
 8043SOL     OW25027   4.862   4.814   0.018
 8043SOL    HW125028   4.803   4.875   0.072
 8043SOL    HW225029   4.839   4.719   0.039
 8044SOL     OW25030   1.276   3.346   1.769
 8044SOL    HW125031   1.254   3.406   1.691
 8044SOL    HW225032   1.213   3.269   1.770
 8045SOL     OW25033   6.272   3.603   5.337
 8045SOL    HW125034   6.180   3.616   5.301
 8045SOL    HW225035   6.338   3.652   5.279
 8046SOL     OW25036   0.126   4.142   1.298
 8046SOL    HW125037   0.197   4.086   1.255
 8046SOL    HW225038   0.067   4.181   1.227
 8047SOL     OW25039   3.109   6.366   6.784
 8047SOL    HW125040   3.050   6.335   6.859
 8047SOL    HW225041   3.076   6.327   6.698
 8048SOL     OW25042   3.899   1.726   6.694
 8048SOL    HW125043   3.810   1.680   6.692
 8048SOL    HW225044   3.908   1.785   6.613
 8049SOL     OW25045   1.979   1.289   0.758
 8049SOL    HW125046   1.951   1.267   0.664
 8049SOL    HW225047   1.900   1.282   0.819
 8050SOL     OW25048   0.423   5.402   5.881
 8050SOL    HW125049   0.480   5.468   5.833
 8050SOL    HW225050   0.479   5.349   5.945
 8051SOL     OW25051   4.545   6.485   2.758
 8051SOL    HW125052   4.498   6.397   2.745
 8051SOL    HW225053   4.633   6.470   2.803
 8052SOL     OW25054   2.976   1.687   3.083
 8052SOL    HW125055   2.903   1.723   3.024
 8052SOL    HW225056   2.965   1.588   3.093
 8053SOL     OW25057   1.003   2.439   6.685
 8053SOL    HW125058   1.091   2.391   6.694
 8053SOL    HW225059   1.018   2.528   6.642
 8054SOL     OW25060   5.255   3.873   5.294
 8054SOL    HW125061   5.202   3.788   5.299
 8054SOL    HW225062   5.192   3.951   5.294
 8055SOL     OW25063   6.421   0.039   0.207
 8055SOL    HW125064   6.516   0.011   0.190
 8055SOL    HW225065   6.366   0.019   0.126
 8056SOL     OW25066   2.609   1.567   3.841
 8056SOL    HW125067   2.675   1.640   3.823
 8056SOL    HW225068   2.539   1.566   3.770
 8057SOL     OW25069   2.988   2.169   2.174
 8057SOL    HW125070   2.975   2.179   2.273
 8057SOL    HW225071   2.933   2.237   2.126
 8058SOL     OW25072   3.855   6.306   1.761
 8058SOL    HW125073   3.766   6.308   1.715
 8058SOL    HW225074   3.842   6.289   1.858
 8059SOL     OW25075   3.899   3.448   5.557
 8059SOL    HW125076   3.927   3.360   5.596
 8059SOL    HW225077   3.889   3.438   5.458
 8060SOL     OW25078   0.394   0.843   6.182
 8060SOL    HW125079   0.448   0.760   6.194
 8060SOL    HW225080   0.454   0.921   6.169
 8061SOL     OW25081   6.931   0.951   1.678
 8061SOL    HW125082   6.851   1.011   1.685
 8061SOL    HW225083   7.013   1.002   1.703
 8062SOL     OW25084   4.635   4.638   5.696
 8062SOL    HW125085   4.599   4.724   5.731
 8062SOL    HW225086   4.717   4.613   5.748
 8063SOL     OW25087   2.046   4.404   2.895
 8063SOL    HW125088   2.059   4.310   2.924
 8063SOL    HW225089   2.131   4.455   2.905
 8064SOL     OW25090   0.006   2.284   0.520
 8064SOL    HW125091   0.095   2.311   0.484
 8064SOL    HW225092   6.965   2.300   0.452
 8065SOL     OW25093   4.775   6.985   6.461
 8065SOL    HW125094   4.831   7.028   6.533
 8065SOL    HW225095   4.833   6.926   6.405
 8066SOL     OW25096   0.342   0.212   6.018
 8066SOL    HW125097   0.330   0.206   6.117
 8066SOL    HW225098   0.339   0.120   5.979
 8067SOL     OW25099   5.409   0.640   4.314
 8067SOL    HW125100   5.441   0.725   4.271
 8067SOL    HW225101   5.366   0.661   4.402
 8068SOL     OW25102   6.830   3.758   1.821
 8068SOL    HW125103   6.790   3.690   1.760
 8068SOL    HW225104   6.884   3.712   1.892
 8069SOL     OW25105   1.379   2.356   2.101
 8069SOL    HW125106   1.329   2.269   2.098
 8069SOL    HW225107   1.390   2.384   2.196
 8070SOL     OW25108   5.726   3.599   1.452
 8070SOL    HW125109   5.671   3.654   1.390
 8070SOL    HW225110   5.787   3.658   1.505
 8071SOL     OW25111   3.270   0.788   5.882
 8071SOL    HW125112   3.285   0.689   5.885
 8071SOL    HW225113   3.213   0.811   5.803
 8072SOL     OW25114   2.137   2.416   5.452
 8072SOL    HW125115   2.085   2.499   5.430
 8072SOL    HW225116   2.215   2.408   5.390
 8073SOL     OW25117   5.552   0.391   6.384
 8073SOL    HW125118   5.556   0.303   6.335
 8073SOL    HW225119   5.468   0.396   6.436
 8074SOL     OW25120   6.750   0.720   0.626
 8074SOL    HW125121   6.656   0.685   0.621
 8074SOL    HW225122   6.754   0.794   0.693
 8075SOL     OW25123   0.302   0.140   1.033
 8075SOL    HW125124   0.238   0.211   1.062
 8075SOL    HW225125   0.310   0.141   0.933
 8076SOL     OW25126   6.542   6.407   0.470
 8076SOL    HW125127   6.491   6.442   0.548
 8076SOL    HW225128   6.639   6.403   0.492
 8077SOL     OW25129   6.125   4.162   1.505
 8077SOL    HW125130   6.206   4.138   1.557
 8077SOL    HW225131   6.145   4.242   1.448
 8078SOL     OW25132   6.329   1.169   1.570
 8078SOL    HW125133   6.296   1.115   1.647
 8078SOL    HW225134   6.268   1.157   1.492
 8079SOL     OW25135   0.434   0.987   0.076
 8079SOL    HW125136   0.456   1.066   0.019
 8079SOL    HW225137   0.484   0.994   0.163
 8080SOL     OW25138   1.752   3.916   3.746
 8080SOL    HW125139   1.776   3.975   3.823
 8080SOL    HW225140   1.664   3.945   3.708
 8081SOL     OW25141   6.586   0.362   5.621
 8081SOL    HW125142   6.632   0.335   5.536
 8081SOL    HW225143   6.535   0.284   5.658
 8082SOL     OW25144   4.213   2.216   4.516
 8082SOL    HW125145   4.265   2.141   4.557
 8082SOL    HW225146   4.172   2.272   4.588
 8083SOL     OW25147   6.670   3.022   4.571
 8083SOL    HW125148   6.753   3.017   4.626
 8083SOL    HW225149   6.667   3.109   4.522
 8084SOL     OW25150   5.193   1.710   6.625
 8084SOL    HW125151   5.102   1.675   6.604
 8084SOL    HW225152   5.237   1.741   6.541
 8085SOL     OW25153   1.785   6.042   4.034
 8085SOL    HW125154   1.760   5.965   4.093
 8085SOL    HW225155   1.742   6.032   3.945
 8086SOL     OW25156   6.930   2.137   2.614
 8086SOL    HW125157   6.917   2.159   2.711
 8086SOL    HW225158   7.012   2.184   2.580
 8087SOL     OW25159   0.060   1.419   6.542
 8087SOL    HW125160   0.051   1.400   6.444
 8087SOL    HW225161   0.065   1.332   6.592
 8088SOL     OW25162   0.107   6.989   5.244
 8088SOL    HW125163   0.073   6.898   5.221
 8088SOL    HW225164   0.188   6.981   5.302
 8089SOL     OW25165   6.597   1.639   7.006
 8089SOL    HW125166   6.506   1.644   6.966
 8089SOL    HW225167   6.592   1.649   0.075
 8090SOL     OW25168   4.525   2.604   4.982
 8090SOL    HW125169   4.459   2.657   5.035
 8090SOL    HW225170   4.480   2.525   4.941
 8091SOL     OW25171   0.314   3.889   4.679
 8091SOL    HW125172   0.247   3.944   4.630
 8091SOL    HW225173   0.382   3.854   4.614
 8092SOL     OW25174   4.775   0.224   5.915
 8092SOL    HW125175   4.704   0.169   5.870
 8092SOL    HW225176   4.860   0.172   5.918
 8093SOL     OW25177   3.296   6.163   3.448
 8093SOL    HW125178   3.291   6.083   3.508
 8093SOL    HW225179   3.388   6.201   3.450
 8094SOL     OW25180   1.974   3.879   4.480
 8094SOL    HW125181   1.876   3.898   4.470
 8094SOL    HW225182   2.024   3.915   4.401
 8095SOL     OW25183   1.037   5.243   4.883
 8095SOL    HW125184   1.064   5.339   4.887
 8095SOL    HW225185   0.949   5.232   4.930
 8096SOL     OW25186   0.990   4.916   1.073
 8096SOL    HW125187   1.010   4.833   1.021
 8096SOL    HW225188   0.985   4.994   1.010
 8097SOL     OW25189   4.495   6.465   6.714
 8097SOL    HW125190   4.541   6.457   6.626
 8097SOL    HW225191   4.547   6.415   6.784
 8098SOL     OW25192   2.127   5.839   4.810
 8098SOL    HW125193   2.102   5.755   4.858
 8098SOL    HW225194   2.226   5.853   4.819
 8099SOL     OW25195   2.008   4.138   2.674
 8099SOL    HW125196   1.930   4.088   2.635
 8099SOL    HW225197   1.975   4.224   2.714
 8100SOL     OW25198   0.080   0.204   0.276
 8100SOL    HW125199   0.178   0.203   0.293
 8100SOL    HW225200   0.033   0.246   0.353
 8101SOL     OW25201   1.927   6.190   0.354
 8101SOL    HW125202   1.981   6.216   0.433
 8101SOL    HW225203   1.974   6.218   0.270
 8102SOL     OW25204   0.898   4.309   4.242
 8102SOL    HW125205   0.881   4.240   4.171
 8102SOL    HW225206   0.975   4.367   4.214
 8103SOL     OW25207   4.218   0.555   1.322
 8103SOL    HW125208   4.261   0.475   1.365
 8103SOL    HW225209   4.288   0.616   1.287
 8104SOL     OW25210   1.207   5.643   6.757
 8104SOL    HW125211   1.306   5.641   6.766
 8104SOL    HW225212   1.168   5.559   6.796
 8105SOL     OW25213   6.962   6.783   3.287
 8105SOL    HW125214   0.023   6.771   3.247
 8105SOL    HW225215   6.893   6.767   3.216
 8106SOL     OW25216   2.989   0.064   6.106
 8106SOL    HW125217   2.939   7.023   6.157
 8106SOL    HW225218   3.001   0.035   6.012
 8107SOL     OW25219   1.181   6.850   0.084
 8107SOL    HW125220   1.204   6.926   0.145
 8107SOL    HW225221   1.200   6.764   0.129
 8108SOL     OW25222   1.520   1.258   0.189
 8108SOL    HW125223   1.424   1.286   0.189
 8108SOL    HW225224   1.525   1.158   0.180
 8109SOL     OW25225   6.835   3.342   2.076
 8109SOL    HW125226   6.754   3.394   2.047
 8109SOL    HW225227   6.890   3.398   2.138
 8110SOL     OW25228   4.476   4.757   0.413
 8110SOL    HW125229   4.494   4.784   0.507
 8110SOL    HW225230   4.378   4.761   0.395
 8111SOL     OW25231   6.336   1.401   2.348
 8111SOL    HW125232   6.335   1.438   2.255
 8111SOL    HW225233   6.250   1.422   2.393
 8112SOL     OW25234   1.945   5.281   6.131
 8112SOL    HW125235   1.889   5.200   6.147
 8112SOL    HW225236   1.886   5.359   6.110
 8113SOL     OW25237   4.916   4.894   6.297
 8113SOL    HW125238   4.959   4.985   6.301
 8113SOL    HW225239   4.819   4.902   6.319
 8114SOL     OW25240   1.875   3.650   2.690
 8114SOL    HW125241   1.805   3.710   2.730
 8114SOL    HW225242   1.852   3.632   2.594
 8115SOL     OW25243   1.909   1.849   6.026
 8115SOL    HW125244   1.897   1.807   6.117
 8115SOL    HW225245   1.967   1.791   5.970
 8116SOL     OW25246   3.951   3.458   2.036
 8116SOL    HW125247   3.994   3.369   2.016
 8116SOL    HW225248   3.894   3.450   2.117
 8117SOL     OW25249   1.758   6.749   3.909
 8117SOL    HW125250   1.809   6.809   3.848
 8117SOL    HW225251   1.670   6.791   3.931
 8118SOL     OW25252   6.638   2.940   6.498
 8118SOL    HW125253   6.702   3.016   6.506
 8118SOL    HW225254   6.688   2.854   6.496
 8119SOL     OW25255   5.223   5.931   6.694
 8119SOL    HW125256   5.313   5.890   6.682
 8119SOL    HW225257   5.197   5.980   6.611
 8120SOL     OW25258   2.402   6.289   2.558
 8120SOL    HW125259   2.487   6.271   2.509
 8120SOL    HW225260   2.352   6.203   2.570
 8121SOL     OW25261   1.777   2.467   2.426
 8121SOL    HW125262   1.721   2.483   2.507
 8121SOL    HW225263   1.734   2.510   2.346
 8122SOL     OW25264   0.677   4.267   1.113
 8122SOL    HW125265   0.614   4.238   1.184
 8122SOL    HW225266   0.715   4.187   1.067
 8123SOL     OW25267   6.836   2.006   6.541
 8123SOL    HW125268   6.740   1.977   6.551
 8123SOL    HW225269   6.882   1.947   6.474
 8124SOL     OW25270   5.918   6.444   5.665
 8124SOL    HW125271   5.872   6.369   5.711
 8124SOL    HW225272   6.006   6.413   5.629
 8125SOL     OW25273   1.238   5.362   1.572
 8125SOL    HW125274   1.316   5.372   1.633
 8125SOL    HW225275   1.171   5.300   1.613
 8126SOL     OW25276   3.184   5.844   5.030
 8126SOL    HW125277   3.131   5.888   5.103
 8126SOL    HW225278   3.159   5.884   4.942
 8127SOL     OW25279   3.967   1.775   6.426
 8127SOL    HW125280   4.066   1.791   6.420
 8127SOL    HW225281   3.948   1.677   6.411
 8128SOL     OW25282   2.969   3.136   0.884
 8128SOL    HW125283   3.048   3.194   0.860
 8128SOL    HW225284   3.001   3.044   0.904
 8129SOL     OW25285   0.646   2.328   3.261
 8129SOL    HW125286   0.641   2.236   3.301
 8129SOL    HW225287   0.667   2.394   3.332
 8130SOL     OW25288   6.827   6.099   6.777
 8130SOL    HW125289   6.825   6.142   6.867
 8130SOL    HW225290   6.818   6.169   6.706
 8131SOL     OW25291   1.711   2.460   0.739
 8131SOL    HW125292   1.744   2.424   0.827
 8131SOL    HW225293   1.645   2.533   0.756
 8132SOL     OW25294   6.245   1.688   4.881
 8132SOL    HW125295   6.272   1.651   4.970
 8132SOL    HW225296   6.219   1.613   4.821
 8133SOL     OW25297   3.764   5.008   1.268
 8133SOL    HW125298   3.729   5.043   1.355
 8133SOL    HW225299   3.784   4.911   1.277
 8134SOL     OW25300   5.814   2.465   6.069
 8134SOL    HW125301   5.809   2.380   6.017
 8134SOL    HW225302   5.753   2.460   6.148
 8135SOL     OW25303   2.366   6.732   2.081
 8135SOL    HW125304   2.420   6.648   2.073
 8135SOL    HW225305   2.303   6.738   2.004
 8136SOL     OW25306   4.499   4.733   2.121
 8136SOL    HW125307   4.449   4.665   2.068
 8136SOL    HW225308   4.538   4.690   2.203
 8137SOL     OW25309   4.510   1.666   6.246
 8137SOL    HW125310   4.560   1.735   6.298
 8137SOL    HW225311   4.455   1.611   6.309
 8138SOL     OW25312   5.400   1.255   2.195
 8138SOL    HW125313   5.423   1.160   2.216
 8138SOL    HW225314   5.433   1.315   2.268
 8139SOL     OW25315   0.827   1.670   3.666
 8139SOL    HW125316   0.873   1.582   3.651
 8139SOL    HW225317   0.875   1.721   3.737
 8140SOL     OW25318   5.111   2.682   3.099
 8140SOL    HW125319   5.158   2.616   3.041
 8140SOL    HW225320   5.093   2.641   3.188
 8141SOL     OW25321   6.084   3.642   4.101
 8141SOL    HW125322   6.082   3.722   4.161
 8141SOL    HW225323   6.176   3.604   4.097
 8142SOL     OW25324   6.811   6.259   6.987
 8142SOL    HW125325   6.801   6.227   0.051
 8142SOL    HW225326   6.798   6.358   6.983
 8143SOL     OW25327   6.508   3.122   5.330
 8143SOL    HW125328   6.499   3.074   5.242
 8143SOL    HW225329   6.435   3.190   5.338
 8144SOL     OW25330   4.844   6.305   0.192
 8144SOL    HW125331   4.921   6.365   0.214
 8144SOL    HW225332   4.870   6.210   0.208
 8145SOL     OW25333   4.558   6.414   3.441
 8145SOL    HW125334   4.576   6.499   3.491
 8145SOL    HW225335   4.594   6.422   3.348
 8146SOL     OW25336   3.709   1.904   4.559
 8146SOL    HW125337   3.647   1.845   4.508
 8146SOL    HW225338   3.671   1.921   4.651
 8147SOL     OW25339   5.512   1.234   3.205
 8147SOL    HW125340   5.539   1.158   3.145
 8147SOL    HW225341   5.464   1.303   3.152
 8148SOL     OW25342   6.940   4.432   2.671
 8148SOL    HW125343   6.849   4.467   2.696
 8148SOL    HW225344   6.996   4.423   2.753
 8149SOL     OW25345   3.514   5.398   3.636
 8149SOL    HW125346   3.502   5.488   3.593
 8149SOL    HW225347   3.570   5.408   3.718
 8150SOL     OW25348   0.969   6.131   0.831
 8150SOL    HW125349   0.880   6.095   0.861
 8150SOL    HW225350   1.016   6.172   0.909
 8151SOL     OW25351   0.438   1.429   4.599
 8151SOL    HW125352   0.376   1.504   4.579
 8151SOL    HW225353   0.424   1.398   4.693
 8152SOL     OW25354   1.233   0.602   3.356
 8152SOL    HW125355   1.230   0.503   3.365
 8152SOL    HW225356   1.155   0.643   3.404
 8153SOL     OW25357   2.069   6.987   0.325
 8153SOL    HW125358   2.059   6.906   0.382
 8153SOL    HW225359   2.138   6.970   0.254
 8154SOL     OW25360   2.226   6.839   2.840
 8154SOL    HW125361   2.323   6.830   2.817
 8154SOL    HW225362   2.215   6.835   2.939
 8155SOL     OW25363   2.960   3.343   4.568
 8155SOL    HW125364   2.872   3.331   4.614
 8155SOL    HW225365   2.953   3.416   4.500
 8156SOL     OW25366   6.914   0.510   5.615
 8156SOL    HW125367   6.965   0.429   5.645
 8156SOL    HW225368   6.859   0.487   5.535
 8157SOL     OW25369   5.584   2.180   6.685
 8157SOL    HW125370   5.610   2.211   6.776
 8157SOL    HW225371   5.661   2.133   6.642
 8158SOL     OW25372   1.763   5.477   2.262
 8158SOL    HW125373   1.780   5.567   2.222
 8158SOL    HW225374   1.758   5.409   2.189
 8159SOL     OW25375   0.447   5.732   0.911
 8159SOL    HW125376   0.420   5.773   0.998
 8159SOL    HW225377   0.375   5.746   0.844
 8160SOL     OW25378   4.333   1.902   1.791
 8160SOL    HW125379   4.330   1.971   1.863
 8160SOL    HW225380   4.242   1.863   1.779
 8161SOL     OW25381   4.140   2.807   1.316
 8161SOL    HW125382   4.128   2.748   1.396
 8161SOL    HW225383   4.058   2.802   1.258
 8162SOL     OW25384   5.736   0.963   1.629
 8162SOL    HW125385   5.725   0.869   1.662
 8162SOL    HW225386   5.660   0.986   1.569
 8163SOL     OW25387   1.980   3.235   5.398
 8163SOL    HW125388   2.055   3.242   5.332
 8163SOL    HW225389   1.968   3.323   5.443
 8164SOL     OW25390   4.929   3.412   1.774
 8164SOL    HW125391   4.993   3.488   1.773
 8164SOL    HW225392   4.979   3.326   1.792
 8165SOL     OW25393   2.262   4.723   1.791
 8165SOL    HW125394   2.293   4.776   1.870
 8165SOL    HW225395   2.199   4.778   1.737
 8166SOL     OW25396   3.998   6.489   1.384
 8166SOL    HW125397   3.929   6.520   1.449
 8166SOL    HW225398   3.957   6.479   1.293
 8167SOL     OW25399   5.200   2.644   4.502
 8167SOL    HW125400   5.134   2.639   4.577
 8167SOL    HW225401   5.286   2.602   4.530
 8168SOL     OW25402   2.499   1.989   2.852
 8168SOL    HW125403   2.445   1.918   2.897
 8168SOL    HW225404   2.444   2.035   2.783
 8169SOL     OW25405   5.447   4.243   5.066
 8169SOL    HW125406   5.425   4.337   5.093
 8169SOL    HW225407   5.386   4.214   4.993
 8170SOL     OW25408   1.491   5.254   3.982
 8170SOL    HW125409   1.492   5.339   3.930
 8170SOL    HW225410   1.540   5.183   3.931
 8171SOL     OW25411   1.937   1.228   6.494
 8171SOL    HW125412   1.934   1.213   6.593
 8171SOL    HW225413   1.850   1.199   6.453
 8172SOL     OW25414   0.207   6.136   0.911
 8172SOL    HW125415   0.156   6.192   0.977
 8172SOL    HW225416   0.144   6.103   0.841
 8173SOL     OW25417   5.868   3.202   0.238
 8173SOL    HW125418   5.866   3.197   0.338
 8173SOL    HW225419   5.874   3.297   0.209
 8174SOL     OW25420   5.476   6.554   2.513
 8174SOL    HW125421   5.384   6.587   2.535
 8174SOL    HW225422   5.492   6.563   2.414
 8175SOL     OW25423   1.887   2.203   4.127
 8175SOL    HW125424   1.798   2.191   4.171
 8175SOL    HW225425   1.881   2.174   4.031
 8176SOL     OW25426   3.910   5.870   3.550
 8176SOL    HW125427   3.982   5.803   3.567
 8176SOL    HW225428   3.870   5.854   3.460
 8177SOL     OW25429   1.514   6.483   5.855
 8177SOL    HW125430   1.586   6.492   5.924
 8177SOL    HW225431   1.461   6.400   5.873
 8178SOL     OW25432   2.360   6.904   5.548
 8178SOL    HW125433   2.276   6.927   5.498
 8178SOL    HW225434   2.421   6.851   5.489
 8179SOL     OW25435   3.921   0.460   0.462
 8179SOL    HW125436   4.003   0.462   0.520
 8179SOL    HW225437   3.948   0.466   0.366
 8180SOL     OW25438   4.839   4.191   5.314
 8180SOL    HW125439   4.867   4.241   5.396
 8180SOL    HW225440   4.739   4.191   5.307
 8181SOL     OW25441   2.447   2.362   2.290
 8181SOL    HW125442   2.370   2.397   2.343
 8181SOL    HW225443   2.439   2.262   2.281
 8182SOL     OW25444   5.545   2.881   5.889
 8182SOL    HW125445   5.607   2.826   5.946
 8182SOL    HW225446   5.566   2.865   5.793
 8183SOL     OW25447   2.295   2.919   3.424
 8183SOL    HW125448   2.208   2.872   3.440
 8183SOL    HW225449   2.370   2.861   3.454
 8184SOL     OW25450   6.012   6.042   4.402
 8184SOL    HW125451   5.953   6.090   4.337
 8184SOL    HW225452   5.958   6.010   4.480
 8185SOL     OW25453   1.461   2.043   3.375
 8185SOL    HW125454   1.545   2.081   3.415
 8185SOL    HW225455   1.407   2.117   3.335
 8186SOL     OW25456   4.180   4.066   6.903
 8186SOL    HW125457   4.107   4.122   6.942
 8186SOL    HW225458   4.185   4.081   6.804
 8187SOL     OW25459   2.066   1.700   5.856
 8187SOL    HW125460   2.126   1.669   5.929
 8187SOL    HW225461   2.120   1.745   5.784
 8188SOL     OW25462   5.007   2.661   2.275
 8188SOL    HW125463   4.912   2.685   2.257
 8188SOL    HW225464   5.033   2.692   2.367
 8189SOL     OW25465   6.623   5.305   2.732
 8189SOL    HW125466   6.542   5.289   2.789
 8189SOL    HW225467   6.680   5.223   2.731
 8190SOL     OW25468   6.197   3.563   2.325
 8190SOL    HW125469   6.279   3.593   2.372
 8190SOL    HW225470   6.118   3.616   2.357
 8191SOL     OW25471   6.092   5.218   1.714
 8191SOL    HW125472   6.091   5.283   1.790
 8191SOL    HW225473   6.102   5.126   1.750
 8192SOL     OW25474   1.303   2.692   0.865
 8192SOL    HW125475   1.234   2.625   0.837
 8192SOL    HW225476   1.377   2.692   0.798
 8193SOL     OW25477   3.875   6.782   5.731
 8193SOL    HW125478   3.878   6.871   5.683
 8193SOL    HW225479   3.940   6.720   5.689
 8194SOL     OW25480   2.031   0.836   2.506
 8194SOL    HW125481   1.967   0.908   2.533
 8194SOL    HW225482   2.123   0.861   2.535
 8195SOL     OW25483   5.580   1.419   1.490
 8195SOL    HW125484   5.612   1.364   1.413
 8195SOL    HW225485   5.482   1.406   1.501
 8196SOL     OW25486   1.809   0.912   0.442
 8196SOL    HW125487   1.715   0.911   0.477
 8196SOL    HW225488   1.812   0.966   0.358
 8197SOL     OW25489   0.650   0.177   0.743
 8197SOL    HW125490   0.732   0.139   0.700
 8197SOL    HW225491   0.639   0.272   0.715
 8198SOL     OW25492   3.552   0.528   2.876
 8198SOL    HW125493   3.480   0.596   2.889
 8198SOL    HW225494   3.629   0.548   2.937
 8199SOL     OW25495   5.688   4.646   1.367
 8199SOL    HW125496   5.752   4.624   1.293
 8199SOL    HW225497   5.641   4.563   1.397
 8200SOL     OW25498   4.248   3.251   1.668
 8200SOL    HW125499   4.340   3.221   1.693
 8200SOL    HW225500   4.253   3.309   1.586
 8201SOL     OW25501   0.409   1.015   5.631
 8201SOL    HW125502   0.381   1.083   5.564
 8201SOL    HW225503   0.462   0.942   5.586
 8202SOL     OW25504   1.743   3.948   4.705
 8202SOL    HW125505   1.821   3.997   4.744
 8202SOL    HW225506   1.729   3.977   4.611
 8203SOL     OW25507   6.000   4.231   0.030
 8203SOL    HW125508   6.082   4.176   0.027
 8203SOL    HW225509   5.992   4.283   6.974
 8204SOL     OW25510   3.298   0.546   0.737
 8204SOL    HW125511   3.298   0.577   0.642
 8204SOL    HW225512   3.225   0.480   0.751
 8205SOL     OW25513   4.567   6.652   3.569
 8205SOL    HW125514   4.504   6.726   3.592
 8205SOL    HW225515   4.621   6.679   3.489
 8206SOL     OW25516   3.501   1.776   5.059
 8206SOL    HW125517   3.535   1.682   5.058
 8206SOL    HW225518   3.556   1.830   5.123
 8207SOL     OW25519   2.924   5.731   6.727
 8207SOL    HW125520   2.881   5.673   6.657
 8207SOL    HW225521   2.852   5.775   6.782
 8208SOL     OW25522   1.971   6.354   0.062
 8208SOL    HW125523   1.949   6.407   7.009
 8208SOL    HW225524   1.956   6.411   0.143
 8209SOL     OW25525   0.685   5.441   5.166
 8209SOL    HW125526   0.761   5.491   5.124
 8209SOL    HW225527   0.646   5.379   5.099
 8210SOL     OW25528   2.386   1.448   0.020
 8210SOL    HW125529   2.468   1.470   0.072
 8210SOL    HW225530   2.306   1.454   0.079
 8211SOL     OW25531   3.707   4.049   3.228
 8211SOL    HW125532   3.786   4.000   3.265
 8211SOL    HW225533   3.659   4.096   3.302
 8212SOL     OW25534   4.331   4.832   6.736
 8212SOL    HW125535   4.430   4.847   6.731
 8212SOL    HW225536   4.284   4.920   6.733
 8213SOL     OW25537   4.670   4.328   1.781
 8213SOL    HW125538   4.577   4.297   1.802
 8213SOL    HW225539   4.685   4.419   1.820
 8214SOL     OW25540   4.003   5.282   3.849
 8214SOL    HW125541   3.945   5.213   3.805
 8214SOL    HW225542   3.993   5.369   3.801
 8215SOL     OW25543   2.605   6.462   6.224
 8215SOL    HW125544   2.531   6.396   6.209
 8215SOL    HW225545   2.692   6.414   6.231
 8216SOL     OW25546   5.051   5.624   0.872
 8216SOL    HW125547   5.013   5.568   0.946
 8216SOL    HW225548   5.018   5.717   0.880
 8217SOL     OW25549   3.520   6.577   3.835
 8217SOL    HW125550   3.458   6.521   3.778
 8217SOL    HW225551   3.467   6.622   3.907
 8218SOL     OW25552   1.822   6.635   4.155
 8218SOL    HW125553   1.802   6.667   4.063
 8218SOL    HW225554   1.905   6.578   4.154
 8219SOL     OW25555   3.740   3.487   3.249
 8219SOL    HW125556   3.815   3.461   3.310
 8219SOL    HW225557   3.767   3.470   3.154
 8220SOL     OW25558   4.065   4.271   5.624
 8220SOL    HW125559   4.057   4.247   5.527
 8220SOL    HW225560   4.056   4.370   5.635
 8221SOL     OW25561   6.388   3.867   4.010
 8221SOL    HW125562   6.477   3.838   3.975
 8221SOL    HW225563   6.377   3.965   3.996
 8222SOL     OW25564   5.552   2.112   6.258
 8222SOL    HW125565   5.610   2.047   6.306
 8222SOL    HW225566   5.530   2.075   6.167
 8223SOL     OW25567   1.425   6.564   5.613
 8223SOL    HW125568   1.403   6.505   5.535
 8223SOL    HW225569   1.454   6.508   5.690
 8224SOL     OW25570   5.564   1.050   5.948
 8224SOL    HW125571   5.542   1.140   5.911
 8224SOL    HW225572   5.481   0.995   5.954
 8225SOL     OW25573   5.917   2.636   0.137
 8225SOL    HW125574   5.852   2.698   0.092
 8225SOL    HW225575   5.971   2.589   0.068
 8226SOL     OW25576   3.729   1.321   6.816
 8226SOL    HW125577   3.765   1.264   6.743
 8226SOL    HW225578   3.689   1.404   6.777
 8227SOL     OW25579   4.946   3.198   2.806
 8227SOL    HW125580   4.977   3.172   2.715
 8227SOL    HW225581   5.019   3.181   2.872
 8228SOL     OW25582   3.046   1.475   4.790
 8228SOL    HW125583   3.100   1.441   4.713
 8228SOL    HW225584   3.106   1.491   4.868
 8229SOL     OW25585   4.219   4.893   1.102
 8229SOL    HW125586   4.235   4.826   1.030
 8229SOL    HW225587   4.180   4.976   1.062
 8230SOL     OW25588   6.200   1.049   6.189
 8230SOL    HW125589   6.274   1.053   6.257
 8230SOL    HW225590   6.196   1.135   6.139
 8231SOL     OW25591   3.327   1.486   2.356
 8231SOL    HW125592   3.349   1.467   2.261
 8231SOL    HW225593   3.268   1.567   2.361
 8232SOL     OW25594   4.227   6.700   3.322
 8232SOL    HW125595   4.261   6.634   3.255
 8232SOL    HW225596   4.240   6.793   3.287
 8233SOL     OW25597   2.310   1.389   6.671
 8233SOL    HW125598   2.304   1.433   6.760
 8233SOL    HW225599   2.231   1.417   6.615
 8234SOL     OW25600   1.350   2.686   0.115
 8234SOL    HW125601   1.387   2.721   0.028
 8234SOL    HW225602   1.284   2.752   0.152
 8235SOL     OW25603   0.523   6.894   1.168
 8235SOL    HW125604   0.582   6.913   1.247
 8235SOL    HW225605   0.461   6.819   1.190
 8236SOL     OW25606   1.091   0.007   1.138
 8236SOL    HW125607   1.007   7.011   1.090
 8236SOL    HW225608   1.075   0.090   1.191
 8237SOL     OW25609   4.169   5.457   5.395
 8237SOL    HW125610   4.114   5.425   5.318
 8237SOL    HW225611   4.255   5.495   5.360
 8238SOL     OW25612   6.879   5.263   0.217
 8238SOL    HW125613   6.783   5.271   0.244
 8238SOL    HW225614   6.938   5.290   0.293
 8239SOL     OW25615   4.454   2.035   5.262
 8239SOL    HW125616   4.405   2.017   5.347
 8239SOL    HW225617   4.469   1.949   5.213
 8240SOL     OW25618   3.562   3.659   4.995
 8240SOL    HW125619   3.495   3.694   4.930
 8240SOL    HW225620   3.583   3.730   5.063
 8241SOL     OW25621   1.186   2.939   5.511
 8241SOL    HW125622   1.122   2.907   5.581
 8241SOL    HW225623   1.270   2.972   5.555
 8242SOL     OW25624   0.311   2.525   3.202
 8242SOL    HW125625   0.394   2.489   3.159
 8242SOL    HW225626   0.303   2.622   3.181
 8243SOL     OW25627   1.308   6.674   3.245
 8243SOL    HW125628   1.241   6.748   3.247
 8243SOL    HW225629   1.271   6.597   3.193
 8244SOL     OW25630   5.788   0.726   3.630
 8244SOL    HW125631   5.814   0.790   3.557
 8244SOL    HW225632   5.769   0.777   3.714
 8245SOL     OW25633   5.125   3.274   1.936
 8245SOL    HW125634   5.147   3.177   1.928
 8245SOL    HW225635   5.069   3.289   2.018
 8246SOL     OW25636   1.928   4.562   6.389
 8246SOL    HW125637   1.982   4.480   6.374
 8246SOL    HW225638   1.947   4.629   6.317
 8247SOL     OW25639   2.253   4.940   3.402
 8247SOL    HW125640   2.224   5.026   3.444
 8247SOL    HW225641   2.262   4.870   3.472
 8248SOL     OW25642   0.128   6.037   2.662
 8248SOL    HW125643   0.209   6.096   2.666
 8248SOL    HW225644   0.122   5.982   2.745
 8249SOL     OW25645   3.291   0.856   6.341
 8249SOL    HW125646   3.238   0.939   6.358
 8249SOL    HW225647   3.276   0.792   6.416
 8250SOL     OW25648   1.442   1.749   6.921
 8250SOL    HW125649   1.509   1.791   6.983
 8250SOL    HW225650   1.350   1.762   6.958
 8251SOL     OW25651   1.225   2.065   5.784
 8251SOL    HW125652   1.228   1.970   5.753
 8251SOL    HW225653   1.233   2.067   5.884
 8252SOL     OW25654   0.631   2.165   6.787
 8252SOL    HW125655   0.603   2.185   6.881
 8252SOL    HW225656   0.705   2.226   6.761
 8253SOL     OW25657   6.025   4.780   6.068
 8253SOL    HW125658   6.047   4.793   5.971
 8253SOL    HW225659   6.013   4.870   6.111
 8254SOL     OW25660   5.327   4.901   6.862
 8254SOL    HW125661   5.415   4.924   6.904
 8254SOL    HW225662   5.253   4.951   6.909
 8255SOL     OW25663   1.420   0.177   5.427
 8255SOL    HW125664   1.509   0.199   5.467
 8255SOL    HW225665   1.386   0.255   5.375
 8256SOL     OW25666   1.307   5.780   3.053
 8256SOL    HW125667   1.390   5.725   3.037
 8256SOL    HW225668   1.297   5.846   2.979
 8257SOL     OW25669   4.939   3.674   3.629
 8257SOL    HW125670   4.872   3.663   3.556
 8257SOL    HW225671   5.024   3.712   3.591
 8258SOL     OW25672   0.674   3.407   3.740
 8258SOL    HW125673   0.591   3.352   3.737
 8258SOL    HW225674   0.754   3.348   3.732
 8259SOL     OW25675   5.510   2.672   4.164
 8259SOL    HW125676   5.582   2.713   4.220
 8259SOL    HW225677   5.443   2.742   4.139
 8260SOL     OW25678   4.776   2.108   6.557
 8260SOL    HW125679   4.811   2.199   6.534
 8260SOL    HW225680   4.678   2.115   6.578
 8261SOL     OW25681   6.078   2.229   2.925
 8261SOL    HW125682   6.106   2.142   2.884
 8261SOL    HW225683   6.003   2.212   2.989
 8262SOL     OW25684   4.788   4.186   2.022
 8262SOL    HW125685   4.863   4.160   1.961
 8262SOL    HW225686   4.715   4.229   1.969
 8263SOL     OW25687   6.288   1.641   0.003
 8263SOL    HW125688   6.215   1.695   6.991
 8263SOL    HW225689   6.272   1.544   7.015
 8264SOL     OW25690   3.205   0.625   1.622
 8264SOL    HW125691   3.221   0.596   1.528
 8264SOL    HW225692   3.146   0.706   1.623
 8265SOL     OW25693   4.325   5.641   0.306
 8265SOL    HW125694   4.420   5.669   0.319
 8265SOL    HW225695   4.316   5.593   0.219
 8266SOL     OW25696   3.930   2.097   3.195
 8266SOL    HW125697   3.901   2.013   3.149
 8266SOL    HW225698   3.986   2.152   3.133
 8267SOL     OW25699   1.909   3.067   3.322
 8267SOL    HW125700   1.815   3.095   3.307
 8267SOL    HW225701   1.968   3.108   3.251
 8268SOL     OW25702   2.430   5.176   1.344
 8268SOL    HW125703   2.439   5.110   1.269
 8268SOL    HW225704   2.340   5.219   1.339
 8269SOL     OW25705   6.773   1.679   4.548
 8269SOL    HW125706   6.742   1.664   4.454
 8269SOL    HW225707   6.774   1.778   4.567
 8270SOL     OW25708   3.391   4.569   0.003
 8270SOL    HW125709   3.301   4.612   7.026
 8270SOL    HW225710   3.439   4.578   6.945
 8271SOL     OW25711   3.633   7.005   5.480
 8271SOL    HW125712   3.602   6.912   5.500
 8271SOL    HW225713   3.675   0.014   5.562
 8272SOL     OW25714   1.166   0.537   2.032
 8272SOL    HW125715   1.086   0.594   2.009
 8272SOL    HW225716   1.218   0.581   2.105
 8273SOL     OW25717   4.284   6.688   5.975
 8273SOL    HW125718   4.295   6.627   6.053
 8273SOL    HW225719   4.213   6.652   5.914
 8274SOL     OW25720   5.577   6.555   3.905
 8274SOL    HW125721   5.633   6.479   3.872
 8274SOL    HW225722   5.505   6.520   3.965
 8275SOL     OW25723   4.963   0.634   5.239
 8275SOL    HW125724   4.896   0.605   5.170
 8275SOL    HW225725   5.041   0.677   5.193
 8276SOL     OW25726   5.637   2.804   1.006
 8276SOL    HW125727   5.700   2.874   1.040
 8276SOL    HW225728   5.684   2.716   1.003
 8277SOL     OW25729   1.528   0.012   1.393
 8277SOL    HW125730   1.445   0.059   1.363
 8277SOL    HW225731   1.594   0.079   1.426
 8278SOL     OW25732   1.405   1.018   1.065
 8278SOL    HW125733   1.376   0.947   1.000
 8278SOL    HW225734   1.325   1.065   1.102
 8279SOL     OW25735   5.599   5.359   5.598
 8279SOL    HW125736   5.640   5.339   5.687
 8279SOL    HW225737   5.595   5.458   5.584
 8280SOL     OW25738   5.810   4.182   6.775
 8280SOL    HW125739   5.733   4.245   6.784
 8280SOL    HW225740   5.775   4.090   6.753
 8281SOL     OW25741   3.584   4.628   6.354
 8281SOL    HW125742   3.509   4.568   6.378
 8281SOL    HW225743   3.671   4.581   6.370
 8282SOL     OW25744   4.304   2.850   0.801
 8282SOL    HW125745   4.232   2.781   0.791
 8282SOL    HW225746   4.343   2.871   0.712
 8283SOL     OW25747   0.349   0.226   3.011
 8283SOL    HW125748   0.361   0.148   2.951
 8283SOL    HW225749   0.381   0.309   2.965
 8284SOL     OW25750   5.310   2.030   1.752
 8284SOL    HW125751   5.390   1.980   1.785
 8284SOL    HW225752   5.228   1.976   1.769
 8285SOL     OW25753   0.474   4.160   0.690
 8285SOL    HW125754   0.520   4.075   0.716
 8285SOL    HW225755   0.524   4.203   0.615
 8286SOL     OW25756   6.064   2.050   6.687
 8286SOL    HW125757   6.120   1.980   6.643
 8286SOL    HW225758   5.986   2.007   6.732
 8287SOL     OW25759   0.241   0.576   3.475
 8287SOL    HW125760   0.298   0.514   3.421
 8287SOL    HW225761   0.146   0.567   3.446
 8288SOL     OW25762   2.780   0.469   2.174
 8288SOL    HW125763   2.731   0.412   2.240
 8288SOL    HW225764   2.820   0.411   2.103
 8289SOL     OW25765   5.972   6.879   6.959
 8289SOL    HW125766   5.894   6.822   6.985
 8289SOL    HW225767   6.055   6.841   7.000
 8290SOL     OW25768   4.854   2.697   1.768
 8290SOL    HW125769   4.772   2.678   1.822
 8290SOL    HW225770   4.855   2.638   1.687
 8291SOL     OW25771   5.045   5.665   6.135
 8291SOL    HW125772   4.963   5.666   6.077
 8291SOL    HW225773   5.023   5.703   6.224
 8292SOL     OW25774   0.072   3.815   5.168
 8292SOL    HW125775   7.003   3.802   5.167
 8292SOL    HW225776   0.101   3.850   5.257
 8293SOL     OW25777   2.607   5.374   4.207
 8293SOL    HW125778   2.699   5.404   4.232
 8293SOL    HW225779   2.609   5.277   4.185
 8294SOL     OW25780   6.852   3.561   6.063
 8294SOL    HW125781   6.930   3.566   5.999
 8294SOL    HW225782   6.779   3.621   6.031
 8295SOL     OW25783   4.118   5.173   2.165
 8295SOL    HW125784   4.024   5.205   2.163
 8295SOL    HW225785   4.159   5.193   2.254
 8296SOL     OW25786   3.805   0.148   2.449
 8296SOL    HW125787   3.873   0.134   2.377
 8296SOL    HW225788   3.847   0.199   2.524
 8297SOL     OW25789   5.654   4.433   2.058
 8297SOL    HW125790   5.691   4.380   2.134
 8297SOL    HW225791   5.619   4.371   1.988
 8298SOL     OW25792   6.838   7.004   1.319
 8298SOL    HW125793   6.922   0.022   1.295
 8298SOL    HW225794   6.803   6.955   1.238
 8299SOL     OW25795   1.092   2.813   6.285
 8299SOL    HW125796   0.996   2.835   6.268
 8299SOL    HW225797   1.130   2.879   6.350
 8300SOL     OW25798   5.372   5.462   3.997
 8300SOL    HW125799   5.298   5.401   3.966
 8300SOL    HW225800   5.336   5.554   4.008
 8301SOL     OW25801   6.502   5.571   0.437
 8301SOL    HW125802   6.413   5.543   0.471
 8301SOL    HW225803   6.539   5.644   0.495
 8302SOL     OW25804   3.469   6.941   5.853
 8302SOL    HW125805   3.549   6.930   5.912
 8302SOL    HW225806   3.393   6.886   5.890
 8303SOL     OW25807   1.667   5.065   3.873
 8303SOL    HW125808   1.706   4.974   3.865
 8303SOL    HW225809   1.662   5.108   3.783
 8304SOL     OW25810   6.047   2.757   3.668
 8304SOL    HW125811   5.971   2.810   3.630
 8304SOL    HW225812   6.011   2.683   3.724
 8305SOL     OW25813   4.497   6.893   5.416
 8305SOL    HW125814   4.590   6.881   5.380
 8305SOL    HW225815   4.499   6.886   5.516
 8306SOL     OW25816   4.719   0.959   3.922
 8306SOL    HW125817   4.767   1.038   3.884
 8306SOL    HW225818   4.780   0.879   3.923
 8307SOL     OW25819   6.952   5.017   4.128
 8307SOL    HW125820   0.012   5.035   4.087
 8307SOL    HW225821   6.904   5.103   4.142
 8308SOL     OW25822   1.869   5.695   0.267
 8308SOL    HW125823   1.899   5.644   0.186
 8308SOL    HW225824   1.828   5.632   0.333
 8309SOL     OW25825   6.280   4.498   2.896
 8309SOL    HW125826   6.265   4.565   2.824
 8309SOL    HW225827   6.234   4.412   2.873
 8310SOL     OW25828   2.101   6.641   2.699
 8310SOL    HW125829   2.124   6.733   2.728
 8310SOL    HW225830   2.095   6.581   2.779
 8311SOL     OW25831   4.727   5.917   1.755
 8311SOL    HW125832   4.809   5.933   1.809
 8311SOL    HW225833   4.646   5.929   1.813
 8312SOL     OW25834   6.826   1.771   0.567
 8312SOL    HW125835   6.916   1.729   0.567
 8312SOL    HW225836   6.765   1.719   0.508
 8313SOL     OW25837   4.869   2.778   5.838
 8313SOL    HW125838   4.954   2.798   5.886
 8313SOL    HW225839   4.853   2.679   5.837
 8314SOL     OW25840   4.174   5.788   4.232
 8314SOL    HW125841   4.143   5.752   4.320
 8314SOL    HW225842   4.269   5.763   4.218
 8315SOL     OW25843   2.958   2.788   6.662
 8315SOL    HW125844   2.940   2.691   6.645
 8315SOL    HW225845   3.048   2.812   6.628
 8316SOL     OW25846   1.594   1.303   4.878
 8316SOL    HW125847   1.611   1.397   4.908
 8316SOL    HW225848   1.646   1.240   4.936
 8317SOL     OW25849   1.223   1.783   5.744
 8317SOL    HW125850   1.155   1.719   5.709
 8317SOL    HW225851   1.309   1.770   5.694
 8318SOL     OW25852   4.773   6.561   5.702
 8318SOL    HW125853   4.804   6.505   5.778
 8318SOL    HW225854   4.810   6.654   5.711
 8319SOL     OW25855   2.695   5.873   6.810
 8319SOL    HW125856   2.654   5.785   6.834
 8319SOL    HW225857   2.630   5.947   6.832
 8320SOL     OW25858   3.898   4.850   5.584
 8320SOL    HW125859   3.848   4.936   5.574
 8320SOL    HW225860   3.995   4.870   5.602
 8321SOL     OW25861   0.385   0.842   0.869
 8321SOL    HW125862   0.449   0.878   0.936
 8321SOL    HW225863   0.291   0.858   0.900
 8322SOL     OW25864   1.981   1.212   1.179
 8322SOL    HW125865   1.907   1.249   1.236
 8322SOL    HW225866   2.022   1.286   1.126
 8323SOL     OW25867   5.885   4.991   0.129
 8323SOL    HW125868   5.900   4.897   0.158
 8323SOL    HW225869   5.880   5.051   0.209
 8324SOL     OW25870   5.377   6.672   6.168
 8324SOL    HW125871   5.388   6.628   6.257
 8324SOL    HW225872   5.370   6.602   6.097
 8325SOL     OW25873   1.198   6.515   4.623
 8325SOL    HW125874   1.250   6.601   4.621
 8325SOL    HW225875   1.231   6.455   4.550
 8326SOL     OW25876   2.252   2.347   6.677
 8326SOL    HW125877   2.169   2.323   6.726
 8326SOL    HW225878   2.302   2.263   6.655
 8327SOL     OW25879   0.811   5.995   4.602
 8327SOL    HW125880   0.850   6.023   4.690
 8327SOL    HW225881   0.866   6.035   4.527
 8328SOL     OW25882   0.917   6.682   1.020
 8328SOL    HW125883   0.880   6.590   1.014
 8328SOL    HW225884   0.904   6.717   1.113
 8329SOL     OW25885   1.567   2.565   5.201
 8329SOL    HW125886   1.505   2.641   5.180
 8329SOL    HW225887   1.646   2.569   5.139
 8330SOL     OW25888   3.121   0.048   0.146
 8330SOL    HW125889   3.031   0.081   0.120
 8330SOL    HW225890   3.114   7.022   0.228
 8331SOL     OW25891   2.176   2.650   5.831
 8331SOL    HW125892   2.169   2.749   5.817
 8331SOL    HW225893   2.118   2.603   5.765
 8332SOL     OW25894   5.861   3.756   1.080
 8332SOL    HW125895   5.880   3.853   1.072
 8332SOL    HW225896   5.907   3.706   1.006
 8333SOL     OW25897   3.110   4.623   6.373
 8333SOL    HW125898   3.127   4.642   6.276
 8333SOL    HW225899   3.188   4.574   6.411
 8334SOL     OW25900   3.480   2.470   5.396
 8334SOL    HW125901   3.460   2.494   5.491
 8334SOL    HW225902   3.446   2.379   5.376
 8335SOL     OW25903   5.440   4.094   5.986
 8335SOL    HW125904   5.478   4.009   5.947
 8335SOL    HW225905   5.510   4.139   6.042
 8336SOL     OW25906   1.070   4.334   3.295
 8336SOL    HW125907   1.060   4.290   3.206
 8336SOL    HW225908   1.023   4.279   3.365
 8337SOL     OW25909   6.700   0.906   4.402
 8337SOL    HW125910   6.728   0.813   4.379
 8337SOL    HW225911   6.628   0.904   4.470
 8338SOL     OW25912   2.275   6.000   1.022
 8338SOL    HW125913   2.244   6.084   1.067
 8338SOL    HW225914   2.240   5.998   0.928
 8339SOL     OW25915   6.344   0.777   1.762
 8339SOL    HW125916   6.294   0.722   1.828
 8339SOL    HW225917   6.389   0.853   1.809
 8340SOL     OW25918   5.838   2.618   6.670
 8340SOL    HW125919   5.782   2.542   6.702
 8340SOL    HW225920   5.935   2.594   6.676
 8341SOL     OW25921   3.550   0.407   1.111
 8341SOL    HW125922   3.492   0.475   1.067
 8341SOL    HW225923   3.618   0.453   1.168
 8342SOL     OW25924   4.618   1.039   0.943
 8342SOL    HW125925   4.692   0.980   0.976
 8342SOL    HW225926   4.531   0.991   0.952
 8343SOL     OW25927   5.155   5.930   2.897
 8343SOL    HW125928   5.191   5.836   2.901
 8343SOL    HW225929   5.056   5.927   2.884
 8344SOL     OW25930   2.337   4.708   6.046
 8344SOL    HW125931   2.436   4.712   6.037
 8344SOL    HW225932   2.312   4.676   6.137
 8345SOL     OW25933   6.555   0.524   3.801
 8345SOL    HW125934   6.466   0.479   3.798
 8345SOL    HW225935   6.621   0.471   3.747
 8346SOL     OW25936   5.838   3.851   3.935
 8346SOL    HW125937   5.930   3.835   3.900
 8346SOL    HW225938   5.823   3.950   3.946
 8347SOL     OW25939   1.604   1.879   6.182
 8347SOL    HW125940   1.519   1.831   6.163
 8347SOL    HW225941   1.674   1.814   6.212
 8348SOL     OW25942   3.103   5.889   1.186
 8348SOL    HW125943   3.031   5.892   1.255
 8348SOL    HW225944   3.112   5.979   1.143
 8349SOL     OW25945   4.778   5.377   1.620
 8349SOL    HW125946   4.710   5.348   1.688
 8349SOL    HW225947   4.821   5.462   1.651
 8350SOL     OW25948   1.480   0.220   6.950
 8350SOL    HW125949   1.578   0.200   6.961
 8350SOL    HW225950   1.435   0.144   6.905
 8351SOL     OW25951   6.942   2.967   3.175
 8351SOL    HW125952   6.948   2.924   3.265
 8351SOL    HW225953   6.962   2.899   3.105
 8352SOL     OW25954   2.941   6.539   6.464
 8352SOL    HW125955   2.974   6.610   6.403
 8352SOL    HW225956   2.892   6.580   6.541
 8353SOL     OW25957   0.635   5.746   2.809
 8353SOL    HW125958   0.543   5.768   2.844
 8353SOL    HW225959   0.692   5.713   2.884
 8354SOL     OW25960   4.788   2.154   3.410
 8354SOL    HW125961   4.858   2.224   3.428
 8354SOL    HW225962   4.794   2.125   3.315
 8355SOL     OW25963   3.264   5.345   6.079
 8355SOL    HW125964   3.276   5.396   6.164
 8355SOL    HW225965   3.335   5.371   6.014
 8356SOL     OW25966   2.748   4.242   1.227
 8356SOL    HW125967   2.700   4.326   1.253
 8356SOL    HW225968   2.724   4.218   1.132
 8357SOL     OW25969   3.103   0.107   4.929
 8357SOL    HW125970   3.133   0.125   5.023
 8357SOL    HW225971   3.132   0.016   4.902
 8358SOL     OW25972   0.093   0.038   4.840
 8358SOL    HW125973   0.072   0.056   4.744
 8358SOL    HW225974   0.058   6.978   4.866
 8359SOL     OW25975   4.815   1.917   5.083
 8359SOL    HW125976   4.844   2.010   5.061
 8359SOL    HW225977   4.895   1.860   5.099
 8360SOL     OW25978   3.439   6.767   1.893
 8360SOL    HW125979   3.368   6.759   1.963
 8360SOL    HW225980   3.484   6.678   1.882
 8361SOL     OW25981   5.230   1.093   0.371
 8361SOL    HW125982   5.131   1.089   0.383
 8361SOL    HW225983   5.251   1.145   0.287
 8362SOL     OW25984   0.281   3.799   1.188
 8362SOL    HW125985   0.321   3.811   1.097
 8362SOL    HW225986   0.354   3.790   1.256
 8363SOL     OW25987   1.165   2.235   1.570
 8363SOL    HW125988   1.155   2.322   1.619
 8363SOL    HW225989   1.235   2.245   1.499
 8364SOL     OW25990   7.024   2.097   4.000
 8364SOL    HW125991   0.085   2.135   3.982
 8364SOL    HW225992   7.011   2.015   3.945
 8365SOL     OW25993   1.780   2.537   1.763
 8365SOL    HW125994   1.812   2.461   1.820
 8365SOL    HW225995   1.695   2.574   1.801
 8366SOL     OW25996   5.171   5.872   1.917
 8366SOL    HW125997   5.187   5.789   1.970
 8366SOL    HW225998   5.089   5.918   1.951
 8367SOL     OW25999   1.935   4.338   3.670
 8367SOL    HW126000   2.018   4.389   3.646
 8367SOL    HW226001   1.933   4.252   3.620
 8368SOL     OW26002   0.085   3.749   5.714
 8368SOL    HW126003   0.159   3.753   5.782
 8368SOL    HW226004   0.027   3.670   5.733
 8369SOL     OW26005   1.363   0.004   6.897
 8369SOL    HW126006   1.266   0.014   6.921
 8369SOL    HW226007   1.398   6.948   6.934
 8370SOL     OW26008   2.941   3.248   0.236
 8370SOL    HW126009   2.994   3.212   0.159
 8370SOL    HW226010   2.958   3.192   0.317
 8371SOL     OW26011   3.107   3.999   5.853
 8371SOL    HW126012   3.081   4.096   5.848
 8371SOL    HW226013   3.119   3.973   5.949
 8372SOL     OW26014   1.528   0.243   1.757
 8372SOL    HW126015   1.457   0.177   1.734
 8372SOL    HW226016   1.504   0.332   1.719
 8373SOL     OW26017   5.492   0.979   3.818
 8373SOL    HW126018   5.453   1.061   3.861
 8373SOL    HW226019   5.452   0.897   3.859
 8374SOL     OW26020   1.111   1.705   3.480
 8374SOL    HW126021   1.073   1.646   3.409
 8374SOL    HW226022   1.195   1.665   3.516
 8375SOL     OW26023   1.421   2.069   5.099
 8375SOL    HW126024   1.501   2.124   5.077
 8375SOL    HW226025   1.416   2.054   5.198
 8376SOL     OW26026   0.802   2.073   4.166
 8376SOL    HW126027   0.767   2.012   4.237
 8376SOL    HW226028   0.774   2.167   4.186
 8377SOL     OW26029   3.084   5.280   1.054
 8377SOL    HW126030   3.002   5.255   1.002
 8377SOL    HW226031   3.147   5.329   0.995
 8378SOL     OW26032   4.202   5.197   5.057
 8378SOL    HW126033   4.162   5.123   5.004
 8378SOL    HW226034   4.130   5.247   5.106
 8379SOL     OW26035   6.541   2.537   2.253
 8379SOL    HW126036   6.498   2.615   2.209
 8379SOL    HW226037   6.538   2.548   2.352
 8380SOL     OW26038   1.166   5.864   2.267
 8380SOL    HW126039   1.169   5.964   2.270
 8380SOL    HW226040   1.181   5.827   2.358
 8381SOL     OW26041   1.253   2.139   2.488
 8381SOL    HW126042   1.209   2.053   2.514
 8381SOL    HW226043   1.189   2.215   2.501
 8382SOL     OW26044   0.631   6.732   1.612
 8382SOL    HW126045   0.599   6.656   1.668
 8382SOL    HW226046   0.718   6.766   1.648
 8383SOL     OW26047   2.672   0.018   5.457
 8383SOL    HW126048   2.607   0.025   5.381
 8383SOL    HW226049   2.637   0.067   5.536
 8384SOL     OW26050   0.289   3.405   3.090
 8384SOL    HW126051   0.234   3.328   3.056
 8384SOL    HW226052   0.291   3.477   3.022
 8385SOL     OW26053   4.263   2.327   2.114
 8385SOL    HW126054   4.300   2.379   2.191
 8385SOL    HW226055   4.165   2.345   2.106
 8386SOL     OW26056   0.620   5.546   1.324
 8386SOL    HW126057   0.535   5.503   1.353
 8386SOL    HW226058   0.666   5.585   1.403
 8387SOL     OW26059   0.657   1.617   3.276
 8387SOL    HW126060   0.575   1.598   3.222
 8387SOL    HW226061   0.634   1.621   3.373
 8388SOL     OW26062   3.922   5.384   1.830
 8388SOL    HW126063   3.948   5.288   1.841
 8388SOL    HW226064   3.846   5.392   1.765
 8389SOL     OW26065   1.145   2.894   3.800
 8389SOL    HW126066   1.101   2.824   3.744
 8389SOL    HW226067   1.235   2.863   3.828
 8390SOL     OW26068   3.167   0.671   6.510
 8390SOL    HW126069   3.194   0.598   6.448
 8390SOL    HW226070   3.100   0.731   6.465
 8391SOL     OW26071   4.317   5.968   1.003
 8391SOL    HW126072   4.346   5.872   1.006
 8391SOL    HW226073   4.235   5.977   0.947
 8392SOL     OW26074   4.067   5.420   0.215
 8392SOL    HW126075   4.095   5.394   0.308
 8392SOL    HW226076   4.147   5.432   0.157
 8393SOL     OW26077   0.732   5.719   1.525
 8393SOL    HW126078   0.799   5.793   1.535
 8393SOL    HW226079   0.748   5.649   1.595
 8394SOL     OW26080   1.509   1.432   3.434
 8394SOL    HW126081   1.604   1.449   3.460
 8394SOL    HW226082   1.485   1.338   3.458
 8395SOL     OW26083   1.761   6.264   5.916
 8395SOL    HW126084   1.727   6.259   6.010
 8395SOL    HW226085   1.690   6.232   5.853
 8396SOL     OW26086   4.140   2.339   0.777
 8396SOL    HW126087   4.087   2.423   0.791
 8396SOL    HW226088   4.232   2.351   0.814
 8397SOL     OW26089   1.546   4.649   3.138
 8397SOL    HW126090   1.506   4.657   3.229
 8397SOL    HW226091   1.582   4.556   3.125
 8398SOL     OW26092   5.542   1.732   6.642
 8398SOL    HW126093   5.525   1.804   6.710
 8398SOL    HW226094   5.455   1.707   6.599
 8399SOL     OW26095   5.308   5.925   6.086
 8399SOL    HW126096   5.338   5.951   6.177
 8399SOL    HW226097   5.374   5.859   6.047
 8400SOL     OW26098   6.156   6.541   3.870
 8400SOL    HW126099   6.150   6.499   3.780
 8400SOL    HW226100   6.114   6.632   3.867
 8401SOL     OW26101   2.896   3.688   5.186
 8401SOL    HW126102   2.985   3.689   5.232
 8401SOL    HW226103   2.823   3.688   5.254
 8402SOL     OW26104   5.103   0.339   5.302
 8402SOL    HW126105   5.081   0.246   5.272
 8402SOL    HW226106   5.025   0.399   5.286
 8403SOL     OW26107   0.888   2.058   5.552
 8403SOL    HW126108   0.818   2.121   5.587
 8403SOL    HW226109   0.850   1.966   5.546
 8404SOL     OW26110   4.912   5.344   5.871
 8404SOL    HW126111   4.822   5.301   5.872
 8404SOL    HW226112   4.912   5.419   5.804
 8405SOL     OW26113   1.791   2.557   5.513
 8405SOL    HW126114   1.801   2.647   5.470
 8405SOL    HW226115   1.791   2.486   5.443
 8406SOL     OW26116   5.163   3.760   1.862
 8406SOL    HW126117   5.074   3.779   1.821
 8406SOL    HW226118   5.165   3.797   1.955
 8407SOL     OW26119   4.862   3.720   3.135
 8407SOL    HW126120   4.808   3.683   3.060
 8407SOL    HW226121   4.930   3.784   3.098
 8408SOL     OW26122   4.933   3.564   4.061
 8408SOL    HW126123   4.886   3.513   4.134
 8408SOL    HW226124   4.975   3.646   4.100
 8409SOL     OW26125   1.542   1.306   4.012
 8409SOL    HW126126   1.586   1.382   4.060
 8409SOL    HW226127   1.534   1.328   3.915
 8410SOL     OW26128   2.259   4.590   2.365
 8410SOL    HW126129   2.273   4.561   2.460
 8410SOL    HW226130   2.345   4.583   2.315
 8411SOL     OW26131   1.827   3.623   3.170
 8411SOL    HW126132   1.784   3.700   3.218
 8411SOL    HW226133   1.856   3.653   3.079
 8412SOL     OW26134   6.220   2.733   2.485
 8412SOL    HW126135   6.241   2.831   2.487
 8412SOL    HW226136   6.304   2.682   2.466
 8413SOL     OW26137   2.291   5.270   1.038
 8413SOL    HW126138   2.345   5.347   1.072
 8413SOL    HW226139   2.304   5.261   0.940
 8414SOL     OW26140   6.281   0.779   3.714
 8414SOL    HW126141   6.271   0.734   3.626
 8414SOL    HW226142   6.376   0.807   3.727
 8415SOL     OW26143   6.766   4.759   1.477
 8415SOL    HW126144   6.752   4.781   1.381
 8415SOL    HW226145   6.862   4.772   1.501
 8416SOL     OW26146   4.352   4.967   2.547
 8416SOL    HW126147   4.394   4.966   2.456
 8416SOL    HW226148   4.367   4.878   2.590
 8417SOL     OW26149   1.572   5.798   6.830
 8417SOL    HW126150   1.550   5.702   6.813
 8417SOL    HW226151   1.562   5.818   6.927
 8418SOL     OW26152   5.538   5.783   2.741
 8418SOL    HW126153   5.581   5.874   2.744
 8418SOL    HW226154   5.511   5.762   2.647
 8419SOL     OW26155   4.743   0.257   3.989
 8419SOL    HW126156   4.772   0.325   3.921
 8419SOL    HW226157   4.761   0.166   3.954
 8420SOL     OW26158   3.961   2.324   5.732
 8420SOL    HW126159   3.922   2.233   5.743
 8420SOL    HW226160   4.061   2.317   5.728
 8421SOL     OW26161   0.353   1.096   1.256
 8421SOL    HW126162   0.444   1.136   1.263
 8421SOL    HW226163   0.298   1.121   1.336
 8422SOL     OW26164   3.151   0.189   1.719
 8422SOL    HW126165   3.244   0.170   1.751
 8422SOL    HW226166   3.085   0.140   1.776
 8423SOL     OW26167   2.175   3.568   1.249
 8423SOL    HW126168   2.161   3.472   1.226
 8423SOL    HW226169   2.219   3.614   1.172
 8424SOL     OW26170   2.638   2.396   1.375
 8424SOL    HW126171   2.721   2.412   1.429
 8424SOL    HW226172   2.631   2.466   1.304
 8425SOL     OW26173   0.043   4.676   5.928
 8425SOL    HW126174   6.979   4.645   5.944
 8425SOL    HW226175   0.056   4.765   5.970
 8426SOL     OW26176   3.702   3.127   1.987
 8426SOL    HW126177   3.627   3.061   1.980
 8426SOL    HW226178   3.670   3.217   1.959
 8427SOL     OW26179   1.889   2.367   6.992
 8427SOL    HW126180   1.852   2.394   6.903
 8427SOL    HW226181   1.914   2.448   0.014
 8428SOL     OW26182   6.304   3.809   0.749
 8428SOL    HW126183   6.364   3.849   0.818
 8428SOL    HW226184   6.298   3.710   0.764
 8429SOL     OW26185   2.011   6.609   3.056
 8429SOL    HW126186   1.920   6.620   3.018
 8429SOL    HW226187   2.052   6.524   3.023
 8430SOL     OW26188   4.678   4.859   3.111
 8430SOL    HW126189   4.644   4.841   3.203
 8430SOL    HW226190   4.688   4.957   3.097
 8431SOL     OW26191   3.025   3.402   2.410
 8431SOL    HW126192   3.111   3.415   2.360
 8431SOL    HW226193   3.045   3.377   2.504
 8432SOL     OW26194   4.634   5.939   6.856
 8432SOL    HW126195   4.627   5.841   6.841
 8432SOL    HW226196   4.605   5.961   6.949
 8433SOL     OW26197   0.595   1.083   3.791
 8433SOL    HW126198   0.525   1.066   3.860
 8433SOL    HW226199   0.575   1.169   3.743
 8434SOL     OW26200   5.725   6.668   6.450
 8434SOL    HW126201   5.751   6.669   6.547
 8434SOL    HW226202   5.676   6.752   6.428
 8435SOL     OW26203   4.715   2.123   1.319
 8435SOL    HW126204   4.742   2.097   1.226
 8435SOL    HW226205   4.792   2.110   1.381
 8436SOL     OW26206   3.057   4.284   1.757
 8436SOL    HW126207   3.034   4.374   1.795
 8436SOL    HW226208   3.065   4.292   1.657
 8437SOL     OW26209   0.364   1.916   0.811
 8437SOL    HW126210   0.352   1.901   0.910
 8437SOL    HW226211   0.455   1.885   0.784
 8438SOL     OW26212   2.205   5.578   0.947
 8438SOL    HW126213   2.288   5.633   0.957
 8438SOL    HW226214   2.147   5.618   0.877
 8439SOL     OW26215   5.109   0.759   1.387
 8439SOL    HW126216   5.025   0.751   1.441
 8439SOL    HW226217   5.112   0.684   1.320
 8440SOL     OW26218   0.880   3.109   4.138
 8440SOL    HW126219   0.929   3.104   4.051
 8440SOL    HW226220   0.925   3.176   4.198
 8441SOL     OW26221   4.445   5.963   1.850
 8441SOL    HW126222   4.452   6.016   1.935
 8441SOL    HW226223   4.395   6.016   1.782
 8442SOL     OW26224   2.650   2.564   1.136
 8442SOL    HW126225   2.673   2.541   1.042
 8442SOL    HW226226   2.695   2.649   1.162
 8443SOL     OW26227   0.002   1.596   1.436
 8443SOL    HW126228   0.003   1.499   1.459
 8443SOL    HW226229   7.017   1.607   1.338
 8444SOL     OW26230   4.434   1.625   3.448
 8444SOL    HW126231   4.351   1.595   3.400
 8444SOL    HW226232   4.420   1.718   3.482
 8445SOL     OW26233   4.900   5.533   2.246
 8445SOL    HW126234   4.824   5.480   2.283
 8445SOL    HW226235   4.905   5.622   2.293
 8446SOL     OW26236   6.987   3.428   3.172
 8446SOL    HW126237   6.924   3.411   3.248
 8446SOL    HW226238   7.027   3.342   3.141
 8447SOL     OW26239   4.446   4.327   1.331
 8447SOL    HW126240   4.349   4.318   1.354
 8447SOL    HW226241   4.474   4.248   1.277
 8448SOL     OW26242   1.722   4.278   5.814
 8448SOL    HW126243   1.764   4.244   5.730
 8448SOL    HW226244   1.749   4.374   5.828
 8449SOL     OW26245   1.144   0.757   5.034
 8449SOL    HW126246   1.179   0.776   4.943
 8449SOL    HW226247   1.046   0.777   5.037
 8450SOL     OW26248   2.051   5.761   0.791
 8450SOL    HW126249   1.981   5.767   0.720
 8450SOL    HW226250   2.007   5.760   0.881
 8451SOL     OW26251   2.953   3.506   0.642
 8451SOL    HW126252   2.866   3.554   0.650
 8451SOL    HW226253   2.938   3.407   0.643
 8452SOL     OW26254   0.051   5.931   1.096
 8452SOL    HW126255   7.016   6.005   1.108
 8452SOL    HW226256   0.024   5.875   1.018
 8453SOL     OW26257   6.818   4.932   5.070
 8453SOL    HW126258   6.739   4.871   5.081
 8453SOL    HW226259   6.796   5.003   5.004
 8454SOL     OW26260   2.085   0.019   4.804
 8454SOL    HW126261   2.082   6.957   4.844
 8454SOL    HW226262   2.145   0.019   4.724
 8455SOL     OW26263   5.824   2.350   0.769
 8455SOL    HW126264   5.839   2.261   0.812
 8455SOL    HW226265   5.874   2.420   0.819
 8456SOL     OW26266   5.423   4.787   3.539
 8456SOL    HW126267   5.418   4.881   3.573
 8456SOL    HW226268   5.515   4.769   3.503
 8457SOL     OW26269   6.738   6.079   5.601
 8457SOL    HW126270   6.742   6.010   5.529
 8457SOL    HW226271   6.643   6.095   5.627
 8458SOL     OW26272   1.366   1.782   1.053
 8458SOL    HW126273   1.364   1.714   0.980
 8458SOL    HW226274   1.295   1.850   1.037
 8459SOL     OW26275   2.433   5.234   3.539
 8459SOL    HW126276   2.418   5.332   3.552
 8459SOL    HW226277   2.443   5.191   3.629
 8460SOL     OW26278   3.826   1.458   1.383
 8460SOL    HW126279   3.902   1.408   1.424
 8460SOL    HW226280   3.744   1.448   1.440
 8461SOL     OW26281   5.422   3.762   3.412
 8461SOL    HW126282   5.402   3.795   3.320
 8461SOL    HW226283   5.363   3.808   3.478
 8462SOL     OW26284   1.410   4.158   0.869
 8462SOL    HW126285   1.493   4.104   0.857
 8462SOL    HW226286   1.370   4.177   0.779
 8463SOL     OW26287   0.049   0.080   1.268
 8463SOL    HW126288   0.048   0.131   1.182
 8463SOL    HW226289   0.100   7.025   1.254
 8464SOL     OW26290   6.476   3.348   6.697
 8464SOL    HW126291   6.545   3.299   6.750
 8464SOL    HW226292   6.465   3.305   6.608
 8465SOL     OW26293   4.701   3.603   1.007
 8465SOL    HW126294   4.639   3.525   1.023
 8465SOL    HW226295   4.670   3.654   0.927
 8466SOL     OW26296   0.537   1.252   5.536
 8466SOL    HW126297   0.637   1.248   5.533
 8466SOL    HW226298   0.499   1.186   5.471
 8467SOL     OW26299   3.037   1.276   1.101
 8467SOL    HW126300   3.084   1.326   1.174
 8467SOL    HW226301   3.026   1.335   1.021
 8468SOL     OW26302   5.400   4.159   0.650
 8468SOL    HW126303   5.398   4.192   0.556
 8468SOL    HW226304   5.404   4.059   0.650
 8469SOL     OW26305   4.170   3.226   5.246
 8469SOL    HW126306   4.122   3.146   5.209
 8469SOL    HW226307   4.260   3.197   5.280
 8470SOL     OW26308   1.320   6.137   1.745
 8470SOL    HW126309   1.281   6.144   1.837
 8470SOL    HW226310   1.363   6.224   1.721
 8471SOL     OW26311   4.389   1.407   4.178
 8471SOL    HW126312   4.351   1.370   4.093
 8471SOL    HW226313   4.323   1.468   4.221
 8472SOL     OW26314   5.505   1.526   6.426
 8472SOL    HW126315   5.570   1.602   6.418
 8472SOL    HW226316   5.435   1.535   6.356
 8473SOL     OW26317   5.454   5.155   5.855
 8473SOL    HW126318   5.428   5.196   5.767
 8473SOL    HW226319   5.397   5.194   5.927
 8474SOL     OW26320   2.977   3.917   4.984
 8474SOL    HW126321   3.016   3.995   5.034
 8474SOL    HW226322   2.924   3.860   5.047
 8475SOL     OW26323   0.057   1.533   3.001
 8475SOL    HW126324   0.103   1.445   3.015
 8475SOL    HW226325   0.092   1.576   2.917
 8476SOL     OW26326   6.040   1.298   1.654
 8476SOL    HW126327   6.000   1.207   1.667
 8476SOL    HW226328   6.104   1.317   1.729
 8477SOL     OW26329   5.631   0.947   0.595
 8477SOL    HW126330   5.619   0.912   0.688
 8477SOL    HW226331   5.710   1.008   0.592
 8478SOL     OW26332   0.931   6.366   6.145
 8478SOL    HW126333   0.999   6.438   6.135
 8478SOL    HW226334   0.977   6.279   6.163
 8479SOL     OW26335   1.170   2.520   0.223
 8479SOL    HW126336   1.103   2.582   0.266
 8479SOL    HW226337   1.247   2.574   0.187
 8480SOL     OW26338   3.048   4.264   0.879
 8480SOL    HW126339   3.125   4.278   0.817
 8480SOL    HW226340   3.009   4.353   0.904
 8481SOL     OW26341   4.704   2.590   2.897
 8481SOL    HW126342   4.707   2.613   2.800
 8481SOL    HW226343   4.744   2.664   2.950
 8482SOL     OW26344   4.434   0.384   6.502
 8482SOL    HW126345   4.436   0.386   6.402
 8482SOL    HW226346   4.416   0.476   6.536
 8483SOL     OW26347   4.098   4.778   3.692
 8483SOL    HW126348   4.059   4.814   3.607
 8483SOL    HW226349   4.177   4.721   3.671
 8484SOL     OW26350   6.457   6.205   5.445
 8484SOL    HW126351   6.470   6.171   5.351
 8484SOL    HW226352   6.450   6.128   5.508
 8485SOL     OW26353   4.268   0.627   6.028
 8485SOL    HW126354   4.196   0.653   5.964
 8485SOL    HW226355   4.257   0.678   6.113
 8486SOL     OW26356   5.752   2.469   4.753
 8486SOL    HW126357   5.770   2.479   4.655
 8486SOL    HW226358   5.831   2.425   4.797
 8487SOL     OW26359   6.612   2.125   6.175
 8487SOL    HW126360   6.594   2.222   6.190
 8487SOL    HW226361   6.587   2.074   6.257
 8488SOL     OW26362   4.045   4.764   2.521
 8488SOL    HW126363   3.969   4.809   2.475
 8488SOL    HW226364   4.110   4.731   2.453
 8489SOL     OW26365   6.468   2.075   2.395
 8489SOL    HW126366   6.400   2.117   2.334
 8489SOL    HW226367   6.475   2.130   2.479
 8490SOL     OW26368   3.095   6.917   0.378
 8490SOL    HW126369   3.093   6.824   0.415
 8490SOL    HW226370   3.139   6.978   0.444
 8491SOL     OW26371   3.534   5.215   2.295
 8491SOL    HW126372   3.553   5.263   2.209
 8491SOL    HW226373   3.457   5.260   2.341
 8492SOL     OW26374   6.391   6.394   4.138
 8492SOL    HW126375   6.435   6.484   4.145
 8492SOL    HW226376   6.413   6.353   4.050
 8493SOL     OW26377   5.254   0.224   5.728
 8493SOL    HW126378   5.284   0.179   5.643
 8493SOL    HW226379   5.263   0.323   5.719
 8494SOL     OW26380   0.317   3.239   1.993
 8494SOL    HW126381   0.245   3.297   1.956
 8494SOL    HW226382   0.289   3.205   2.083
 8495SOL     OW26383   5.885   5.593   6.021
 8495SOL    HW126384   5.803   5.550   6.060
 8495SOL    HW226385   5.914   5.540   5.941
 8496SOL     OW26386   4.820   1.754   2.851
 8496SOL    HW126387   4.802   1.815   2.773
 8496SOL    HW226388   4.759   1.777   2.926
 8497SOL     OW26389   6.376   0.728   2.171
 8497SOL    HW126390   6.444   0.657   2.192
 8497SOL    HW226391   6.310   0.734   2.246
 8498SOL     OW26392   4.513   5.958   4.332
 8498SOL    HW126393   4.520   6.057   4.342
 8498SOL    HW226394   4.427   5.934   4.288
 8499SOL     OW26395   6.053   0.263   5.246
 8499SOL    HW126396   6.029   0.346   5.296
 8499SOL    HW226397   6.047   0.185   5.308
 8500SOL     OW26398   1.214   0.833   6.739
 8500SOL    HW126399   1.202   0.810   6.835
 8500SOL    HW226400   1.148   0.903   6.712
 8501SOL     OW26401   3.415   0.974   5.514
 8501SOL    HW126402   3.386   0.999   5.421
 8501SOL    HW226403   3.450   1.055   5.561
 8502SOL     OW26404   6.459   2.948   0.242
 8502SOL    HW126405   6.500   3.032   0.276
 8502SOL    HW226406   6.495   2.870   0.293
 8503SOL     OW26407   4.920   2.443   5.668
 8503SOL    HW126408   4.926   2.343   5.668
 8503SOL    HW226409   4.969   2.480   5.590
 8504SOL     OW26410   1.376   6.999   3.053
 8504SOL    HW126411   1.369   6.974   2.957
 8504SOL    HW226412   1.429   0.054   3.062
 8505SOL     OW26413   5.342   1.918   3.015
 8505SOL    HW126414   5.307   2.009   2.990
 8505SOL    HW226415   5.266   1.859   3.040
 8506SOL     OW26416   1.661   0.383   5.935
 8506SOL    HW126417   1.623   0.470   5.906
 8506SOL    HW226418   1.749   0.398   5.981
 8507SOL     OW26419   4.142   5.182   5.490
 8507SOL    HW126420   4.091   5.126   5.425
 8507SOL    HW226421   4.154   5.274   5.453
 8508SOL     OW26422   3.596   0.951   6.634
 8508SOL    HW126423   3.682   0.906   6.609
 8508SOL    HW226424   3.538   0.887   6.684
 8509SOL     OW26425   5.027   2.215   2.258
 8509SOL    HW126426   5.029   2.227   2.357
 8509SOL    HW226427   5.116   2.182   2.226
 8510SOL     OW26428   0.841   2.044   4.809
 8510SOL    HW126429   0.895   2.093   4.740
 8510SOL    HW226430   0.765   2.103   4.839
 8511SOL     OW26431   5.914   2.147   3.698
 8511SOL    HW126432   6.003   2.104   3.685
 8511SOL    HW226433   5.849   2.112   3.631
 8512SOL     OW26434   2.069   0.157   5.618
 8512SOL    HW126435   2.019   0.227   5.567
 8512SOL    HW226436   2.007   0.080   5.639
 8513SOL     OW26437   4.399   5.567   6.819
 8513SOL    HW126438   4.351   5.631   6.759
 8513SOL    HW226439   4.498   5.583   6.813
 8514SOL     OW26440   3.360   5.690   4.513
 8514SOL    HW126441   3.451   5.727   4.531
 8514SOL    HW226442   3.329   5.637   4.592
 8515SOL     OW26443   5.707   2.300   2.129
 8515SOL    HW126444   5.738   2.323   2.221
 8515SOL    HW226445   5.706   2.382   2.072
 8516SOL     OW26446   6.441   1.667   1.919
 8516SOL    HW126447   6.461   1.680   1.822
 8516SOL    HW226448   6.499   1.729   1.973
 8517SOL     OW26449   1.484   3.712   5.387
 8517SOL    HW126450   1.396   3.721   5.340
 8517SOL    HW226451   1.523   3.622   5.367
 8518SOL     OW26452   2.887   5.615   0.758
 8518SOL    HW126453   2.797   5.603   0.715
 8518SOL    HW226454   2.946   5.539   0.732
 8519SOL     OW26455   2.632   5.660   3.633
 8519SOL    HW126456   2.650   5.748   3.678
 8519SOL    HW226457   2.719   5.619   3.604
 8520SOL     OW26458   3.550   6.054   6.666
 8520SOL    HW126459   3.492   6.116   6.613
 8520SOL    HW226460   3.494   5.979   6.703
 8521SOL     OW26461   1.873   1.048   2.564
 8521SOL    HW126462   1.775   1.036   2.554
 8521SOL    HW226463   1.907   1.109   2.492
 8522SOL     OW26464   2.214   6.674   4.722
 8522SOL    HW126465   2.163   6.592   4.696
 8522SOL    HW226466   2.158   6.730   4.784
 8523SOL     OW26467   2.053   6.868   6.640
 8523SOL    HW126468   2.077   6.827   6.552
 8523SOL    HW226469   2.137   6.891   6.690
 8524SOL     OW26470   2.060   1.831   0.309
 8524SOL    HW126471   1.995   1.844   0.234
 8524SOL    HW226472   2.009   1.809   0.393
 8525SOL     OW26473   5.297   3.503   4.038
 8525SOL    HW126474   5.256   3.430   3.983
 8525SOL    HW226475   5.381   3.534   3.994
 8526SOL     OW26476   1.191   3.476   2.126
 8526SOL    HW126477   1.143   3.556   2.163
 8526SOL    HW226478   1.290   3.494   2.127
 8527SOL     OW26479   4.716   6.932   4.573
 8527SOL    HW126480   4.705   7.011   4.633
 8527SOL    HW226481   4.810   6.930   4.537
 8528SOL     OW26482   5.431   1.146   6.839
 8528SOL    HW126483   5.421   1.134   6.741
 8528SOL    HW226484   5.460   1.240   6.859
 8529SOL     OW26485   7.020   6.748   5.256
 8529SOL    HW126486   6.996   6.774   5.350
 8529SOL    HW226487   6.970   6.666   5.230
 8530SOL     OW26488   2.158   4.860   5.940
 8530SOL    HW126489   2.087   4.795   5.913
 8530SOL    HW226490   2.242   4.811   5.962
 8531SOL     OW26491   4.183   5.258   1.651
 8531SOL    HW126492   4.123   5.269   1.572
 8531SOL    HW226493   4.132   5.220   1.727
 8532SOL     OW26494   1.390   4.193   0.326
 8532SOL    HW126495   1.456   4.118   0.339
 8532SOL    HW226496   1.342   4.180   0.239
 8533SOL     OW26497   3.733   6.649   5.494
 8533SOL    HW126498   3.709   6.732   5.543
 8533SOL    HW226499   3.832   6.634   5.500
 8534SOL     OW26500   2.166   2.651   0.555
 8534SOL    HW126501   2.186   2.581   0.486
 8534SOL    HW226502   2.225   2.731   0.539
 8535SOL     OW26503   0.664   3.460   5.776
 8535SOL    HW126504   0.670   3.367   5.740
 8535SOL    HW226505   0.631   3.521   5.705
 8536SOL     OW26506   5.930   0.718   5.941
 8536SOL    HW126507   5.878   0.769   6.010
 8536SOL    HW226508   5.991   0.781   5.893
 8537SOL     OW26509   4.296   6.297   3.494
 8537SOL    HW126510   4.380   6.351   3.484
 8537SOL    HW226511   4.266   6.266   3.403
 8538SOL     OW26512   5.041   6.786   5.287
 8538SOL    HW126513   5.028   6.689   5.309
 8538SOL    HW226514   5.081   6.794   5.196
 8539SOL     OW26515   1.141   3.039   2.993
 8539SOL    HW126516   1.092   3.114   2.947
 8539SOL    HW226517   1.228   3.073   3.028
 8540SOL     OW26518   4.519   6.877   6.357
 8540SOL    HW126519   4.522   6.789   6.405
 8540SOL    HW226520   4.490   6.863   6.263
 8541SOL     OW26521   2.734   6.689   5.227
 8541SOL    HW126522   2.728   6.784   5.196
 8541SOL    HW226523   2.698   6.682   5.320
 8542SOL     OW26524   1.254   5.200   5.877
 8542SOL    HW126525   1.187   5.274   5.866
 8542SOL    HW226526   1.345   5.240   5.891
 8543SOL     OW26527   3.360   2.202   5.617
 8543SOL    HW126528   3.299   2.176   5.691
 8543SOL    HW226529   3.309   2.211   5.532
 8544SOL     OW26530   5.765   3.967   5.439
 8544SOL    HW126531   5.778   3.990   5.342
 8544SOL    HW226532   5.757   3.867   5.447
 8545SOL     OW26533   2.846   0.481   6.273
 8545SOL    HW126534   2.825   0.532   6.190
 8545SOL    HW226535   2.803   0.525   6.352
 8546SOL     OW26536   3.324   0.946   3.508
 8546SOL    HW126537   3.406   0.992   3.472
 8546SOL    HW226538   3.284   0.888   3.437
 8547SOL     OW26539   5.488   6.380   6.125
 8547SOL    HW126540   5.541   6.422   6.051
 8547SOL    HW226541   5.434   6.305   6.087
 8548SOL     OW26542   1.287   4.326   4.401
 8548SOL    HW126543   1.303   4.407   4.345
 8548SOL    HW226544   1.359   4.319   4.471
 8549SOL     OW26545   3.042   0.407   3.566
 8549SOL    HW126546   2.953   0.379   3.531
 8549SOL    HW226547   3.045   0.394   3.665
 8550SOL     OW26548   0.327   4.249   5.072
 8550SOL    HW126549   0.421   4.260   5.043
 8550SOL    HW226550   0.265   4.271   4.997
 8551SOL     OW26551   3.803   1.573   4.354
 8551SOL    HW126552   3.875   1.554   4.421
 8551SOL    HW226553   3.715   1.542   4.391
 8552SOL     OW26554   3.602   1.780   2.198
 8552SOL    HW126555   3.618   1.875   2.223
 8552SOL    HW226556   3.518   1.773   2.144
 8553SOL     OW26557   5.068   3.779   0.787
 8553SOL    HW126558   5.072   3.682   0.808
 8553SOL    HW226559   5.043   3.830   0.869
 8554SOL     OW26560   1.573   1.408   6.653
 8554SOL    HW126561   1.643   1.458   6.705
 8554SOL    HW226562   1.488   1.406   6.705
 8555SOL     OW26563   3.256   1.641   3.602
 8555SOL    HW126564   3.302   1.672   3.519
 8555SOL    HW226565   3.291   1.690   3.681
 8556SOL     OW26566   0.100   4.897   5.047
 8556SOL    HW126567   0.128   4.889   5.143
 8556SOL    HW226568   0.008   4.861   5.036
 8557SOL     OW26569   6.642   1.143   0.440
 8557SOL    HW126570   6.579   1.145   0.518
 8557SOL    HW226571   6.726   1.097   0.466
 8558SOL     OW26572   2.780   6.622   3.627
 8558SOL    HW126573   2.752   6.527   3.619
 8558SOL    HW226574   2.705   6.676   3.667
 8559SOL     OW26575   1.338   3.156   3.116
 8559SOL    HW126576   1.296   3.239   3.154
 8559SOL    HW226577   1.371   3.099   3.191
 8560SOL     OW26578   3.332   3.899   1.163
 8560SOL    HW126579   3.239   3.902   1.200
 8560SOL    HW226580   3.350   3.807   1.127
 8561SOL     OW26581   4.229   0.710   2.696
 8561SOL    HW126582   4.323   0.744   2.702
 8561SOL    HW226583   4.228   0.620   2.654
 8562SOL     OW26584   5.185   2.586   6.334
 8562SOL    HW126585   5.087   2.592   6.354
 8562SOL    HW226586   5.236   2.588   6.420
 8563SOL     OW26587   1.421   5.094   2.771
 8563SOL    HW126588   1.397   5.141   2.686
 8563SOL    HW226589   1.416   4.995   2.755
 8564SOL     OW26590   3.721   6.615   0.049
 8564SOL    HW126591   3.671   6.573   7.004
 8564SOL    HW226592   3.787   6.681   0.013
 8565SOL     OW26593   0.695   5.280   1.211
 8565SOL    HW126594   0.658   5.365   1.246
 8565SOL    HW226595   0.722   5.293   1.115
 8566SOL     OW26596   3.734   0.974   3.407
 8566SOL    HW126597   3.804   1.036   3.372
 8566SOL    HW226598   3.643   1.012   3.386
 8567SOL     OW26599   1.614   2.333   1.292
 8567SOL    HW126600   1.621   2.241   1.252
 8567SOL    HW226601   1.638   2.329   1.389
 8568SOL     OW26602   6.010   0.299   6.012
 8568SOL    HW126603   5.924   0.336   5.976
 8568SOL    HW226604   6.070   0.374   6.040
 8569SOL     OW26605   5.111   1.183   6.557
 8569SOL    HW126606   5.027   1.209   6.604
 8569SOL    HW226607   5.104   1.209   6.461
 8570SOL     OW26608   1.484   1.838   3.590
 8570SOL    HW126609   1.580   1.810   3.592
 8570SOL    HW226610   1.469   1.904   3.517
 8571SOL     OW26611   1.460   0.753   3.213
 8571SOL    HW126612   1.401   0.714   3.283
 8571SOL    HW226613   1.430   0.722   3.123
 8572SOL     OW26614   3.180   3.859   5.429
 8572SOL    HW126615   3.261   3.879   5.484
 8572SOL    HW226616   3.101   3.847   5.490
 8573SOL     OW26617   1.508   6.142   5.978
 8573SOL    HW126618   1.409   6.138   5.983
 8573SOL    HW226619   1.548   6.068   6.032
 8574SOL     OW26620   6.092   1.374   5.178
 8574SOL    HW126621   6.185   1.372   5.215
 8574SOL    HW226622   6.053   1.282   5.182
 8575SOL     OW26623   2.911   5.914   4.660
 8575SOL    HW126624   2.896   5.839   4.724
 8575SOL    HW226625   2.824   5.960   4.643
 8576SOL     OW26626   1.483   3.916   5.089
 8576SOL    HW126627   1.549   3.846   5.062
 8576SOL    HW226628   1.390   3.881   5.076
 8577SOL     OW26629   1.819   0.666   0.543
 8577SOL    HW126630   1.900   0.619   0.508
 8577SOL    HW226631   1.820   0.761   0.513
 8578SOL     OW26632   0.974   0.278   6.052
 8578SOL    HW126633   1.056   0.320   6.093
 8578SOL    HW226634   0.960   0.188   6.091
 8579SOL     OW26635   3.737   6.597   2.078
 8579SOL    HW126636   3.788   6.671   2.124
 8579SOL    HW226637   3.705   6.532   2.147
 8580SOL     OW26638   2.679   0.353   1.836
 8580SOL    HW126639   2.649   0.309   1.751
 8580SOL    HW226640   2.757   0.413   1.817
 8581SOL     OW26641   3.897   3.983   2.442
 8581SOL    HW126642   3.935   4.071   2.470
 8581SOL    HW226643   3.832   3.997   2.367
 8582SOL     OW26644   4.772   5.659   5.949
 8582SOL    HW126645   4.756   5.576   6.002
 8582SOL    HW226646   4.708   5.663   5.872
 8583SOL     OW26647   3.644   6.913   3.052
 8583SOL    HW126648   3.731   6.866   3.039
 8583SOL    HW226649   3.589   6.866   3.120
 8584SOL     OW26650   6.326   1.933   5.236
 8584SOL    HW126651   6.315   2.029   5.261
 8584SOL    HW226652   6.239   1.897   5.203
 8585SOL     OW26653   4.508   2.123   2.087
 8585SOL    HW126654   4.543   2.192   2.023
 8585SOL    HW226655   4.449   2.167   2.154
 8586SOL     OW26656   6.614   5.784   5.637
 8586SOL    HW126657   6.627   5.849   5.712
 8586SOL    HW226658   6.560   5.706   5.670
 8587SOL     OW26659   6.959   1.380   0.530
 8587SOL    HW126660   6.985   1.321   0.606
 8587SOL    HW226661   6.975   1.476   0.555
 8588SOL     OW26662   1.633   0.952   5.354
 8588SOL    HW126663   1.719   0.916   5.388
 8588SOL    HW226664   1.597   0.893   5.282
 8589SOL     OW26665   5.585   2.823   6.721
 8589SOL    HW126666   5.655   2.754   6.702
 8589SOL    HW226667   5.565   2.875   6.638
 8590SOL     OW26668   1.384   1.443   3.159
 8590SOL    HW126669   1.456   1.392   3.113
 8590SOL    HW226670   1.421   1.486   3.241
 8591SOL     OW26671   1.024   3.918   4.889
 8591SOL    HW126672   1.046   3.826   4.920
 8591SOL    HW226673   0.947   3.954   4.942
 8592SOL     OW26674   0.283   2.038   4.643
 8592SOL    HW126675   0.205   1.988   4.681
 8592SOL    HW226676   0.368   1.996   4.674
 8593SOL     OW26677   6.540   1.452   0.544
 8593SOL    HW126678   6.568   1.360   0.569
 8593SOL    HW226679   6.499   1.450   0.452
 8594SOL     OW26680   5.942   4.085   6.358
 8594SOL    HW126681   5.973   4.129   6.274
 8594SOL    HW226682   5.872   4.142   6.402
 8595SOL     OW26683   5.276   6.369   2.354
 8595SOL    HW126684   5.292   6.364   2.452
 8595SOL    HW226685   5.331   6.442   2.314
 8596SOL     OW26686   0.802   2.201   5.877
 8596SOL    HW126687   0.716   2.190   5.827
 8596SOL    HW226688   0.849   2.113   5.881
 8597SOL     OW26689   5.928   2.202   5.865
 8597SOL    HW126690   5.960   2.119   5.820
 8597SOL    HW226691   5.962   2.206   5.959
 8598SOL     OW26692   6.759   0.881   6.196
 8598SOL    HW126693   6.832   0.944   6.221
 8598SOL    HW226694   6.677   0.932   6.170
 8599SOL     OW26695   5.736   3.990   5.140
 8599SOL    HW126696   5.641   3.971   5.113
 8599SOL    HW226697   5.755   4.087   5.125
 8600SOL     OW26698   4.367   2.709   1.182
 8600SOL    HW126699   4.391   2.638   1.247
 8600SOL    HW226700   4.287   2.760   1.215
 8601SOL     OW26701   4.859   5.623   2.594
 8601SOL    HW126702   4.771   5.653   2.632
 8601SOL    HW226703   4.874   5.667   2.505
 8602SOL     OW26704   1.613   6.921   5.545
 8602SOL    HW126705   1.578   6.869   5.467
 8602SOL    HW226706   1.541   6.979   5.582
 8603SOL     OW26707   0.660   0.910   6.821
 8603SOL    HW126708   0.691   0.832   6.766
 8603SOL    HW226709   0.679   0.893   6.917
 8604SOL     OW26710   1.851   5.043   6.309
 8604SOL    HW126711   1.777   4.999   6.258
 8604SOL    HW226712   1.812   5.103   6.379
 8605SOL     OW26713   6.426   4.195   3.766
 8605SOL    HW126714   6.520   4.208   3.734
 8605SOL    HW226715   6.397   4.102   3.748
 8606SOL     OW26716   1.113   0.593   6.491
 8606SOL    HW126717   1.089   0.551   6.579
 8606SOL    HW226718   1.198   0.553   6.457
 8607SOL     OW26719   2.913   3.008   1.225
 8607SOL    HW126720   2.970   2.967   1.296
 8607SOL    HW226721   2.836   3.055   1.268
 8608SOL     OW26722   1.821   6.422   1.835
 8608SOL    HW126723   1.891   6.396   1.902
 8608SOL    HW226724   1.751   6.350   1.831
 8609SOL     OW26725   5.515   2.496   4.865
 8609SOL    HW126726   5.518   2.435   4.944
 8609SOL    HW226727   5.607   2.507   4.828
 8610SOL     OW26728   6.742   5.176   2.430
 8610SOL    HW126729   6.727   5.192   2.333
 8610SOL    HW226730   6.655   5.168   2.477
 8611SOL     OW26731   2.153   1.464   5.073
 8611SOL    HW126732   2.101   1.536   5.119
 8611SOL    HW226733   2.090   1.407   5.020
 8612SOL     OW26734   3.386   3.142   5.101
 8612SOL    HW126735   3.357   3.066   5.043
 8612SOL    HW226736   3.316   3.214   5.099
 8613SOL     OW26737   3.569   3.239   3.525
 8613SOL    HW126738   3.528   3.282   3.445
 8613SOL    HW226739   3.497   3.202   3.583
 8614SOL     OW26740   0.962   2.525   3.733
 8614SOL    HW126741   0.938   2.613   3.774
 8614SOL    HW226742   1.036   2.483   3.786
 8615SOL     OW26743   3.948   1.455   5.531
 8615SOL    HW126744   3.952   1.532   5.595
 8615SOL    HW226745   4.040   1.418   5.518
 8616SOL     OW26746   5.802   4.388   5.317
 8616SOL    HW126747   5.746   4.440   5.382
 8616SOL    HW226748   5.899   4.397   5.343
 8617SOL     OW26749   1.172   6.926   3.231
 8617SOL    HW126750   1.197   6.955   3.139
 8617SOL    HW226751   1.079   6.956   3.251
 8618SOL     OW26752   5.856   4.018   0.809
 8618SOL    HW126753   5.915   3.938   0.801
 8618SOL    HW226754   5.793   4.022   0.731
 8619SOL     OW26755   5.082   5.570   0.308
 8619SOL    HW126756   5.040   5.564   0.218
 8619SOL    HW226757   5.019   5.533   0.377
 8620SOL     OW26758   1.470   6.303   3.881
 8620SOL    HW126759   1.566   6.300   3.910
 8620SOL    HW226760   1.423   6.377   3.929
 8621SOL     OW26761   6.287   3.619   1.779
 8621SOL    HW126762   6.277   3.543   1.843
 8621SOL    HW226763   6.351   3.686   1.816
 8622SOL     OW26764   0.917   5.652   1.238
 8622SOL    HW126765   0.874   5.648   1.329
 8622SOL    HW226766   0.847   5.642   1.168
 8623SOL     OW26767   2.217   1.998   3.152
 8623SOL    HW126768   2.211   1.972   3.248
 8623SOL    HW226769   2.233   2.096   3.145
 8624SOL     OW26770   3.266   3.971   5.156
 8624SOL    HW126771   3.239   3.927   5.241
 8624SOL    HW226772   3.218   4.059   5.147
 8625SOL     OW26773   4.338   3.637   5.911
 8625SOL    HW126774   4.399   3.575   5.862
 8625SOL    HW226775   4.301   3.592   5.992
 8626SOL     OW26776   4.595   1.956   1.683
 8626SOL    HW126777   4.562   1.938   1.590
 8626SOL    HW226778   4.541   1.903   1.748
 8627SOL     OW26779   1.132   0.215   2.796
 8627SOL    HW126780   1.191   0.290   2.767
 8627SOL    HW226781   1.059   0.202   2.728
 8628SOL     OW26782   1.417   6.957   1.044
 8628SOL    HW126783   1.412   6.896   1.123
 8628SOL    HW226784   1.324   6.986   1.019
 8629SOL     OW26785   0.059   0.011   4.560
 8629SOL    HW126786   7.019   6.975   4.590
 8629SOL    HW226787   0.125   6.995   4.501
 8630SOL     OW26788   4.763   2.424   1.576
 8630SOL    HW126789   4.682   2.418   1.635
 8630SOL    HW226790   4.827   2.352   1.600
 8631SOL     OW26791   1.803   6.283   6.215
 8631SOL    HW126792   1.832   6.197   6.255
 8631SOL    HW226793   1.704   6.293   6.225
 8632SOL     OW26794   6.214   5.634   4.019
 8632SOL    HW126795   6.160   5.700   4.071
 8632SOL    HW226796   6.309   5.636   4.051
 8633SOL     OW26797   6.655   3.360   5.845
 8633SOL    HW126798   6.625   3.451   5.874
 8633SOL    HW226799   6.579   3.314   5.799
 8634SOL     OW26800   5.397   4.909   6.395
 8634SOL    HW126801   5.332   4.834   6.382
 8634SOL    HW226802   5.445   4.926   6.309
 8635SOL     OW26803   4.927   2.362   6.549
 8635SOL    HW126804   4.918   2.453   6.508
 8635SOL    HW226805   4.974   2.370   6.637
 8636SOL     OW26806   3.920   6.086   1.572
 8636SOL    HW126807   3.951   6.174   1.609
 8636SOL    HW226808   3.820   6.081   1.580
 8637SOL     OW26809   2.724   2.555   0.116
 8637SOL    HW126810   2.732   2.654   0.128
 8637SOL    HW226811   2.793   2.510   0.172
 8638SOL     OW26812   4.994   2.611   4.742
 8638SOL    HW126813   4.929   2.558   4.797
 8638SOL    HW226814   5.086   2.603   4.781
 8639SOL     OW26815   2.976   4.672   0.193
 8639SOL    HW126816   2.907   4.705   0.129
 8639SOL    HW226817   2.940   4.679   0.286
 8640SOL     OW26818   3.818   2.538   0.194
 8640SOL    HW126819   3.854   2.467   0.133
 8640SOL    HW226820   3.874   2.542   0.276
 8641SOL     OW26821   2.938   4.785   3.256
 8641SOL    HW126822   2.875   4.831   3.318
 8641SOL    HW226823   2.931   4.686   3.268
 8642SOL     OW26824   2.426   5.993   3.112
 8642SOL    HW126825   2.334   6.013   3.146
 8642SOL    HW226826   2.492   6.056   3.152
 8643SOL     OW26827   3.595   6.409   1.227
 8643SOL    HW126828   3.641   6.465   1.158
 8643SOL    HW226829   3.523   6.355   1.185
 8644SOL     OW26830   6.016   2.851   6.075
 8644SOL    HW126831   6.092   2.855   6.140
 8644SOL    HW226832   6.004   2.756   6.044
 8645SOL     OW26833   4.796   4.889   2.587
 8645SOL    HW126834   4.850   4.807   2.568
 8645SOL    HW226835   4.706   4.863   2.621
 8646SOL     OW26836   0.192   2.125   5.044
 8646SOL    HW126837   0.118   2.193   5.050
 8646SOL    HW226838   0.185   2.060   5.119
 8647SOL     OW26839   2.070   5.276   1.613
 8647SOL    HW126840   2.160   5.261   1.655
 8647SOL    HW226841   2.050   5.374   1.610
 8648SOL     OW26842   5.330   5.474   0.290
 8648SOL    HW126843   5.358   5.451   0.197
 8648SOL    HW226844   5.244   5.525   0.288
 8649SOL     OW26845   5.567   1.688   1.538
 8649SOL    HW126846   5.472   1.713   1.520
 8649SOL    HW226847   5.572   1.590   1.560
 8650SOL     OW26848   2.389   0.695   5.521
 8650SOL    HW126849   2.428   0.623   5.577
 8650SOL    HW226850   2.292   0.674   5.503
 8651SOL     OW26851   3.813   1.841   2.029
 8651SOL    HW126852   3.777   1.928   1.995
 8651SOL    HW226853   3.751   1.805   2.099
 8652SOL     OW26854   6.955   2.306   4.195
 8652SOL    HW126855   0.013   2.315   4.241
 8652SOL    HW226856   6.967   2.258   4.108
 8653SOL     OW26857   5.841   1.520   0.094
 8653SOL    HW126858   5.834   1.425   0.063
 8653SOL    HW226859   5.791   1.531   0.180
 8654SOL     OW26860   0.513   4.804   2.982
 8654SOL    HW126861   0.558   4.797   2.893
 8654SOL    HW226862   0.503   4.713   3.022
 8655SOL     OW26863   1.181   0.141   4.892
 8655SOL    HW126864   1.267   0.148   4.944
 8655SOL    HW226865   1.133   0.058   4.918
 8656SOL     OW26866   4.151   5.713   0.911
 8656SOL    HW126867   4.245   5.688   0.891
 8656SOL    HW226868   4.093   5.694   0.832
 8657SOL     OW26869   3.159   1.505   2.776
 8657SOL    HW126870   3.189   1.600   2.764
 8657SOL    HW226871   3.177   1.476   2.870
 8658SOL     OW26872   6.366   3.609   1.243
 8658SOL    HW126873   6.381   3.702   1.210
 8658SOL    HW226874   6.272   3.600   1.277
 8659SOL     OW26875   4.057   0.672   3.331
 8659SOL    HW126876   4.110   0.748   3.294
 8659SOL    HW226877   3.990   0.643   3.263
 8660SOL     OW26878   0.180   3.692   1.638
 8660SOL    HW126879   0.186   3.763   1.568
 8660SOL    HW226880   0.171   3.734   1.728
 8661SOL     OW26881   6.027   3.705   2.485
 8661SOL    HW126882   6.020   3.720   2.584
 8661SOL    HW226883   6.039   3.793   2.439
 8662SOL     OW26884   1.559   2.109   2.778
 8662SOL    HW126885   1.537   2.146   2.688
 8662SOL    HW226886   1.635   2.162   2.818
 8663SOL     OW26887   3.579   4.889   2.878
 8663SOL    HW126888   3.508   4.950   2.912
 8663SOL    HW226889   3.542   4.832   2.804
 8664SOL     OW26890   3.264   6.262   4.155
 8664SOL    HW126891   3.248   6.354   4.190
 8664SOL    HW226892   3.238   6.195   4.224
 8665SOL     OW26893   6.378   4.345   6.519
 8665SOL    HW126894   6.457   4.313   6.572
 8665SOL    HW226895   6.294   4.318   6.566
 8666SOL     OW26896   4.750   0.701   3.062
 8666SOL    HW126897   4.753   0.753   3.147
 8666SOL    HW226898   4.843   0.690   3.027
 8667SOL     OW26899   5.221   2.090   2.114
 8667SOL    HW126900   5.174   2.002   2.109
 8667SOL    HW226901   5.193   2.147   2.036
 8668SOL     OW26902   4.565   1.974   4.292
 8668SOL    HW126903   4.519   1.918   4.361
 8668SOL    HW226904   4.586   1.917   4.212
 8669SOL     OW26905   0.218   6.031   6.045
 8669SOL    HW126906   0.192   6.122   6.015
 8669SOL    HW226907   0.145   5.966   6.022
 8670SOL     OW26908   6.940   5.384   5.538
 8670SOL    HW126909   0.008   5.403   5.542
 8670SOL    HW226910   6.925   5.285   5.537
 8671SOL     OW26911   0.042   2.832   3.570
 8671SOL    HW126912   0.130   2.871   3.595
 8671SOL    HW226913   0.013   2.765   3.638
 8672SOL     OW26914   6.488   1.197   2.434
 8672SOL    HW126915   6.437   1.153   2.360
 8672SOL    HW226916   6.457   1.291   2.444
 8673SOL     OW26917   0.812   1.247   1.439
 8673SOL    HW126918   0.722   1.284   1.417
 8673SOL    HW226919   0.863   1.313   1.493
 8674SOL     OW26920   0.367   3.370   3.371
 8674SOL    HW126921   0.411   3.434   3.433
 8674SOL    HW226922   0.317   3.420   3.301
 8675SOL     OW26923   4.647   2.876   5.202
 8675SOL    HW126924   4.663   2.897   5.105
 8675SOL    HW226925   4.731   2.895   5.253
 8676SOL     OW26926   4.319   2.217   0.610
 8676SOL    HW126927   4.269   2.276   0.674
 8676SOL    HW226928   4.356   2.139   0.660
 8677SOL     OW26929   2.862   0.671   0.289
 8677SOL    HW126930   2.828   0.761   0.315
 8677SOL    HW226931   2.787   0.617   0.251
 8678SOL     OW26932   3.049   2.070   0.225
 8678SOL    HW126933   3.110   2.054   0.302
 8678SOL    HW226934   3.005   1.984   0.198
 8679SOL     OW26935   1.769   1.746   6.591
 8679SOL    HW126936   1.773   1.815   6.519
 8679SOL    HW226937   1.805   1.784   6.676
 8680SOL     OW26938   0.134   0.500   0.925
 8680SOL    HW126939   0.102   0.579   0.873
 8680SOL    HW226940   0.223   0.521   0.966
 8681SOL     OW26941   5.578   4.952   1.114
 8681SOL    HW126942   5.541   4.913   1.199
 8681SOL    HW226943   5.521   4.923   1.037
 8682SOL     OW26944   2.357   1.039   2.922
 8682SOL    HW126945   2.267   1.079   2.941
 8682SOL    HW226946   2.345   0.945   2.889
 8683SOL     OW26947   2.541   4.491   3.858
 8683SOL    HW126948   2.576   4.569   3.910
 8683SOL    HW226949   2.502   4.424   3.922
 8684SOL     OW26950   2.280   4.196   3.492
 8684SOL    HW126951   2.278   4.115   3.551
 8684SOL    HW226952   2.266   4.278   3.548
 8685SOL     OW26953   5.072   3.696   5.119
 8685SOL    HW126954   4.988   3.672   5.071
 8685SOL    HW226955   5.127   3.614   5.134
 8686SOL     OW26956   1.043   5.098   2.985
 8686SOL    HW126957   1.142   5.110   2.991
 8686SOL    HW226958   1.003   5.103   3.077
 8687SOL     OW26959   5.451   4.581   5.626
 8687SOL    HW126960   5.458   4.667   5.574
 8687SOL    HW226961   5.459   4.504   5.563
 8688SOL     OW26962   0.799   4.001   4.637
 8688SOL    HW126963   0.837   4.083   4.595
 8688SOL    HW226964   0.849   3.920   4.604
 8689SOL     OW26965   4.550   3.376   1.055
 8689SOL    HW126966   4.552   3.384   1.155
 8689SOL    HW226967   4.638   3.339   1.023
 8690SOL     OW26968   1.181   2.060   1.973
 8690SOL    HW126969   1.200   2.051   2.071
 8690SOL    HW226970   1.162   1.970   1.934
 8691SOL     OW26971   3.425   1.658   6.841
 8691SOL    HW126972   3.383   1.586   6.897
 8691SOL    HW226973   3.357   1.697   6.780
 8692SOL     OW26974   5.168   2.316   4.640
 8692SOL    HW126975   5.153   2.294   4.736
 8692SOL    HW226976   5.255   2.366   4.631
 8693SOL     OW26977   0.161   0.623   5.749
 8693SOL    HW126978   0.096   0.546   5.743
 8693SOL    HW226979   0.168   0.654   5.843
 8694SOL     OW26980   3.954   3.888   5.496
 8694SOL    HW126981   3.981   3.883   5.593
 8694SOL    HW226982   3.999   3.814   5.446
 8695SOL     OW26983   3.699   4.748   1.140
 8695SOL    HW126984   3.604   4.756   1.168
 8695SOL    HW226985   3.706   4.686   1.062
 8696SOL     OW26986   3.045   5.946   6.526
 8696SOL    HW126987   3.071   5.878   6.595
 8696SOL    HW226988   3.111   6.022   6.528
 8697SOL     OW26989   1.436   3.431   5.028
 8697SOL    HW126990   1.468   3.391   4.942
 8697SOL    HW226991   1.473   3.378   5.105
 8698SOL     OW26992   5.051   3.914   0.425
 8698SOL    HW126993   5.034   3.860   0.342
 8698SOL    HW226994   5.131   3.973   0.411
 8699SOL     OW26995   2.748   2.176   1.097
 8699SOL    HW126996   2.835   2.225   1.108
 8699SOL    HW226997   2.704   2.165   1.185
 8700SOL     OW26998   0.247   1.777   4.455
 8700SOL    HW126999   0.229   1.715   4.531
 8700SOL    HW227000   0.344   1.801   4.453
 8701SOL     OW27001   1.877   3.560   6.592
 8701SOL    HW127002   1.783   3.596   6.589
 8701SOL    HW227003   1.875   3.463   6.571
 8702SOL     OW27004   5.853   4.011   1.600
 8702SOL    HW127005   5.801   4.006   1.515
 8702SOL    HW227006   5.927   4.077   1.589
 8703SOL     OW27007   1.802   5.714   2.125
 8703SOL    HW127008   1.900   5.702   2.112
 8703SOL    HW227009   1.784   5.805   2.162
 8704SOL     OW27010   6.709   1.126   4.254
 8704SOL    HW127011   6.719   1.033   4.287
 8704SOL    HW227012   6.663   1.126   4.165
 8705SOL     OW27013   3.504   2.283   0.767
 8705SOL    HW127014   3.460   2.367   0.800
 8705SOL    HW227015   3.601   2.302   0.748
 8706SOL     OW27016   4.722   3.026   5.774
 8706SOL    HW127017   4.793   2.972   5.819
 8706SOL    HW227018   4.709   3.112   5.823
 8707SOL     OW27019   1.022   0.758   3.849
 8707SOL    HW127020   0.953   0.826   3.826
 8707SOL    HW227021   1.002   0.719   3.939
 8708SOL     OW27022   5.679   2.449   0.561
 8708SOL    HW127023   5.747   2.454   0.488
 8708SOL    HW227024   5.716   2.397   0.638
 8709SOL     OW27025   6.684   6.146   3.557
 8709SOL    HW127026   6.639   6.125   3.470
 8709SOL    HW227027   6.655   6.080   3.626
 8710SOL     OW27028   2.355   2.508   3.828
 8710SOL    HW127029   2.376   2.433   3.764
 8710SOL    HW227030   2.413   2.586   3.807
 8711SOL     OW27031   1.941   1.262   2.396
 8711SOL    HW127032   2.019   1.292   2.342
 8711SOL    HW227033   1.925   1.327   2.470
 8712SOL     OW27034   1.832   3.603   4.389
 8712SOL    HW127035   1.932   3.603   4.395
 8712SOL    HW227036   1.798   3.696   4.396
 8713SOL     OW27037   0.020   3.810   2.554
 8713SOL    HW127038   7.022   3.720   2.586
 8713SOL    HW227039   0.105   3.803   2.502
 8714SOL     OW27040   6.705   4.110   6.476
 8714SOL    HW127041   6.683   4.098   6.573
 8714SOL    HW227042   6.756   4.031   6.443
 8715SOL     OW27043   2.568   5.355   0.893
 8715SOL    HW127044   2.553   5.431   0.956
 8715SOL    HW227045   2.652   5.371   0.841
 8716SOL     OW27046   5.708   0.529   2.461
 8716SOL    HW127047   5.632   0.561   2.404
 8716SOL    HW227048   5.700   0.431   2.477
 8717SOL     OW27049   3.452   1.903   0.578
 8717SOL    HW127050   3.537   1.869   0.538
 8717SOL    HW227051   3.429   1.849   0.658
 8718SOL     OW27052   2.816   5.462   6.151
 8718SOL    HW127053   2.716   5.469   6.150
 8718SOL    HW227054   2.843   5.367   6.159
 8719SOL     OW27055   3.007   1.703   4.963
 8719SOL    HW127056   3.042   1.793   4.989
 8719SOL    HW227057   3.020   1.691   4.864
 8720SOL     OW27058   0.634   6.067   4.960
 8720SOL    HW127059   0.627   6.163   4.987
 8720SOL    HW227060   0.727   6.047   4.930
 8721SOL     OW27061   1.158   0.529   1.121
 8721SOL    HW127062   1.223   0.483   1.061
 8721SOL    HW227063   1.090   0.578   1.066
 8722SOL     OW27064   3.989   1.324   0.410
 8722SOL    HW127065   4.032   1.234   0.414
 8722SOL    HW227066   3.981   1.361   0.502
 8723SOL     OW27067   4.034   6.280   3.095
 8723SOL    HW127068   4.038   6.292   2.996
 8723SOL    HW227069   3.944   6.309   3.129
 8724SOL     OW27070   3.330   1.011   5.256
 8724SOL    HW127071   3.419   1.026   5.211
 8724SOL    HW227072   3.263   0.983   5.187
 8725SOL     OW27073   7.010   0.826   2.247
 8725SOL    HW127074   0.021   0.833   2.156
 8725SOL    HW227075   0.052   0.814   2.315
 8726SOL     OW27076   6.789   1.201   0.732
 8726SOL    HW127077   6.776   1.236   0.639
 8726SOL    HW227078   6.886   1.183   0.748
 8727SOL     OW27079   4.971   5.488   6.826
 8727SOL    HW127080   5.050   5.427   6.820
 8727SOL    HW227081   4.961   5.538   6.740
 8728SOL     OW27082   6.184   6.244   4.202
 8728SOL    HW127083   6.150   6.257   4.295
 8728SOL    HW227084   6.246   6.319   4.179
 8729SOL     OW27085   5.545   5.880   5.937
 8729SOL    HW127086   5.631   5.854   5.980
 8729SOL    HW227087   5.519   5.971   5.967
 8730SOL     OW27088   3.897   4.765   1.826
 8730SOL    HW127089   3.971   4.719   1.777
 8730SOL    HW227090   3.926   4.784   1.920
 8731SOL     OW27091   0.380   2.537   4.027
 8731SOL    HW127092   0.412   2.600   3.956
 8731SOL    HW227093   0.305   2.580   4.078
 8732SOL     OW27094   5.206   6.229   5.377
 8732SOL    HW127095   5.293   6.255   5.336
 8732SOL    HW227096   5.202   6.130   5.389
 8733SOL     OW27097   6.625   4.387   2.095
 8733SOL    HW127098   6.633   4.319   2.022
 8733SOL    HW227099   6.686   4.363   2.170
 8734SOL     OW27100   0.972   5.187   0.961
 8734SOL    HW127101   1.047   5.249   0.939
 8734SOL    HW227102   0.892   5.240   0.990
 8735SOL     OW27103   1.086   3.135   6.184
 8735SOL    HW127104   1.151   3.070   6.145
 8735SOL    HW227105   1.093   3.222   6.135
 8736SOL     OW27106   1.855   6.284   3.310
 8736SOL    HW127107   1.882   6.188   3.319
 8736SOL    HW227108   1.756   6.292   3.324
 8737SOL     OW27109   0.119   5.711   6.634
 8737SOL    HW127110   0.049   5.650   6.671
 8737SOL    HW227111   0.206   5.695   6.681
 8738SOL     OW27112   1.996   3.073   2.205
 8738SOL    HW127113   2.057   3.004   2.245
 8738SOL    HW227114   1.920   3.029   2.159
 8739SOL     OW27115   4.477   4.462   2.659
 8739SOL    HW127116   4.533   4.383   2.632
 8739SOL    HW227117   4.472   4.467   2.758
 8740SOL     OW27118   2.809   1.462   3.334
 8740SOL    HW127119   2.851   1.517   3.406
 8740SOL    HW227120   2.875   1.447   3.260
 8741SOL     OW27121   1.651   2.135   2.276
 8741SOL    HW127122   1.565   2.088   2.254
 8741SOL    HW227123   1.666   2.208   2.210
 8742SOL     OW27124   1.929   3.176   1.830
 8742SOL    HW127125   2.006   3.183   1.894
 8742SOL    HW227126   1.951   3.108   1.759
 8743SOL     OW27127   0.980   3.540   6.900
 8743SOL    HW127128   1.010   3.468   6.838
 8743SOL    HW227129   1.056   3.567   6.959
 8744SOL     OW27130   3.247   4.148   6.260
 8744SOL    HW127131   3.150   4.163   6.282
 8744SOL    HW227132   3.303   4.172   6.339
 8745SOL     OW27133   5.827   1.726   6.571
 8745SOL    HW127134   5.744   1.679   6.602
 8745SOL    HW227135   5.803   1.792   6.500
 8746SOL     OW27136   4.257   4.913   4.774
 8746SOL    HW127137   4.328   4.982   4.779
 8746SOL    HW227138   4.259   4.857   4.857
 8747SOL     OW27139   0.899   0.112   2.289
 8747SOL    HW127140   0.938   0.203   2.308
 8747SOL    HW227141   0.971   0.054   2.250
 8748SOL     OW27142   5.714   1.580   4.101
 8748SOL    HW127143   5.619   1.606   4.086
 8748SOL    HW227144   5.740   1.600   4.196
 8749SOL     OW27145   2.877   1.795   4.081
 8749SOL    HW127146   2.871   1.858   4.158
 8749SOL    HW227147   2.898   1.846   3.998
 8750SOL     OW27148   4.382   3.737   1.104
 8750SOL    HW127149   4.328   3.654   1.094
 8750SOL    HW227150   4.346   3.808   1.043
 8751SOL     OW27151   2.213   0.239   0.628
 8751SOL    HW127152   2.125   0.247   0.580
 8751SOL    HW227153   2.280   0.299   0.584
 8752SOL     OW27154   0.192   3.276   6.122
 8752SOL    HW127155   0.148   3.225   6.196
 8752SOL    HW227156   0.181   3.227   6.036
 8753SOL     OW27157   2.281   1.840   1.027
 8753SOL    HW127158   2.195   1.891   1.022
 8753SOL    HW227159   2.323   1.837   0.936
 8754SOL     OW27160   1.207   6.043   5.907
 8754SOL    HW127161   1.242   5.998   5.989
 8754SOL    HW227162   1.112   6.068   5.921
 8755SOL     OW27163   0.764   2.394   1.824
 8755SOL    HW127164   0.711   2.463   1.873
 8755SOL    HW227165   0.832   2.355   1.886
 8756SOL     OW27166   1.789   1.763   2.149
 8756SOL    HW127167   1.773   1.774   2.051
 8756SOL    HW227168   1.872   1.710   2.164
 8757SOL     OW27169   5.612   6.015   4.630
 8757SOL    HW127170   5.641   6.101   4.672
 8757SOL    HW227171   5.574   6.034   4.539
 8758SOL     OW27172   3.693   5.446   6.354
 8758SOL    HW127173   3.619   5.512   6.339
 8758SOL    HW227174   3.699   5.386   6.275
 8759SOL     OW27175   6.483   1.378   1.721
 8759SOL    HW127176   6.424   1.310   1.679
 8759SOL    HW227177   6.427   1.452   1.758
 8760SOL     OW27178   1.893   2.106   4.658
 8760SOL    HW127179   1.990   2.128   4.646
 8760SOL    HW227180   1.850   2.178   4.712
 8761SOL     OW27181   4.819   2.650   3.280
 8761SOL    HW127182   4.761   2.656   3.362
 8761SOL    HW227183   4.784   2.578   3.220
 8762SOL     OW27184   4.493   6.099   3.168
 8762SOL    HW127185   4.519   6.039   3.092
 8762SOL    HW227186   4.473   6.191   3.133
 8763SOL     OW27187   6.888   1.423   5.306
 8763SOL    HW127188   6.904   1.445   5.210
 8763SOL    HW227189   6.889   1.324   5.318
 8764SOL     OW27190   3.527   4.849   6.032
 8764SOL    HW127191   3.511   4.948   6.033
 8764SOL    HW227192   3.461   4.804   5.972
 8765SOL     OW27193   4.650   6.656   4.099
 8765SOL    HW127194   4.565   6.682   4.054
 8765SOL    HW227195   4.689   6.576   4.053
 8766SOL     OW27196   5.939   0.300   4.779
 8766SOL    HW127197   6.013   0.307   4.846
 8766SOL    HW227198   5.853   0.327   4.822
 8767SOL     OW27199   1.890   0.908   5.013
 8767SOL    HW127200   1.878   0.812   5.039
 8767SOL    HW227201   1.988   0.930   5.012
 8768SOL     OW27202   6.732   1.810   1.045
 8768SOL    HW127203   6.688   1.864   1.116
 8768SOL    HW227204   6.684   1.824   0.958
 8769SOL     OW27205   6.426   6.650   5.988
 8769SOL    HW127206   6.356   6.714   5.956
 8769SOL    HW227207   6.516   6.694   5.985
 8770SOL     OW27208   4.654   1.446   0.274
 8770SOL    HW127209   4.596   1.461   0.354
 8770SOL    HW227210   4.743   1.491   0.288
 8771SOL     OW27211   0.648   2.373   6.386
 8771SOL    HW127212   0.675   2.454   6.334
 8771SOL    HW227213   0.649   2.293   6.325
 8772SOL     OW27214   0.737   6.757   3.686
 8772SOL    HW127215   0.706   6.763   3.590
 8772SOL    HW227216   0.826   6.711   3.689
 8773SOL     OW27217   0.136   1.187   3.652
 8773SOL    HW127218   0.180   1.192   3.742
 8773SOL    HW227219   0.091   1.273   3.632
 8774SOL     OW27220   1.318   2.073   6.948
 8774SOL    HW127221   1.224   2.096   6.923
 8774SOL    HW227222   1.344   1.987   6.903
 8775SOL     OW27223   5.136   2.025   2.840
 8775SOL    HW127224   5.136   2.034   2.740
 8775SOL    HW227225   5.137   1.928   2.864
 8776SOL     OW27226   5.049   2.364   1.444
 8776SOL    HW127227   5.092   2.400   1.361
 8776SOL    HW227228   4.981   2.429   1.477
 8777SOL     OW27229   6.544   2.274   4.129
 8777SOL    HW127230   6.511   2.221   4.051
 8777SOL    HW227231   6.644   2.278   4.126
 8778SOL     OW27232   2.465   3.817   6.971
 8778SOL    HW127233   2.422   3.907   6.962
 8778SOL    HW227234   2.409   3.758   7.029
 8779SOL     OW27235   3.758   6.038   3.285
 8779SOL    HW127236   3.764   6.068   3.189
 8779SOL    HW227237   3.797   5.946   3.293
 8780SOL     OW27238   0.931   4.107   4.043
 8780SOL    HW127239   0.996   4.139   3.974
 8780SOL    HW227240   0.907   4.012   4.025
 8781SOL     OW27241   3.501   1.770   1.897
 8781SOL    HW127242   3.402   1.760   1.896
 8781SOL    HW227243   3.525   1.863   1.925
 8782SOL     OW27244   6.754   2.552   0.420
 8782SOL    HW127245   6.810   2.485   0.371
 8782SOL    HW227246   6.717   2.510   0.503
 8783SOL     OW27247   3.756   3.728   5.215
 8783SOL    HW127248   3.753   3.814   5.265
 8783SOL    HW227249   3.694   3.662   5.257
 8784SOL     OW27250   4.489   0.990   6.340
 8784SOL    HW127251   4.402   0.942   6.326
 8784SOL    HW227252   4.536   0.952   6.419
 8785SOL     OW27253   6.936   6.106   6.325
 8785SOL    HW127254   7.004   6.179   6.332
 8785SOL    HW227255   6.978   6.019   6.350
 8786SOL     OW27256   5.567   2.467   3.230
 8786SOL    HW127257   5.654   2.451   3.184
 8786SOL    HW227258   5.502   2.509   3.167
 8787SOL     OW27259   3.463   4.875   2.484
 8787SOL    HW127260   3.502   4.884   2.393
 8787SOL    HW227261   3.364   4.887   2.480
 8788SOL     OW27262   0.140   6.116   3.853
 8788SOL    HW127263   0.068   6.169   3.809
 8788SOL    HW227264   0.101   6.030   3.888
 8789SOL     OW27265   1.310   3.488   0.104
 8789SOL    HW127266   1.282   3.392   0.104
 8789SOL    HW227267   1.389   3.500   0.164
 8790SOL     OW27268   5.082   2.985   5.160
 8790SOL    HW127269   5.117   3.078   5.145
 8790SOL    HW227270   5.006   2.968   5.096
 8791SOL     OW27271   4.404   6.555   5.351
 8791SOL    HW127272   4.487   6.591   5.310
 8791SOL    HW227273   4.428   6.492   5.425
 8792SOL     OW27274   5.748   4.879   0.684
 8792SOL    HW127275   5.756   4.793   0.633
 8792SOL    HW227276   5.663   4.925   0.660
 8793SOL     OW27277   6.147   0.058   5.596
 8793SOL    HW127278   6.151   0.020   5.688
 8793SOL    HW227279   6.055   0.094   5.579
 8794SOL     OW27280   0.281   2.223   3.330
 8794SOL    HW127281   0.279   2.320   3.357
 8794SOL    HW227282   0.188   2.193   3.309
 8795SOL     OW27283   1.567   6.912   6.628
 8795SOL    HW127284   1.502   6.846   6.592
 8795SOL    HW227285   1.636   6.865   6.683
 8796SOL     OW27286   5.649   4.588   4.531
 8796SOL    HW127287   5.636   4.493   4.503
 8796SOL    HW227288   5.747   4.609   4.535
 8797SOL     OW27289   4.948   6.142   4.953
 8797SOL    HW127290   5.008   6.097   4.886
 8797SOL    HW227291   4.870   6.184   4.905
 8798SOL     OW27292   1.816   5.979   5.884
 8798SOL    HW127293   1.834   6.077   5.873
 8798SOL    HW227294   1.789   5.961   5.979
 8799SOL     OW27295   1.378   6.431   1.839
 8799SOL    HW127296   1.376   6.461   1.744
 8799SOL    HW227297   1.466   6.387   1.858
 8800SOL     OW27298   6.562   5.639   3.779
 8800SOL    HW127299   6.463   5.647   3.787
 8800SOL    HW227300   6.584   5.564   3.715
 8801SOL     OW27301   4.838   3.412   5.613
 8801SOL    HW127302   4.883   3.477   5.675
 8801SOL    HW227303   4.747   3.446   5.590
 8802SOL     OW27304   1.175   6.648   6.734
 8802SOL    HW127305   1.121   6.720   6.691
 8802SOL    HW227306   1.272   6.664   6.718
 8803SOL     OW27307   5.264   5.561   5.056
 8803SOL    HW127308   5.235   5.648   5.015
 8803SOL    HW227309   5.293   5.498   4.984
 8804SOL     OW27310   1.726   6.888   2.001
 8804SOL    HW127311   1.670   6.928   1.929
 8804SOL    HW227312   1.668   6.842   2.068
 8805SOL     OW27313   5.112   4.757   2.046
 8805SOL    HW127314   5.174   4.831   2.022
 8805SOL    HW227315   5.060   4.781   2.128
 8806SOL     OW27316   1.161   0.971   2.041
 8806SOL    HW127317   1.250   1.013   2.024
 8806SOL    HW227318   1.150   0.955   2.139
 8807SOL     OW27319   6.201   2.356   1.867
 8807SOL    HW127320   6.118   2.302   1.882
 8807SOL    HW227321   6.252   2.364   1.952
 8808SOL     OW27322   1.680   1.729   0.293
 8808SOL    HW127323   1.672   1.654   0.359
 8808SOL    HW227324   1.592   1.776   0.285
 8809SOL     OW27325   0.585   3.617   3.076
 8809SOL    HW127326   0.661   3.551   3.079
 8809SOL    HW227327   0.621   3.709   3.065
 8810SOL     OW27328   6.536   2.326   4.400
 8810SOL    HW127329   6.528   2.268   4.319
 8810SOL    HW227330   6.487   2.412   4.385
 8811SOL     OW27331   3.858   5.247   2.181
 8811SOL    HW127332   3.852   5.196   2.267
 8811SOL    HW227333   3.809   5.197   2.109
 8812SOL     OW27334   5.643   0.322   0.319
 8812SOL    HW127335   5.621   0.350   0.226
 8812SOL    HW227336   5.736   0.351   0.342
 8813SOL     OW27337   1.447   2.745   1.858
 8813SOL    HW127338   1.505   2.670   1.890
 8813SOL    HW227339   1.473   2.769   1.765
 8814SOL     OW27340   5.436   6.893   4.696
 8814SOL    HW127341   5.341   6.918   4.715
 8814SOL    HW227342   5.487   6.973   4.665
 8815SOL     OW27343   5.193   0.997   1.079
 8815SOL    HW127344   5.187   0.986   0.980
 8815SOL    HW227345   5.101   1.000   1.117
 8816SOL     OW27346   6.706   0.302   3.348
 8816SOL    HW127347   6.711   0.218   3.402
 8816SOL    HW227348   6.756   0.289   3.262
 8817SOL     OW27349   1.310   2.261   3.633
 8817SOL    HW127350   1.370   2.341   3.639
 8817SOL    HW227351   1.280   2.249   3.539
 8818SOL     OW27352   1.161   6.596   6.425
 8818SOL    HW127353   1.177   6.519   6.487
 8818SOL    HW227354   1.247   6.623   6.382
 8819SOL     OW27355   5.087   6.074   6.041
 8819SOL    HW127356   5.002   6.027   6.020
 8819SOL    HW227357   5.159   6.007   6.060
 8820SOL     OW27358   3.698   6.584   5.801
 8820SOL    HW127359   3.642   6.579   5.718
 8820SOL    HW227360   3.768   6.654   5.790
 8821SOL     OW27361   0.518   5.113   5.435
 8821SOL    HW127362   0.432   5.159   5.411
 8821SOL    HW227363   0.592   5.179   5.437
 8822SOL     OW27364   6.327   0.160   4.753
 8822SOL    HW127365   6.325   0.244   4.808
 8822SOL    HW227366   6.235   0.121   4.748
 8823SOL     OW27367   4.751   2.088   3.129
 8823SOL    HW127368   4.826   2.069   3.064
 8823SOL    HW227369   4.664   2.067   3.086
 8824SOL     OW27370   1.933   0.255   4.345
 8824SOL    HW127371   1.834   0.268   4.338
 8824SOL    HW227372   1.980   0.337   4.313
 8825SOL     OW27373   1.131   6.983   0.460
 8825SOL    HW127374   1.209   6.984   0.523
 8825SOL    HW227375   1.071   6.907   0.485
 8826SOL     OW27376   0.438   3.890   0.407
 8826SOL    HW127377   0.348   3.847   0.412
 8826SOL    HW227378   0.498   3.852   0.477
 8827SOL     OW27379   4.956   6.264   3.557
 8827SOL    HW127380   5.018   6.186   3.562
 8827SOL    HW227381   4.970   6.313   3.471
 8828SOL     OW27382   5.363   2.483   5.870
 8828SOL    HW127383   5.324   2.403   5.916
 8828SOL    HW227384   5.390   2.458   5.777
 8829SOL     OW27385   6.224   1.020   2.955
 8829SOL    HW127386   6.256   1.103   2.908
 8829SOL    HW227387   6.274   1.009   3.041
 8830SOL     OW27388   3.346   0.753   2.978
 8830SOL    HW127389   3.370   0.840   3.021
 8830SOL    HW227390   3.329   0.684   3.049
 8831SOL     OW27391   0.740   2.848   2.788
 8831SOL    HW127392   0.822   2.853   2.846
 8831SOL    HW227393   0.759   2.792   2.708
 8832SOL     OW27394   5.712   0.452   5.199
 8832SOL    HW127395   5.677   0.362   5.224
 8832SOL    HW227396   5.792   0.474   5.255
 8833SOL     OW27397   4.861   2.849   0.833
 8833SOL    HW127398   4.801   2.769   0.820
 8833SOL    HW227399   4.840   2.918   0.764
 8834SOL     OW27400   5.592   4.607   6.271
 8834SOL    HW127401   5.673   4.632   6.218
 8834SOL    HW227402   5.510   4.618   6.215
 8835SOL     OW27403   6.572   1.075   5.246
 8835SOL    HW127404   6.490   1.099   5.195
 8835SOL    HW227405   6.651   1.122   5.207
 8836SOL     OW27406   4.279   1.077   1.220
 8836SOL    HW127407   4.189   1.040   1.241
 8836SOL    HW227408   4.310   1.135   1.296
 8837SOL     OW27409   4.554   5.111   0.220
 8837SOL    HW127410   4.528   5.154   0.134
 8837SOL    HW227411   4.550   5.012   0.211
 8838SOL     OW27412   1.805   4.031   2.505
 8838SOL    HW127413   1.840   4.084   2.429
 8838SOL    HW227414   1.818   3.933   2.488
 8839SOL     OW27415   4.194   4.700   1.341
 8839SOL    HW127416   4.288   4.682   1.311
 8839SOL    HW227417   4.150   4.763   1.277
 8840SOL     OW27418   0.550   0.540   1.671
 8840SOL    HW127419   0.641   0.562   1.705
 8840SOL    HW227420   0.499   0.624   1.654
 8841SOL     OW27421   3.684   1.220   1.267
 8841SOL    HW127422   3.742   1.300   1.250
 8841SOL    HW227423   3.687   1.160   1.187
 8842SOL     OW27424   3.273   3.337   3.656
 8842SOL    HW127425   3.259   3.432   3.629
 8842SOL    HW227426   3.283   3.331   3.755
 8843SOL     OW27427   2.213   6.143   5.420
 8843SOL    HW127428   2.213   6.145   5.320
 8843SOL    HW227429   2.299   6.179   5.454
 8844SOL     OW27430   3.317   3.044   5.945
 8844SOL    HW127431   3.257   2.964   5.948
 8844SOL    HW227432   3.409   3.018   5.971
 8845SOL     OW27433   0.408   3.502   2.300
 8845SOL    HW127434   0.312   3.481   2.318
 8845SOL    HW227435   0.423   3.505   2.201
 8846SOL     OW27436   5.419   5.368   4.277
 8846SOL    HW127437   5.379   5.382   4.187
 8846SOL    HW227438   5.346   5.366   4.346
 8847SOL     OW27439   0.653   2.401   3.804
 8847SOL    HW127440   0.708   2.318   3.806
 8847SOL    HW227441   0.698   2.472   3.858
 8848SOL     OW27442   6.263   2.255   0.856
 8848SOL    HW127443   6.226   2.244   0.948
 8848SOL    HW227444   6.302   2.168   0.825
 8849SOL     OW27445   2.913   5.480   4.505
 8849SOL    HW127446   2.853   5.447   4.578
 8849SOL    HW227447   2.919   5.411   4.433
 8850SOL     OW27448   3.189   2.408   0.973
 8850SOL    HW127449   3.279   2.451   0.967
 8850SOL    HW227450   3.176   2.372   1.066
 8851SOL     OW27451   6.902   5.116   2.767
 8851SOL    HW127452   6.930   5.134   2.862
 8851SOL    HW227453   6.947   5.032   2.735
 8852SOL     OW27454   5.054   3.597   4.448
 8852SOL    HW127455   5.153   3.594   4.452
 8852SOL    HW227456   5.022   3.548   4.366
 8853SOL     OW27457   4.981   1.709   4.995
 8853SOL    HW127458   5.038   1.728   4.915
 8853SOL    HW227459   4.898   1.661   4.967
 8854SOL     OW27460   2.917   1.217   5.884
 8854SOL    HW127461   3.010   1.237   5.852
 8854SOL    HW227462   2.851   1.243   5.813
 8855SOL     OW27463   6.225   4.916   6.309
 8855SOL    HW127464   6.245   4.832   6.260
 8855SOL    HW227465   6.127   4.938   6.299
 8856SOL     OW27466   5.890   1.418   5.544
 8856SOL    HW127467   5.848   1.402   5.454
 8856SOL    HW227468   5.959   1.348   5.562
 8857SOL     OW27469   2.125   3.327   4.637
 8857SOL    HW127470   2.121   3.407   4.577
 8857SOL    HW227471   2.142   3.358   4.731
 8858SOL     OW27472   0.054   3.523   5.494
 8858SOL    HW127473   0.049   3.483   5.585
 8858SOL    HW227474   7.019   3.476   5.433
 8859SOL     OW27475   2.631   6.669   5.471
 8859SOL    HW127476   2.634   6.578   5.512
 8859SOL    HW227477   2.655   6.737   5.541
 8860SOL     OW27478   2.141   1.611   1.151
 8860SOL    HW127479   2.134   1.525   1.099
 8860SOL    HW227480   2.190   1.679   1.097
 8861SOL     OW27481   2.469   2.772   0.598
 8861SOL    HW127482   2.561   2.810   0.593
 8861SOL    HW227483   2.467   2.685   0.547
 8862SOL     OW27484   6.704   1.961   4.599
 8862SOL    HW127485   6.766   2.006   4.664
 8862SOL    HW227486   6.619   2.013   4.592
 8863SOL     OW27487   1.738   5.712   5.123
 8863SOL    HW127488   1.695   5.781   5.066
 8863SOL    HW227489   1.830   5.692   5.087
 8864SOL     OW27490   2.074   4.270   6.058
 8864SOL    HW127491   2.114   4.179   6.046
 8864SOL    HW227492   2.129   4.338   6.009
 8865SOL     OW27493   3.001   2.281   5.866
 8865SOL    HW127494   2.903   2.283   5.845
 8865SOL    HW227495   3.046   2.360   5.825
 8866SOL     OW27496   5.028   0.034   5.190
 8866SOL    HW127497   5.002   6.973   5.156
 8866SOL    HW227498   4.985   0.104   5.133
 8867SOL     OW27499   6.320   0.930   4.046
 8867SOL    HW127500   6.375   0.874   4.109
 8867SOL    HW227501   6.381   0.974   3.980
 8868SOL     OW27502   5.310   3.636   0.709
 8868SOL    HW127503   5.264   3.719   0.677
 8868SOL    HW227504   5.242   3.567   0.734
 8869SOL     OW27505   3.259   2.151   3.097
 8869SOL    HW127506   3.330   2.117   3.159
 8869SOL    HW227507   3.217   2.075   3.048
 8870SOL     OW27508   4.810   0.928   2.186
 8870SOL    HW127509   4.776   0.995   2.252
 8870SOL    HW227510   4.869   0.973   2.120
 8871SOL     OW27511   1.670   2.153   3.671
 8871SOL    HW127512   1.703   2.111   3.587
 8871SOL    HW227513   1.587   2.106   3.701
 8872SOL     OW27514   0.958   2.198   2.143
 8872SOL    HW127515   0.985   2.208   2.047
 8872SOL    HW227516   0.916   2.108   2.156
 8873SOL     OW27517   0.012   5.847   4.538
 8873SOL    HW127518   0.033   5.897   4.454
 8873SOL    HW227519   0.021   5.908   4.617
 8874SOL     OW27520   0.935   1.491   6.299
 8874SOL    HW127521   1.023   1.537   6.289
 8874SOL    HW227522   0.864   1.546   6.254
 8875SOL     OW27523   1.356   0.967   4.633
 8875SOL    HW127524   1.451   0.975   4.605
 8875SOL    HW227525   1.298   0.955   4.553
 8876SOL     OW27526   3.157   1.100   4.665
 8876SOL    HW127527   3.180   1.013   4.624
 8876SOL    HW227528   3.058   1.104   4.681
 8877SOL     OW27529   2.899   6.722   4.321
 8877SOL    HW127530   2.922   6.659   4.394
 8877SOL    HW227531   2.980   6.775   4.295
 8878SOL     OW27532   5.682   4.949   5.008
 8878SOL    HW127533   5.681   5.049   5.004
 8878SOL    HW227534   5.751   4.913   4.945
 8879SOL     OW27535   4.556   5.598   4.673
 8879SOL    HW127536   4.644   5.575   4.631
 8879SOL    HW227537   4.490   5.619   4.601
 8880SOL     OW27538   0.470   6.675   4.843
 8880SOL    HW127539   0.560   6.632   4.832
 8880SOL    HW227540   0.399   6.605   4.834
 8881SOL     OW27541   7.029   1.252   2.184
 8881SOL    HW127542   6.929   1.253   2.181
 8881SOL    HW227543   0.030   1.189   2.255
 8882SOL     OW27544   5.143   2.583   0.321
 8882SOL    HW127545   5.235   2.544   0.322
 8882SOL    HW227546   5.110   2.594   0.414
 8883SOL     OW27547   6.170   0.941   5.632
 8883SOL    HW127548   6.206   1.031   5.610
 8883SOL    HW227549   6.225   0.871   5.586
 8884SOL     OW27550   0.353   1.480   6.588
 8884SOL    HW127551   0.400   1.539   6.523
 8884SOL    HW227552   0.255   1.479   6.567
 8885SOL     OW27553   5.636   3.493   1.687
 8885SOL    HW127554   5.549   3.540   1.705
 8885SOL    HW227555   5.676   3.529   1.603
 8886SOL     OW27556   3.010   5.693   5.875
 8886SOL    HW127557   3.045   5.697   5.969
 8886SOL    HW227558   3.013   5.598   5.842
 8887SOL     OW27559   1.803   1.626   0.960
 8887SOL    HW127560   1.796   1.534   0.999
 8887SOL    HW227561   1.729   1.683   0.995
 8888SOL     OW27562   2.833   1.858   2.915
 8888SOL    HW127563   2.846   1.954   2.892
 8888SOL    HW227564   2.789   1.851   3.005
 8889SOL     OW27565   3.375   0.706   4.380
 8889SOL    HW127566   3.463   0.724   4.335
 8889SOL    HW227567   3.390   0.647   4.459
 8890SOL     OW27568   0.217   4.258   3.184
 8890SOL    HW127569   0.162   4.176   3.194
 8890SOL    HW227570   0.206   4.316   3.265
 8891SOL     OW27571   2.843   1.679   6.011
 8891SOL    HW127572   2.858   1.740   5.933
 8891SOL    HW227573   2.777   1.721   6.074
 8892SOL     OW27574   1.363   0.003   2.588
 8892SOL    HW127575   1.393   0.066   2.517
 8892SOL    HW227576   1.267   7.009   2.575
 8893SOL     OW27577   0.428   1.198   0.762
 8893SOL    HW127578   0.475   1.112   0.745
 8893SOL    HW227579   0.396   1.236   0.675
 8894SOL     OW27580   4.588   2.755   6.202
 8894SOL    HW127581   4.634   2.725   6.285
 8894SOL    HW227582   4.578   2.677   6.140
 8895SOL     OW27583   1.978   1.351   2.940
 8895SOL    HW127584   2.005   1.307   2.854
 8895SOL    HW227585   1.963   1.449   2.924
 8896SOL     OW27586   2.331   4.293   5.139
 8896SOL    HW127587   2.407   4.327   5.194
 8896SOL    HW227588   2.339   4.194   5.128
 8897SOL     OW27589   1.027   2.501   1.465
 8897SOL    HW127590   1.069   2.509   1.555
 8897SOL    HW227591   1.099   2.495   1.395
 8898SOL     OW27592   0.395   2.926   5.319
 8898SOL    HW127593   0.335   2.950   5.243
 8898SOL    HW227594   0.342   2.879   5.390
 8899SOL     OW27595   3.097   5.373   1.731
 8899SOL    HW127596   3.068   5.305   1.798
 8899SOL    HW227597   3.063   5.347   1.640
 8900SOL     OW27598   6.768   1.847   3.521
 8900SOL    HW127599   6.715   1.767   3.550
 8900SOL    HW227600   6.812   1.889   3.601
 8901SOL     OW27601   2.141   0.196   1.722
 8901SOL    HW127602   2.123   0.290   1.694
 8901SOL    HW227603   2.196   0.150   1.651
 8902SOL     OW27604   3.194   6.273   5.778
 8902SOL    HW127605   3.237   6.190   5.743
 8902SOL    HW227606   3.256   6.318   5.843
 8903SOL     OW27607   6.811   0.243   2.461
 8903SOL    HW127608   6.750   0.168   2.437
 8903SOL    HW227609   6.762   0.310   2.518
 8904SOL     OW27610   1.313   4.838   3.133
 8904SOL    HW127611   1.232   4.781   3.143
 8904SOL    HW227612   1.395   4.782   3.148
 8905SOL     OW27613   2.274   4.222   4.782
 8905SOL    HW127614   2.323   4.150   4.830
 8905SOL    HW227615   2.177   4.219   4.807
 8906SOL     OW27616   2.132   5.018   4.556
 8906SOL    HW127617   2.123   4.967   4.470
 8906SOL    HW227618   2.045   5.062   4.578
 8907SOL     OW27619   3.752   2.514   6.586
 8907SOL    HW127620   3.821   2.464   6.638
 8907SOL    HW227621   3.699   2.450   6.530
 8908SOL     OW27622   0.941   2.651   2.973
 8908SOL    HW127623   0.870   2.662   3.042
 8908SOL    HW227624   1.028   2.687   3.009
 8909SOL     OW27625   3.598   0.292   5.542
 8909SOL    HW127626   3.616   0.218   5.608
 8909SOL    HW227627   3.521   0.266   5.483
 8910SOL     OW27628   3.947   3.139   0.244
 8910SOL    HW127629   3.880   3.167   0.313
 8910SOL    HW227630   3.968   3.042   0.255
 8911SOL     OW27631   5.190   2.121   3.526
 8911SOL    HW127632   5.123   2.192   3.551
 8911SOL    HW227633   5.244   2.153   3.448
 8912SOL     OW27634   5.201   0.747   6.544
 8912SOL    HW127635   5.122   0.800   6.513
 8912SOL    HW227636   5.235   0.785   6.630
 8913SOL     OW27637   4.285   3.964   1.389
 8913SOL    HW127638   4.312   4.008   1.304
 8913SOL    HW227639   4.316   4.018   1.467
 8914SOL     OW27640   4.672   2.170   3.681
 8914SOL    HW127641   4.650   2.094   3.621
 8914SOL    HW227642   4.736   2.232   3.635
 8915SOL     OW27643   0.913   5.481   2.175
 8915SOL    HW127644   0.877   5.448   2.088
 8915SOL    HW227645   0.925   5.581   2.171
 8916SOL     OW27646   5.783   3.281   2.682
 8916SOL    HW127647   5.716   3.332   2.628
 8916SOL    HW227648   5.740   3.197   2.716
 8917SOL     OW27649   5.413   4.869   4.952
 8917SOL    HW127650   5.392   4.826   5.040
 8917SOL    HW227651   5.512   4.883   4.946
 8918SOL     OW27652   4.703   3.753   6.247
 8918SOL    HW127653   4.697   3.659   6.212
 8918SOL    HW227654   4.795   3.788   6.233
 8919SOL     OW27655   2.228   3.351   1.569
 8919SOL    HW127656   2.162   3.327   1.498
 8919SOL    HW227657   2.253   3.268   1.619
 8920SOL     OW27658   6.666   5.332   5.621
 8920SOL    HW127659   6.759   5.360   5.596
 8920SOL    HW227660   6.666   5.295   5.713
 8921SOL     OW27661   0.931   5.406   3.886
 8921SOL    HW127662   0.831   5.406   3.890
 8921SOL    HW227663   0.963   5.496   3.855
 8922SOL     OW27664   6.862   3.895   6.426
 8922SOL    HW127665   6.913   3.971   6.387
 8922SOL    HW227666   6.891   3.809   6.382
 8923SOL     OW27667   2.467   4.515   4.286
 8923SOL    HW127668   2.474   4.445   4.358
 8923SOL    HW227669   2.431   4.599   4.326
 8924SOL     OW27670   2.123   6.346   4.893
 8924SOL    HW127671   2.204   6.404   4.893
 8924SOL    HW227672   2.088   6.336   4.800
 8925SOL     OW27673   4.671   5.261   1.393
 8925SOL    HW127674   4.705   5.311   1.472
 8925SOL    HW227675   4.695   5.164   1.402
 8926SOL     OW27676   5.945   0.294   0.049
 8926SOL    HW127677   5.951   0.351   6.996
 8926SOL    HW227678   6.033   0.292   0.094
 8927SOL     OW27679   2.495   1.558   4.539
 8927SOL    HW127680   2.432   1.633   4.560
 8927SOL    HW227681   2.567   1.590   4.478
 8928SOL     OW27682   0.954   7.022   4.992
 8928SOL    HW127683   0.951   0.085   5.029
 8928SOL    HW227684   0.877   6.970   5.026
 8929SOL     OW27685   5.194   4.149   3.634
 8929SOL    HW127686   5.132   4.228   3.631
 8929SOL    HW227687   5.147   4.072   3.677
 8930SOL     OW27688   0.572   5.615   5.386
 8930SOL    HW127689   0.601   5.551   5.314
 8930SOL    HW227690   0.592   5.708   5.357
 8931SOL     OW27691   4.654   1.338   1.699
 8931SOL    HW127692   4.654   1.438   1.688
 8931SOL    HW227693   4.700   1.296   1.622
 8932SOL     OW27694   5.594   1.133   0.212
 8932SOL    HW127695   5.522   1.203   0.210
 8932SOL    HW227696   5.572   1.066   0.283
 8933SOL     OW27697   1.376   0.377   5.237
 8933SOL    HW127698   1.296   0.394   5.179
 8933SOL    HW227699   1.447   0.445   5.217
 8934SOL     OW27700   3.820   0.046   4.256
 8934SOL    HW127701   3.887   7.024   4.309
 8934SOL    HW227702   3.783   7.019   4.183
 8935SOL     OW27703   5.817   1.800   2.886
 8935SOL    HW127704   5.732   1.751   2.870
 8935SOL    HW227705   5.863   1.817   2.799
 8936SOL     OW27706   1.469   4.068   2.356
 8936SOL    HW127707   1.501   3.983   2.314
 8936SOL    HW227708   1.475   4.061   2.455
 8937SOL     OW27709   3.515   0.202   4.902
 8937SOL    HW127710   3.447   0.224   4.972
 8937SOL    HW227711   3.570   0.125   4.933
 8938SOL     OW27712   5.647   6.323   1.193
 8938SOL    HW127713   5.572   6.274   1.237
 8938SOL    HW227714   5.658   6.413   1.235
 8939SOL     OW27715   6.970   3.140   4.863
 8939SOL    HW127716   6.968   3.083   4.944
 8939SOL    HW227717   6.899   3.211   4.870
 8940SOL     OW27718   6.504   3.276   2.646
 8940SOL    HW127719   6.560   3.193   2.645
 8940SOL    HW227720   6.428   3.266   2.582
 8941SOL     OW27721   5.866   2.174   3.262
 8941SOL    HW127722   5.871   2.101   3.194
 8941SOL    HW227723   5.808   2.145   3.338
 8942SOL     OW27724   4.746   4.924   3.999
 8942SOL    HW127725   4.737   4.833   4.038
 8942SOL    HW227726   4.736   4.993   4.071
 8943SOL     OW27727   4.232   3.280   0.598
 8943SOL    HW127728   4.331   3.291   0.594
 8943SOL    HW227729   4.210   3.195   0.646
 8944SOL     OW27730   4.787   6.481   4.963
 8944SOL    HW127731   4.788   6.387   4.995
 8944SOL    HW227732   4.824   6.486   4.870
 8945SOL     OW27733   6.472   5.028   1.489
 8945SOL    HW127734   6.442   4.932   1.487
 8945SOL    HW227735   6.392   5.087   1.491
 8946SOL     OW27736   3.517   1.524   4.724
 8946SOL    HW127737   3.499   1.508   4.627
 8946SOL    HW227738   3.601   1.579   4.733
 8947SOL     OW27739   2.459   5.025   0.588
 8947SOL    HW127740   2.491   4.933   0.563
 8947SOL    HW227741   2.407   5.064   0.513
 8948SOL     OW27742   5.460   0.301   2.728
 8948SOL    HW127743   5.410   0.387   2.730
 8948SOL    HW227744   5.525   0.302   2.652
 8949SOL     OW27745   3.589   6.316   0.946
 8949SOL    HW127746   3.656   6.363   0.889
 8949SOL    HW227747   3.497   6.351   0.924
 8950SOL     OW27748   3.514   4.141   2.902
 8950SOL    HW127749   3.593   4.126   2.843
 8950SOL    HW227750   3.430   4.132   2.849
 8951SOL     OW27751   0.573   0.793   3.772
 8951SOL    HW127752   0.497   0.806   3.708
 8951SOL    HW227753   0.589   0.879   3.821
 8952SOL     OW27754   1.253   4.027   4.810
 8952SOL    HW127755   1.164   3.982   4.824
 8952SOL    HW227756   1.323   3.958   4.792
 8953SOL     OW27757   0.331   5.348   0.606
 8953SOL    HW127758   0.354   5.367   0.702
 8953SOL    HW227759   0.268   5.271   0.602
 8954SOL     OW27760   2.336   4.491   5.389
 8954SOL    HW127761   2.286   4.551   5.327
 8954SOL    HW227762   2.283   4.409   5.406
 8955SOL     OW27763   6.142   3.260   5.992
 8955SOL    HW127764   6.159   3.355   5.966
 8955SOL    HW227765   6.180   3.243   6.083
 8956SOL     OW27766   0.618   6.133   0.400
 8956SOL    HW127767   0.600   6.035   0.396
 8956SOL    HW227768   0.666   6.156   0.484
 8957SOL     OW27769   1.740   0.133   3.468
 8957SOL    HW127770   1.807   0.077   3.419
 8957SOL    HW227771   1.740   0.225   3.431
 8958SOL     OW27772   6.561   3.598   4.905
 8958SOL    HW127773   6.528   3.568   4.994
 8958SOL    HW227774   6.656   3.627   4.913
 8959SOL     OW27775   5.318   1.873   4.132
 8959SOL    HW127776   5.250   1.871   4.205
 8959SOL    HW227777   5.293   1.943   4.065
 8960SOL     OW27778   5.268   4.781   2.544
 8960SOL    HW127779   5.268   4.769   2.644
 8960SOL    HW227780   5.197   4.847   2.519
 8961SOL     OW27781   2.201   1.656   5.437
 8961SOL    HW127782   2.270   1.724   5.411
 8961SOL    HW227783   2.133   1.648   5.364
 8962SOL     OW27784   6.853   6.199   2.162
 8962SOL    HW127785   6.869   6.189   2.260
 8962SOL    HW227786   6.756   6.182   2.142
 8963SOL     OW27787   2.483   6.048   6.015
 8963SOL    HW127788   2.561   5.987   6.024
 8963SOL    HW227789   2.418   6.010   5.949
 8964SOL     OW27790   1.466   2.727   3.505
 8964SOL    HW127791   1.475   2.802   3.440
 8964SOL    HW227792   1.480   2.762   3.598
 8965SOL     OW27793   3.606   6.159   0.298
 8965SOL    HW127794   3.620   6.087   0.230
 8965SOL    HW227795   3.520   6.142   0.347
 8966SOL     OW27796   5.105   6.979   5.482
 8966SOL    HW127797   5.073   6.886   5.503
 8966SOL    HW227798   5.137   6.983   5.388
 8967SOL     OW27799   2.797   0.271   3.160
 8967SOL    HW127800   2.889   0.307   3.173
 8967SOL    HW227801   2.799   0.195   3.095
 8968SOL     OW27802   2.879   5.291   2.862
 8968SOL    HW127803   2.848   5.263   2.771
 8968SOL    HW227804   2.811   5.353   2.902
 8969SOL     OW27805   0.080   1.351   2.559
 8969SOL    HW127806   7.025   1.342   2.612
 8969SOL    HW227807   0.099   1.265   2.512
 8970SOL     OW27808   2.451   1.497   3.636
 8970SOL    HW127809   2.415   1.534   3.551
 8970SOL    HW227810   2.422   1.402   3.646
 8971SOL     OW27811   3.023   4.576   1.199
 8971SOL    HW127812   3.096   4.601   1.262
 8971SOL    HW227813   2.935   4.607   1.235
 8972SOL     OW27814   6.095   4.099   6.612
 8972SOL    HW127815   6.046   4.154   6.679
 8972SOL    HW227816   6.041   4.093   6.528
 8973SOL     OW27817   2.463   1.855   3.815
 8973SOL    HW127818   2.466   1.756   3.829
 8973SOL    HW227819   2.475   1.902   3.902
 8974SOL     OW27820   2.095   4.404   5.074
 8974SOL    HW127821   2.034   4.341   5.122
 8974SOL    HW227822   2.179   4.356   5.047
 8975SOL     OW27823   0.466   3.167   6.293
 8975SOL    HW127824   0.458   3.101   6.219
 8975SOL    HW227825   0.417   3.133   6.373
 8976SOL     OW27826   5.785   0.193   1.525
 8976SOL    HW127827   5.724   0.205   1.603
 8976SOL    HW227828   5.849   0.270   1.520
 8977SOL     OW27829   6.926   4.881   6.237
 8977SOL    HW127830   6.887   4.805   6.289
 8977SOL    HW227831   6.974   4.943   6.300
 8978SOL     OW27832   6.621   5.672   5.273
 8978SOL    HW127833   6.713   5.675   5.235
 8978SOL    HW227834   6.589   5.577   5.278
 8979SOL     OW27835   1.870   4.819   3.607
 8979SOL    HW127836   1.832   4.835   3.698
 8979SOL    HW227837   1.809   4.857   3.538
 8980SOL     OW27838   4.432   0.733   0.582
 8980SOL    HW127839   4.359   0.744   0.514
 8980SOL    HW227840   4.393   0.740   0.674
 8981SOL     OW27841   4.038   2.029   0.187
 8981SOL    HW127842   4.096   2.083   0.126
 8981SOL    HW227843   3.946   2.023   0.149
 8982SOL     OW27844   0.390   1.005   2.232
 8982SOL    HW127845   0.373   0.909   2.253
 8982SOL    HW227846   0.368   1.061   2.312
 8983SOL     OW27847   0.878   0.030   2.687
 8983SOL    HW127848   0.938   7.022   2.617
 8983SOL    HW227849   0.846   6.987   2.747
 8984SOL     OW27850   6.251   1.087   4.360
 8984SOL    HW127851   6.254   1.150   4.438
 8984SOL    HW227852   6.254   1.140   4.275
 8985SOL     OW27853   5.001   0.164   2.104
 8985SOL    HW127854   5.073   0.233   2.096
 8985SOL    HW227855   5.010   0.116   2.191
 8986SOL     OW27856   0.397   6.331   0.086
 8986SOL    HW127857   0.488   6.305   0.054
 8986SOL    HW227858   0.343   6.367   0.010
 8987SOL     OW27859   2.845   6.327   2.839
 8987SOL    HW127860   2.808   6.246   2.793
 8987SOL    HW227861   2.781   6.358   2.909
 8988SOL     OW27862   2.570   0.377   0.734
 8988SOL    HW127863   2.543   0.305   0.670
 8988SOL    HW227864   2.635   0.438   0.689
 8989SOL     OW27865   5.775   0.690   2.003
 8989SOL    HW127866   5.721   0.668   1.922
 8989SOL    HW227867   5.803   0.606   2.049
 8990SOL     OW27868   3.903   1.170   2.781
 8990SOL    HW127869   3.852   1.243   2.735
 8990SOL    HW227870   3.851   1.085   2.778
 8991SOL     OW27871   1.196   1.951   0.890
 8991SOL    HW127872   1.242   2.033   0.857
 8991SOL    HW227873   1.212   1.876   0.826
 8992SOL     OW27874   0.170   4.875   6.059
 8992SOL    HW127875   0.219   4.813   6.120
 8992SOL    HW227876   0.233   4.945   6.025
 8993SOL     OW27877   5.113   3.970   4.017
 8993SOL    HW127878   5.017   3.944   4.008
 8993SOL    HW227879   5.171   3.900   3.975
 8994SOL     OW27880   1.226   6.146   2.271
 8994SOL    HW127881   1.217   6.169   2.174
 8994SOL    HW227882   1.242   6.229   2.324
 8995SOL     OW27883   2.125   3.690   3.516
 8995SOL    HW127884   2.036   3.657   3.487
 8995SOL    HW227885   2.155   3.763   3.456
 8996SOL     OW27886   2.291   3.919   1.324
 8996SOL    HW127887   2.247   3.978   1.391
 8996SOL    HW227888   2.263   3.947   1.232
 8997SOL     OW27889   4.419   1.135   5.222
 8997SOL    HW127890   4.436   1.051   5.171
 8997SOL    HW227891   4.505   1.173   5.254
 8998SOL     OW27892   0.998   1.651   6.623
 8998SOL    HW127893   1.058   1.723   6.659
 8998SOL    HW227894   1.025   1.563   6.661
 8999SOL     OW27895   5.529   2.789   5.624
 8999SOL    HW127896   5.446   2.844   5.615
 8999SOL    HW227897   5.511   2.697   5.589
 9000SOL     OW27898   4.428   4.598   1.242
 9000SOL    HW127899   4.415   4.531   1.315
 9000SOL    HW227900   4.498   4.565   1.179
 9001SOL     OW27901   1.019   3.923   3.392
 9001SOL    HW127902   1.074   3.980   3.453
 9001SOL    HW227903   1.079   3.872   3.331
 9002SOL     OW27904   5.437   3.494   5.672
 9002SOL    HW127905   5.378   3.419   5.643
 9002SOL    HW227906   5.452   3.556   5.595
 9003SOL     OW27907   6.462   2.797   6.706
 9003SOL    HW127908   6.430   2.807   6.800
 9003SOL    HW227909   6.521   2.874   6.682
 9004SOL     OW27910   4.655   5.474   0.807
 9004SOL    HW127911   4.727   5.415   0.843
 9004SOL    HW227912   4.566   5.429   0.819
 9005SOL     OW27913   4.885   3.014   3.199
 9005SOL    HW127914   4.893   3.105   3.158
 9005SOL    HW227915   4.957   2.954   3.162
 9006SOL     OW27916   2.616   6.755   1.652
 9006SOL    HW127917   2.611   6.738   1.554
 9006SOL    HW227918   2.690   6.702   1.692
 9007SOL     OW27919   1.682   6.157   5.166
 9007SOL    HW127920   1.761   6.107   5.202
 9007SOL    HW227921   1.599   6.129   5.214
 9008SOL     OW27922   0.358   4.122   1.754
 9008SOL    HW127923   0.289   4.119   1.682
 9008SOL    HW227924   0.319   4.169   1.834
 9009SOL     OW27925   4.053   6.308   0.072
 9009SOL    HW127926   4.078   6.392   0.120
 9009SOL    HW227927   3.981   6.328   0.005
 9010SOL     OW27928   6.558   6.065   4.358
 9010SOL    HW127929   6.658   6.051   4.360
 9010SOL    HW227930   6.526   6.062   4.263
 9011SOL     OW27931   4.592   2.595   2.181
 9011SOL    HW127932   4.594   2.629   2.087
 9011SOL    HW227933   4.652   2.650   2.238
 9012SOL     OW27934   4.856   5.105   2.396
 9012SOL    HW127935   4.833   5.017   2.437
 9012SOL    HW227936   4.806   5.115   2.309
 9013SOL     OW27937   4.535   6.094   2.079
 9013SOL    HW127938   4.448   6.103   2.127
 9013SOL    HW227939   4.544   6.169   2.013
 9014SOL     OW27940   2.892   0.510   1.793
 9014SOL    HW127941   2.982   0.473   1.817
 9014SOL    HW227942   2.903   0.599   1.750
 9015SOL     OW27943   6.085   2.196   4.592
 9015SOL    HW127944   6.058   2.207   4.496
 9015SOL    HW227945   6.178   2.160   4.597
 9016SOL     OW27946   0.303   6.014   0.136
 9016SOL    HW127947   0.359   6.097   0.129
 9016SOL    HW227948   0.215   6.038   0.177
 9017SOL     OW27949   6.774   3.530   2.913
 9017SOL    HW127950   6.754   3.441   2.955
 9017SOL    HW227951   6.718   3.601   2.956
 9018SOL     OW27952   4.694   1.778   6.659
 9018SOL    HW127953   4.780   1.826   6.675
 9018SOL    HW227954   4.619   1.825   6.706
 9019SOL     OW27955   1.962   5.670   6.914
 9019SOL    HW127956   1.952   5.616   6.998
 9019SOL    HW227957   1.880   5.660   6.858
 9020SOL     OW27958   0.811   4.805   4.114
 9020SOL    HW127959   0.804   4.710   4.083
 9020SOL    HW227960   0.723   4.834   4.151
 9021SOL     OW27961   5.820   5.271   5.727
 9021SOL    HW127962   5.805   5.249   5.630
 9021SOL    HW227963   5.784   5.197   5.784
 9022SOL     OW27964   2.914   0.155   6.606
 9022SOL    HW127965   2.971   0.136   6.686
 9022SOL    HW227966   2.926   0.250   6.579
 9023SOL     OW27967   3.070   3.956   3.862
 9023SOL    HW127968   3.148   3.978   3.922
 9023SOL    HW227969   2.998   3.914   3.917
 9024SOL     OW27970   1.103   0.036   6.225
 9024SOL    HW127971   1.191   0.080   6.211
 9024SOL    HW227972   1.064   0.067   6.312
 9025SOL     OW27973   0.248   3.178   0.094
 9025SOL    HW127974   0.267   3.206   7.029
 9025SOL    HW227975   0.202   3.252   0.142
 9026SOL     OW27976   2.831   3.347   5.599
 9026SOL    HW127977   2.929   3.336   5.579
 9026SOL    HW227978   2.779   3.342   5.514
 9027SOL     OW27979   1.619   2.935   2.457
 9027SOL    HW127980   1.563   2.930   2.540
 9027SOL    HW227981   1.716   2.932   2.483
 9028SOL     OW27982   2.529   4.646   4.646
 9028SOL    HW127983   2.535   4.607   4.738
 9028SOL    HW227984   2.581   4.731   4.643
 9029SOL     OW27985   5.547   5.463   2.442
 9029SOL    HW127986   5.601   5.466   2.526
 9029SOL    HW227987   5.450   5.465   2.464
 9030SOL     OW27988   4.193   2.253   2.785
 9030SOL    HW127989   4.267   2.187   2.769
 9030SOL    HW227990   4.119   2.236   2.720
 9031SOL     OW27991   2.888   1.179   1.721
 9031SOL    HW127992   2.815   1.119   1.689
 9031SOL    HW227993   2.856   1.231   1.801
 9032SOL     OW27994   0.613   2.915   2.336
 9032SOL    HW127995   0.676   2.883   2.407
 9032SOL    HW227996   0.619   2.854   2.257
 9033SOL     OW27997   0.972   3.922   2.603
 9033SOL    HW127998   0.962   3.953   2.508
 9033SOL    HW227999   0.884   3.889   2.636
 9034SOL     OW28000   1.797   6.792   6.731
 9034SOL    HW128001   1.760   6.704   6.701
 9034SOL    HW228002   1.886   6.807   6.688
 9035SOL     OW28003   6.305   1.278   4.547
 9035SOL    HW128004   6.400   1.296   4.522
 9035SOL    HW228005   6.266   1.359   4.590
 9036SOL     OW28006   0.581   1.031   4.882
 9036SOL    HW128007   0.643   0.955   4.864
 9036SOL    HW228008   0.567   1.083   4.797
 9037SOL     OW28009   2.668   4.502   5.778
 9037SOL    HW128010   2.741   4.497   5.846
 9037SOL    HW228011   2.630   4.594   5.776
 9038SOL     OW28012   5.037   5.124   5.753
 9038SOL    HW128013   4.975   5.203   5.743
 9038SOL    HW228014   5.064   5.116   5.849
 9039SOL     OW28015   2.149   5.099   6.530
 9039SOL    HW128016   2.126   5.136   6.440
 9039SOL    HW228017   2.248   5.084   6.535
 9040SOL     OW28018   2.755   1.520   2.641
 9040SOL    HW128019   2.717   1.612   2.648
 9040SOL    HW228020   2.682   1.455   2.622
 9041SOL     OW28021   1.585   3.195   5.962
 9041SOL    HW128022   1.669   3.249   5.970
 9041SOL    HW228023   1.582   3.127   6.035
 9042SOL     OW28024   1.755   5.645   2.613
 9042SOL    HW128025   1.753   5.548   2.637
 9042SOL    HW228026   1.684   5.664   2.546
 9043SOL     OW28027   0.208   2.045   6.746
 9043SOL    HW128028   0.238   2.097   6.826
 9043SOL    HW228029   0.140   2.098   6.695
 9044SOL     OW28030   0.123   3.884   0.510
 9044SOL    HW128031   0.094   3.979   0.510
 9044SOL    HW228032   0.076   3.834   0.584
 9045SOL     OW28033   2.318   4.714   4.441
 9045SOL    HW128034   2.378   4.715   4.521
 9045SOL    HW228035   2.224   4.699   4.470
 9046SOL     OW28036   3.656   4.280   6.237
 9046SOL    HW128037   3.725   4.209   6.252
 9046SOL    HW228038   3.672   4.324   6.149
 9047SOL     OW28039   0.572   4.385   4.180
 9047SOL    HW128040   0.502   4.336   4.233
 9047SOL    HW228041   0.642   4.420   4.242
 9048SOL     OW28042   1.615   2.225   5.011
 9048SOL    HW128043   1.591   2.321   4.994
 9048SOL    HW228044   1.714   2.217   5.020
 9049SOL     OW28045   5.110   6.288   6.242
 9049SOL    HW128046   5.127   6.229   6.163
 9049SOL    HW228047   5.085   6.380   6.209
 9050SOL     OW28048   0.203   5.189   5.816
 9050SOL    HW128049   0.209   5.155   5.722
 9050SOL    HW228050   0.199   5.289   5.815
 9051SOL     OW28051   5.947   6.634   6.216
 9051SOL    HW128052   5.925   6.647   6.120
 9051SOL    HW228053   5.871   6.666   6.273
 9052SOL     OW28054   2.935   5.066   4.961
 9052SOL    HW128055   2.874   5.143   4.942
 9052SOL    HW228056   2.883   4.981   4.959
 9053SOL     OW28057   2.548   1.208   2.988
 9053SOL    HW128058   2.612   1.189   2.913
 9053SOL    HW228059   2.471   1.145   2.982
 9054SOL     OW28060   1.930   0.083   1.166
 9054SOL    HW128061   2.028   0.091   1.144
 9054SOL    HW228062   1.920   0.047   1.259
 9055SOL     OW28063   0.982   2.462   4.616
 9055SOL    HW128064   1.006   2.392   4.683
 9055SOL    HW228065   1.057   2.528   4.610
 9056SOL     OW28066   4.533   2.384   1.776
 9056SOL    HW128067   4.579   2.343   1.855
 9056SOL    HW228068   4.451   2.331   1.754
 9057SOL     OW28069   3.553   6.519   6.889
 9057SOL    HW128070   3.499   6.434   6.889
 9057SOL    HW228071   3.550   6.561   6.798
 9058SOL     OW28072   2.234   2.000   4.444
 9058SOL    HW128073   2.331   2.011   4.420
 9058SOL    HW228074   2.178   2.021   4.364
 9059SOL     OW28075   6.776   0.937   1.987
 9059SOL    HW128076   6.767   0.933   1.888
 9059SOL    HW228077   6.809   0.848   2.021
 9060SOL     OW28078   6.557   4.753   0.647
 9060SOL    HW128079   6.523   4.847   0.644
 9060SOL    HW228080   6.527   4.709   0.731
 9061SOL     OW28081   4.703   4.465   2.150
 9061SOL    HW128082   4.618   4.425   2.116
 9061SOL    HW228083   4.779   4.434   2.093
 9062SOL     OW28084   0.661   5.550   3.176
 9062SOL    HW128085   0.656   5.495   3.093
 9062SOL    HW228086   0.699   5.495   3.250
 9063SOL     OW28087   4.646   0.442   0.613
 9063SOL    HW128088   4.595   0.446   0.700
 9063SOL    HW228089   4.711   0.367   0.615
 9064SOL     OW28090   0.963   5.470   2.878
 9064SOL    HW128091   0.898   5.538   2.911
 9064SOL    HW228092   1.014   5.432   2.955
 9065SOL     OW28093   3.896   3.919   7.008
 9065SOL    HW128094   3.891   3.856   6.931
 9065SOL    HW228095   3.803   3.948   0.003
 9066SOL     OW28096   4.975   4.618   3.734
 9066SOL    HW128097   4.933   4.704   3.705
 9066SOL    HW228098   4.936   4.591   3.822
 9067SOL     OW28099   2.070   6.841   4.067
 9067SOL    HW128100   1.996   6.792   4.114
 9067SOL    HW228101   2.056   6.940   4.079
 9068SOL     OW28102   4.808   7.001   6.063
 9068SOL    HW128103   4.863   0.054   6.051
 9068SOL    HW228104   4.718   7.026   6.098
 9069SOL     OW28105   4.897   2.058   1.995
 9069SOL    HW128106   4.984   2.103   2.017
 9069SOL    HW228107   4.840   2.052   2.077
 9070SOL     OW28108   1.544   0.677   6.386
 9070SOL    HW128109   1.485   0.712   6.313
 9070SOL    HW228110   1.634   0.721   6.380
 9071SOL     OW28111   4.680   2.437   6.683
 9071SOL    HW128112   4.760   2.435   6.624
 9071SOL    HW228113   4.698   2.383   6.766
 9072SOL     OW28114   6.213   0.257   1.924
 9072SOL    HW128115   6.227   0.356   1.918
 9072SOL    HW228116   6.129   0.238   1.975
 9073SOL     OW28117   4.790   3.118   5.539
 9073SOL    HW128118   4.849   3.196   5.559
 9073SOL    HW228119   4.747   3.086   5.623
 9074SOL     OW28120   2.304   1.172   3.957
 9074SOL    HW128121   2.290   1.183   3.859
 9074SOL    HW228122   2.402   1.173   3.977
 9075SOL     OW28123   5.003   5.380   0.525
 9075SOL    HW128124   5.083   5.433   0.552
 9075SOL    HW228125   5.019   5.283   0.540
 9076SOL     OW28126   1.496   6.223   2.655
 9076SOL    HW128127   1.445   6.253   2.735
 9076SOL    HW228128   1.466   6.131   2.629
 9077SOL     OW28129   6.446   1.706   6.247
 9077SOL    HW128130   6.455   1.692   6.149
 9077SOL    HW228131   6.391   1.632   6.286
 9078SOL     OW28132   4.955   6.740   0.382
 9078SOL    HW128133   5.012   6.804   0.332
 9078SOL    HW228134   4.964   6.757   0.481
 9079SOL     OW28135   1.296   1.129   6.434
 9079SOL    HW128136   1.279   1.145   6.336
 9079SOL    HW228137   1.394   1.138   6.453
 9080SOL     OW28138   6.949   4.358   1.746
 9080SOL    HW128139   6.932   4.274   1.799
 9080SOL    HW228140   7.016   4.339   1.675
 9081SOL     OW28141   4.854   1.495   0.613
 9081SOL    HW128142   4.868   1.397   0.595
 9081SOL    HW228143   4.780   1.505   0.680
 9082SOL     OW28144   3.658   4.447   6.688
 9082SOL    HW128145   3.643   4.349   6.673
 9082SOL    HW228146   3.572   4.492   6.709
 9083SOL     OW28147   3.700   0.609   0.595
 9083SOL    HW128148   3.800   0.613   0.593
 9083SOL    HW228149   3.662   0.673   0.529
 9084SOL     OW28150   6.573   4.076   4.521
 9084SOL    HW128151   6.478   4.057   4.546
 9084SOL    HW228152   6.634   4.017   4.574
 9085SOL     OW28153   2.634   4.824   0.897
 9085SOL    HW128154   2.605   4.735   0.931
 9085SOL    HW228155   2.553   4.880   0.876
 9086SOL     OW28156   6.689   2.537   0.786
 9086SOL    HW128157   6.721   2.463   0.726
 9086SOL    HW228158   6.607   2.506   0.835
 9087SOL     OW28159   4.851   1.715   1.592
 9087SOL    HW128160   4.779   1.682   1.653
 9087SOL    HW228161   4.915   1.771   1.644
 9088SOL     OW28162   5.646   5.789   6.939
 9088SOL    HW128163   5.722   5.728   6.916
 9088SOL    HW228164   5.636   5.858   6.868
 9089SOL     OW28165   5.626   4.904   3.325
 9089SOL    HW128166   5.720   4.881   3.303
 9089SOL    HW228167   5.587   4.959   3.251
 9090SOL     OW28168   5.841   5.746   5.729
 9090SOL    HW128169   5.846   5.812   5.804
 9090SOL    HW228170   5.898   5.666   5.750
 9091SOL     OW28171   2.716   2.133   1.698
 9091SOL    HW128172   2.808   2.168   1.719
 9091SOL    HW228173   2.682   2.177   1.615
 9092SOL     OW28174   2.212   1.893   5.061
 9092SOL    HW128175   2.221   1.810   5.006
 9092SOL    HW228176   2.279   1.961   5.031
 9093SOL     OW28177   2.114   3.873   0.427
 9093SOL    HW128178   2.116   3.954   0.485
 9093SOL    HW228179   2.162   3.798   0.472
 9094SOL     OW28180   6.570   2.769   0.661
 9094SOL    HW128181   6.599   2.686   0.708
 9094SOL    HW228182   6.650   2.829   0.649
 9095SOL     OW28183   2.173   2.778   6.993
 9095SOL    HW128184   2.116   2.732   6.925
 9095SOL    HW228185   2.238   2.839   6.947
 9096SOL     OW28186   6.427   3.964   3.375
 9096SOL    HW128187   6.489   3.900   3.330
 9096SOL    HW228188   6.352   3.988   3.313
 9097SOL     OW28189   6.453   6.054   5.671
 9097SOL    HW128190   6.459   6.102   5.759
 9097SOL    HW228191   6.363   6.011   5.662
 9098SOL     OW28192   3.854   3.652   4.766
 9098SOL    HW128193   3.944   3.678   4.732
 9098SOL    HW228194   3.783   3.684   4.704
 9099SOL     OW28195   1.418   2.300   6.778
 9099SOL    HW128196   1.405   2.219   6.836
 9099SOL    HW228197   1.361   2.375   6.812
 9100SOL     OW28198   1.558   2.943   0.198
 9100SOL    HW128199   1.646   2.980   0.169
 9100SOL    HW228200   1.573   2.876   0.271
 9101SOL     OW28201   1.824   2.187   6.573
 9101SOL    HW128202   1.900   2.193   6.508
 9101SOL    HW228203   1.765   2.110   6.548
 9102SOL     OW28204   5.074   6.593   2.380
 9102SOL    HW128205   4.977   6.588   2.400
 9102SOL    HW228206   5.092   6.549   2.292
 9103SOL     OW28207   0.767   4.660   6.045
 9103SOL    HW128208   0.721   4.573   6.063
 9103SOL    HW228209   0.813   4.691   6.129
 9104SOL     OW28210   5.432   0.121   2.960
 9104SOL    HW128211   5.454   0.169   3.045
 9104SOL    HW228212   5.430   0.186   2.884
 9105SOL     OW28213   2.470   1.816   6.012
 9105SOL    HW128214   2.483   1.880   5.936
 9105SOL    HW228215   2.485   1.723   5.979
 9106SOL     OW28216   6.334   5.149   2.201
 9106SOL    HW128217   6.404   5.081   2.218
 9106SOL    HW228218   6.309   5.194   2.286
 9107SOL     OW28219   4.932   6.805   6.842
 9107SOL    HW128220   4.870   6.753   6.900
 9107SOL    HW228221   5.023   6.808   6.883
 9108SOL     OW28222   3.533   5.831   7.019
 9108SOL    HW128223   3.539   5.743   0.035
 9108SOL    HW228224   3.616   5.883   0.005
 9109SOL     OW28225   2.898   1.333   4.466
 9109SOL    HW128226   2.943   1.245   4.480
 9109SOL    HW228227   2.824   1.344   4.532
 9110SOL     OW28228   1.381   3.531   3.230
 9110SOL    HW128229   1.409   3.537   3.134
 9110SOL    HW228230   1.319   3.454   3.242
 9111SOL     OW28231   4.302   4.060   1.663
 9111SOL    HW128232   4.205   4.080   1.675
 9111SOL    HW228233   4.356   4.112   1.729
 9112SOL     OW28234   0.883   5.868   1.818
 9112SOL    HW128235   0.838   5.789   1.859
 9112SOL    HW228236   0.954   5.838   1.754
 9113SOL     OW28237   3.159   5.647   6.870
 9113SOL    HW128238   3.073   5.642   6.819
 9113SOL    HW228239   3.234   5.616   6.812
 9114SOL     OW28240   2.690   3.777   1.719
 9114SOL    HW128241   2.667   3.874   1.709
 9114SOL    HW228242   2.609   3.722   1.696
 9115SOL     OW28243   1.741   4.398   4.583
 9115SOL    HW128244   1.829   4.372   4.623
 9115SOL    HW228245   1.689   4.451   4.649
 9116SOL     OW28246   2.240   1.843   6.180
 9116SOL    HW128247   2.312   1.858   6.113
 9116SOL    HW228248   2.170   1.915   6.172
 9117SOL     OW28249   0.046   3.342   0.217
 9117SOL    HW128250   0.014   3.274   0.282
 9117SOL    HW228251   0.071   3.426   0.266
 9118SOL     OW28252   0.371   5.935   1.108
 9118SOL    HW128253   0.391   6.031   1.088
 9118SOL    HW228254   0.273   5.918   1.097
 9119SOL     OW28255   6.575   0.432   0.791
 9119SOL    HW128256   6.559   0.391   0.881
 9119SOL    HW228257   6.652   0.495   0.795
 9120SOL     OW28258   6.041   0.996   6.536
 9120SOL    HW128259   6.101   1.075   6.523
 9120SOL    HW228260   6.045   0.966   6.631
 9121SOL     OW28261   1.688   1.561   6.862
 9121SOL    HW128262   1.729   1.507   6.935
 9121SOL    HW228263   1.645   1.643   6.900
 9122SOL     OW28264   1.195   2.380   0.892
 9122SOL    HW128265   1.165   2.458   0.836
 9122SOL    HW228266   1.292   2.389   0.913
 9123SOL     OW28267   3.074   6.619   6.719
 9123SOL    HW128268   3.113   6.536   6.760
 9123SOL    HW228269   2.975   6.621   6.737
 9124SOL     OW28270   6.616   4.612   5.672
 9124SOL    HW128271   6.598   4.638   5.767
 9124SOL    HW228272   6.690   4.669   5.635
 9125SOL     OW28273   4.608   5.545   1.260
 9125SOL    HW128274   4.699   5.554   1.218
 9125SOL    HW228275   4.597   5.452   1.295
 9126SOL     OW28276   5.856   6.776   2.399
 9126SOL    HW128277   5.895   6.845   2.339
 9126SOL    HW228278   5.910   6.692   2.393
 9127SOL     OW28279   5.158   6.103   6.480
 9127SOL    HW128280   5.150   6.162   6.399
 9127SOL    HW228281   5.116   6.149   6.559
 9128SOL     OW28282   5.297   2.878   5.339
 9128SOL    HW128283   5.386   2.921   5.326
 9128SOL    HW228284   5.230   2.920   5.277
 9129SOL     OW28285   2.030   2.226   6.802
 9129SOL    HW128286   1.971   2.254   6.726
 9129SOL    HW228287   1.986   2.249   6.889
 9130SOL     OW28288   6.372   5.989   1.211
 9130SOL    HW128289   6.444   5.923   1.233
 9130SOL    HW228290   6.344   6.036   1.295
 9131SOL     OW28291   0.831   4.615   3.720
 9131SOL    HW128292   0.860   4.605   3.625
 9131SOL    HW228293   0.757   4.550   3.740
 9132SOL     OW28294   1.733   3.224   4.445
 9132SOL    HW128295   1.646   3.180   4.468
 9132SOL    HW228296   1.725   3.268   4.356
 9133SOL     OW28297   1.480   5.418   1.423
 9133SOL    HW128298   1.493   5.440   1.326
 9133SOL    HW228299   1.512   5.495   1.479
 9134SOL     OW28300   2.932   5.069   5.973
 9134SOL    HW128301   3.029   5.056   5.992
 9134SOL    HW228302   2.887   5.111   6.052
 9135SOL     OW28303   1.133   6.293   4.001
 9135SOL    HW128304   1.227   6.280   4.034
 9135SOL    HW228305   1.074   6.317   4.078
 9136SOL     OW28306   3.588   5.504   5.511
 9136SOL    HW128307   3.542   5.569   5.452
 9136SOL    HW228308   3.600   5.544   5.602
 9137SOL     OW28309   4.325   0.333   1.824
 9137SOL    HW128310   4.388   0.287   1.888
 9137SOL    HW228311   4.238   0.283   1.822
 9138SOL     OW28312   3.414   4.281   0.904
 9138SOL    HW128313   3.360   4.323   0.831
 9138SOL    HW228314   3.356   4.265   0.983
 9139SOL     OW28315   3.545   1.230   5.589
 9139SOL    HW128316   3.452   1.258   5.565
 9139SOL    HW228317   3.606   1.248   5.512
 9140SOL     OW28318   6.715   2.202   3.868
 9140SOL    HW128319   6.689   2.220   3.773
 9140SOL    HW228320   6.641   2.152   3.913
 9141SOL     OW28321   5.402   0.476   5.712
 9141SOL    HW128322   5.433   0.512   5.800
 9141SOL    HW228323   5.469   0.500   5.642
 9142SOL     OW28324   1.428   4.150   6.158
 9142SOL    HW128325   1.467   4.202   6.235
 9142SOL    HW228326   1.422   4.209   6.078
 9143SOL     OW28327   5.712   4.061   1.364
 9143SOL    HW128328   5.628   4.006   1.363
 9143SOL    HW228329   5.690   4.156   1.339
 9144SOL     OW28330   1.348   5.142   4.712
 9144SOL    HW128331   1.296   5.059   4.689
 9144SOL    HW228332   1.307   5.186   4.791
 9145SOL     OW28333   0.260   3.570   6.589
 9145SOL    HW128334   0.214   3.648   6.632
 9145SOL    HW228335   0.198   3.491   6.590
 9146SOL     OW28336   0.517   1.924   1.552
 9146SOL    HW128337   0.615   1.910   1.539
 9146SOL    HW228338   0.502   2.003   1.612
 9147SOL     OW28339   4.869   6.216   6.426
 9147SOL    HW128340   4.915   6.189   6.510
 9147SOL    HW228341   4.933   6.211   6.350
 9148SOL     OW28342   3.258   5.322   3.144
 9148SOL    HW128343   3.266   5.311   3.243
 9148SOL    HW228344   3.349   5.337   3.104
 9149SOL     OW28345   6.235   3.290   4.713
 9149SOL    HW128346   6.234   3.261   4.617
 9149SOL    HW228347   6.306   3.359   4.726
 9150SOL     OW28348   4.455   1.350   3.222
 9150SOL    HW128349   4.518   1.345   3.300
 9150SOL    HW228350   4.374   1.401   3.248
 9151SOL     OW28351   1.066   3.302   2.360
 9151SOL    HW128352   1.056   3.263   2.269
 9151SOL    HW228353   1.162   3.302   2.386
 9152SOL     OW28354   2.087   5.214   3.324
 9152SOL    HW128355   2.185   5.196   3.316
 9152SOL    HW228356   2.074   5.298   3.377
 9153SOL     OW28357   1.249   2.976   6.619
 9153SOL    HW128358   1.190   3.043   6.575
 9153SOL    HW228359   1.248   2.991   6.718
 9154SOL     OW28360   1.711   6.012   6.782
 9154SOL    HW128361   1.656   5.931   6.805
 9154SOL    HW228362   1.692   6.084   6.849
 9155SOL     OW28363   1.112   3.939   0.313
 9155SOL    HW128364   1.166   3.872   0.261
 9155SOL    HW228365   1.092   3.902   0.404
 9156SOL     OW28366   5.104   2.254   1.926
 9156SOL    HW128367   5.161   2.280   1.849
 9156SOL    HW228368   5.058   2.336   1.962
 9157SOL     OW28369   5.213   4.160   5.851
 9157SOL    HW128370   5.216   4.218   5.769
 9157SOL    HW228371   5.299   4.171   5.901
 9158SOL     OW28372   0.364   3.743   3.179
 9158SOL    HW128373   0.447   3.692   3.157
 9158SOL    HW228374   0.347   3.811   3.107
 9159SOL     OW28375   6.681   4.924   2.571
 9159SOL    HW128376   6.763   4.956   2.617
 9159SOL    HW228377   6.704   4.892   2.479
 9160SOL     OW28378   6.831   0.003   0.463
 9160SOL    HW128379   6.874   6.973   0.395
 9160SOL    HW228380   6.871   0.095   0.456
 9161SOL     OW28381   5.340   3.881   3.144
 9161SOL    HW128382   5.341   3.944   3.067
 9161SOL    HW228383   5.323   3.788   3.110
 9162SOL     OW28384   5.039   1.700   2.496
 9162SOL    HW128385   4.961   1.685   2.557
 9162SOL    HW228386   5.007   1.733   2.407
 9163SOL     OW28387   3.163   1.372   4.564
 9163SOL    HW128388   3.166   1.287   4.617
 9163SOL    HW228389   3.080   1.373   4.508
 9164SOL     OW28390   2.433   0.369   0.164
 9164SOL    HW128391   2.368   0.316   0.219
 9164SOL    HW228392   2.382   0.419   0.094
 9165SOL     OW28393   4.901   5.853   0.369
 9165SOL    HW128394   4.966   5.776   0.373
 9165SOL    HW228395   4.859   5.866   0.459
 9166SOL     OW28396   2.678   5.837   1.377
 9166SOL    HW128397   2.721   5.786   1.302
 9166SOL    HW228398   2.587   5.801   1.394
 9167SOL     OW28399   0.171   4.082   4.835
 9167SOL    HW128400   0.216   3.993   4.834
 9167SOL    HW228401   0.100   4.083   4.905
 9168SOL     OW28402   2.740   0.511   6.930
 9168SOL    HW128403   2.665   0.475   6.875
 9168SOL    HW228404   2.706   0.537   7.020
 9169SOL     OW28405   0.243   6.901   2.981
 9169SOL    HW128406   0.167   6.962   2.957
 9169SOL    HW228407   0.208   6.823   3.032
 9170SOL     OW28408   6.353   6.119   6.901
 9170SOL    HW128409   6.428   6.181   6.879
 9170SOL    HW228410   6.305   6.094   6.816
 9171SOL     OW28411   2.783   5.624   5.564
 9171SOL    HW128412   2.693   5.598   5.598
 9171SOL    HW228413   2.853   5.595   5.630
 9172SOL     OW28414   2.483   2.535   4.105
 9172SOL    HW128415   2.385   2.543   4.086
 9172SOL    HW228416   2.496   2.507   4.200
 9173SOL     OW28417   0.391   4.876   5.385
 9173SOL    HW128418   0.446   4.958   5.404
 9173SOL    HW228419   0.426   4.832   5.302
 9174SOL     OW28420   6.951   5.742   0.162
 9174SOL    HW128421   6.987   5.750   0.069
 9174SOL    HW228422   7.002   5.670   0.211
 9175SOL     OW28423   1.503   6.752   5.386
 9175SOL    HW128424   1.460   6.695   5.456
 9175SOL    HW228425   1.567   6.696   5.333
 9176SOL     OW28426   1.571   1.422   5.502
 9176SOL    HW128427   1.537   1.438   5.409
 9176SOL    HW228428   1.618   1.334   5.505
 9177SOL     OW28429   1.387   4.549   3.760
 9177SOL    HW128430   1.288   4.559   3.750
 9177SOL    HW228431   1.433   4.625   3.715
 9178SOL     OW28432   2.094   4.417   0.508
 9178SOL    HW128433   2.123   4.401   0.414
 9178SOL    HW228434   2.127   4.507   0.538
 9179SOL     OW28435   2.602   4.614   5.102
 9179SOL    HW128436   2.568   4.665   5.181
 9179SOL    HW228437   2.702   4.625   5.097
 9180SOL     OW28438   5.509   1.861   2.809
 9180SOL    HW128439   5.457   1.892   2.889
 9180SOL    HW228440   5.446   1.837   2.735
 9181SOL     OW28441   3.897   1.437   2.118
 9181SOL    HW128442   3.862   1.348   2.145
 9181SOL    HW228443   3.914   1.439   2.020
 9182SOL     OW28444   1.928   0.168   2.184
 9182SOL    HW128445   1.936   0.259   2.144
 9182SOL    HW228446   2.003   0.110   2.151
 9183SOL     OW28447   5.015   5.900   6.335
 9183SOL    HW128448   5.089   5.950   6.379
 9183SOL    HW228449   4.927   5.942   6.361
 9184SOL     OW28450   4.763   0.038   0.113
 9184SOL    HW128451   4.669   0.042   0.079
 9184SOL    HW228452   4.827   0.054   0.037
 9185SOL     OW28453   4.574   0.913   5.156
 9185SOL    HW128454   4.656   0.906   5.213
 9185SOL    HW228455   4.499   0.863   5.200
 9186SOL     OW28456   5.404   0.058   6.720
 9186SOL    HW128457   5.486   0.112   6.701
 9186SOL    HW228458   5.333   0.082   6.654
 9187SOL     OW28459   3.036   6.548   2.469
 9187SOL    HW128460   2.972   6.474   2.490
 9187SOL    HW228461   3.032   6.568   2.371
 9188SOL     OW28462   2.341   6.386   1.054
 9188SOL    HW128463   2.428   6.350   1.020
 9188SOL    HW228464   2.314   6.466   1.000
 9189SOL     OW28465   5.439   4.848   2.126
 9189SOL    HW128466   5.514   4.787   2.103
 9189SOL    HW228467   5.385   4.868   2.044
 9190SOL     OW28468   1.489   5.585   0.659
 9190SOL    HW128469   1.535   5.580   0.748
 9190SOL    HW228470   1.457   5.494   0.632
 9191SOL     OW28471   6.947   0.497   6.202
 9191SOL    HW128472   6.985   0.571   6.258
 9191SOL    HW228473   7.021   0.446   6.159
 9192SOL     OW28474   0.722   4.019   4.313
 9192SOL    HW128475   0.739   3.936   4.261
 9192SOL    HW228476   0.794   4.086   4.296
 9193SOL     OW28477   2.418   3.482   6.743
 9193SOL    HW128478   2.442   3.410   6.678
 9193SOL    HW228479   2.320   3.502   6.735
 9194SOL     OW28480   3.021   0.348   4.584
 9194SOL    HW128481   2.997   0.392   4.497
 9194SOL    HW228482   3.120   0.340   4.592
 9195SOL     OW28483   1.719   0.889   3.829
 9195SOL    HW128484   1.694   0.908   3.734
 9195SOL    HW228485   1.759   0.972   3.869
 9196SOL     OW28486   4.985   1.819   5.741
 9196SOL    HW128487   4.997   1.790   5.646
 9196SOL    HW228488   4.933   1.904   5.743
 9197SOL     OW28489   2.282   3.673   1.019
 9197SOL    HW128490   2.299   3.771   1.021
 9197SOL    HW228491   2.361   3.626   0.981
 9198SOL     OW28492   0.531   4.699   3.875
 9198SOL    HW128493   0.563   4.667   3.786
 9198SOL    HW228494   0.454   4.643   3.905
 9199SOL     OW28495   6.014   4.257   5.056
 9199SOL    HW128496   5.990   4.354   5.067
 9199SOL    HW228497   5.930   4.203   5.054
 9200SOL     OW28498   3.079   0.798   0.384
 9200SOL    HW128499   3.010   0.748   0.331
 9200SOL    HW228500   3.161   0.810   0.328
 9201SOL     OW28501   1.883   4.467   0.707
 9201SOL    HW128502   1.959   4.441   0.648
 9201SOL    HW228503   1.809   4.505   0.652
 9202SOL     OW28504   2.540   0.905   3.796
 9202SOL    HW128505   2.457   0.960   3.784
 9202SOL    HW228506   2.614   0.964   3.828
 9203SOL     OW28507   6.650   6.849   0.797
 9203SOL    HW128508   6.659   6.750   0.809
 9203SOL    HW228509   6.684   6.874   0.706
 9204SOL     OW28510   5.365   0.349   5.249
 9204SOL    HW128511   5.287   0.327   5.308
 9204SOL    HW228512   5.368   0.284   5.172
 9205SOL     OW28513   6.984   4.931   1.612
 9205SOL    HW128514   6.914   4.971   1.553
 9205SOL    HW228515   0.038   4.986   1.607
 9206SOL     OW28516   3.185   6.556   0.713
 9206SOL    HW128517   3.170   6.477   0.773
 9206SOL    HW228518   3.198   6.638   0.767
 9207SOL     OW28519   5.422   5.473   6.745
 9207SOL    HW128520   5.431   5.547   6.812
 9207SOL    HW228521   5.416   5.512   6.653
 9208SOL     OW28522   1.162   3.688   2.858
 9208SOL    HW128523   1.184   3.593   2.838
 9208SOL    HW228524   1.070   3.694   2.898
 9209SOL     OW28525   3.161   0.483   6.310
 9209SOL    HW128526   3.248   0.466   6.265
 9209SOL    HW228527   3.086   0.468   6.246
 9210SOL     OW28528   6.724   0.347   3.647
 9210SOL    HW128529   6.687   0.304   3.564
 9210SOL    HW228530   6.775   0.279   3.700
 9211SOL     OW28531   0.341   1.753   2.819
 9211SOL    HW128532   0.419   1.804   2.782
 9211SOL    HW228533   0.346   1.658   2.788
 9212SOL     OW28534   3.326   5.225   4.826
 9212SOL    HW128535   3.349   5.263   4.915
 9212SOL    HW228536   3.235   5.183   4.830
 9213SOL     OW28537   6.149   4.571   6.627
 9213SOL    HW128538   6.219   4.629   6.666
 9213SOL    HW228539   6.173   4.475   6.641
 9214SOL     OW28540   0.449   4.985   0.561
 9214SOL    HW128541   0.391   4.957   0.638
 9214SOL    HW228542   0.544   4.990   0.591
 9215SOL     OW28543   1.356   1.384   0.953
 9215SOL    HW128544   1.416   1.463   0.941
 9215SOL    HW228545   1.324   1.380   1.048
 9216SOL     OW28546   2.074   6.981   3.378
 9216SOL    HW128547   2.053   0.021   3.446
 9216SOL    HW228548   1.990   6.953   3.331
 9217SOL     OW28549   0.638   2.782   0.329
 9217SOL    HW128550   0.688   2.724   0.394
 9217SOL    HW228551   0.564   2.829   0.378
 9218SOL     OW28552   2.419   1.223   0.461
 9218SOL    HW128553   2.504   1.263   0.425
 9218SOL    HW228554   2.392   1.270   0.544
 9219SOL     OW28555   0.298   1.297   0.542
 9219SOL    HW128556   0.203   1.288   0.573
 9219SOL    HW228557   0.301   1.349   0.457
 9220SOL     OW28558   3.189   6.288   1.449
 9220SOL    HW128559   3.152   6.211   1.501
 9220SOL    HW228560   3.139   6.371   1.472
 9221SOL     OW28561   2.846   4.776   4.800
 9221SOL    HW128562   2.916   4.754   4.732
 9221SOL    HW228563   2.841   4.702   4.867
 9222SOL     OW28564   2.598   2.366   6.038
 9222SOL    HW128565   2.638   2.358   5.947
 9222SOL    HW228566   2.572   2.275   6.071
 9223SOL     OW28567   2.839   3.114   5.236
 9223SOL    HW128568   2.750   3.101   5.191
 9223SOL    HW228569   2.874   3.205   5.213
 9224SOL     OW28570   2.307   4.972   5.280
 9224SOL    HW128571   2.319   4.987   5.182
 9224SOL    HW228572   2.211   4.983   5.304
 9225SOL     OW28573   2.005   0.061   0.070
 9225SOL    HW128574   1.925   0.002   0.057
 9225SOL    HW228575   2.042   0.047   0.162
 9226SOL     OW28576   3.636   6.618   0.720
 9226SOL    HW128577   3.541   6.606   0.691
 9226SOL    HW228578   3.674   6.530   0.750
 9227SOL     OW28579   1.923   6.813   1.426
 9227SOL    HW128580   1.906   6.842   1.520
 9227SOL    HW228581   2.021   6.800   1.412
 9228SOL     OW28582   0.667   0.442   6.829
 9228SOL    HW128583   0.622   0.514   6.776
 9228SOL    HW228584   0.701   0.372   6.767
 9229SOL     OW28585   0.486   6.116   5.923
 9229SOL    HW128586   0.410   6.053   5.909
 9229SOL    HW228587   0.487   6.183   5.848
 9230SOL     OW28588   5.024   0.668   4.111
 9230SOL    HW128589   5.101   0.618   4.070
 9230SOL    HW228590   4.957   0.688   4.040
 9231SOL     OW28591   1.904   3.519   3.477
 9231SOL    HW128592   1.917   3.437   3.532
 9231SOL    HW228593   1.920   3.498   3.380
 9232SOL     OW28594   4.550   4.831   1.338
 9232SOL    HW128595   4.504   4.776   1.269
 9232SOL    HW228596   4.530   4.794   1.429
 9233SOL     OW28597   4.643   4.491   1.138
 9233SOL    HW128598   4.675   4.474   1.232
 9233SOL    HW228599   4.689   4.427   1.076
 9234SOL     OW28600   1.925   5.841   3.594
 9234SOL    HW128601   1.865   5.793   3.658
 9234SOL    HW228602   1.886   5.837   3.502
 9235SOL     OW28603   0.689   2.481   3.492
 9235SOL    HW128604   0.789   2.480   3.491
 9235SOL    HW228605   0.657   2.470   3.586
 9236SOL     OW28606   4.070   3.043   5.848
 9236SOL    HW128607   4.161   3.032   5.888
 9236SOL    HW228608   4.015   2.961   5.867
 9237SOL     OW28609   1.868   3.659   4.010
 9237SOL    HW128610   1.940   3.671   3.942
 9237SOL    HW228611   1.789   3.615   3.967
 9238SOL     OW28612   4.384   3.453   6.594
 9238SOL    HW128613   4.322   3.487   6.523
 9238SOL    HW228614   4.469   3.424   6.551
 9239SOL     OW28615   1.586   3.589   6.556
 9239SOL    HW128616   1.555   3.644   6.634
 9239SOL    HW228617   1.519   3.519   6.535
 9240SOL     OW28618   5.172   1.010   2.051
 9240SOL    HW128619   5.265   1.017   2.015
 9240SOL    HW228620   5.165   1.064   2.135
 9241SOL     OW28621   0.639   5.826   6.893
 9241SOL    HW128622   0.737   5.843   6.903
 9241SOL    HW228623   0.624   5.757   6.822
 9242SOL     OW28624   6.650   5.807   1.828
 9242SOL    HW128625   6.567   5.862   1.823
 9242SOL    HW228626   6.687   5.793   1.736
 9243SOL     OW28627   5.913   6.216   4.677
 9243SOL    HW128628   5.907   6.117   4.666
 9243SOL    HW228629   5.836   6.248   4.733
 9244SOL     OW28630   3.513   5.585   0.111
 9244SOL    HW128631   3.494   5.487   0.118
 9244SOL    HW228632   3.571   5.612   0.188
 9245SOL     OW28633   0.560   6.426   0.981
 9245SOL    HW128634   0.542   6.341   0.932
 9245SOL    HW228635   0.509   6.427   1.067
 9246SOL     OW28636   6.853   4.764   4.026
 9246SOL    HW128637   6.901   4.847   4.055
 9246SOL    HW228638   6.793   4.786   3.949
 9247SOL     OW28639   1.759   6.713   2.945
 9247SOL    HW128640   1.823   6.781   2.909
 9247SOL    HW228641   1.697   6.758   3.010
 9248SOL     OW28642   3.803   1.848   6.227
 9248SOL    HW128643   3.776   1.943   6.246
 9248SOL    HW228644   3.881   1.824   6.284
 9249SOL     OW28645   4.236   6.512   3.107
 9249SOL    HW128646   4.208   6.566   3.027
 9249SOL    HW228647   4.168   6.442   3.126
 9250SOL     OW28648   5.727   3.445   3.394
 9250SOL    HW128649   5.654   3.491   3.445
 9250SOL    HW228650   5.688   3.380   3.329
 9251SOL     OW28651   4.220   1.724   3.177
 9251SOL    HW128652   4.295   1.779   3.140
 9251SOL    HW228653   4.154   1.784   3.222
 9252SOL     OW28654   1.397   6.572   4.274
 9252SOL    HW128655   1.378   6.497   4.338
 9252SOL    HW228656   1.402   6.658   4.324
 9253SOL     OW28657   1.213   6.722   5.516
 9253SOL    HW128658   1.279   6.671   5.571
 9253SOL    HW228659   1.208   6.817   5.548
 9254SOL     OW28660   5.428   3.234   1.628
 9254SOL    HW128661   5.356   3.303   1.626
 9254SOL    HW228662   5.394   3.151   1.672
 9255SOL     OW28663   0.239   4.730   0.390
 9255SOL    HW128664   0.311   4.663   0.372
 9255SOL    HW228665   0.171   4.726   0.317
 9256SOL     OW28666   4.035   5.133   1.895
 9256SOL    HW128667   4.082   5.053   1.857
 9256SOL    HW228668   4.068   5.150   1.988
 9257SOL     OW28669   0.691   3.546   0.663
 9257SOL    HW128670   0.769   3.576   0.717
 9257SOL    HW228671   0.693   3.447   0.654
 9258SOL     OW28672   4.099   3.255   3.926
 9258SOL    HW128673   4.051   3.225   4.009
 9258SOL    HW228674   4.082   3.352   3.911
 9259SOL     OW28675   1.289   2.397   0.561
 9259SOL    HW128676   1.256   2.334   0.491
 9259SOL    HW228677   1.369   2.357   0.607
 9260SOL     OW28678   6.288   3.814   0.334
 9260SOL    HW128679   6.217   3.881   0.314
 9260SOL    HW228680   6.280   3.784   0.429
 9261SOL     OW28681   3.878   6.867   6.672
 9261SOL    HW128682   3.905   6.938   6.606
 9261SOL    HW228683   3.821   6.908   6.743
 9262SOL     OW28684   4.750   0.472   5.346
 9262SOL    HW128685   4.743   0.481   5.247
 9262SOL    HW228686   4.813   0.542   5.381
 9263SOL     OW28687   5.781   3.672   2.099
 9263SOL    HW128688   5.720   3.653   2.023
 9263SOL    HW228689   5.846   3.597   2.109
 9264SOL     OW28690   6.454   2.314   7.014
 9264SOL    HW128691   6.512   2.296   0.063
 9264SOL    HW228692   6.363   2.344   0.016
 9265SOL     OW28693   1.586   1.442   5.226
 9265SOL    HW128694   1.495   1.476   5.203
 9265SOL    HW228695   1.638   1.424   5.143
 9266SOL     OW28696   2.082   6.148   2.286
 9266SOL    HW128697   2.040   6.223   2.339
 9266SOL    HW228698   2.106   6.074   2.348
 9267SOL     OW28699   2.751   5.292   5.555
 9267SOL    HW128700   2.769   5.286   5.457
 9267SOL    HW228701   2.833   5.322   5.603
 9268SOL     OW28702   0.854   1.061   2.516
 9268SOL    HW128703   0.837   0.965   2.493
 9268SOL    HW228704   0.788   1.119   2.470
 9269SOL     OW28705   4.432   1.871   5.749
 9269SOL    HW128706   4.337   1.889   5.722
 9269SOL    HW228707   4.452   1.918   5.835
 9270SOL     OW28708   1.150   6.962   5.811
 9270SOL    HW128709   1.233   6.955   5.866
 9270SOL    HW228710   1.116   0.027   5.814
 9271SOL     OW28711   1.126   5.027   6.563
 9271SOL    HW128712   1.220   5.002   6.586
 9271SOL    HW228713   1.114   5.029   6.464
 9272SOL     OW28714   3.124   5.244   6.672
 9272SOL    HW128715   3.032   5.214   6.649
 9272SOL    HW228716   3.181   5.164   6.694
 9273SOL     OW28717   4.363   6.562   5.721
 9273SOL    HW128718   4.436   6.553   5.653
 9273SOL    HW228719   4.351   6.474   5.768
 9274SOL     OW28720   6.138   2.519   1.409
 9274SOL    HW128721   6.057   2.501   1.465
 9274SOL    HW228722   6.181   2.432   1.385
 9275SOL     OW28723   0.239   0.793   6.414
 9275SOL    HW128724   0.289   0.824   6.333
 9275SOL    HW228725   0.293   0.811   6.496
 9276SOL     OW28726   5.036   6.271   4.499
 9276SOL    HW128727   5.124   6.233   4.472
 9276SOL    HW228728   5.013   6.240   4.591
 9277SOL     OW28729   3.182   2.454   0.464
 9277SOL    HW128730   3.146   2.461   0.557
 9277SOL    HW228731   3.238   2.372   0.456
 9278SOL     OW28732   1.387   2.552   1.582
 9278SOL    HW128733   1.410   2.645   1.553
 9278SOL    HW228734   1.469   2.495   1.578
 9279SOL     OW28735   3.243   0.016   1.171
 9279SOL    HW128736   3.287   0.048   1.255
 9279SOL    HW228737   3.208   0.095   1.120
 9280SOL     OW28738   2.125   0.857   2.811
 9280SOL    HW128739   2.136   0.769   2.856
 9280SOL    HW228740   2.059   0.912   2.862
 9281SOL     OW28741   1.889   2.869   0.733
 9281SOL    HW128742   1.799   2.869   0.689
 9281SOL    HW228743   1.958   2.894   0.665
 9282SOL     OW28744   4.639   1.861   6.370
 9282SOL    HW128745   4.662   1.952   6.336
 9282SOL    HW228746   4.674   1.850   6.463
 9283SOL     OW28747   5.722   2.381   2.898
 9283SOL    HW128748   5.689   2.464   2.854
 9283SOL    HW228749   5.783   2.406   2.974
 9284SOL     OW28750   3.524   3.200   2.237
 9284SOL    HW128751   3.440   3.178   2.187
 9284SOL    HW228752   3.545   3.297   2.227
 9285SOL     OW28753   5.881   2.449   6.447
 9285SOL    HW128754   5.899   2.507   6.526
 9285SOL    HW228755   5.799   2.482   6.399
 9286SOL     OW28756   5.707   5.788   5.030
 9286SOL    HW128757   5.746   5.861   5.086
 9286SOL    HW228758   5.731   5.699   5.069
 9287SOL     OW28759   3.051   6.544   2.190
 9287SOL    HW128760   3.111   6.607   2.141
 9287SOL    HW228761   3.104   6.462   2.216
 9288SOL     OW28762   4.539   2.245   5.920
 9288SOL    HW128763   4.635   2.228   5.895
 9288SOL    HW228764   4.509   2.330   5.877
 9289SOL     OW28765   5.313   3.370   2.562
 9289SOL    HW128766   5.286   3.273   2.557
 9289SOL    HW228767   5.310   3.400   2.657
 9290SOL     OW28768   4.615   2.233   4.339
 9290SOL    HW128769   4.618   2.136   4.314
 9290SOL    HW228770   4.529   2.252   4.386
 9291SOL     OW28771   0.744   1.791   4.768
 9291SOL    HW128772   0.774   1.746   4.683
 9291SOL    HW228773   0.775   1.885   4.769
 9292SOL     OW28774   6.502   3.361   0.086
 9292SOL    HW128775   6.409   3.327   0.097
 9292SOL    HW228776   6.542   3.381   0.175
 9293SOL     OW28777   6.334   3.982   6.545
 9293SOL    HW128778   6.247   4.023   6.573
 9293SOL    HW228779   6.323   3.943   6.453
 9294SOL     OW28780   5.477   5.815   6.623
 9294SOL    HW128781   5.517   5.742   6.567
 9294SOL    HW228782   5.540   5.893   6.624
 9295SOL     OW28783   4.631   1.965   3.913
 9295SOL    HW128784   4.691   1.981   3.835
 9295SOL    HW228785   4.559   2.034   3.914
 9296SOL     OW28786   6.700   6.609   5.559
 9296SOL    HW128787   6.785   6.651   5.592
 9296SOL    HW228788   6.720   6.549   5.482
 9297SOL     OW28789   0.315   0.532   1.105
 9297SOL    HW128790   0.343   0.464   1.173
 9297SOL    HW228791   0.263   0.604   1.150
 9298SOL     OW28792   0.456   6.406   4.604
 9298SOL    HW128793   0.543   6.372   4.568
 9298SOL    HW228794   0.395   6.430   4.528
 9299SOL     OW28795   1.692   2.668   4.034
 9299SOL    HW128796   1.730   2.750   4.076
 9299SOL    HW228797   1.748   2.589   4.058
 9300SOL     OW28798   5.759   4.120   3.908
 9300SOL    HW128799   5.819   4.191   3.945
 9300SOL    HW228800   5.664   4.151   3.911
 9301SOL     OW28801   6.014   3.996   2.387
 9301SOL    HW128802   5.938   3.960   2.440
 9301SOL    HW228803   5.989   4.001   2.291
 9302SOL     OW28804   2.174   2.287   2.629
 9302SOL    HW128805   2.188   2.355   2.556
 9302SOL    HW228806   2.080   2.253   2.625
 9303SOL     OW28807   3.692   4.282   0.955
 9303SOL    HW128808   3.703   4.184   0.971
 9303SOL    HW228809   3.596   4.302   0.934
 9304SOL     OW28810   4.096   3.548   0.353
 9304SOL    HW128811   4.173   3.547   0.417
 9304SOL    HW228812   4.124   3.595   0.269
 9305SOL     OW28813   4.857   3.191   2.385
 9305SOL    HW128814   4.855   3.170   2.288
 9305SOL    HW228815   4.864   3.289   2.399
 9306SOL     OW28816   6.241   4.669   3.676
 9306SOL    HW128817   6.275   4.690   3.585
 9306SOL    HW228818   6.308   4.612   3.724
 9307SOL     OW28819   2.216   0.774   6.194
 9307SOL    HW128820   2.224   0.813   6.102
 9307SOL    HW228821   2.306   0.775   6.238
 9308SOL     OW28822   6.676   2.056   0.462
 9308SOL    HW128823   6.740   2.022   0.531
 9308SOL    HW228824   6.677   1.995   0.383
 9309SOL     OW28825   4.787   3.217   6.513
 9309SOL    HW128826   4.755   3.183   6.602
 9309SOL    HW228827   4.709   3.252   6.461
 9310SOL     OW28828   3.725   6.126   1.093
 9310SOL    HW128829   3.673   6.203   1.055
 9310SOL    HW228830   3.821   6.151   1.099
 9311SOL     OW28831   6.509   3.128   1.703
 9311SOL    HW128832   6.412   3.143   1.681
 9311SOL    HW228833   6.563   3.134   1.619
 9312SOL     OW28834   1.495   4.412   5.206
 9312SOL    HW128835   1.397   4.393   5.193
 9312SOL    HW228836   1.518   4.404   5.303
 9313SOL     OW28837   6.127   6.562   2.223
 9313SOL    HW128838   6.109   6.627   2.149
 9313SOL    HW228839   6.159   6.611   2.304
 9314SOL     OW28840   5.532   4.869   0.259
 9314SOL    HW128841   5.595   4.913   0.196
 9314SOL    HW228842   5.439   4.899   0.240
 9315SOL     OW28843   0.224   6.559   6.529
 9315SOL    HW128844   0.180   6.484   6.578
 9315SOL    HW228845   0.288   6.521   6.462
 9316SOL     OW28846   3.988   6.183   4.579
 9316SOL    HW128847   3.956   6.245   4.651
 9316SOL    HW228848   4.036   6.106   4.620
 9317SOL     OW28849   5.346   4.493   5.154
 9317SOL    HW128850   5.254   4.472   5.122
 9317SOL    HW228851   5.357   4.592   5.163
 9318SOL     OW28852   6.213   6.649   6.259
 9318SOL    HW128853   6.116   6.667   6.241
 9318SOL    HW228854   6.260   6.629   6.173
 9319SOL     OW28855   6.892   3.034   5.092
 9319SOL    HW128856   6.822   2.963   5.094
 9319SOL    HW228857   6.882   3.093   5.173
 9320SOL     OW28858   3.911   2.913   6.336
 9320SOL    HW128859   3.871   2.856   6.263
 9320SOL    HW228860   3.995   2.955   6.303
 9321SOL     OW28861   6.203   6.256   3.151
 9321SOL    HW128862   6.292   6.277   3.110
 9321SOL    HW228863   6.141   6.225   3.079
 9322SOL     OW28864   0.845   6.477   0.101
 9322SOL    HW128865   0.888   6.460   0.190
 9322SOL    HW228866   0.916   6.501   0.034
 9323SOL     OW28867   0.093   1.306   6.263
 9323SOL    HW128868   0.162   1.240   6.233
 9323SOL    HW228869   0.112   1.395   6.221
 9324SOL     OW28870   1.879   5.283   6.877
 9324SOL    HW128871   1.877   5.367   6.932
 9324SOL    HW228872   1.809   5.289   6.806
 9325SOL     OW28873   0.446   2.947   0.446
 9325SOL    HW128874   0.374   2.983   0.386
 9325SOL    HW228875   0.411   2.940   0.539
 9326SOL     OW28876   1.957   5.808   1.056
 9326SOL    HW128877   2.012   5.851   1.128
 9326SOL    HW228878   1.904   5.733   1.096
 9327SOL     OW28879   4.037   0.877   3.547
 9327SOL    HW128880   4.052   0.816   3.469
 9327SOL    HW228881   3.942   0.868   3.578
 9328SOL     OW28882   4.011   0.946   2.261
 9328SOL    HW128883   4.082   0.914   2.324
 9328SOL    HW228884   4.028   0.909   2.170
 9329SOL     OW28885   1.283   4.280   2.005
 9329SOL    HW128886   1.198   4.227   2.003
 9329SOL    HW228887   1.353   4.234   1.949
 9330SOL     OW28888   5.364   6.645   6.787
 9330SOL    HW128889   5.348   6.565   6.729
 9330SOL    HW228890   5.462   6.654   6.805
 9331SOL     OW28891   0.536   1.451   0.200
 9331SOL    HW128892   0.609   1.520   0.205
 9331SOL    HW228893   0.452   1.495   0.169
 9332SOL     OW28894   3.553   4.198   4.550
 9332SOL    HW128895   3.548   4.189   4.649
 9332SOL    HW228896   3.463   4.225   4.514
 9333SOL     OW28897   5.830   5.598   1.351
 9333SOL    HW128898   5.756   5.569   1.291
 9333SOL    HW228899   5.852   5.694   1.333
 9334SOL     OW28900   2.712   7.003   4.637
 9334SOL    HW128901   2.693   0.071   4.641
 9334SOL    HW228902   2.721   6.975   4.542
 9335SOL     OW28903   0.869   1.074   1.748
 9335SOL    HW128904   0.819   0.995   1.783
 9335SOL    HW228905   0.806   1.133   1.697
 9336SOL     OW28906   3.584   0.119   5.255
 9336SOL    HW128907   3.491   0.142   5.285
 9336SOL    HW228908   3.633   0.076   5.331
 9337SOL     OW28909   4.535   6.858   2.907
 9337SOL    HW128910   4.497   6.950   2.893
 9337SOL    HW228911   4.499   6.797   2.837
 9338SOL     OW28912   3.785   6.784   1.771
 9338SOL    HW128913   3.771   6.815   1.866
 9338SOL    HW228914   3.759   6.857   1.708
 9339SOL     OW28915   3.805   5.700   1.156
 9339SOL    HW128916   3.858   5.701   1.241
 9339SOL    HW228917   3.776   5.606   1.136
 9340SOL     OW28918   5.780   3.217   0.872
 9340SOL    HW128919   5.725   3.270   0.937
 9340SOL    HW228920   5.783   3.264   0.784
 9341SOL     OW28921   6.776   5.026   5.625
 9341SOL    HW128922   6.775   5.082   5.707
 9341SOL    HW228923   6.694   5.045   5.570
 9342SOL     OW28924   1.147   6.572   6.076
 9342SOL    HW128925   1.070   6.624   6.039
 9342SOL    HW228926   1.232   6.619   6.053
 9343SOL     OW28927   6.453   6.055   4.108
 9343SOL    HW128928   6.434   5.961   4.137
 9343SOL    HW228929   6.385   6.117   4.147
 9344SOL     OW28930   3.956   6.274   0.938
 9344SOL    HW128931   4.009   6.329   1.003
 9344SOL    HW228932   4.009   6.194   0.912
 9345SOL     OW28933   0.113   2.701   0.824
 9345SOL    HW128934   0.122   2.606   0.794
 9345SOL    HW228935   0.019   2.731   0.812
 9346SOL     OW28936   5.921   6.854   0.715
 9346SOL    HW128937   5.897   6.790   0.788
 9346SOL    HW228938   5.970   6.932   0.754
 9347SOL     OW28939   1.287   6.547   2.093
 9347SOL    HW128940   1.323   6.640   2.099
 9347SOL    HW228941   1.325   6.502   2.012
 9348SOL     OW28942   2.300   4.814   0.382
 9348SOL    HW128943   2.354   4.768   0.311
 9348SOL    HW228944   2.336   4.906   0.397
 9349SOL     OW28945   1.813   5.888   2.435
 9349SOL    HW128946   1.873   5.817   2.471
 9349SOL    HW228947   1.827   5.973   2.487
 9350SOL     OW28948   0.251   2.807   5.523
 9350SOL    HW128949   0.167   2.829   5.473
 9350SOL    HW228950   0.233   2.730   5.585
 9351SOL     OW28951   2.850   1.405   6.389
 9351SOL    HW128952   2.930   1.345   6.389
 9351SOL    HW228953   2.814   1.414   6.296
 9352SOL     OW28954   2.244   4.865   5.667
 9352SOL    HW128955   2.168   4.836   5.610
 9352SOL    HW228956   2.215   4.870   5.763
 9353SOL     OW28957   5.855   1.138   0.561
 9353SOL    HW128958   5.922   1.116   0.491
 9353SOL    HW228959   5.899   1.138   0.651
 9354SOL     OW28960   1.171   1.650   6.288
 9354SOL    HW128961   1.210   1.645   6.380
 9354SOL    HW228962   1.147   1.745   6.267
 9355SOL     OW28963   0.828   1.559   4.920
 9355SOL    HW128964   0.780   1.557   5.007
 9355SOL    HW228965   0.796   1.637   4.866
 9356SOL     OW28966   5.272   6.875   3.730
 9356SOL    HW128967   5.343   6.815   3.692
 9356SOL    HW228968   5.184   6.854   3.688
 9357SOL     OW28969   1.193   1.684   0.271
 9357SOL    HW128970   1.152   1.776   0.277
 9357SOL    HW228971   1.170   1.643   0.183
 9358SOL     OW28972   1.150   2.491   1.687
 9358SOL    HW128973   1.240   2.532   1.675
 9358SOL    HW228974   1.125   2.493   1.784
 9359SOL     OW28975   0.929   6.857   5.223
 9359SOL    HW128976   0.967   6.927   5.284
 9359SOL    HW228977   0.926   6.770   5.272
 9360SOL     OW28978   0.485   0.557   6.148
 9360SOL    HW128979   0.436   0.479   6.186
 9360SOL    HW228980   0.583   0.535   6.141
 9361SOL     OW28981   2.059   5.813   4.425
 9361SOL    HW128982   2.037   5.848   4.334
 9361SOL    HW228983   2.157   5.798   4.432
 9362SOL     OW28984   2.353   0.737   2.158
 9362SOL    HW128985   2.427   0.805   2.158
 9362SOL    HW228986   2.271   0.777   2.198
 9363SOL     OW28987   1.937   4.683   2.730
 9363SOL    HW128988   1.917   4.628   2.811
 9363SOL    HW228989   2.036   4.694   2.720
 9364SOL     OW28990   0.539   2.492   0.621
 9364SOL    HW128991   0.475   2.441   0.678
 9364SOL    HW228992   0.493   2.522   0.537
 9365SOL     OW28993   2.886   1.106   4.762
 9365SOL    HW128994   2.810   1.042   4.753
 9365SOL    HW228995   2.850   1.196   4.788
 9366SOL     OW28996   4.405   6.053   2.629
 9366SOL    HW128997   4.366   5.990   2.697
 9366SOL    HW228998   4.414   6.144   2.669
 9367SOL     OW28999   6.218   1.204   1.328
 9367SOL    HW129000   6.222   1.190   1.229
 9367SOL    HW229001   6.186   1.296   1.347
 9368SOL     OW29002   2.640   0.571   2.827
 9368SOL    HW129003   2.574   0.518   2.774
 9368SOL    HW229004   2.592   0.637   2.885
 9369SOL     OW29005   3.753   5.231   0.456
 9369SOL    HW129006   3.688   5.292   0.411
 9369SOL    HW229007   3.783   5.272   0.542
 9370SOL     OW29008   4.051   1.825   4.648
 9370SOL    HW129009   3.964   1.862   4.679
 9370SOL    HW229010   4.126   1.878   4.687
 9371SOL     OW29011   4.077   4.744   0.811
 9371SOL    HW129012   4.121   4.834   0.808
 9371SOL    HW229013   3.985   4.751   0.773
 9372SOL     OW29014   4.333   5.613   1.352
 9372SOL    HW129015   4.251   5.600   1.297
 9372SOL    HW229016   4.407   5.646   1.294
 9373SOL     OW29017   6.703   2.757   1.107
 9373SOL    HW129018   6.774   2.826   1.094
 9373SOL    HW229019   6.617   2.791   1.068
 9374SOL     OW29020   0.177   5.320   6.215
 9374SOL    HW129021   0.171   5.398   6.153
 9374SOL    HW229022   0.135   5.240   6.172
 9375SOL     OW29023   1.271   0.903   0.116
 9375SOL    HW129024   1.268   0.803   0.109
 9375SOL    HW229025   1.365   0.934   0.102
 9376SOL     OW29026   2.514   3.873   0.819
 9376SOL    HW129027   2.459   3.956   0.821
 9376SOL    HW229028   2.596   3.884   0.875
 9377SOL     OW29029   2.199   0.563   3.246
 9377SOL    HW129030   2.126   0.496   3.261
 9377SOL    HW229031   2.191   0.636   3.314
 9378SOL     OW29032   3.795   1.192   4.988
 9378SOL    HW129033   3.706   1.216   4.951
 9378SOL    HW229034   3.863   1.194   4.915
 9379SOL     OW29035   4.195   6.990   4.815
 9379SOL    HW129036   4.110   0.002   4.845
 9379SOL    HW229037   4.178   6.934   4.734
 9380SOL     OW29038   4.755   5.493   0.531
 9380SOL    HW129039   4.742   5.496   0.630
 9380SOL    HW229040   4.845   5.453   0.511
 9381SOL     OW29041   5.664   0.910   5.469
 9381SOL    HW129042   5.760   0.934   5.488
 9381SOL    HW229043   5.621   0.876   5.553
 9382SOL     OW29044   3.299   5.516   6.292
 9382SOL    HW129045   3.350   5.593   6.330
 9382SOL    HW229046   3.265   5.458   6.366
 9383SOL     OW29047   5.366   3.845   2.404
 9383SOL    HW129048   5.341   3.852   2.307
 9383SOL    HW229049   5.330   3.759   2.441
 9384SOL     OW29050   3.637   6.932   1.370
 9384SOL    HW129051   3.642   6.972   1.461
 9384SOL    HW229052   3.630   7.005   1.302
 9385SOL     OW29053   4.137   2.091   4.292
 9385SOL    HW129054   4.145   1.995   4.321
 9385SOL    HW229055   4.157   2.151   4.369
 9386SOL     OW29056   5.110   6.648   1.469
 9386SOL    HW129057   5.203   6.684   1.473
 9386SOL    HW229058   5.114   6.549   1.456
 9387SOL     OW29059   2.230   1.857   6.664
 9387SOL    HW129060   2.290   1.777   6.673
 9387SOL    HW229061   2.204   1.890   6.755
 9388SOL     OW29062   2.681   0.233   4.726
 9388SOL    HW129063   2.613   0.281   4.781
 9388SOL    HW229064   2.773   0.256   4.757
 9389SOL     OW29065   1.986   3.964   1.703
 9389SOL    HW129066   1.933   3.952   1.787
 9389SOL    HW229067   1.925   3.955   1.624
 9390SOL     OW29068   5.374   4.578   3.939
 9390SOL    HW129069   5.308   4.600   3.867
 9390SOL    HW229070   5.449   4.645   3.936
 9391SOL     OW29071   1.339   3.790   4.599
 9391SOL    HW129072   1.397   3.830   4.670
 9391SOL    HW229073   1.383   3.709   4.561
 9392SOL     OW29074   4.938   4.665   2.537
 9392SOL    HW129075   4.881   4.625   2.609
 9392SOL    HW229076   5.009   4.600   2.511
 9393SOL     OW29077   1.616   5.714   6.310
 9393SOL    HW129078   1.655   5.773   6.239
 9393SOL    HW229079   1.602   5.768   6.393
 9394SOL     OW29080   4.357   0.376   0.564
 9394SOL    HW129081   4.423   0.355   0.637
 9394SOL    HW229082   4.404   0.426   0.491
 9395SOL     OW29083   1.701   1.405   1.135
 9395SOL    HW129084   1.687   1.484   1.194
 9395SOL    HW229085   1.641   1.330   1.164
 9396SOL     OW29086   0.797   1.185   6.293
 9396SOL    HW129087   0.813   1.247   6.370
 9396SOL    HW229088   0.774   1.094   6.329
 9397SOL     OW29089   3.896   1.174   4.716
 9397SOL    HW129090   3.955   1.228   4.657
 9397SOL    HW229091   3.885   1.083   4.676
 9398SOL     OW29092   0.369   2.057   0.570
 9398SOL    HW129093   0.340   2.003   0.649
 9398SOL    HW229094   0.433   2.004   0.515
 9399SOL     OW29095   1.073   2.375   4.239
 9399SOL    HW129096   1.132   2.294   4.234
 9399SOL    HW229097   1.100   2.441   4.170
 9400SOL     OW29098   5.569   2.049   1.290
 9400SOL    HW129099   5.582   2.110   1.369
 9400SOL    HW229100   5.550   2.103   1.208
 9401SOL     OW29101   0.144   2.414   3.505
 9401SOL    HW129102   0.167   2.338   3.566
 9401SOL    HW229103   0.180   2.499   3.544
 9402SOL     OW29104   2.662   6.275   4.727
 9402SOL    HW129105   2.669   6.345   4.655
 9402SOL    HW229106   2.687   6.186   4.688
 9403SOL     OW29107   5.416   2.218   1.098
 9403SOL    HW129108   5.369   2.227   1.185
 9403SOL    HW229109   5.458   2.305   1.073
 9404SOL     OW29110   2.207   2.638   1.031
 9404SOL    HW129111   2.166   2.630   0.940
 9404SOL    HW229112   2.191   2.553   1.082
 9405SOL     OW29113   6.650   6.185   5.226
 9405SOL    HW129114   6.624   6.103   5.176
 9405SOL    HW229115   6.692   6.250   5.163
 9406SOL     OW29116   1.539   2.274   0.629
 9406SOL    HW129117   1.599   2.333   0.682
 9406SOL    HW229118   1.590   2.232   0.554
 9407SOL     OW29119   1.492   4.686   4.498
 9407SOL    HW129120   1.508   4.594   4.460
 9407SOL    HW229121   1.413   4.727   4.452
 9408SOL     OW29122   5.819   4.398   3.897
 9408SOL    HW129123   5.722   4.378   3.905
 9408SOL    HW229124   5.840   4.485   3.943
 9409SOL     OW29125   6.048   5.354   1.953
 9409SOL    HW129126   6.077   5.431   2.009
 9409SOL    HW229127   5.948   5.352   1.948
 9410SOL     OW29128   4.493   0.395   0.842
 9410SOL    HW129129   4.418   0.436   0.894
 9410SOL    HW229130   4.494   0.296   0.855
 9411SOL     OW29131   3.351   4.134   3.150
 9411SOL    HW129132   3.350   4.226   3.190
 9411SOL    HW229133   3.428   4.127   3.086
 9412SOL     OW29134   4.783   6.532   1.604
 9412SOL    HW129135   4.816   6.600   1.537
 9412SOL    HW229136   4.693   6.559   1.638
 9413SOL     OW29137   4.478   4.461   2.923
 9413SOL    HW129138   4.572   4.483   2.951
 9413SOL    HW229139   4.416   4.533   2.955
 9414SOL     OW29140   2.670   2.159   2.446
 9414SOL    HW129141   2.601   2.202   2.505
 9414SOL    HW229142   2.716   2.229   2.392
 9415SOL     OW29143   5.421   0.577   1.270
 9415SOL    HW129144   5.469   0.516   1.208
 9415SOL    HW229145   5.324   0.552   1.274
 9416SOL     OW29146   5.862   5.195   5.447
 9416SOL    HW129147   5.804   5.145   5.382
 9416SOL    HW229148   5.942   5.138   5.470
 9417SOL     OW29149   3.669   5.589   2.425
 9417SOL    HW129150   3.572   5.568   2.440
 9417SOL    HW229151   3.725   5.534   2.486
 9418SOL     OW29152   3.088   2.032   5.127
 9418SOL    HW129153   3.158   1.984   5.181
 9418SOL    HW229154   3.113   2.128   5.118
 9419SOL     OW29155   2.055   2.635   6.808
 9419SOL    HW129156   2.011   2.546   6.797
 9419SOL    HW229157   2.033   2.692   6.729
 9420SOL     OW29158   5.458   3.722   5.442
 9420SOL    HW129159   5.556   3.722   5.420
 9420SOL    HW229160   5.418   3.809   5.413
 9421SOL     OW29161   4.127   6.211   6.789
 9421SOL    HW129162   4.069   6.188   6.867
 9421SOL    HW229163   4.154   6.307   6.795
 9422SOL     OW29164   2.165   6.543   5.563
 9422SOL    HW129165   2.211   6.626   5.531
 9422SOL    HW229166   2.232   6.470   5.575
 9423SOL     OW29167   4.349   5.442   1.775
 9423SOL    HW129168   4.300   5.365   1.732
 9423SOL    HW229169   4.382   5.504   1.703
 9424SOL     OW29170   0.037   0.254   4.189
 9424SOL    HW129171   6.988   0.211   4.145
 9424SOL    HW229172   0.016   0.273   4.285
 9425SOL     OW29173   6.507   4.361   0.913
 9425SOL    HW129174   6.476   4.276   0.869
 9425SOL    HW229175   6.604   4.374   0.895
 9426SOL     OW29176   4.383   2.894   6.514
 9426SOL    HW129177   4.444   2.901   6.593
 9426SOL    HW229178   4.296   2.938   6.535
 9427SOL     OW29179   3.989   4.783   2.077
 9427SOL    HW129180   4.069   4.732   2.107
 9427SOL    HW229181   3.943   4.823   2.156
 9428SOL     OW29182   0.916   6.264   5.645
 9428SOL    HW129183   0.944   6.170   5.626
 9428SOL    HW229184   0.861   6.266   5.729
 9429SOL     OW29185   2.994   1.971   4.346
 9429SOL    HW129186   2.983   2.033   4.424
 9429SOL    HW229187   3.039   2.020   4.271
 9430SOL     OW29188   1.704   0.888   4.525
 9430SOL    HW129189   1.625   0.913   4.469
 9430SOL    HW229190   1.740   0.969   4.571
 9431SOL     OW29191   1.110   4.427   4.993
 9431SOL    HW129192   1.108   4.494   4.918
 9431SOL    HW229193   1.185   4.362   4.977
 9432SOL     OW29194   6.977   1.653   3.731
 9432SOL    HW129195   6.887   1.656   3.689
 9432SOL    HW229196   6.970   1.684   3.826
 9433SOL     OW29197   4.463   5.696   1.958
 9433SOL    HW129198   4.383   5.642   1.982
 9433SOL    HW229199   4.434   5.785   1.923
 9434SOL     OW29200   4.138   5.594   4.456
 9434SOL    HW129201   4.216   5.611   4.515
 9434SOL    HW229202   4.128   5.496   4.440
 9435SOL     OW29203   5.699   4.037   0.555
 9435SOL    HW129204   5.653   4.019   0.468
 9435SOL    HW229205   5.798   4.046   0.540
 9436SOL     OW29206   3.264   1.112   3.108
 9436SOL    HW129207   3.193   1.063   3.057
 9436SOL    HW229208   3.222   1.160   3.185
 9437SOL     OW29209   5.297   0.832   4.477
 9437SOL    HW129210   5.386   0.875   4.463
 9437SOL    HW229211   5.260   0.860   4.566
 9438SOL     OW29212   4.926   0.295   2.851
 9438SOL    HW129213   4.832   0.289   2.817
 9438SOL    HW229214   4.925   0.326   2.946
 9439SOL     OW29215   2.277   4.186   1.177
 9439SOL    HW129216   2.292   4.147   1.268
 9439SOL    HW229217   2.179   4.188   1.158
 9440SOL     OW29218   1.354   5.890   4.647
 9440SOL    HW129219   1.344   5.852   4.740
 9440SOL    HW229220   1.435   5.949   4.644
 9441SOL     OW29221   0.401   6.262   4.323
 9441SOL    HW129222   0.489   6.294   4.291
 9441SOL    HW229223   0.328   6.300   4.266
 9442SOL     OW29224   5.772   3.020   1.095
 9442SOL    HW129225   5.764   3.029   0.996
 9442SOL    HW229226   5.757   3.109   1.137
 9443SOL     OW29227   2.759   4.228   1.534
 9443SOL    HW129228   2.719   4.155   1.590
 9443SOL    HW229229   2.761   4.199   1.439
 9444SOL     OW29230   2.133   5.420   6.449
 9444SOL    HW129231   2.160   5.331   6.413
 9444SOL    HW229232   2.187   5.440   6.531
 9445SOL     OW29233   0.415   1.013   4.013
 9445SOL    HW129234   0.363   0.931   3.993
 9445SOL    HW229235   0.447   1.010   4.108
 9446SOL     OW29236   6.578   4.518   4.237
 9446SOL    HW129237   6.669   4.526   4.197
 9446SOL    HW229238   6.569   4.428   4.281
 9447SOL     OW29239   5.151   4.941   2.241
 9447SOL    HW129240   5.184   5.031   2.270
 9447SOL    HW229241   5.228   4.880   2.229
 9448SOL     OW29242   5.375   2.017   6.615
 9448SOL    HW129243   5.438   2.093   6.634
 9448SOL    HW229244   5.412   1.962   6.540
 9449SOL     OW29245   4.452   6.987   2.263
 9449SOL    HW129246   4.429   6.915   2.197
 9449SOL    HW229247   4.546   7.017   2.248
 9450SOL     OW29248   1.162   0.355   3.143
 9450SOL    HW129249   1.156   0.447   3.105
 9450SOL    HW229250   1.123   0.289   3.079
 9451SOL     OW29251   3.728   4.946   0.543
 9451SOL    HW129252   3.757   5.038   0.518
 9451SOL    HW229253   3.726   4.888   0.461
 9452SOL     OW29254   6.119   4.178   6.127
 9452SOL    HW129255   6.203   4.215   6.167
 9452SOL    HW229256   6.050   4.250   6.122
 9453SOL     OW29257   6.244   4.829   2.150
 9453SOL    HW129258   6.237   4.734   2.120
 9453SOL    HW229259   6.242   4.889   2.070
 9454SOL     OW29260   5.898   5.116   0.670
 9454SOL    HW129261   5.854   5.205   0.660
 9454SOL    HW229262   5.828   5.045   0.671
 9455SOL     OW29263   4.533   0.372   1.655
 9455SOL    HW129264   4.460   0.358   1.722
 9455SOL    HW229265   4.612   0.315   1.679
 9456SOL     OW29266   6.872   2.100   2.952
 9456SOL    HW129267   6.936   2.025   2.932
 9456SOL    HW229268   6.917   2.188   2.936
 9457SOL     OW29269   6.306   5.781   3.774
 9457SOL    HW129270   6.262   5.745   3.857
 9457SOL    HW229271   6.314   5.880   3.782
 9458SOL     OW29272   6.037   3.938   0.213
 9458SOL    HW129273   6.008   3.962   0.121
 9458SOL    HW229274   5.990   3.855   0.243
 9459SOL     OW29275   4.939   4.589   4.857
 9459SOL    HW129276   4.991   4.618   4.777
 9459SOL    HW229277   4.861   4.533   4.829
 9460SOL     OW29278   1.595   2.538   2.239
 9460SOL    HW129279   1.582   2.637   2.238
 9460SOL    HW229280   1.520   2.495   2.290
 9461SOL     OW29281   2.536   1.560   1.972
 9461SOL    HW129282   2.522   1.642   2.029
 9461SOL    HW229283   2.462   1.496   1.988
 9462SOL     OW29284   6.855   1.546   5.922
 9462SOL    HW129285   6.855   1.543   5.822
 9462SOL    HW229286   6.818   1.633   5.953
 9463SOL     OW29287   6.307   4.555   0.337
 9463SOL    HW129288   6.324   4.604   0.252
 9463SOL    HW229289   6.237   4.603   0.391
 9464SOL     OW29290   0.888   0.312   1.908
 9464SOL    HW129291   0.824   0.239   1.887
 9464SOL    HW229292   0.982   0.278   1.902
 9465SOL     OW29293   6.454   5.955   0.297
 9465SOL    HW129294   6.539   5.906   0.275
 9465SOL    HW229295   6.474   6.052   0.308
 9466SOL     OW29296   4.408   3.956   5.326
 9466SOL    HW129297   4.394   3.857   5.327
 9466SOL    HW229298   4.336   4.001   5.380
 9467SOL     OW29299   1.006   4.018   0.622
 9467SOL    HW129300   1.079   4.081   0.596
 9467SOL    HW229301   1.046   3.927   0.640
 9468SOL     OW29302   5.936   1.099   1.237
 9468SOL    HW129303   6.003   1.173   1.245
 9468SOL    HW229304   5.951   1.033   1.311
 9469SOL     OW29305   6.965   6.869   1.579
 9469SOL    HW129306   6.975   6.964   1.547
 9469SOL    HW229307   6.872   6.838   1.562
 9470SOL     OW29308   3.421   2.793   0.741
 9470SOL    HW129309   3.474   2.790   0.656
 9470SOL    HW229310   3.385   2.702   0.761
 9471SOL     OW29311   6.593   3.173   5.005
 9471SOL    HW129312   6.617   3.095   5.063
 9471SOL    HW229313   6.530   3.143   4.933
 9472SOL     OW29314   1.764   3.414   5.765
 9472SOL    HW129315   1.670   3.442   5.786
 9472SOL    HW229316   1.827   3.485   5.797
 9473SOL     OW29317   3.075   3.811   1.241
 9473SOL    HW129318   2.984   3.774   1.225
 9473SOL    HW229319   3.115   3.765   1.321
 9474SOL     OW29320   5.740   4.476   1.078
 9474SOL    HW129321   5.670   4.515   1.017
 9474SOL    HW229322   5.783   4.397   1.034
 9475SOL     OW29323   5.323   3.426   6.616
 9475SOL    HW129324   5.247   3.438   6.552
 9475SOL    HW229325   5.289   3.429   6.710
 9476SOL     OW29326   4.187   4.251   1.390
 9476SOL    HW129327   4.111   4.296   1.342
 9476SOL    HW229328   4.150   4.189   1.459
 9477SOL     OW29329   1.385   4.841   0.839
 9477SOL    HW129330   1.448   4.773   0.877
 9477SOL    HW229331   1.358   4.905   0.912
 9478SOL     OW29332   6.511   4.083   6.270
 9478SOL    HW129333   6.432   4.143   6.278
 9478SOL    HW229334   6.545   4.059   6.361
 9479SOL     OW29335   4.442   0.977   2.099
 9479SOL    HW129336   4.359   0.921   2.091
 9479SOL    HW229337   4.520   0.918   2.118
 9480SOL     OW29338   5.714   0.406   0.757
 9480SOL    HW129339   5.666   0.469   0.697
 9480SOL    HW229340   5.712   0.440   0.851
 9481SOL     OW29341   4.877   0.116   3.231
 9481SOL    HW129342   4.946   0.048   3.203
 9481SOL    HW229343   4.870   0.117   3.330
 9482SOL     OW29344   6.327   4.922   5.158
 9482SOL    HW129345   6.269   5.000   5.136
 9482SOL    HW229346   6.271   4.839   5.160
 9483SOL     OW29347   6.197   5.257   6.418
 9483SOL    HW129348   6.235   5.344   6.386
 9483SOL    HW229349   6.190   5.194   6.341
 9484SOL     OW29350   2.050   6.492   4.596
 9484SOL    HW129351   2.071   6.548   4.516
 9484SOL    HW229352   2.028   6.399   4.568
 9485SOL     OW29353   0.710   1.271   5.029
 9485SOL    HW129354   0.662   1.188   5.002
 9485SOL    HW229355   0.809   1.254   5.026
 9486SOL     OW29356   6.784   5.659   6.300
 9486SOL    HW129357   6.846   5.722   6.347
 9486SOL    HW229358   6.815   5.565   6.315
 9487SOL     OW29359   3.081   3.773   2.980
 9487SOL    HW129360   3.118   3.751   2.890
 9487SOL    HW229361   3.082   3.873   2.993
 9488SOL     OW29362   2.069   0.725   1.675
 9488SOL    HW129363   2.139   0.726   1.747
 9488SOL    HW229364   2.027   0.815   1.668
 9489SOL     OW29365   6.303   4.131   0.185
 9489SOL    HW129366   6.228   4.162   0.243
 9489SOL    HW229367   6.269   4.062   0.121
 9490SOL     OW29368   5.479   3.408   4.635
 9490SOL    HW129369   5.555   3.472   4.641
 9490SOL    HW229370   5.498   3.340   4.564
 9491SOL     OW29371   5.745   0.085   2.888
 9491SOL    HW129372   5.756   0.104   2.791
 9491SOL    HW229373   5.653   0.050   2.905
 9492SOL     OW29374   4.702   2.408   4.106
 9492SOL    HW129375   4.671   2.371   4.194
 9492SOL    HW229376   4.768   2.345   4.065
 9493SOL     OW29377   3.158   6.287   2.547
 9493SOL    HW129378   3.134   6.190   2.551
 9493SOL    HW229379   3.178   6.312   2.452
 9494SOL     OW29380   4.917   2.419   2.115
 9494SOL    HW129381   4.953   2.340   2.164
 9494SOL    HW229382   4.964   2.502   2.147
 9495SOL     OW29383   5.277   2.763   1.426
 9495SOL    HW129384   5.342   2.760   1.350
 9495SOL    HW229385   5.192   2.806   1.395
 9496SOL     OW29386   6.137   2.793   1.296
 9496SOL    HW129387   6.166   2.709   1.344
 9496SOL    HW229388   6.162   2.872   1.351
 9497SOL     OW29389   5.302   5.091   5.296
 9497SOL    HW129390   5.290   5.101   5.395
 9497SOL    HW229391   5.397   5.110   5.272
 9498SOL     OW29392   1.076   5.413   5.480
 9498SOL    HW129393   0.989   5.462   5.480
 9498SOL    HW229394   1.135   5.451   5.551
 9499SOL     OW29395   5.551   6.056   4.353
 9499SOL    HW129396   5.518   5.965   4.328
 9499SOL    HW229397   5.625   6.083   4.290
 9500SOL     OW29398   3.194   1.621   0.886
 9500SOL    HW129399   3.146   1.684   0.947
 9500SOL    HW229400   3.137   1.539   0.872
 9501SOL     OW29401   2.006   3.859   5.218
 9501SOL    HW129402   2.029   3.873   5.121
 9501SOL    HW229403   1.907   3.865   5.230
 9502SOL     OW29404   5.720   4.355   3.180
 9502SOL    HW129405   5.771   4.400   3.254
 9502SOL    HW229406   5.628   4.394   3.174
 9503SOL     OW29407   5.772   1.525   0.386
 9503SOL    HW129408   5.750   1.545   0.481
 9503SOL    HW229409   5.834   1.447   0.382
 9504SOL     OW29410   6.591   5.890   2.227
 9504SOL    HW129411   6.500   5.897   2.185
 9504SOL    HW229412   6.637   5.809   2.193
 9505SOL     OW29413   4.504   3.651   6.712
 9505SOL    HW129414   4.529   3.712   6.637
 9505SOL    HW229415   4.441   3.581   6.678
 9506SOL     OW29416   3.334   0.995   1.843
 9506SOL    HW129417   3.398   1.069   1.863
 9506SOL    HW229418   3.251   1.034   1.802
 9507SOL     OW29419   6.340   6.389   1.656
 9507SOL    HW129420   6.260   6.329   1.645
 9507SOL    HW229421   6.423   6.334   1.660
 9508SOL     OW29422   5.227   0.780   2.255
 9508SOL    HW129423   5.266   0.739   2.172
 9508SOL    HW229424   5.191   0.870   2.233
 9509SOL     OW29425   5.585   1.363   3.656
 9509SOL    HW129426   5.653   1.437   3.651
 9509SOL    HW229427   5.507   1.387   3.597
 9510SOL     OW29428   1.435   2.915   2.645
 9510SOL    HW129429   1.471   2.943   2.734
 9510SOL    HW229430   1.403   2.821   2.650
 9511SOL     OW29431   0.748   1.671   1.276
 9511SOL    HW129432   0.822   1.673   1.209
 9511SOL    HW229433   0.661   1.690   1.229
 9512SOL     OW29434   6.646   2.284   2.207
 9512SOL    HW129435   6.617   2.380   2.209
 9512SOL    HW229436   6.689   2.260   2.294
 9513SOL     OW29437   4.853   3.989   5.097
 9513SOL    HW129438   4.830   4.070   5.152
 9513SOL    HW229439   4.933   4.009   5.041
 9514SOL     OW29440   3.664   3.039   0.938
 9514SOL    HW129441   3.578   3.034   0.988
 9514SOL    HW229442   3.645   3.067   0.843
 9515SOL     OW29443   0.219   5.668   3.049
 9515SOL    HW129444   0.305   5.690   3.003
 9515SOL    HW229445   0.198   5.739   3.116
 9516SOL     OW29446   0.661   4.392   6.476
 9516SOL    HW129447   0.573   4.429   6.448
 9516SOL    HW229448   0.709   4.355   6.396
 9517SOL     OW29449   0.179   6.821   1.927
 9517SOL    HW129450   0.273   6.837   1.956
 9517SOL    HW229451   0.116   6.855   1.997
 9518SOL     OW29452   0.849   1.323   1.173
 9518SOL    HW129453   0.933   1.363   1.137
 9518SOL    HW229454   0.858   1.309   1.272
 9519SOL     OW29455   1.787   2.377   5.305
 9519SOL    HW129456   1.753   2.423   5.223
 9519SOL    HW229457   1.711   2.341   5.357
 9520SOL     OW29458   4.380   6.325   1.609
 9520SOL    HW129459   4.280   6.317   1.602
 9520SOL    HW229460   4.422   6.238   1.586
 9521SOL     OW29461   5.492   4.423   3.573
 9521SOL    HW129462   5.582   4.462   3.589
 9521SOL    HW229463   5.457   4.453   3.484
 9522SOL     OW29464   3.281   4.831   6.195
 9522SOL    HW129465   3.354   4.806   6.259
 9522SOL    HW229466   3.306   4.914   6.146
 9523SOL     OW29467   2.327   0.310   5.084
 9523SOL    HW129468   2.304   0.393   5.135
 9523SOL    HW229469   2.274   0.233   5.119
 9524SOL     OW29470   5.297   3.554   0.260
 9524SOL    HW129471   5.356   3.508   0.194
 9524SOL    HW229472   5.275   3.646   0.227
 9525SOL     OW29473   3.893   6.961   4.514
 9525SOL    HW129474   3.846   6.876   4.537
 9525SOL    HW229475   3.990   6.953   4.538
 9526SOL     OW29476   4.448   5.647   1.031
 9526SOL    HW129477   4.389   5.579   0.989
 9526SOL    HW229478   4.503   5.604   1.103
 9527SOL     OW29479   0.371   2.297   0.741
 9527SOL    HW129480   0.276   2.327   0.753
 9527SOL    HW229481   0.373   2.213   0.686
 9528SOL     OW29482   6.871   1.113   1.439
 9528SOL    HW129483   6.897   1.039   1.501
 9528SOL    HW229484   6.801   1.169   1.482
 9529SOL     OW29485   1.671   2.972   5.135
 9529SOL    HW129486   1.763   2.959   5.173
 9529SOL    HW229487   1.676   3.039   5.061
 9530SOL     OW29488   2.573   1.206   3.968
 9530SOL    HW129489   2.610   1.226   3.877
 9530SOL    HW229490   2.637   1.146   4.017
 9531SOL     OW29491   2.792   6.687   4.078
 9531SOL    HW129492   2.817   6.697   4.174
 9531SOL    HW229493   2.694   6.705   4.066
 9532SOL     OW29494   3.402   1.452   2.039
 9532SOL    HW129495   3.454   1.506   1.974
 9532SOL    HW229496   3.304   1.468   2.026
 9533SOL     OW29497   0.835   1.652   4.526
 9533SOL    HW129498   0.775   1.583   4.486
 9533SOL    HW229499   0.850   1.725   4.459
 9534SOL     OW29500   5.940   1.873   4.793
 9534SOL    HW129501   5.860   1.843   4.846
 9534SOL    HW229502   5.910   1.900   4.701
 9535SOL     OW29503   3.194   1.835   4.709
 9535SOL    HW129504   3.175   1.817   4.613
 9535SOL    HW229505   3.262   1.769   4.742
 9536SOL     OW29506   2.370   0.100   6.375
 9536SOL    HW129507   2.463   0.101   6.412
 9536SOL    HW229508   2.339   0.006   6.363
 9537SOL     OW29509   2.038   0.563   0.422
 9537SOL    HW129510   2.110   0.543   0.489
 9537SOL    HW229511   2.038   0.491   0.351
 9538SOL     OW29512   5.962   3.745   2.777
 9538SOL    HW129513   6.046   3.767   2.827
 9538SOL    HW229514   5.899   3.696   2.837
 9539SOL     OW29515   6.834   3.889   6.688
 9539SOL    HW129516   6.823   3.911   6.591
 9539SOL    HW229517   6.892   3.808   6.698
 9540SOL     OW29518   5.797   3.910   5.897
 9540SOL    HW129519   5.799   3.906   5.997
 9540SOL    HW229520   5.838   3.827   5.860
 9541SOL     OW29521   6.612   2.206   3.620
 9541SOL    HW129522   6.570   2.288   3.582
 9541SOL    HW229523   6.685   2.175   3.560
 9542SOL     OW29524   4.762   4.224   4.572
 9542SOL    HW129525   4.861   4.234   4.582
 9542SOL    HW229526   4.742   4.161   4.497
 9543SOL     OW29527   3.882   2.952   0.649
 9543SOL    HW129528   3.842   2.879   0.705
 9543SOL    HW229529   3.972   2.976   0.686
 9544SOL     OW29530   4.487   0.079   0.730
 9544SOL    HW129531   4.562   0.026   0.689
 9544SOL    HW229532   4.399   0.040   0.701
 9545SOL     OW29533   1.172   6.751   4.458
 9545SOL    HW129534   1.208   6.844   4.460
 9545SOL    HW229535   1.077   6.751   4.490
 9546SOL     OW29536   2.562   4.630   2.051
 9546SOL    HW129537   2.508   4.686   1.989
 9546SOL    HW229538   2.658   4.633   2.025
 9547SOL     OW29539   5.382   5.821   3.725
 9547SOL    HW129540   5.428   5.908   3.704
 9547SOL    HW229541   5.448   5.747   3.723
 9548SOL     OW29542   5.674   6.952   2.460
 9548SOL    HW129543   5.722   6.865   2.452
 9548SOL    HW229544   5.581   6.943   2.425
 9549SOL     OW29545   2.242   6.250   6.919
 9549SOL    HW129546   2.217   6.221   7.012
 9549SOL    HW229547   2.199   6.188   6.853
 9550SOL     OW29548   1.525   0.990   0.077
 9550SOL    HW129549   1.558   0.927   0.006
 9550SOL    HW229550   1.603   1.027   0.127
 9551SOL     OW29551   1.375   5.737   5.331
 9551SOL    HW129552   1.451   5.801   5.325
 9551SOL    HW229553   1.396   5.655   5.278
 9552SOL     OW29554   0.353   5.426   2.763
 9552SOL    HW129555   0.276   5.490   2.768
 9552SOL    HW229556   0.429   5.469   2.714
 9553SOL     OW29557   5.784   4.800   6.387
 9553SOL    HW129558   5.840   4.760   6.460
 9553SOL    HW229559   5.715   4.861   6.428
 9554SOL     OW29560   2.523   1.695   2.228
 9554SOL    HW129561   2.519   1.731   2.321
 9554SOL    HW229562   2.513   1.770   2.163
 9555SOL     OW29563   6.840   2.317   6.390
 9555SOL    HW129564   6.888   2.251   6.449
 9555SOL    HW229565   6.763   2.356   6.440
 9556SOL     OW29566   6.798   0.836   1.022
 9556SOL    HW129567   6.763   0.884   0.941
 9556SOL    HW229568   6.839   0.902   1.084
 9557SOL     OW29569   5.075   1.529   1.975
 9557SOL    HW129570   5.123   1.483   2.050
 9557SOL    HW229571   5.042   1.461   1.910
 9558SOL     OW29572   6.721   3.476   1.335
 9558SOL    HW129573   6.669   3.558   1.359
 9558SOL    HW229574   6.815   3.485   1.366
 9559SOL     OW29575   0.594   4.488   2.633
 9559SOL    HW129576   0.665   4.442   2.686
 9559SOL    HW229577   0.505   4.449   2.655
 9560SOL     OW29578   3.684   2.535   5.673
 9560SOL    HW129579   3.740   2.587   5.608
 9560SOL    HW229580   3.733   2.528   5.760
 9561SOL     OW29581   3.548   5.491   6.702
 9561SOL    HW129582   3.601   5.438   6.768
 9561SOL    HW229583   3.600   5.572   6.675
 9562SOL     OW29584   6.152   5.187   4.187
 9562SOL    HW129585   6.087   5.253   4.150
 9562SOL    HW229586   6.210   5.153   4.113
 9563SOL     OW29587   0.376   6.822   6.482
 9563SOL    HW129588   0.452   6.833   6.547
 9563SOL    HW229589   0.316   6.749   6.513
 9564SOL     OW29590   1.155   1.021   6.002
 9564SOL    HW129591   1.172   1.038   6.099
 9564SOL    HW229592   1.216   1.079   5.947
 9565SOL     OW29593   2.819   5.828   5.395
 9565SOL    HW129594   2.802   5.755   5.462
 9565SOL    HW229595   2.913   5.860   5.404
 9566SOL     OW29596   3.053   4.894   5.407
 9566SOL    HW129597   3.074   4.796   5.410
 9566SOL    HW229598   2.987   4.915   5.480
 9567SOL     OW29599   6.382   4.676   4.442
 9567SOL    HW129600   6.309   4.609   4.429
 9567SOL    HW229601   6.466   4.644   4.400
 9568SOL     OW29602   5.765   3.528   5.698
 9568SOL    HW129603   5.819   3.602   5.739
 9568SOL    HW229604   5.737   3.463   5.769
 9569SOL     OW29605   6.068   0.032   1.368
 9569SOL    HW129606   6.055   0.058   1.272
 9569SOL    HW229607   5.998   6.996   1.394
 9570SOL     OW29608   1.047   2.166   6.857
 9570SOL    HW129609   0.959   2.119   6.853
 9570SOL    HW229610   1.041   2.244   6.919
 9571SOL     OW29611   3.438   1.740   0.830
 9571SOL    HW129612   3.349   1.701   0.854
 9571SOL    HW229613   3.508   1.699   0.887
 9572SOL     OW29614   0.268   3.934   0.799
 9572SOL    HW129615   0.252   3.999   0.724
 9572SOL    HW229616   0.195   3.865   0.799
 9573SOL     OW29617   4.671   1.683   2.489
 9573SOL    HW129618   4.755   1.655   2.535
 9573SOL    HW229619   4.661   1.633   2.404
 9574SOL     OW29620   2.935   2.239   3.803
 9574SOL    HW129621   2.903   2.308   3.868
 9574SOL    HW229622   2.882   2.246   3.719
 9575SOL     OW29623   3.901   1.586   3.106
 9575SOL    HW129624   3.848   1.617   3.185
 9575SOL    HW229625   3.871   1.495   3.080
 9576SOL     OW29626   3.697   3.157   5.219
 9576SOL    HW129627   3.660   3.155   5.126
 9576SOL    HW229628   3.627   3.124   5.283
 9577SOL     OW29629   0.399   5.346   3.944
 9577SOL    HW129630   0.470   5.336   3.875
 9577SOL    HW229631   0.312   5.368   3.900
 9578SOL     OW29632   0.014   3.772   1.223
 9578SOL    HW129633   0.112   3.752   1.220
 9578SOL    HW229634   6.996   3.714   1.157
 9579SOL     OW29635   1.303   5.097   3.031
 9579SOL    HW129636   1.307   5.022   3.097
 9579SOL    HW229637   1.349   5.070   2.947
 9580SOL     OW29638   4.035   3.664   5.369
 9580SOL    HW129639   4.120   3.643   5.321
 9580SOL    HW229640   3.957   3.627   5.317
 9581SOL     OW29641   1.004   5.662   5.875
 9581SOL    HW129642   0.904   5.664   5.874
 9581SOL    HW229643   1.037   5.679   5.968
 9582SOL     OW29644   3.862   5.782   2.853
 9582SOL    HW129645   3.914   5.859   2.889
 9582SOL    HW229646   3.915   5.698   2.863
 9583SOL     OW29647   1.593   5.119   1.770
 9583SOL    HW129648   1.550   5.125   1.680
 9583SOL    HW229649   1.685   5.157   1.765
 9584SOL     OW29650   5.521   4.289   7.026
 9584SOL    HW129651   5.425   4.270   0.017
 9584SOL    HW229652   5.529   4.316   6.930
 9585SOL     OW29653   6.358   1.248   3.206
 9585SOL    HW129654   6.434   1.247   3.140
 9585SOL    HW229655   6.321   1.156   3.215
 9586SOL     OW29656   4.838   3.937   2.246
 9586SOL    HW129657   4.810   3.958   2.152
 9586SOL    HW229658   4.798   4.004   2.309
 9587SOL     OW29659   4.574   6.137   1.626
 9587SOL    HW129660   4.620   6.055   1.662
 9587SOL    HW229661   4.583   6.139   1.526
 9588SOL     OW29662   6.205   1.526   3.626
 9588SOL    HW129663   6.258   1.528   3.540
 9588SOL    HW229664   6.153   1.441   3.630
 9589SOL     OW29665   3.941   1.897   5.509
 9589SOL    HW129666   3.857   1.845   5.517
 9589SOL    HW229667   3.924   1.992   5.535
 9590SOL     OW29668   0.241   5.003   4.373
 9590SOL    HW129669   0.266   5.001   4.470
 9590SOL    HW229670   0.323   5.017   4.318
 9591SOL     OW29671   0.312   4.602   2.125
 9591SOL    HW129672   0.372   4.613   2.205
 9591SOL    HW229673   0.218   4.586   2.156
 9592SOL     OW29674   3.905   5.847   0.475
 9592SOL    HW129675   3.842   5.802   0.539
 9592SOL    HW229676   3.884   5.945   0.470
 9593SOL     OW29677   2.218   1.909   3.432
 9593SOL    HW129678   2.182   1.936   3.521
 9593SOL    HW229679   2.315   1.931   3.427
 9594SOL     OW29680   5.784   0.242   1.171
 9594SOL    HW129681   5.878   0.214   1.151
 9594SOL    HW229682   5.757   0.204   1.260
 9595SOL     OW29683   1.879   5.873   5.605
 9595SOL    HW129684   1.789   5.913   5.622
 9595SOL    HW229685   1.895   5.798   5.670
 9596SOL     OW29686   5.303   5.466   2.233
 9596SOL    HW129687   5.262   5.493   2.319
 9596SOL    HW229688   5.394   5.507   2.224
 9597SOL     OW29689   2.204   5.298   1.347
 9597SOL    HW129690   2.150   5.379   1.321
 9597SOL    HW229691   2.165   5.258   1.430
 9598SOL     OW29692   0.503   6.066   6.294
 9598SOL    HW129693   0.468   6.146   6.246
 9598SOL    HW229694   0.445   6.048   6.374
 9599SOL     OW29695   3.880   2.155   5.526
 9599SOL    HW129696   3.873   2.237   5.582
 9599SOL    HW229697   3.895   2.180   5.430
 9600SOL     OW29698   1.441   6.617   6.753
 9600SOL    HW129699   1.464   6.563   6.834
 9600SOL    HW229700   1.500   6.590   6.677
 9601SOL     OW29701   0.834   6.631   4.635
 9601SOL    HW129702   0.912   6.572   4.612
 9601SOL    HW229703   0.867   6.715   4.677
 9602SOL     OW29704   1.183   5.603   6.123
 9602SOL    HW129705   1.272   5.583   6.166
 9602SOL    HW229706   1.137   5.516   6.103
 9603SOL     OW29707   1.125   5.592   1.468
 9603SOL    HW129708   1.104   5.588   1.371
 9603SOL    HW229709   1.159   5.503   1.499
 9604SOL     OW29710   7.023   0.669   6.410
 9604SOL    HW129711   6.959   0.741   6.437
 9604SOL    HW229712   0.086   0.704   6.414
 9605SOL     OW29713   3.248   4.446   1.347
 9605SOL    HW129714   3.187   4.413   1.419
 9605SOL    HW229715   3.334   4.476   1.389
 9606SOL     OW29716   0.075   0.803   5.536
 9606SOL    HW129717   7.010   0.817   5.564
 9606SOL    HW229718   0.124   0.756   5.610
 9607SOL     OW29719   0.277   2.639   3.639
 9607SOL    HW129720   0.307   2.734   3.637
 9607SOL    HW229721   0.357   2.579   3.647
 9608SOL     OW29722   5.962   0.926   1.456
 9608SOL    HW129723   5.888   0.933   1.522
 9608SOL    HW229724   6.050   0.934   1.504
 9609SOL     OW29725   1.495   2.101   3.989
 9609SOL    HW129726   1.482   2.049   3.904
 9609SOL    HW229727   1.567   2.058   4.043
 9610SOL     OW29728   4.774   0.919   5.317
 9610SOL    HW129729   4.755   0.872   5.404
 9610SOL    HW229730   4.872   0.938   5.311
 9611SOL     OW29731   4.426   5.263   0.946
 9611SOL    HW129732   4.404   5.165   0.944
 9611SOL    HW229733   4.441   5.292   1.040
 9612SOL     OW29734   5.696   3.492   3.974
 9612SOL    HW129735   5.631   3.528   3.907
 9612SOL    HW229736   5.753   3.423   3.930
 9613SOL     OW29737   5.760   0.514   4.697
 9613SOL    HW129738   5.707   0.598   4.707
 9613SOL    HW229739   5.747   0.456   4.778
 9614SOL     OW29740   2.689   2.904   0.542
 9614SOL    HW129741   2.733   2.994   0.546
 9614SOL    HW229742   2.740   2.846   0.478
 9615SOL     OW29743   6.973   5.368   3.896
 9615SOL    HW129744   0.011   5.296   3.892
 9615SOL    HW229745   6.904   5.345   3.965
 9616SOL     OW29746   0.993   2.175   0.985
 9616SOL    HW129747   1.054   2.253   0.977
 9616SOL    HW229748   1.046   2.093   1.006
 9617SOL     OW29749   0.774   2.842   3.660
 9617SOL    HW129750   0.845   2.890   3.608
 9617SOL    HW229751   0.708   2.801   3.597
 9618SOL     OW29752   5.075   4.128   2.217
 9618SOL    HW129753   5.077   4.114   2.118
 9618SOL    HW229754   4.983   4.109   2.252
 9619SOL     OW29755   0.933   0.060   0.716
 9619SOL    HW129756   0.914   7.020   0.785
 9619SOL    HW229757   1.006   0.028   0.656
 9620SOL     OW29758   4.226   1.003   6.578
 9620SOL    HW129759   4.202   0.908   6.559
 9620SOL    HW229760   4.246   1.013   6.676
 9621SOL     OW29761   0.213   1.037   1.506
 9621SOL    HW129762   0.173   1.037   1.598
 9621SOL    HW229763   0.262   0.952   1.491
 9622SOL     OW29764   6.506   6.594   5.085
 9622SOL    HW129765   6.529   6.512   5.033
 9622SOL    HW229766   6.575   6.664   5.069
 9623SOL     OW29767   2.776   6.479   5.938
 9623SOL    HW129768   2.791   6.412   6.011
 9623SOL    HW229769   2.680   6.476   5.909
 9624SOL     OW29770   5.021   5.363   6.551
 9624SOL    HW129771   5.098   5.351   6.613
 9624SOL    HW229772   5.012   5.459   6.526
 9625SOL     OW29773   5.050   4.563   6.001
 9625SOL    HW129774   5.132   4.543   5.948
 9625SOL    HW229775   5.045   4.501   6.079
 9626SOL     OW29776   2.202   3.015   6.343
 9626SOL    HW129777   2.261   3.095   6.341
 9626SOL    HW229778   2.246   2.943   6.398
 9627SOL     OW29779   0.060   5.894   0.631
 9627SOL    HW129780   0.112   5.979   0.620
 9627SOL    HW229781   0.010   5.875   0.546
 9628SOL     OW29782   5.918   0.959   5.565
 9628SOL    HW129783   5.869   1.022   5.625
 9628SOL    HW229784   6.014   0.956   5.591
 9629SOL     OW29785   0.269   5.437   3.664
 9629SOL    HW129786   0.299   5.411   3.573
 9629SOL    HW229787   0.312   5.524   3.690
 9630SOL     OW29788   5.664   0.056   6.621
 9630SOL    HW129789   5.681   7.024   6.544
 9630SOL    HW229790   5.740   0.121   6.629
 9631SOL     OW29791   4.500   5.911   0.697
 9631SOL    HW129792   4.554   5.911   0.613
 9631SOL    HW229793   4.554   5.872   0.772
 9632SOL     OW29794   2.495   5.127   2.940
 9632SOL    HW129795   2.553   5.187   2.994
 9632SOL    HW229796   2.520   5.135   2.843
 9633SOL     OW29797   3.310   2.814   5.192
 9633SOL    HW129798   3.245   2.889   5.197
 9633SOL    HW229799   3.270   2.732   5.234
 9634SOL     OW29800   5.814   4.552   2.631
 9634SOL    HW129801   5.741   4.561   2.563
 9634SOL    HW229802   5.807   4.626   2.697
 9635SOL     OW29803   0.364   5.392   4.744
 9635SOL    HW129804   0.292   5.381   4.812
 9635SOL    HW229805   0.323   5.398   4.653
 9636SOL     OW29806   5.221   3.312   3.865
 9636SOL    HW129807   5.121   3.317   3.871
 9636SOL    HW229808   5.250   3.342   3.774
 9637SOL     OW29809   1.808   3.041   6.709
 9637SOL    HW129810   1.821   3.078   6.801
 9637SOL    HW229811   1.888   3.062   6.653
 9638SOL     OW29812   0.107   4.242   5.308
 9638SOL    HW129813   0.200   4.268   5.285
 9638SOL    HW229814   0.057   4.220   5.224
 9639SOL     OW29815   4.694   2.699   1.494
 9639SOL    HW129816   4.734   2.611   1.469
 9639SOL    HW229817   4.608   2.683   1.544
 9640SOL     OW29818   3.668   0.163   3.078
 9640SOL    HW129819   3.733   0.169   3.154
 9640SOL    HW229820   3.629   0.071   3.075
 9641SOL     OW29821   0.361   3.560   4.421
 9641SOL    HW129822   0.316   3.565   4.511
 9641SOL    HW229823   0.375   3.652   4.385
 9642SOL     OW29824   0.735   3.140   4.852
 9642SOL    HW129825   0.782   3.056   4.880
 9642SOL    HW229826   0.799   3.217   4.854
 9643SOL     OW29827   5.670   4.998   4.105
 9643SOL    HW129828   5.575   4.973   4.119
 9643SOL    HW229829   5.691   5.080   4.158
 9644SOL     OW29830   1.197   4.849   3.749
 9644SOL    HW129831   1.202   4.835   3.650
 9644SOL    HW229832   1.104   4.876   3.774
 9645SOL     OW29833   1.590   4.748   6.739
 9645SOL    HW129834   1.618   4.783   6.828
 9645SOL    HW229835   1.664   4.695   6.698
 9646SOL     OW29836   2.812   5.169   1.127
 9646SOL    HW129837   2.825   5.248   1.188
 9646SOL    HW229838   2.800   5.202   1.033
 9647SOL     OW29839   6.063   6.871   2.967
 9647SOL    HW129840   6.057   6.955   2.913
 9647SOL    HW229841   6.017   6.883   3.055
 9648SOL     OW29842   3.437   1.880   1.354
 9648SOL    HW129843   3.505   1.808   1.373
 9648SOL    HW229844   3.409   1.922   1.440
 9649SOL     OW29845   6.897   6.401   1.399
 9649SOL    HW129846   6.926   6.491   1.369
 9649SOL    HW229847   6.890   6.399   1.499
 9650SOL     OW29848   0.616   5.333   4.862
 9650SOL    HW129849   0.647   5.257   4.804
 9650SOL    HW229850   0.539   5.380   4.817
 9651SOL     OW29851   3.999   1.813   6.923
 9651SOL    HW129852   3.947   1.773   6.849
 9651SOL    HW229853   4.095   1.823   6.895
 9652SOL     OW29854   7.022   3.362   0.510
 9652SOL    HW129855   0.085   3.392   0.532
 9652SOL    HW229856   6.980   3.322   0.591
 9653SOL     OW29857   5.361   4.372   5.424
 9653SOL    HW129858   5.335   4.412   5.337
 9653SOL    HW229859   5.432   4.303   5.410
 9654SOL     OW29860   3.872   3.878   3.822
 9654SOL    HW129861   3.868   3.975   3.847
 9654SOL    HW229862   3.816   3.863   3.741
 9655SOL     OW29863   5.097   0.574   0.869
 9655SOL    HW129864   5.171   0.611   0.925
 9655SOL    HW229865   5.034   0.648   0.844
 9656SOL     OW29866   5.016   4.464   6.360
 9656SOL    HW129867   5.058   4.384   6.319
 9656SOL    HW229868   4.916   4.457   6.354
 9657SOL     OW29869   4.928   4.896   2.990
 9657SOL    HW129870   4.996   4.846   3.045
 9657SOL    HW229871   4.839   4.889   3.034
 9658SOL     OW29872   5.518   1.009   2.196
 9658SOL    HW129873   5.512   0.958   2.282
 9658SOL    HW229874   5.609   0.997   2.157
 9659SOL     OW29875   3.089   3.063   0.087
 9659SOL    HW129876   3.057   3.000   0.016
 9659SOL    HW229877   3.148   3.014   0.151
 9660SOL     OW29878   2.340   0.070   1.580
 9660SOL    HW129879   2.361   0.160   1.541
 9660SOL    HW229880   2.388   0.000   1.527
 9661SOL     OW29881   4.108   3.677   1.999
 9661SOL    HW129882   4.057   3.592   2.010
 9661SOL    HW229883   4.189   3.660   1.944
 9662SOL     OW29884   4.516   6.811   5.685
 9662SOL    HW129885   4.609   6.777   5.700
 9662SOL    HW229886   4.450   6.748   5.727
 9663SOL     OW29887   1.116   5.802   2.552
 9663SOL    HW129888   1.132   5.707   2.579
 9663SOL    HW229889   1.054   5.845   2.617
 9664SOL     OW29890   2.139   5.018   2.995
 9664SOL    HW129891   2.117   5.076   2.916
 9664SOL    HW229892   2.193   5.071   3.060
 9665SOL     OW29893   6.558   4.724   6.558
 9665SOL    HW129894   6.556   4.662   6.480
 9665SOL    HW229895   6.601   4.810   6.530
 9666SOL     OW29896   5.198   3.560   1.157
 9666SOL    HW129897   5.226   3.655   1.140
 9666SOL    HW229898   5.270   3.513   1.208
 9667SOL     OW29899   5.685   6.021   6.719
 9667SOL    HW129900   5.712   6.075   6.640
 9667SOL    HW229901   5.765   6.008   6.779
 9668SOL     OW29902   2.199   0.675   0.164
 9668SOL    HW129903   2.135   0.643   0.234
 9668SOL    HW229904   2.201   0.611   0.088
 9669SOL     OW29905   3.875   0.492   0.134
 9669SOL    HW129906   3.973   0.510   0.127
 9669SOL    HW229907   3.861   0.393   0.144
 9670SOL     OW29908   0.606   1.428   1.425
 9670SOL    HW129909   0.586   1.514   1.471
 9670SOL    HW229910   0.620   1.446   1.327
 9671SOL     OW29911   1.039   5.983   6.519
 9671SOL    HW129912   0.944   6.005   6.540
 9671SOL    HW229913   1.093   5.987   6.603
 9672SOL     OW29914   0.602   3.457   4.517
 9672SOL    HW129915   0.516   3.490   4.479
 9672SOL    HW229916   0.634   3.522   4.586
 9673SOL     OW29917   2.379   3.238   6.334
 9673SOL    HW129918   2.443   3.181   6.283
 9673SOL    HW229919   2.411   3.333   6.335
 9674SOL     OW29920   2.268   6.922   4.263
 9674SOL    HW129921   2.184   6.965   4.230
 9674SOL    HW229922   2.274   6.829   4.227
 9675SOL     OW29923   6.253   4.003   5.964
 9675SOL    HW129924   6.299   4.062   5.898
 9675SOL    HW229925   6.201   4.059   6.028
 9676SOL     OW29926   0.911   3.331   5.510
 9676SOL    HW129927   0.842   3.305   5.443
 9676SOL    HW229928   1.003   3.321   5.471
 9677SOL     OW29929   0.336   4.992   2.520
 9677SOL    HW129930   0.351   4.918   2.585
 9677SOL    HW229931   0.238   5.006   2.507
 9678SOL     OW29932   4.254   3.103   5.618
 9678SOL    HW129933   4.315   3.120   5.540
 9678SOL    HW229934   4.265   3.009   5.649
 9679SOL     OW29935   1.353   0.890   3.555
 9679SOL    HW129936   1.327   0.808   3.606
 9679SOL    HW229937   1.271   0.944   3.534
 9680SOL     OW29938   4.934   0.453   2.365
 9680SOL    HW129939   5.029   0.472   2.340
 9680SOL    HW229940   4.880   0.538   2.358
 9681SOL     OW29941   0.833   3.690   1.089
 9681SOL    HW129942   0.852   3.787   1.077
 9681SOL    HW229943   0.899   3.652   1.154
 9682SOL     OW29944   4.237   6.777   5.375
 9682SOL    HW129945   4.260   6.691   5.330
 9682SOL    HW229946   4.321   6.824   5.403
 9683SOL     OW29947   3.284   6.135   4.397
 9683SOL    HW129948   3.381   6.158   4.407
 9683SOL    HW229949   3.264   6.051   4.448
 9684SOL     OW29950   0.169   2.871   6.140
 9684SOL    HW129951   0.255   2.836   6.176
 9684SOL    HW229952   0.147   2.958   6.184
 9685SOL     OW29953   3.653   4.432   1.687
 9685SOL    HW129954   3.627   4.505   1.749
 9685SOL    HW229955   3.605   4.347   1.712
 9686SOL     OW29956   0.038   1.688   5.639
 9686SOL    HW129957   0.030   1.745   5.720
 9686SOL    HW229958   0.097   1.610   5.659
 9687SOL     OW29959   5.514   1.928   3.815
 9687SOL    HW129960   5.460   1.846   3.794
 9687SOL    HW229961   5.491   2.000   3.750
 9688SOL     OW29962   0.072   5.332   1.477
 9688SOL    HW129963   0.115   5.262   1.535
 9688SOL    HW229964   0.017   5.288   1.406
 9689SOL     OW29965   1.787   5.541   1.385
 9689SOL    HW129966   1.753   5.590   1.465
 9689SOL    HW229967   1.756   5.446   1.387
 9690SOL     OW29968   6.323   4.515   4.803
 9690SOL    HW129969   6.304   4.438   4.864
 9690SOL    HW229970   6.406   4.496   4.750
 9691SOL     OW29971   3.821   3.187   2.247
 9691SOL    HW129972   3.771   3.171   2.162
 9691SOL    HW229973   3.889   3.115   2.259
 9692SOL     OW29974   5.280   4.368   0.777
 9692SOL    HW129975   5.322   4.278   0.766
 9692SOL    HW229976   5.196   4.372   0.722
 9693SOL     OW29977   4.504   2.929   6.764
 9693SOL    HW129978   4.519   2.838   6.803
 9693SOL    HW229979   4.581   2.989   6.786
 9694SOL     OW29980   2.569   6.517   1.173
 9694SOL    HW129981   2.475   6.486   1.160
 9694SOL    HW229982   2.632   6.447   1.138
 9695SOL     OW29983   1.956   2.374   3.701
 9695SOL    HW129984   1.922   2.464   3.677
 9695SOL    HW229985   2.021   2.382   3.777
 9696SOL     OW29986   5.248   2.500   3.457
 9696SOL    HW129987   5.301   2.475   3.539
 9696SOL    HW229988   5.237   2.599   3.453
 9697SOL     OW29989   0.338   0.116   1.429
 9697SOL    HW129990   0.380   0.030   1.400
 9697SOL    HW229991   0.261   0.097   1.490
 9698SOL     OW29992   6.734   3.063   2.073
 9698SOL    HW129993   6.783   3.137   2.118
 9698SOL    HW229994   6.638   3.089   2.061
 9699SOL     OW29995   1.131   6.896   1.680
 9699SOL    HW129996   1.202   6.967   1.684
 9699SOL    HW229997   1.144   6.831   1.755
 9700SOL     OW29998   6.258   0.516   6.650
 9700SOL    HW129999   6.219   0.447   6.590
 9700SOL    HW230000   6.269   0.602   6.599
 9701SOL     OW30001   5.339   4.026   6.926
 9701SOL    HW130002   5.321   4.078   7.010
 9701SOL    HW230003   5.317   3.930   6.942
 9702SOL     OW30004   3.291   3.890   1.811
 9702SOL    HW130005   3.267   3.952   1.885
 9702SOL    HW230006   3.259   3.928   1.724
 9703SOL     OW30007   6.363   5.326   2.886
 9703SOL    HW130008   6.380   5.415   2.844
 9703SOL    HW230009   6.285   5.282   2.841
 9704SOL     OW30010   0.806   4.715   1.971
 9704SOL    HW130011   0.821   4.813   1.969
 9704SOL    HW230012   0.708   4.696   1.972
 9705SOL     OW30013   0.229   3.651   6.318
 9705SOL    HW130014   0.262   3.622   6.407
 9705SOL    HW230015   0.279   3.734   6.290
 9706SOL     OW30016   1.130   6.997   2.223
 9706SOL    HW130017   1.160   6.931   2.154
 9706SOL    HW230018   1.191   0.046   2.221
 9707SOL     OW30019   1.329   5.044   1.891
 9707SOL    HW130020   1.346   5.107   1.967
 9707SOL    HW230021   1.416   5.005   1.861
 9708SOL     OW30022   3.069   1.144   1.996
 9708SOL    HW130023   3.086   1.130   2.094
 9708SOL    HW230024   3.028   1.061   1.958
 9709SOL     OW30025   4.459   1.529   1.923
 9709SOL    HW130026   4.408   1.578   1.994
 9709SOL    HW230027   4.435   1.432   1.926
 9710SOL     OW30028   4.808   5.077   4.293
 9710SOL    HW130029   4.823   5.079   4.392
 9710SOL    HW230030   4.738   5.009   4.272
 9711SOL     OW30031   2.984   1.138   6.500
 9711SOL    HW130032   3.055   1.126   6.430
 9711SOL    HW230033   3.025   1.127   6.590
 9712SOL     OW30034   5.257   6.776   5.022
 9712SOL    HW130035   5.219   6.710   4.958
 9712SOL    HW230036   5.324   6.834   4.975
 9713SOL     OW30037   1.831   0.696   2.820
 9713SOL    HW130038   1.827   0.796   2.821
 9713SOL    HW230039   1.914   0.666   2.773
 9714SOL     OW30040   2.383   2.808   4.000
 9714SOL    HW130041   2.378   2.833   3.903
 9714SOL    HW230042   2.452   2.737   4.013
 9715SOL     OW30043   6.828   1.996   6.072
 9715SOL    HW130044   6.893   2.058   6.027
 9715SOL    HW230045   6.758   2.050   6.118
 9716SOL     OW30046   2.116   6.784   1.108
 9716SOL    HW130047   2.172   6.862   1.081
 9716SOL    HW230048   2.025   6.792   1.066
 9717SOL     OW30049   3.451   2.764   5.948
 9717SOL    HW130050   3.488   2.688   6.002
 9717SOL    HW230051   3.514   2.784   5.872
 9718SOL     OW30052   3.029   2.701   0.121
 9718SOL    HW130053   2.998   2.614   0.158
 9718SOL    HW230054   3.112   2.731   0.169
 9719SOL     OW30055   4.336   0.204   5.762
 9719SOL    HW130056   4.358   0.123   5.816
 9719SOL    HW230057   4.390   0.282   5.796
 9720SOL     OW30058   1.995   2.681   2.664
 9720SOL    HW130059   2.059   2.664   2.589
 9720SOL    HW230060   1.926   2.748   2.634
 9721SOL     OW30061   1.213   1.945   1.347
 9721SOL    HW130062   1.153   1.958   1.426
 9721SOL    HW230063   1.265   2.029   1.330
 9722SOL     OW30064   4.187   2.737   5.353
 9722SOL    HW130065   4.196   2.660   5.289
 9722SOL    HW230066   4.105   2.788   5.331
 9723SOL     OW30067   5.962   0.520   4.391
 9723SOL    HW130068   6.004   0.521   4.301
 9723SOL    HW230069   5.866   0.491   4.383
 9724SOL     OW30070   1.792   5.253   1.284
 9724SOL    HW130071   1.707   5.220   1.243
 9724SOL    HW230072   1.845   5.176   1.318
 9725SOL     OW30073   5.386   5.407   3.682
 9725SOL    HW130074   5.402   5.313   3.715
 9725SOL    HW230075   5.301   5.410   3.631
 9726SOL     OW30076   6.643   0.090   3.492
 9726SOL    HW130077   6.669   0.036   3.572
 9726SOL    HW230078   6.544   0.083   3.478
 9727SOL     OW30079   6.366   2.603   1.548
 9727SOL    HW130080   6.309   2.557   1.480
 9727SOL    HW230081   6.309   2.627   1.627
 9728SOL     OW30082   5.611   1.800   4.848
 9728SOL    HW130083   5.597   1.798   4.947
 9728SOL    HW230084   5.531   1.841   4.804
 9729SOL     OW30085   0.406   3.819   2.738
 9729SOL    HW130086   0.461   3.761   2.679
 9729SOL    HW230087   0.358   3.887   2.683
 9730SOL     OW30088   0.891   5.391   3.566
 9730SOL    HW130089   0.925   5.297   3.570
 9730SOL    HW230090   0.964   5.454   3.593
 9731SOL     OW30091   0.057   2.656   1.776
 9731SOL    HW130092   0.063   2.733   1.713
 9731SOL    HW230093   7.022   2.589   1.741
 9732SOL     OW30094   1.455   2.763   3.068
 9732SOL    HW130095   1.491   2.837   3.011
 9732SOL    HW230096   1.474   2.675   3.025
 9733SOL     OW30097   5.895   5.190   1.500
 9733SOL    HW130098   5.941   5.186   1.589
 9733SOL    HW230099   5.808   5.140   1.505
 9734SOL     OW30100   4.169   4.413   6.830
 9734SOL    HW130101   4.207   4.500   6.861
 9734SOL    HW230102   4.131   4.364   6.908
 9735SOL     OW30103   0.987   1.614   0.095
 9735SOL    HW130104   0.983   1.525   0.050
 9735SOL    HW230105   1.033   1.680   0.036
 9736SOL     OW30106   5.055   2.010   5.279
 9736SOL    HW130107   5.009   2.092   5.246
 9736SOL    HW230108   5.146   2.004   5.239
 9737SOL     OW30109   5.208   3.234   5.115
 9737SOL    HW130110   5.178   3.324   5.144
 9737SOL    HW230111   5.246   3.239   5.022
 9738SOL     OW30112   2.520   6.554   1.940
 9738SOL    HW130113   2.537   6.619   1.866
 9738SOL    HW230114   2.490   6.467   1.900
 9739SOL     OW30115   5.391   6.859   0.321
 9739SOL    HW130116   5.412   6.900   0.410
 9739SOL    HW230117   5.451   6.781   0.306
 9740SOL     OW30118   6.346   0.903   1.177
 9740SOL    HW130119   6.279   0.967   1.139
 9740SOL    HW230120   6.328   0.811   1.142
 9741SOL     OW30121   2.472   2.644   3.559
 9741SOL    HW130122   2.539   2.584   3.603
 9741SOL    HW230123   2.454   2.612   3.466
 9742SOL     OW30124   4.299   1.826   6.855
 9742SOL    HW130125   4.309   1.837   6.757
 9742SOL    HW230126   4.383   1.788   6.893
 9743SOL     OW30127   6.693   3.300   4.610
 9743SOL    HW130128   6.704   3.330   4.705
 9743SOL    HW230129   6.609   3.338   4.572
 9744SOL     OW30130   1.913   2.239   2.576
 9744SOL    HW130131   1.887   2.317   2.518
 9744SOL    HW230132   1.854   2.237   2.657
 9745SOL     OW30133   0.932   6.725   6.380
 9745SOL    HW130134   0.996   6.649   6.392
 9745SOL    HW230135   0.937   6.758   6.285
 9746SOL     OW30136   3.389   6.363   5.990
 9746SOL    HW130137   3.432   6.277   6.018
 9746SOL    HW230138   3.443   6.440   6.023
 9747SOL     OW30139   3.722   1.492   3.564
 9747SOL    HW130140   3.737   1.422   3.493
 9747SOL    HW230141   3.635   1.474   3.610
 9748SOL     OW30142   0.680   2.035   3.018
 9748SOL    HW130143   0.756   2.072   3.071
 9748SOL    HW230144   0.594   2.070   3.055
 9749SOL     OW30145   6.442   0.034   1.155
 9749SOL    HW130146   6.395   6.977   1.139
 9749SOL    HW230147   6.421   0.067   1.247
 9750SOL     OW30148   5.329   2.304   5.224
 9750SOL    HW130149   5.336   2.403   5.212
 9750SOL    HW230150   5.289   2.284   5.313
 9751SOL     OW30151   3.008   6.111   0.879
 9751SOL    HW130152   3.102   6.117   0.914
 9751SOL    HW230153   3.007   6.128   0.781
 9752SOL     OW30154   3.382   3.463   0.708
 9752SOL    HW130155   3.395   3.506   0.618
 9752SOL    HW230156   3.435   3.513   0.777
 9753SOL     OW30157   6.596   5.910   3.376
 9753SOL    HW130158   6.588   5.973   3.300
 9753SOL    HW230159   6.519   5.921   3.438
 9754SOL     OW30160   3.449   1.171   2.419
 9754SOL    HW130161   3.355   1.194   2.444
 9754SOL    HW230162   3.498   1.139   2.500
 9755SOL     OW30163   3.505   4.001   0.793
 9755SOL    HW130164   3.434   4.071   0.797
 9755SOL    HW230165   3.565   4.018   0.716
 9756SOL     OW30166   5.385   6.814   6.494
 9756SOL    HW130167   5.313   6.752   6.461
 9756SOL    HW230168   5.362   6.845   6.586
 9757SOL     OW30169   5.576   3.742   4.615
 9757SOL    HW130170   5.621   3.819   4.570
 9757SOL    HW230171   5.635   3.706   4.687
 9758SOL     OW30172   2.915   0.975   2.412
 9758SOL    HW130173   2.919   0.914   2.333
 9758SOL    HW230174   2.986   0.949   2.477
 9759SOL     OW30175   0.059   2.090   1.279
 9759SOL    HW130176   0.027   2.030   1.352
 9759SOL    HW230177   0.003   2.076   1.198
 9760SOL     OW30178   5.020   0.267   6.254
 9760SOL    HW130179   4.925   0.254   6.283
 9760SOL    HW230180   5.026   0.348   6.195
 9761SOL     OW30181   0.951   1.717   1.587
 9761SOL    HW130182   0.968   1.726   1.685
 9761SOL    HW230183   1.035   1.738   1.536
 9762SOL     OW30184   3.790   1.304   6.516
 9762SOL    HW130185   3.714   1.356   6.477
 9762SOL    HW230186   3.797   1.215   6.471
 9763SOL     OW30187   6.594   2.239   1.173
 9763SOL    HW130188   6.548   2.235   1.084
 9763SOL    HW230189   6.622   2.147   1.200
 9764SOL     OW30190   0.512   2.677   2.733
 9764SOL    HW130191   0.590   2.730   2.767
 9764SOL    HW230192   0.539   2.629   2.650
 9765SOL     OW30193   0.156   2.362   1.589
 9765SOL    HW130194   0.156   2.435   1.520
 9765SOL    HW230195   0.071   2.365   1.641
 9766SOL     OW30196   0.262   2.942   2.918
 9766SOL    HW130197   0.166   2.968   2.906
 9766SOL    HW230198   0.305   2.932   2.829
 9767SOL     OW30199   3.383   1.412   5.164
 9767SOL    HW130200   3.450   1.476   5.127
 9767SOL    HW230201   3.428   1.326   5.188
 9768SOL     OW30202   4.827   1.857   6.956
 9768SOL    HW130203   4.828   1.954   6.979
 9768SOL    HW230204   4.884   1.841   6.875
 9769SOL     OW30205   3.551   1.207   5.299
 9769SOL    HW130206   3.569   1.135   5.232
 9769SOL    HW230207   3.636   1.231   5.346
 9770SOL     OW30208   1.816   3.488   5.241
 9770SOL    HW130209   1.808   3.587   5.233
 9770SOL    HW230210   1.873   3.465   5.320
 9771SOL     OW30211   3.346   0.796   2.223
 9771SOL    HW130212   3.261   0.790   2.276
 9771SOL    HW230213   3.422   0.765   2.279
 9772SOL     OW30214   0.613   0.750   2.016
 9772SOL    HW130215   0.643   0.661   1.982
 9772SOL    HW230216   0.514   0.746   2.035
 9773SOL     OW30217   5.739   6.254   2.167
 9773SOL    HW130218   5.803   6.210   2.230
 9773SOL    HW230219   5.650   6.208   2.173
 9774SOL     OW30220   1.970   5.439   4.502
 9774SOL    HW130221   1.947   5.342   4.509
 9774SOL    HW230222   1.940   5.486   4.585
 9775SOL     OW30223   1.416   1.269   2.766
 9775SOL    HW130224   1.351   1.343   2.782
 9775SOL    HW230225   1.430   1.258   2.668
 9776SOL     OW30226   2.085   5.579   1.371
 9776SOL    HW130227   1.989   5.557   1.355
 9776SOL    HW230228   2.106   5.568   1.468
 9777SOL     OW30229   4.094   2.141   5.088
 9777SOL    HW130230   4.143   2.104   5.167
 9777SOL    HW230231   4.143   2.221   5.053
 9778SOL     OW30232   1.466   3.551   2.973
 9778SOL    HW130233   1.451   3.605   2.890
 9778SOL    HW230234   1.543   3.489   2.959
 9779SOL     OW30235   3.208   0.225   3.402
 9779SOL    HW130236   3.195   0.129   3.428
 9779SOL    HW230237   3.160   0.284   3.466
 9780SOL     OW30238   0.767   1.275   0.731
 9780SOL    HW130239   0.757   1.205   0.661
 9780SOL    HW230240   0.702   1.349   0.714
 9781SOL     OW30241   1.615   1.513   1.952
 9781SOL    HW130242   1.710   1.498   1.977
 9781SOL    HW230243   1.591   1.456   1.874
 9782SOL     OW30244   0.414   2.496   0.363
 9782SOL    HW130245   0.389   2.405   0.327
 9782SOL    HW230246   0.333   2.555   0.363
 9783SOL     OW30247   4.851   1.574   2.654
 9783SOL    HW130248   4.891   1.482   2.657
 9783SOL    HW230249   4.862   1.618   2.744
 9784SOL     OW30250   1.716   1.445   0.083
 9784SOL    HW130251   1.728   1.514   0.156
 9784SOL    HW230252   1.655   1.373   0.116
 9785SOL     OW30253   1.274   3.716   5.033
 9785SOL    HW130254   1.175   3.705   5.045
 9785SOL    HW230255   1.315   3.627   5.015
 9786SOL     OW30256   2.746   4.880   6.666
 9786SOL    HW130257   2.784   4.825   6.591
 9786SOL    HW230258   2.703   4.819   6.733
 9787SOL     OW30259   2.934   3.412   1.398
 9787SOL    HW130260   3.034   3.409   1.390
 9787SOL    HW230261   2.907   3.501   1.434
 9788SOL     OW30262   2.983   6.946   2.876
 9788SOL    HW130263   2.987   6.938   2.975
 9788SOL    HW230264   3.047   6.881   2.835
 9789SOL     OW30265   4.282   1.354   0.788
 9789SOL    HW130266   4.263   1.309   0.876
 9789SOL    HW230267   4.221   1.432   0.777
 9790SOL     OW30268   4.395   5.585   5.309
 9790SOL    HW130269   4.462   5.541   5.369
 9790SOL    HW230270   4.442   5.626   5.231
 9791SOL     OW30271   0.250   0.505   1.441
 9791SOL    HW130272   0.158   0.481   1.471
 9791SOL    HW230273   0.286   0.432   1.382
 9792SOL     OW30274   3.505   4.649   0.848
 9792SOL    HW130275   3.552   4.734   0.825
 9792SOL    HW230276   3.406   4.660   0.834
 9793SOL     OW30277   6.020   0.845   2.260
 9793SOL    HW130278   5.986   0.926   2.308
 9793SOL    HW230279   6.089   0.800   2.317
 9794SOL     OW30280   3.619   5.516   4.727
 9794SOL    HW130281   3.573   5.449   4.669
 9794SOL    HW230282   3.634   5.600   4.676
 9795SOL     OW30283   1.462   3.538   3.496
 9795SOL    HW130284   1.442   3.589   3.412
 9795SOL    HW230285   1.527   3.589   3.552
 9796SOL     OW30286   2.944   3.796   4.059
 9796SOL    HW130287   2.942   3.697   4.053
 9796SOL    HW230288   2.951   3.824   4.155
 9797SOL     OW30289   3.224   5.755   0.058
 9797SOL    HW130290   3.205   5.705   7.004
 9797SOL    HW230291   3.322   5.772   0.065
 9798SOL     OW30292   6.798   4.221   6.734
 9798SOL    HW130293   6.762   4.305   6.692
 9798SOL    HW230294   6.888   4.201   6.697
 9799SOL     OW30295   4.236   6.475   6.762
 9799SOL    HW130296   4.327   6.482   6.722
 9799SOL    HW230297   4.173   6.534   6.712
 9800SOL     OW30298   6.296   4.813   4.834
 9800SOL    HW130299   6.268   4.816   4.738
 9800SOL    HW230300   6.305   4.718   4.864
 9801SOL     OW30301   4.196   6.529   0.825
 9801SOL    HW130302   4.147   6.615   0.809
 9801SOL    HW230303   4.191   6.506   0.923
 9802SOL     OW30304   3.552   3.570   0.209
 9802SOL    HW130305   3.491   3.554   0.131
 9802SOL    HW230306   3.647   3.571   0.177
 9803SOL     OW30307   1.647   3.974   6.449
 9803SOL    HW130308   1.551   4.000   6.460
 9803SOL    HW230309   1.702   4.019   6.519
 9804SOL     OW30310   1.132   4.607   2.887
 9804SOL    HW130311   1.095   4.693   2.852
 9804SOL    HW230312   1.143   4.613   2.986
 9805SOL     OW30313   0.106   5.634   4.690
 9805SOL    HW130314   0.083   5.554   4.635
 9805SOL    HW230315   0.058   5.714   4.655
 9806SOL     OW30316   3.624   1.664   7.030
 9806SOL    HW130317   3.567   1.704   6.959
 9806SOL    HW230318   3.619   1.564   7.024
 9807SOL     OW30319   4.061   3.285   3.439
 9807SOL    HW130320   4.049   3.220   3.364
 9807SOL    HW230321   4.018   3.248   3.521
 9808SOL     OW30322   3.129   5.331   2.205
 9808SOL    HW130323   3.200   5.321   2.275
 9808SOL    HW230324   3.075   5.247   2.200
 9809SOL     OW30325   5.925   2.734   0.894
 9809SOL    HW130326   6.025   2.724   0.897
 9809SOL    HW230327   5.884   2.674   0.963
 9810SOL     OW30328   2.342   3.040   1.462
 9810SOL    HW130329   2.264   2.979   1.458
 9810SOL    HW230330   2.366   3.069   1.369
 9811SOL     OW30331   5.275   3.397   4.281
 9811SOL    HW130332   5.277   3.425   4.185
 9811SOL    HW230333   5.277   3.478   4.339
 9812SOL     OW30334   3.520   5.699   6.401
 9812SOL    HW130335   3.545   5.727   6.494
 9812SOL    HW230336   3.541   5.772   6.337
 9813SOL     OW30337   4.106   0.629   2.236
 9813SOL    HW130338   4.067   0.700   2.295
 9813SOL    HW230339   4.033   0.569   2.204
 9814SOL     OW30340   6.737   1.357   6.111
 9814SOL    HW130341   6.679   1.377   6.190
 9814SOL    HW230342   6.789   1.439   6.087
 9815SOL     OW30343   4.502   2.512   4.638
 9815SOL    HW130344   4.446   2.492   4.718
 9815SOL    HW230345   4.529   2.608   4.639
 9816SOL     OW30346   2.957   1.377   0.072
 9816SOL    HW130347   3.044   1.353   0.028
 9816SOL    HW230348   2.899   1.425   0.006
 9817SOL     OW30349   6.586   0.756   1.508
 9817SOL    HW130350   6.567   0.846   1.468
 9817SOL    HW230351   6.602   0.689   1.436
 9818SOL     OW30352   3.960   2.869   5.329
 9818SOL    HW130353   3.975   2.875   5.230
 9818SOL    HW230354   3.870   2.906   5.351
 9819SOL     OW30355   3.251   0.528   2.065
 9819SOL    HW130356   3.254   0.626   2.044
 9819SOL    HW230357   3.253   0.475   1.980
 9820SOL     OW30358   3.542   2.584   0.218
 9820SOL    HW130359   3.638   2.570   0.197
 9820SOL    HW230360   3.501   2.498   0.247
 9821SOL     OW30361   6.729   5.210   6.977
 9821SOL    HW130362   6.736   5.278   0.020
 9821SOL    HW230363   6.695   5.124   7.015
 9822SOL     OW30364   0.198   0.306   2.706
 9822SOL    HW130365   0.184   0.384   2.768
 9822SOL    HW230366   0.122   0.299   2.642
 9823SOL     OW30367   3.325   6.194   2.061
 9823SOL    HW130368   3.414   6.156   2.087
 9823SOL    HW230369   3.290   6.145   1.981
 9824SOL     OW30370   1.447   4.324   5.947
 9824SOL    HW130371   1.527   4.337   5.888
 9824SOL    HW230372   1.425   4.410   5.992
 9825SOL     OW30373   4.511   5.120   5.359
 9825SOL    HW130374   4.474   5.094   5.270
 9825SOL    HW230375   4.466   5.066   5.430
 9826SOL     OW30376   5.349   6.579   5.179
 9826SOL    HW130377   5.326   6.661   5.127
 9826SOL    HW230378   5.432   6.538   5.141
 9827SOL     OW30379   0.883   4.594   4.349
 9827SOL    HW130380   0.888   4.566   4.253
 9827SOL    HW230381   0.792   4.576   4.385
 9828SOL     OW30382   2.365   2.659   6.781
 9828SOL    HW130383   2.270   2.660   6.811
 9828SOL    HW230384   2.416   2.591   6.834
 9829SOL     OW30385   2.530   4.645   1.081
 9829SOL    HW130386   2.590   4.626   1.158
 9829SOL    HW230387   2.437   4.662   1.115
 9830SOL     OW30388   0.030   1.633   0.550
 9830SOL    HW130389   0.095   1.660   0.621
 9830SOL    HW230390   0.079   1.595   0.471
 9831SOL     OW30391   6.004   6.662   1.356
 9831SOL    HW130392   6.029   6.722   1.432
 9831SOL    HW230393   5.961   6.717   1.283
 9832SOL     OW30394   3.858   4.787   1.380
 9832SOL    HW130395   3.937   4.742   1.421
 9832SOL    HW230396   3.827   4.735   1.301
 9833SOL     OW30397   4.498   4.357   6.151
 9833SOL    HW130398   4.528   4.450   6.128
 9833SOL    HW230399   4.570   4.292   6.126
 9834SOL     OW30400   2.121   2.396   3.929
 9834SOL    HW130401   2.203   2.415   3.876
 9834SOL    HW230402   2.132   2.432   4.022
 9835SOL     OW30403   5.565   1.333   5.175
 9835SOL    HW130404   5.645   1.384   5.207
 9835SOL    HW230405   5.545   1.358   5.080
 9836SOL     OW30406   4.950   5.069   1.823
 9836SOL    HW130407   4.855   5.089   1.799
 9836SOL    HW230408   4.980   5.129   1.897
 9837SOL     OW30409   1.747   6.373   5.532
 9837SOL    HW130410   1.679   6.324   5.586
 9837SOL    HW230411   1.789   6.310   5.466
 9838SOL     OW30412   6.645   5.831   4.621
 9838SOL    HW130413   6.700   5.773   4.680
 9838SOL    HW230414   6.644   5.794   4.528
 9839SOL     OW30415   6.355   2.817   2.944
 9839SOL    HW130416   6.305   2.838   3.028
 9839SOL    HW230417   6.290   2.799   2.870
 9840SOL     OW30418   6.247   0.305   0.544
 9840SOL    HW130419   6.210   0.314   0.636
 9840SOL    HW230420   6.203   0.228   0.497
 9841SOL     OW30421   2.202   3.118   4.179
 9841SOL    HW130422   2.220   3.208   4.139
 9841SOL    HW230423   2.205   3.125   4.279
 9842SOL     OW30424   2.893   3.368   3.277
 9842SOL    HW130425   2.922   3.299   3.211
 9842SOL    HW230426   2.856   3.447   3.229
 9843SOL     OW30427   6.091   4.018   3.502
 9843SOL    HW130428   6.140   4.032   3.588
 9843SOL    HW230429   6.014   4.081   3.496
 9844SOL     OW30430   5.282   0.551   2.719
 9844SOL    HW130431   5.189   0.517   2.702
 9844SOL    HW230432   5.309   0.613   2.645
 9845SOL     OW30433   1.348   1.599   3.589
 9845SOL    HW130434   1.397   1.684   3.609
 9845SOL    HW230435   1.407   1.538   3.538
 9846SOL     OW30436   2.926   3.220   3.045
 9846SOL    HW130437   2.923   3.284   2.968
 9846SOL    HW230438   2.981   3.140   3.019
 9847SOL     OW30439   2.019   4.589   4.842
 9847SOL    HW130440   1.952   4.660   4.860
 9847SOL    HW230441   2.021   4.524   4.918
 9848SOL     OW30442   5.615   3.608   0.344
 9848SOL    HW130443   5.562   3.529   0.376
 9848SOL    HW230444   5.556   3.670   0.292
 9849SOL     OW30445   6.969   6.673   5.577
 9849SOL    HW130446   6.981   6.574   5.576
 9849SOL    HW230447   7.022   6.712   5.653
 9850SOL     OW30448   4.461   0.082   2.833
 9850SOL    HW130449   4.521   0.085   2.753
 9850SOL    HW230450   4.504   0.131   2.909
 9851SOL     OW30451   5.378   3.278   5.341
 9851SOL    HW130452   5.355   3.299   5.437
 9851SOL    HW230453   5.294   3.275   5.287
 9852SOL     OW30454   5.551   1.968   4.257
 9852SOL    HW130455   5.475   1.935   4.201
 9852SOL    HW230456   5.633   1.913   4.238
 9853SOL     OW30457   0.259   4.301   0.805
 9853SOL    HW130458   0.331   4.233   0.800
 9853SOL    HW230459   0.170   4.255   0.803
 9854SOL     OW30460   4.220   6.039   4.162
 9854SOL    HW130461   4.182   5.958   4.207
 9854SOL    HW230462   4.250   6.015   4.069
 9855SOL     OW30463   1.706   3.622   0.733
 9855SOL    HW130464   1.650   3.539   0.731
 9855SOL    HW230465   1.801   3.597   0.748
 9856SOL     OW30466   3.584   2.651   0.524
 9856SOL    HW130467   3.602   2.568   0.473
 9856SOL    HW230468   3.596   2.731   0.464
 9857SOL     OW30469   6.027   4.104   3.055
 9857SOL    HW130470   6.017   4.069   2.962
 9857SOL    HW230471   5.975   4.189   3.065
 9858SOL     OW30472   4.015   1.337   1.568
 9858SOL    HW130473   3.992   1.240   1.559
 9858SOL    HW230474   4.113   1.346   1.586
 9859SOL     OW30475   6.656   0.543   1.332
 9859SOL    HW130476   6.654   0.566   1.235
 9859SOL    HW230477   6.586   0.474   1.351
 9860SOL     OW30478   0.702   0.951   2.172
 9860SOL    HW130479   0.769   1.000   2.116
 9860SOL    HW230480   0.653   0.885   2.115
 9861SOL     OW30481   3.117   6.858   4.837
 9861SOL    HW130482   3.089   6.843   4.932
 9861SOL    HW230483   3.184   6.788   4.811
 9862SOL     OW30484   0.640   2.238   1.172
 9862SOL    HW130485   0.694   2.185   1.238
 9862SOL    HW230486   0.543   2.230   1.193
 9863SOL     OW30487   2.953   0.173   0.663
 9863SOL    HW130488   3.035   0.123   0.633
 9863SOL    HW230489   2.887   0.108   0.700
 9864SOL     OW30490   4.529   5.972   2.903
 9864SOL    HW130491   4.584   6.047   2.866
 9864SOL    HW230492   4.434   5.981   2.871
 9865SOL     OW30493   1.612   2.193   4.315
 9865SOL    HW130494   1.572   2.160   4.401
 9865SOL    HW230495   1.544   2.246   4.265
 9866SOL     OW30496   3.715   4.933   3.331
 9866SOL    HW130497   3.687   4.879   3.251
 9866SOL    HW230498   3.673   5.024   3.325
 9867SOL     OW30499   4.059   0.686   6.412
 9867SOL    HW130500   4.109   0.680   6.498
 9867SOL    HW230501   3.994   0.611   6.406
 9868SOL     OW30502   0.423   5.054   6.232
 9868SOL    HW130503   0.410   5.148   6.265
 9868SOL    HW230504   0.395   5.048   6.136
 9869SOL     OW30505   1.683   3.834   3.294
 9869SOL    HW130506   1.589   3.812   3.320
 9869SOL    HW230507   1.702   3.930   3.316
 9870SOL     OW30508   4.877   4.670   2.271
 9870SOL    HW130509   4.869   4.697   2.367
 9870SOL    HW230510   4.808   4.602   2.250
 9871SOL     OW30511   1.346   1.712   5.467
 9871SOL    HW130512   1.408   1.764   5.526
 9871SOL    HW230513   1.389   1.625   5.442
 9872SOL     OW30514   1.257   4.514   3.411
 9872SOL    HW130515   1.199   4.445   3.367
 9872SOL    HW230516   1.353   4.487   3.402
 9873SOL     OW30517   1.575   2.194   0.226
 9873SOL    HW130518   1.622   2.169   0.310
 9873SOL    HW230519   1.634   2.174   0.147
 9874SOL     OW30520   0.869   3.472   4.056
 9874SOL    HW130521   0.957   3.493   4.098
 9874SOL    HW230522   0.810   3.428   4.125
 9875SOL     OW30523   1.045   0.843   2.777
 9875SOL    HW130524   1.044   0.934   2.818
 9875SOL    HW230525   1.013   0.848   2.682
 9876SOL     OW30526   6.864   5.364   2.215
 9876SOL    HW130527   6.941   5.343   2.155
 9876SOL    HW230528   6.895   5.422   2.290
 9877SOL     OW30529   3.765   6.593   1.537
 9877SOL    HW130530   3.677   6.550   1.519
 9877SOL    HW230531   3.761   6.642   1.624
 9878SOL     OW30532   0.679   0.365   5.482
 9878SOL    HW130533   0.666   0.382   5.385
 9878SOL    HW230534   0.747   0.428   5.519
 9879SOL     OW30535   5.594   5.925   5.674
 9879SOL    HW130536   5.566   5.885   5.762
 9879SOL    HW230537   5.617   6.021   5.688
 9880SOL     OW30538   1.897   1.623   4.316
 9880SOL    HW130539   1.883   1.646   4.412
 9880SOL    HW230540   1.867   1.529   4.300
 9881SOL     OW30541   0.103   1.575   6.229
 9881SOL    HW130542   0.121   1.633   6.309
 9881SOL    HW230543   0.081   1.633   6.150
 9882SOL     OW30544   1.627   1.866   2.717
 9882SOL    HW130545   1.606   1.962   2.736
 9882SOL    HW230546   1.688   1.861   2.637
 9883SOL     OW30547   2.837   1.274   1.983
 9883SOL    HW130548   2.796   1.317   2.063
 9883SOL    HW230549   2.925   1.235   2.008
 9884SOL     OW30550   3.613   0.676   3.932
 9884SOL    HW130551   3.600   0.616   3.853
 9884SOL    HW230552   3.710   0.695   3.945
 9885SOL     OW30553   6.415   4.507   3.785
 9885SOL    HW130554   6.431   4.571   3.860
 9885SOL    HW230555   6.442   4.415   3.814
 9886SOL     OW30556   1.050   3.500   1.881
 9886SOL    HW130557   1.098   3.440   1.817
 9886SOL    HW230558   1.091   3.490   1.972
 9887SOL     OW30559   4.236   6.983   5.999
 9887SOL    HW130560   4.266   6.891   5.975
 9887SOL    HW230561   4.138   6.991   5.985
 9888SOL     OW30562   6.426   4.899   0.421
 9888SOL    HW130563   6.352   4.911   0.354
 9888SOL    HW230564   6.445   4.987   0.464
 9889SOL     OW30565   0.529   5.310   0.424
 9889SOL    HW130566   0.448   5.315   0.481
 9889SOL    HW230567   0.546   5.214   0.399
 9890SOL     OW30568   0.955   3.177   0.433
 9890SOL    HW130569   0.958   3.275   0.417
 9890SOL    HW230570   0.859   3.147   0.436
 9891SOL     OW30571   4.638   1.741   2.013
 9891SOL    HW130572   4.564   1.676   1.996
 9891SOL    HW230573   4.689   1.757   1.928
 9892SOL     OW30574   0.654   6.291   0.009
 9892SOL    HW130575   0.702   6.375   0.038
 9892SOL    HW230576   0.701   6.212   0.047
 9893SOL     OW30577   2.832   1.834   1.200
 9893SOL    HW130578   2.855   1.859   1.294
 9893SOL    HW230579   2.732   1.831   1.190
 9894SOL     OW30580   1.956   1.251   1.620
 9894SOL    HW130581   1.976   1.185   1.692
 9894SOL    HW230582   1.888   1.212   1.557
 9895SOL     OW30583   4.494   3.460   5.722
 9895SOL    HW130584   4.407   3.414   5.738
 9895SOL    HW230585   4.486   3.519   5.641
 9896SOL     OW30586   6.635   6.533   6.324
 9896SOL    HW130587   6.625   6.528   6.224
 9896SOL    HW230588   6.619   6.443   6.363
 9897SOL     OW30589   5.791   5.005   4.424
 9897SOL    HW130590   5.768   5.097   4.454
 9897SOL    HW230591   5.773   4.996   4.326
 9898SOL     OW30592   2.715   6.832   5.659
 9898SOL    HW130593   2.734   6.839   5.757
 9898SOL    HW230594   2.707   6.923   5.620
 9899SOL     OW30595   0.050   5.269   6.926
 9899SOL    HW130596   7.004   5.221   6.881
 9899SOL    HW230597   0.076   5.219   7.009
 9900SOL     OW30598   1.975   3.958   3.570
 9900SOL    HW130599   1.892   3.902   3.575
 9900SOL    HW230600   1.997   3.993   3.660
 9901SOL     OW30601   2.308   2.766   5.499
 9901SOL    HW130602   2.367   2.743   5.422
 9901SOL    HW230603   2.282   2.862   5.494
 9902SOL     OW30604   2.716   4.453   6.845
 9902SOL    HW130605   2.757   4.411   6.926
 9902SOL    HW230606   2.781   4.450   6.769
 9903SOL     OW30607   5.644   0.651   3.949
 9903SOL    HW130608   5.705   0.729   3.933
 9903SOL    HW230609   5.551   0.675   3.919
 9904SOL     OW30610   6.372   2.287   0.611
 9904SOL    HW130611   6.306   2.270   0.537
 9904SOL    HW230612   6.329   2.268   0.699
 9905SOL     OW30613   5.194   0.771   0.242
 9905SOL    HW130614   5.104   0.766   0.285
 9905SOL    HW230615   5.262   0.729   0.302
 9906SOL     OW30616   3.424   2.939   4.624
 9906SOL    HW130617   3.485   2.984   4.559
 9906SOL    HW230618   3.441   2.841   4.625
 9907SOL     OW30619   1.164   0.275   1.924
 9907SOL    HW130620   1.235   0.230   1.978
 9907SOL    HW230621   1.146   0.366   1.962
 9908SOL     OW30622   4.924   3.468   2.755
 9908SOL    HW130623   4.993   3.512   2.812
 9908SOL    HW230624   4.919   3.371   2.777
 9909SOL     OW30625   2.356   0.328   4.784
 9909SOL    HW130626   2.297   0.409   4.783
 9909SOL    HW230627   2.352   0.285   4.874
 9910SOL     OW30628   0.037   4.628   3.588
 9910SOL    HW130629   0.059   4.596   3.496
 9910SOL    HW230630   6.993   4.696   3.583
 9911SOL     OW30631   2.675   5.726   2.858
 9911SOL    HW130632   2.645   5.742   2.764
 9911SOL    HW230633   2.754   5.785   2.878
 9912SOL     OW30634   5.336   0.499   6.234
 9912SOL    HW130635   5.321   0.477   6.331
 9912SOL    HW230636   5.427   0.540   6.224
 9913SOL     OW30637   4.300   3.104   6.706
 9913SOL    HW130638   4.220   3.059   6.667
 9913SOL    HW230639   4.371   3.036   6.724
 9914SOL     OW30640   6.859   3.880   4.321
 9914SOL    HW130641   6.761   3.865   4.335
 9914SOL    HW230642   6.874   3.972   4.285
 9915SOL     OW30643   5.336   0.983   3.539
 9915SOL    HW130644   5.318   0.902   3.483
 9915SOL    HW230645   5.400   0.959   3.613
 9916SOL     OW30646   1.823   2.841   1.822
 9916SOL    HW130647   1.801   2.755   1.777
 9916SOL    HW230648   1.912   2.873   1.790
 9917SOL     OW30649   6.165   4.465   4.473
 9917SOL    HW130650   6.141   4.378   4.430
 9917SOL    HW230651   6.091   4.492   4.535
 9918SOL     OW30652   4.664   2.695   2.665
 9918SOL    HW130653   4.609   2.779   2.666
 9918SOL    HW230654   4.703   2.682   2.574
 9919SOL     OW30655   6.256   6.387   0.654
 9919SOL    HW130656   6.221   6.395   0.748
 9919SOL    HW230657   6.267   6.478   0.615
 9920SOL     OW30658   4.753   1.362   3.090
 9920SOL    HW130659   4.782   1.335   2.998
 9920SOL    HW230660   4.818   1.429   3.126
 9921SOL     OW30661   3.596   4.896   6.373
 9921SOL    HW130662   3.661   4.922   6.302
 9921SOL    HW230663   3.587   4.796   6.374
 9922SOL     OW30664   0.110   5.147   0.606
 9922SOL    HW130665   0.153   5.084   0.543
 9922SOL    HW230666   0.104   5.106   0.697
 9923SOL     OW30667   5.508   4.834   1.354
 9923SOL    HW130668   5.587   4.775   1.371
 9923SOL    HW230669   5.436   4.782   1.309
 9924SOL     OW30670   1.053   3.873   4.627
 9924SOL    HW130671   1.030   3.906   4.718
 9924SOL    HW230672   1.151   3.851   4.623
 9925SOL     OW30673   5.294   2.264   3.274
 9925SOL    HW130674   5.218   2.245   3.212
 9925SOL    HW230675   5.276   2.348   3.325
 9926SOL     OW30676   2.981   5.269   0.004
 9926SOL    HW130677   3.078   5.292   0.015
 9926SOL    HW230678   2.949   5.299   6.945
 9927SOL     OW30679   5.960   0.332   3.461
 9927SOL    HW130680   5.898   0.299   3.532
 9927SOL    HW230681   5.984   0.255   3.400
 9928SOL     OW30682   4.658   4.902   1.956
 9928SOL    HW130683   4.750   4.884   1.991
 9928SOL    HW230684   4.590   4.858   2.015
 9929SOL     OW30685   1.295   4.927   2.209
 9929SOL    HW130686   1.230   4.926   2.133
 9929SOL    HW230687   1.244   4.922   2.296
 9930SOL     OW30688   6.636   0.737   3.465
 9930SOL    HW130689   6.654   0.707   3.372
 9930SOL    HW230690   6.700   0.691   3.527
 9931SOL     OW30691   0.515   4.712   5.898
 9931SOL    HW130692   0.599   4.661   5.919
 9931SOL    HW230693   0.438   4.670   5.944
 9932SOL     OW30694   0.612   6.329   5.029
 9932SOL    HW130695   0.637   6.407   4.971
 9932SOL    HW230696   0.521   6.345   5.068
 9933SOL     OW30697   0.788   6.253   2.322
 9933SOL    HW130698   0.692   6.254   2.294
 9933SOL    HW230699   0.845   6.274   2.242
 9934SOL     OW30700   6.665   1.802   5.913
 9934SOL    HW130701   6.701   1.873   5.975
 9934SOL    HW230702   6.652   1.841   5.822
 9935SOL     OW30703   3.456   0.453   6.490
 9935SOL    HW130704   3.465   0.395   6.571
 9935SOL    HW230705   3.363   0.490   6.486
 9936SOL     OW30706   0.774   3.878   4.005
 9936SOL    HW130707   0.748   3.814   4.078
 9936SOL    HW230708   0.693   3.901   3.951
 9937SOL     OW30709   6.392   2.360   5.868
 9937SOL    HW130710   6.454   2.292   5.907
 9937SOL    HW230711   6.312   2.315   5.829
 9938SOL     OW30712   7.026   6.300   2.605
 9938SOL    HW130713   0.018   6.203   2.596
 9938SOL    HW230714   0.025   6.333   2.694
 9939SOL     OW30715   3.567   3.154   2.718
 9939SOL    HW130716   3.555   3.236   2.661
 9939SOL    HW230717   3.529   3.075   2.671
 9940SOL     OW30718   7.015   1.044   0.462
 9940SOL    HW130719   0.048   1.014   0.390
 9940SOL    HW230720   0.028   1.031   0.551
 9941SOL     OW30721   3.156   5.701   5.360
 9941SOL    HW130722   3.112   5.620   5.324
 9941SOL    HW230723   3.115   5.725   5.448
 9942SOL     OW30724   2.859   5.635   3.855
 9942SOL    HW130725   2.801   5.707   3.818
 9942SOL    HW230726   2.920   5.675   3.924
 9943SOL     OW30727   1.403   6.770   4.658
 9943SOL    HW130728   1.446   6.846   4.610
 9943SOL    HW230729   1.330   6.804   4.717
 9944SOL     OW30730   1.560   4.076   0.082
 9944SOL    HW130731   1.586   4.171   0.065
 9944SOL    HW230732   1.508   4.041   0.004
 9945SOL     OW30733   6.473   5.848   6.613
 9945SOL    HW130734   6.407   5.776   6.631
 9945SOL    HW230735   6.429   5.937   6.622
 9946SOL     OW30736   5.491   1.411   4.913
 9946SOL    HW130737   5.472   1.375   4.821
 9946SOL    HW230738   5.425   1.483   4.935
 9947SOL     OW30739   6.011   4.679   3.530
 9947SOL    HW130740   6.091   4.681   3.591
 9947SOL    HW230741   6.041   4.665   3.436
 9948SOL     OW30742   5.247   3.885   4.281
 9948SOL    HW130743   5.272   3.975   4.244
 9948SOL    HW230744   5.179   3.843   4.221
 9949SOL     OW30745   5.854   4.817   2.241
 9949SOL    HW130746   5.764   4.773   2.237
 9949SOL    HW230747   5.902   4.802   2.154
 9950SOL     OW30748   3.102   5.980   6.114
 9950SOL    HW130749   3.155   5.895   6.119
 9950SOL    HW230750   3.011   5.964   6.152
 9951SOL     OW30751   6.275   2.492   3.391
 9951SOL    HW130752   6.332   2.506   3.310
 9951SOL    HW230753   6.179   2.506   3.367
 9952SOL     OW30754   0.143   4.991   6.728
 9952SOL    HW130755   0.121   4.992   6.630
 9952SOL    HW230756   0.242   4.985   6.739
 9953SOL     OW30757   6.189   2.760   4.128
 9953SOL    HW130758   6.196   2.660   4.134
 9953SOL    HW230759   6.188   2.787   4.031
 9954SOL     OW30760   3.800   0.416   5.388
 9954SOL    HW130761   3.727   0.380   5.446
 9954SOL    HW230762   3.862   0.342   5.361
 9955SOL     OW30763   0.404   4.628   4.430
 9955SOL    HW130764   0.344   4.612   4.352
 9955SOL    HW230765   0.358   4.598   4.514
 9956SOL     OW30766   1.056   6.087   0.257
 9956SOL    HW130767   0.963   6.105   0.225
 9956SOL    HW230768   1.059   6.093   0.357
 9957SOL     OW30769   5.819   5.462   2.323
 9957SOL    HW130770   5.848   5.378   2.277
 9957SOL    HW230771   5.725   5.451   2.356
 9958SOL     OW30772   2.401   4.532   0.654
 9958SOL    HW130773   2.345   4.487   0.724
 9958SOL    HW230774   2.340   4.578   0.588
 9959SOL     OW30775   3.323   3.635   1.075
 9959SOL    HW130776   3.248   3.586   1.032
 9959SOL    HW230777   3.347   3.591   1.162
 9960SOL     OW30778   0.642   1.407   2.039
 9960SOL    HW130779   0.550   1.397   2.076
 9960SOL    HW230780   0.646   1.369   1.947
 9961SOL     OW30781   2.170   3.754   4.642
 9961SOL    HW130782   2.238   3.817   4.679
 9961SOL    HW230783   2.096   3.806   4.600
 9962SOL     OW30784   5.056   6.547   4.394
 9962SOL    HW130785   4.974   6.600   4.373
 9962SOL    HW230786   5.031   6.467   4.448
 9963SOL     OW30787   3.288   0.945   0.944
 9963SOL    HW130788   3.241   0.857   0.947
 9963SOL    HW230789   3.296   0.976   0.849
 9964SOL     OW30790   5.134   6.050   4.740
 9964SOL    HW130791   5.145   5.996   4.656
 9964SOL    HW230792   5.223   6.091   4.765
 9965SOL     OW30793   4.159   6.742   0.512
 9965SOL    HW130794   4.111   6.808   0.569
 9965SOL    HW230795   4.249   6.780   0.486
 9966SOL     OW30796   6.826   0.563   3.552
 9966SOL    HW130797   6.852   0.547   3.457
 9966SOL    HW230798   6.783   0.481   3.589
 9967SOL     OW30799   1.376   5.336   0.642
 9967SOL    HW130800   1.418   5.318   0.554
 9967SOL    HW230801   1.301   5.272   0.657
 9968SOL     OW30802   2.959   3.425   2.834
 9968SOL    HW130803   2.948   3.478   2.750
 9968SOL    HW230804   3.048   3.445   2.875
 9969SOL     OW30805   1.424   3.479   1.342
 9969SOL    HW130806   1.512   3.498   1.385
 9969SOL    HW230807   1.428   3.504   1.246
 9970SOL     OW30808   6.062   4.510   1.645
 9970SOL    HW130809   6.142   4.500   1.704
 9970SOL    HW230810   6.083   4.474   1.554
 9971SOL     OW30811   2.550   6.455   0.043
 9971SOL    HW130812   2.487   6.530   0.061
 9971SOL    HW230813   2.498   6.369   0.036
 9972SOL     OW30814   6.788   5.084   1.475
 9972SOL    HW130815   6.703   5.033   1.491
 9972SOL    HW230816   6.796   5.157   1.543
 9973SOL     OW30817   6.135   0.193   3.213
 9973SOL    HW130818   6.107   0.269   3.154
 9973SOL    HW230819   6.201   0.226   3.281
 9974SOL     OW30820   2.328   0.584   4.392
 9974SOL    HW130821   2.337   0.660   4.328
 9974SOL    HW230822   2.415   0.571   4.440
 9975SOL     OW30823   6.404   4.196   0.587
 9975SOL    HW130824   6.454   4.169   0.505
 9975SOL    HW230825   6.447   4.277   0.627
 9976SOL     OW30826   2.282   6.869   5.190
 9976SOL    HW130827   2.293   6.949   5.249
 9976SOL    HW230828   2.312   6.787   5.239
 9977SOL     OW30829   6.689   4.441   3.939
 9977SOL    HW130830   6.696   4.540   3.943
 9977SOL    HW230831   6.775   4.400   3.968
 9978SOL     OW30832   0.338   2.513   4.926
 9978SOL    HW130833   0.363   2.419   4.948
 9978SOL    HW230834   0.308   2.560   5.009
 9979SOL     OW30835   0.536   3.937   4.787
 9979SOL    HW130836   0.444   3.907   4.760
 9979SOL    HW230837   0.604   3.896   4.727
 9980SOL     OW30838   2.892   6.448   4.814
 9980SOL    HW130839   2.845   6.500   4.885
 9980SOL    HW230840   2.835   6.444   4.732
 9981SOL     OW30841   4.219   2.341   4.024
 9981SOL    HW130842   4.254   2.251   4.049
 9981SOL    HW230843   4.284   2.411   4.053
 9982SOL     OW30844   6.780   6.258   2.835
 9982SOL    HW130845   6.795   6.175   2.889
 9982SOL    HW230846   6.862   6.315   2.837
 9983SOL     OW30847   6.427   1.022   0.873
 9983SOL    HW130848   6.418   1.119   0.894
 9983SOL    HW230849   6.364   0.969   0.930
 9984SOL     OW30850   2.743   1.332   6.629
 9984SOL    HW130851   2.785   1.346   6.539
 9984SOL    HW230852   2.654   1.287   6.617
 9985SOL     OW30853   2.212   1.381   1.851
 9985SOL    HW130854   2.275   1.355   1.925
 9985SOL    HW230855   2.256   1.366   1.763
 9986SOL     OW30856   4.767   4.077   4.814
 9986SOL    HW130857   4.693   4.094   4.880
 9986SOL    HW230858   4.754   4.136   4.734
 9987SOL     OW30859   0.604   4.426   6.043
 9987SOL    HW130860   0.609   4.394   5.948
 9987SOL    HW230861   0.508   4.439   6.069
 9988SOL     OW30862   6.765   0.242   4.453
 9988SOL    HW130863   6.718   0.307   4.393
 9988SOL    HW230864   6.697   0.190   4.505
 9989SOL     OW30865   1.474   3.117   4.462
 9989SOL    HW130866   1.414   3.053   4.512
 9989SOL    HW230867   1.420   3.168   4.395
 9990SOL     OW30868   1.442   5.357   1.799
 9990SOL    HW130869   1.464   5.260   1.803
 9990SOL    HW230870   1.526   5.411   1.807
 9991SOL     OW30871   4.304   2.029   3.230
 9991SOL    HW130872   4.346   2.019   3.320
 9991SOL    HW230873   4.232   2.099   3.235
 9992SOL     OW30874   6.856   5.343   6.025
 9992SOL    HW130875   6.818   5.368   6.115
 9992SOL    HW230876   6.956   5.338   6.032
 9993SOL     OW30877   1.508   0.903   2.144
 9993SOL    HW130878   1.553   0.949   2.067
 9993SOL    HW230879   1.540   0.942   2.230
 9994SOL     OW30880   6.404   4.933   3.207
 9994SOL    HW130881   6.472   4.987   3.158
 9994SOL    HW230882   6.321   4.925   3.150
 9995SOL     OW30883   5.108   1.110   4.694
 9995SOL    HW130884   5.014   1.143   4.685
 9995SOL    HW230885   5.107   1.019   4.736
 9996SOL     OW30886   2.479   3.273   6.586
 9996SOL    HW130887   2.426   3.253   6.504
 9996SOL    HW230888   2.505   3.188   6.631
 9997SOL     OW30889   2.066   0.480   4.295
 9997SOL    HW130890   2.158   0.488   4.257
 9997SOL    HW230891   2.063   0.525   4.384
 9998SOL     OW30892   5.606   6.516   5.100
 9998SOL    HW130893   5.646   6.593   5.149
 9998SOL    HW230894   5.668   6.489   5.026
 9999SOL     OW30895   0.244   1.217   4.785
 9999SOL    HW130896   0.170   1.285   4.790
 9999SOL    HW230897   0.332   1.262   4.800
10000SOL     OW30898   6.834   4.782   0.012
10000SOL    HW130899   6.923   4.827   0.020
10000SOL    HW230900   6.766   4.831   0.067
10001SOL     OW30901   3.924   6.793   3.791
10001SOL    HW130902   3.952   6.721   3.855
10001SOL    HW230903   3.972   6.781   3.704
10002SOL     OW30904   1.820   1.884   1.892
10002SOL    HW130905   1.754   1.944   1.936
10002SOL    HW230906   1.775   1.831   1.821
10003SOL     OW30907   4.940   3.271   3.113
10003SOL    HW130908   4.880   3.303   3.040
10003SOL    HW230909   5.034   3.269   3.081
10004SOL     OW30910   0.208   2.752   3.321
10004SOL    HW130911   0.132   2.769   3.384
10004SOL    HW230912   0.267   2.680   3.358
10005SOL     OW30913   5.212   0.294   4.387
10005SOL    HW130914   5.256   0.330   4.305
10005SOL    HW230915   5.127   0.345   4.404
10006SOL     OW30916   4.708   1.804   4.841
10006SOL    HW130917   4.644   1.733   4.871
10006SOL    HW230918   4.710   1.878   4.908
10007SOL     OW30919   5.992   3.901   4.179
10007SOL    HW130920   5.949   3.963   4.245
10007SOL    HW230921   5.920   3.852   4.129
10008SOL     OW30922   3.400   0.096   3.893
10008SOL    HW130923   3.378   0.046   3.977
10008SOL    HW230924   3.494   0.128   3.897
10009SOL     OW30925   2.271   4.655   1.223
10009SOL    HW130926   2.246   4.572   1.274
10009SOL    HW230927   2.327   4.714   1.280
10010SOL     OW30928   5.735   0.961   6.151
10010SOL    HW130929   5.691   1.010   6.076
10010SOL    HW230930   5.828   0.996   6.164
10011SOL     OW30931   0.061   6.548   3.764
10011SOL    HW130932   0.068   6.634   3.816
10011SOL    HW230933   0.117   6.478   3.809
10012SOL     OW30934   5.746   0.459   4.092
10012SOL    HW130935   5.685   0.520   4.042
10012SOL    HW230936   5.743   0.481   4.189
10013SOL     OW30937   1.714   0.851   1.813
10013SOL    HW130938   1.779   0.846   1.888
10013SOL    HW230939   1.702   0.761   1.772
10014SOL     OW30940   1.301   4.729   5.614
10014SOL    HW130941   1.299   4.764   5.708
10014SOL    HW230942   1.342   4.797   5.554
10015SOL     OW30943   2.306   5.834   6.602
10015SOL    HW130944   2.221   5.817   6.552
10015SOL    HW230945   2.382   5.793   6.552
10016SOL     OW30946   2.487   1.056   5.149
10016SOL    HW130947   2.389   1.058   5.131
10016SOL    HW230948   2.502   1.045   5.247
10017SOL     OW30949   0.183   2.378   4.299
10017SOL    HW130950   0.273   2.346   4.267
10017SOL    HW230951   0.183   2.478   4.302
10018SOL     OW30952   5.017   6.716   5.613
10018SOL    HW130953   5.060   6.642   5.665
10018SOL    HW230954   5.003   6.686   5.518
10019SOL     OW30955   1.600   1.023   2.834
10019SOL    HW130956   1.572   0.959   2.763
10019SOL    HW230957   1.585   1.117   2.802
10020SOL     OW30958   6.965   2.838   0.108
10020SOL    HW130959   6.923   2.923   0.074
10020SOL    HW230960   6.970   2.771   0.034
10021SOL     OW30961   5.074   2.948   1.362
10021SOL    HW130962   5.085   3.007   1.442
10021SOL    HW230963   4.977   2.931   1.347
10022SOL     OW30964   2.026   0.904   6.333
10022SOL    HW130965   2.063   0.996   6.321
10022SOL    HW230966   2.092   0.836   6.300
10023SOL     OW30967   0.283   3.039   0.917
10023SOL    HW130968   0.376   3.061   0.944
10023SOL    HW230969   0.220   3.104   0.961
10024SOL     OW30970   1.357   4.172   3.073
10024SOL    HW130971   1.446   4.200   3.037
10024SOL    HW230972   1.327   4.089   3.027
10025SOL     OW30973   0.537   1.043   1.000
10025SOL    HW130974   0.636   1.053   1.014
10025SOL    HW230975   0.500   1.129   0.965
10026SOL     OW30976   6.649   0.650   4.583
10026SOL    HW130977   6.669   0.642   4.486
10026SOL    HW230978   6.623   0.561   4.620
10027SOL     OW30979   6.055   2.581   6.004
10027SOL    HW130980   5.964   2.550   6.029
10027SOL    HW230981   6.074   2.558   5.909
10028SOL     OW30982   2.238   0.601   1.869
10028SOL    HW130983   2.270   0.524   1.925
10028SOL    HW230984   2.223   0.570   1.775
10029SOL     OW30985   4.182   1.093   4.150
10029SOL    HW130986   4.271   1.135   4.170
10029SOL    HW230987   4.194   1.022   4.081
10030SOL     OW30988   1.044   1.110   2.858
10030SOL    HW130989   1.030   1.200   2.817
10030SOL    HW230990   1.135   1.105   2.899
10031SOL     OW30991   6.431   5.036   3.504
10031SOL    HW130992   6.391   4.968   3.442
10031SOL    HW230993   6.373   5.047   3.584
10032SOL     OW30994   3.700   1.694   5.379
10032SOL    HW130995   3.767   1.668   5.310
10032SOL    HW230996   3.640   1.765   5.342
10033SOL     OW30997   5.391   3.075   3.854
10033SOL    HW130998   5.360   3.157   3.902
10033SOL    HW230999   5.311   3.021   3.827
10034SOL     OW31000   3.951   6.929   5.993
10034SOL    HW131001   3.907   6.891   5.911
10034SOL    HW231002   3.941   6.865   6.069
10035SOL     OW31003   0.412   6.857   3.241
10035SOL    HW131004   0.361   6.808   3.170
10035SOL    HW231005   0.349   6.907   3.300
10036SOL     OW31006   6.579   0.645   0.327
10036SOL    HW131007   6.628   0.559   0.314
10036SOL    HW231008   6.645   0.719   0.342
10037SOL     OW31009   6.742   6.728   1.395
10037SOL    HW131010   6.646   6.704   1.410
10037SOL    HW231011   6.752   6.828   1.396
10038SOL     OW31012   6.316   0.316   1.036
10038SOL    HW131013   6.402   0.267   1.049
10038SOL    HW231014   6.326   0.411   1.065
10039SOL     OW31015   4.229   0.066   3.466
10039SOL    HW131016   4.187   0.094   3.379
10039SOL    HW231017   4.328   0.076   3.460
10040SOL     OW31018   0.477   2.460   0.949
10040SOL    HW131019   0.530   2.402   1.011
10040SOL    HW231020   0.420   2.403   0.890
10041SOL     OW31021   1.155   6.844   0.786
10041SOL    HW131022   1.098   6.810   0.711
10041SOL    HW231023   1.155   6.777   0.861
10042SOL     OW31024   6.136   2.106   3.394
10042SOL    HW131025   6.053   2.152   3.360
10042SOL    HW231026   6.133   2.102   3.494
10043SOL     OW31027   1.443   2.780   5.094
10043SOL    HW131028   1.363   2.835   5.072
10043SOL    HW231029   1.523   2.840   5.104
10044SOL     OW31030   4.614   1.165   6.642
10044SOL    HW131031   4.545   1.234   6.663
10044SOL    HW231032   4.657   1.134   6.727
10045SOL     OW31033   2.755   1.249   0.960
10045SOL    HW131034   2.814   1.170   0.942
10045SOL    HW231035   2.742   1.259   1.059
10046SOL     OW31036   0.425   5.198   1.006
10046SOL    HW131037   0.494   5.143   0.958
10046SOL    HW231038   0.410   5.283   0.956
10047SOL     OW31039   1.564   3.369   0.811
10047SOL    HW131040   1.481   3.320   0.835
10047SOL    HW231041   1.643   3.307   0.820
10048SOL     OW31042   5.934   4.515   1.892
10048SOL    HW131043   5.868   4.586   1.865
10048SOL    HW231044   5.992   4.492   1.815
10049SOL     OW31045   6.332   1.625   5.125
10049SOL    HW131046   6.342   1.531   5.157
10049SOL    HW231047   6.423   1.665   5.113
10050SOL     OW31048   6.816   2.921   5.878
10050SOL    HW131049   6.774   2.831   5.865
10050SOL    HW231050   6.914   2.909   5.897
10051SOL     OW31051   2.151   1.606   3.998
10051SOL    HW131052   2.156   1.616   4.097
10051SOL    HW231053   2.196   1.520   3.971
10052SOL     OW31054   1.052   0.395   3.852
10052SOL    HW131055   1.142   0.357   3.831
10052SOL    HW231056   1.059   0.495   3.855
10053SOL     OW31057   5.862   5.325   3.132
10053SOL    HW131058   5.858   5.226   3.146
10053SOL    HW231059   5.945   5.348   3.081
10054SOL     OW31060   6.241   3.920   4.263
10054SOL    HW131061   6.141   3.914   4.252
10054SOL    HW231062   6.285   3.902   4.175
10055SOL     OW31063   1.837   1.910   6.878
10055SOL    HW131064   1.838   1.976   6.803
10055SOL    HW231065   1.928   1.873   6.891
10056SOL     OW31066   5.438   2.205   4.328
10056SOL    HW131067   5.487   2.124   4.298
10056SOL    HW231068   5.502   2.281   4.339
10057SOL     OW31069   6.068   4.434   5.364
10057SOL    HW131070   6.091   4.515   5.310
10057SOL    HW231071   6.150   4.377   5.372
10058SOL     OW31072   6.540   4.276   4.097
10058SOL    HW131073   6.440   4.289   4.097
10058SOL    HW231074   6.581   4.338   4.030
10059SOL     OW31075   4.833   6.114   7.021
10059SOL    HW131076   4.842   6.051   6.943
10059SOL    HW231077   4.744   6.101   0.034
10060SOL     OW31078   2.955   1.878   2.206
10060SOL    HW131079   2.962   1.976   2.190
10060SOL    HW231080   2.936   1.862   2.303
10061SOL     OW31081   3.780   6.379   2.743
10061SOL    HW131082   3.797   6.362   2.646
10061SOL    HW231083   3.694   6.335   2.770
10062SOL     OW31084   6.736   7.027   4.754
10062SOL    HW131085   6.791   0.080   4.758
10062SOL    HW231086   6.748   6.974   4.838
10063SOL     OW31087   3.270   2.118   4.858
10063SOL    HW131088   3.211   2.181   4.908
10063SOL    HW231089   3.219   2.033   4.839
10064SOL     OW31090   3.248   0.034   2.246
10064SOL    HW131091   3.197   0.082   2.174
10064SOL    HW231092   3.346   0.046   2.230
10065SOL     OW31093   0.196   1.728   1.910
10065SOL    HW131094   0.125   1.682   1.856
10065SOL    HW231095   0.183   1.827   1.906
10066SOL     OW31096   6.423   3.710   3.630
10066SOL    HW131097   6.414   3.631   3.570
10066SOL    HW231098   6.520   3.728   3.647
10067SOL     OW31099   6.340   3.644   5.643
10067SOL    HW131100   6.260   3.628   5.584
10067SOL    HW231101   6.382   3.732   5.618
10068SOL     OW31102   1.865   3.292   2.317
10068SOL    HW131103   1.924   3.364   2.280
10068SOL    HW231104   1.893   3.204   2.279
10069SOL     OW31105   2.893   4.959   1.746
10069SOL    HW131106   2.860   4.886   1.807
10069SOL    HW231107   2.829   4.971   1.671
10070SOL     OW31108   5.024   7.022   0.620
10070SOL    HW131109   5.104   7.014   0.560
10070SOL    HW231110   5.046   0.050   0.698
10071SOL     OW31111   5.622   0.541   5.521
10071SOL    HW131112   5.645   0.476   5.448
10071SOL    HW231113   5.546   0.598   5.493
10072SOL     OW31114   5.786   2.565   2.379
10072SOL    HW131115   5.762   2.470   2.398
10072SOL    HW231116   5.751   2.590   2.288
10073SOL     OW31117   5.493   6.322   5.367
10073SOL    HW131118   5.476   6.420   5.362
10073SOL    HW231119   5.591   6.306   5.374
10074SOL     OW31120   1.820   4.799   0.925
10074SOL    HW131121   1.808   4.886   0.974
10074SOL    HW231122   1.731   4.764   0.896
10075SOL     OW31123   1.489   3.173   1.822
10075SOL    HW131124   1.575   3.224   1.832
10075SOL    HW231125   1.414   3.237   1.810
10076SOL     OW31126   5.580   3.770   3.932
10076SOL    HW131127   5.520   3.848   3.950
10076SOL    HW231128   5.674   3.803   3.919
10077SOL     OW31129   4.241   3.622   6.442
10077SOL    HW131130   4.257   3.698   6.379
10077SOL    HW231131   4.209   3.658   6.530
10078SOL     OW31132   5.928   5.298   4.361
10078SOL    HW131133   5.964   5.390   4.349
10078SOL    HW231134   6.001   5.238   4.396
10079SOL     OW31135   5.278   4.768   2.829
10079SOL    HW131136   5.237   4.742   2.917
10079SOL    HW231137   5.373   4.736   2.826
10080SOL     OW31138   5.409   2.331   5.625
10080SOL    HW131139   5.335   2.299   5.565
10080SOL    HW231140   5.486   2.268   5.620
10081SOL     OW31141   1.950   4.938   6.893
10081SOL    HW131142   1.955   4.840   6.911
10081SOL    HW231143   1.933   4.952   6.795
10082SOL     OW31144   1.292   4.975   1.035
10082SOL    HW131145   1.373   5.008   1.083
10082SOL    HW231146   1.212   5.030   1.061
10083SOL     OW31147   3.006   6.114   2.871
10083SOL    HW131148   2.948   6.196   2.862
10083SOL    HW231149   3.025   6.077   2.780
10084SOL     OW31150   1.539   2.944   4.790
10084SOL    HW131151   1.585   3.026   4.824
10084SOL    HW231152   1.596   2.864   4.807
10085SOL     OW31153   4.454   6.600   1.591
10085SOL    HW131154   4.358   6.627   1.590
10085SOL    HW231155   4.461   6.501   1.576
10086SOL     OW31156   3.570   0.066   2.741
10086SOL    HW131157   3.503   0.005   2.699
10086SOL    HW231158   3.526   0.117   2.815
10087SOL     OW31159   1.783   5.502   5.467
10087SOL    HW131160   1.858   5.564   5.439
10087SOL    HW231161   1.813   5.448   5.546
10088SOL     OW31162   6.830   2.342   1.450
10088SOL    HW131163   6.857   2.356   1.355
10088SOL    HW231164   6.732   2.323   1.455
10089SOL     OW31165   4.185   6.732   2.031
10089SOL    HW131166   4.206   6.777   2.117
10089SOL    HW231167   4.166   6.800   1.960
10090SOL     OW31168   2.001   5.716   2.541
10090SOL    HW131169   1.928   5.672   2.593
10090SOL    HW231170   2.089   5.682   2.573
10091SOL     OW31171   5.239   4.772   3.763
10091SOL    HW131172   5.321   4.787   3.707
10091SOL    HW231173   5.159   4.763   3.703
10092SOL     OW31174   0.447   1.287   2.679
10092SOL    HW131175   0.423   1.203   2.726
10092SOL    HW231176   0.547   1.296   2.676
10093SOL     OW31177   4.587   3.821   6.518
10093SOL    HW131178   4.642   3.887   6.569
10093SOL    HW231179   4.646   3.767   6.458
10094SOL     OW31180   3.343   2.225   0.488
10094SOL    HW131181   3.417   2.224   0.555
10094SOL    HW231182   3.305   2.133   0.479
10095SOL     OW31183   4.628   2.589   5.699
10095SOL    HW131184   4.648   2.685   5.715
10095SOL    HW231185   4.713   2.540   5.678
10096SOL     OW31186   6.860   4.329   2.246
10096SOL    HW131187   6.913   4.392   2.189
10096SOL    HW231188   6.875   4.235   2.215
10097SOL     OW31189   0.988   1.615   1.148
10097SOL    HW131190   1.007   1.534   1.093
10097SOL    HW231191   0.995   1.697   1.092
10098SOL     OW31192   3.811   5.322   6.569
10098SOL    HW131193   3.828   5.401   6.627
10098SOL    HW231194   3.763   5.351   6.486
10099SOL     OW31195   0.378   6.016   3.708
10099SOL    HW131196   0.353   5.949   3.638
10099SOL    HW231197   0.296   6.044   3.758
10100SOL     OW31198   5.129   4.936   3.934
10100SOL    HW131199   5.159   4.859   3.878
10100SOL    HW231200   5.051   4.909   3.989
10101SOL     OW31201   0.197   2.520   6.915
10101SOL    HW131202   0.106   2.505   6.878
10101SOL    HW231203   0.196   2.598   6.978
10102SOL     OW31204   6.962   4.897   2.622
10102SOL    HW131205   6.960   4.802   2.592
10102SOL    HW231206   6.985   4.956   2.545
10103SOL     OW31207   6.726   6.882   6.639
10103SOL    HW131208   6.636   6.904   6.678
10103SOL    HW231209   6.796   6.894   6.709
10104SOL     OW31210   2.795   1.348   4.852
10104SOL    HW131211   2.736   1.397   4.916
10104SOL    HW231212   2.885   1.392   4.849
10105SOL     OW31213   3.196   1.540   4.224
10105SOL    HW131214   3.129   1.470   4.198
10105SOL    HW231215   3.288   1.505   4.211
10106SOL     OW31216   5.923   4.019   1.152
10106SOL    HW131217   5.845   4.032   1.213
10106SOL    HW231218   6.008   4.031   1.203
10107SOL     OW31219   5.461   6.040   6.309
10107SOL    HW131220   5.554   6.045   6.346
10107SOL    HW231221   5.396   6.023   6.383
10108SOL     OW31222   2.439   2.380   4.975
10108SOL    HW131223   2.402   2.441   5.046
10108SOL    HW231224   2.529   2.413   4.947
10109SOL     OW31225   1.076   3.393   1.098
10109SOL    HW131226   0.981   3.369   1.083
10109SOL    HW231227   1.124   3.317   1.143
10110SOL     OW31228   6.382   6.364   2.266
10110SOL    HW131229   6.344   6.391   2.178
10110SOL    HW231230   6.309   6.330   2.325
10111SOL     OW31231   6.710   2.706   1.905
10111SOL    HW131232   6.747   2.745   1.821
10111SOL    HW231233   6.727   2.607   1.906
10112SOL     OW31234   7.007   2.932   4.302
10112SOL    HW131235   0.036   2.986   4.362
10112SOL    HW231236   0.021   2.920   4.214
10113SOL     OW31237   7.019   5.841   5.899
10113SOL    HW131238   0.009   5.866   5.804
10113SOL    HW231239   0.074   5.815   5.945
10114SOL     OW31240   5.241   4.102   1.470
10114SOL    HW131241   5.268   4.120   1.375
10114SOL    HW231242   5.148   4.067   1.472
10115SOL     OW31243   3.705   2.245   6.443
10115SOL    HW131244   3.708   2.189   6.526
10115SOL    HW231245   3.617   2.293   6.439
10116SOL     OW31246   0.377   0.078   6.675
10116SOL    HW131247   0.424   0.042   6.756
10116SOL    HW231248   0.379   0.009   6.603
10117SOL     OW31249   6.947   4.485   1.303
10117SOL    HW131250   7.021   4.525   1.248
10117SOL    HW231251   6.863   4.538   1.289
10118SOL     OW31252   4.525   4.788   3.823
10118SOL    HW131253   4.491   4.714   3.882
10118SOL    HW231254   4.542   4.869   3.878
10119SOL     OW31255   5.921   5.956   6.845
10119SOL    HW131256   5.989   5.989   6.911
10119SOL    HW231257   5.919   5.856   6.846
10120SOL     OW31258   2.832   2.127   3.328
10120SOL    HW131259   2.787   2.058   3.272
10120SOL    HW231260   2.878   2.193   3.270
10121SOL     OW31261   6.282   5.672   1.907
10121SOL    HW131262   6.201   5.667   1.967
10121SOL    HW231263   6.299   5.583   1.866
10122SOL     OW31264   2.003   0.371   3.292
10122SOL    HW131265   2.074   0.313   3.332
10122SOL    HW231266   1.922   0.371   3.351
10123SOL     OW31267   6.372   6.041   6.356
10123SOL    HW131268   6.429   5.965   6.323
10123SOL    HW231269   6.386   6.121   6.298
10124SOL     OW31270   2.221   4.717   2.693
10124SOL    HW131271   2.223   4.618   2.685
10124SOL    HW231272   2.311   4.750   2.721
10125SOL     OW31273   1.795   1.573   4.590
10125SOL    HW131274   1.798   1.660   4.639
10125SOL    HW231275   1.708   1.564   4.542
10126SOL     OW31276   6.391   6.383   4.417
10126SOL    HW131277   6.299   6.414   4.439
10126SOL    HW231278   6.409   6.397   4.319
10127SOL     OW31279   2.394   0.831   4.866
10127SOL    HW131280   2.302   0.839   4.905
10127SOL    HW231281   2.388   0.813   4.768
10128SOL     OW31282   2.716   1.739   0.262
10128SOL    HW131283   2.807   1.771   0.236
10128SOL    HW231284   2.682   1.794   0.339
10129SOL     OW31285   6.674   1.913   4.900
10129SOL    HW131286   6.739   1.977   4.859
10129SOL    HW231287   6.689   1.821   4.863
10130SOL     OW31288   1.749   2.112   3.413
10130SOL    HW131289   1.743   2.049   3.336
10130SOL    HW231290   1.844   2.120   3.443
10131SOL     OW31291   2.068   0.532   5.236
10131SOL    HW131292   2.167   0.538   5.240
10131SOL    HW231293   2.027   0.607   5.289
10132SOL     OW31294   6.378   0.519   2.583
10132SOL    HW131295   6.384   0.568   2.670
10132SOL    HW231296   6.467   0.518   2.538
10133SOL     OW31297   4.449   5.269   1.223
10133SOL    HW131298   4.540   5.262   1.264
10133SOL    HW231299   4.395   5.188   1.245
10134SOL     OW31300   6.831   6.455   3.383
10134SOL    HW131301   6.865   6.394   3.311
10134SOL    HW231302   6.758   6.511   3.346
10135SOL     OW31303   6.339   6.836   3.534
10135SOL    HW131304   6.246   6.799   3.535
10135SOL    HW231305   6.396   6.783   3.597
10136SOL     OW31306   5.085   1.100   3.314
10136SOL    HW131307   5.149   1.171   3.286
10136SOL    HW231308   5.126   1.010   3.298
10137SOL     OW31309   6.977   5.890   3.244
10137SOL    HW131310   6.905   5.895   3.313
10137SOL    HW231311   6.936   5.879   3.153
10138SOL     OW31312   0.204   1.656   2.193
10138SOL    HW131313   0.295   1.695   2.207
10138SOL    HW231314   0.169   1.684   2.103
10139SOL     OW31315   3.286   2.676   0.359
10139SOL    HW131316   3.242   2.602   0.411
10139SOL    HW231317   3.382   2.654   0.344
10140SOL     OW31318   6.110   6.351   4.470
10140SOL    HW131319   6.116   6.409   4.551
10140SOL    HW231320   6.076   6.261   4.496
10141SOL     OW31321   1.172   2.030   4.509
10141SOL    HW131322   1.230   2.095   4.461
10141SOL    HW231323   1.193   2.031   4.607
10142SOL     OW31324   4.224   6.037   1.690
10142SOL    HW131325   4.197   5.942   1.700
10142SOL    HW231326   4.192   6.071   1.601
10143SOL     OW31327   6.087   3.586   6.790
10143SOL    HW131328   6.020   3.512   6.789
10143SOL    HW231329   6.176   3.551   6.822
10144SOL     OW31330   4.040   0.614   1.013
10144SOL    HW131331   4.004   0.569   1.094
10144SOL    HW231332   4.029   0.555   0.933
10145SOL     OW31333   6.392   0.235   5.096
10145SOL    HW131334   6.463   0.306   5.092
10145SOL    HW231335   6.310   0.268   5.049
10146SOL     OW31336   1.569   2.298   5.483
10146SOL    HW131337   1.622   2.287   5.568
10146SOL    HW231338   1.471   2.295   5.504
10147SOL     OW31339   3.589   5.428   0.389
10147SOL    HW131340   3.501   5.401   0.429
10147SOL    HW231341   3.584   5.524   0.362
10148SOL     OW31342   0.698   5.176   6.471
10148SOL    HW131343   0.757   5.206   6.546
10148SOL    HW231344   0.631   5.247   6.450
10149SOL     OW31345   3.168   3.176   3.280
10149SOL    HW131346   3.169   3.134   3.371
10149SOL    HW231347   3.161   3.275   3.288
10150SOL     OW31348   5.319   4.118   1.222
10150SOL    HW131349   5.300   4.051   1.150
10150SOL    HW231350   5.408   4.161   1.206
10151SOL     OW31351   0.125   0.970   6.984
10151SOL    HW131352   0.098   0.907   6.912
10151SOL    HW231353   0.220   0.998   6.971
10152SOL     OW31354   3.601   6.091   3.663
10152SOL    HW131355   3.698   6.082   3.641
10152SOL    HW231356   3.557   6.155   3.599
10153SOL     OW31357   4.996   3.627   1.567
10153SOL    HW131358   4.970   3.713   1.610
10153SOL    HW231359   5.093   3.630   1.542
10154SOL     OW31360   4.514   5.366   5.465
10154SOL    HW131361   4.453   5.361   5.544
10154SOL    HW231362   4.525   5.274   5.426
10155SOL     OW31363   4.393   2.392   4.394
10155SOL    HW131364   4.313   2.338   4.420
10155SOL    HW231365   4.423   2.448   4.471
10156SOL     OW31366   3.360   2.021   6.447
10156SOL    HW131367   3.340   1.941   6.503
10156SOL    HW231368   3.275   2.066   6.422
10157SOL     OW31369   0.943   4.692   0.837
10157SOL    HW131370   0.888   4.629   0.892
10157SOL    HW231371   0.917   4.684   0.740
10158SOL     OW31372   5.858   5.121   6.929
10158SOL    HW131373   5.882   5.057   7.002
10158SOL    HW231374   5.862   5.074   6.841
10159SOL     OW31375   3.713   2.949   1.306
10159SOL    HW131376   3.622   2.908   1.316
10159SOL    HW231377   3.742   2.987   1.393
10160SOL     OW31378   0.053   3.861   2.200
10160SOL    HW131379   0.110   3.870   2.281
10160SOL    HW231380   0.108   3.828   2.123
10161SOL     OW31381   6.132   2.522   7.023
10161SOL    HW131382   6.141   2.500   0.091
10161SOL    HW231383   6.222   2.545   6.986
10162SOL     OW31384   2.214   2.453   2.404
10162SOL    HW131385   2.164   2.448   2.318
10162SOL    HW231386   2.217   2.547   2.437
10163SOL     OW31387   3.620   5.251   5.393
10163SOL    HW131388   3.526   5.248   5.426
10163SOL    HW231389   3.657   5.343   5.403
10164SOL     OW31390   0.091   0.585   4.257
10164SOL    HW131391   0.088   0.506   4.318
10164SOL    HW231392   0.035   0.659   4.295
10165SOL     OW31393   1.964   3.422   3.770
10165SOL    HW131394   2.009   3.499   3.815
10165SOL    HW231395   2.026   3.383   3.702
10166SOL     OW31396   3.085   6.400   3.116
10166SOL    HW131397   3.053   6.376   3.208
10166SOL    HW231398   3.008   6.398   3.052
10167SOL     OW31399   3.647   1.563   6.686
10167SOL    HW131400   3.604   1.622   6.754
10167SOL    HW231401   3.596   1.568   6.600
10168SOL     OW31402   0.840   1.345   6.524
10168SOL    HW131403   0.856   1.414   6.453
10168SOL    HW231404   0.927   1.303   6.549
10169SOL     OW31405   4.409   5.301   2.636
10169SOL    HW131406   4.420   5.204   2.658
10169SOL    HW231407   4.500   5.343   2.626
10170SOL     OW31408   4.643   6.263   0.486
10170SOL    HW131409   4.634   6.353   0.443
10170SOL    HW231410   4.718   6.264   0.551
10171SOL     OW31411   1.510   4.428   3.362
10171SOL    HW131412   1.552   4.402   3.275
10171SOL    HW231413   1.580   4.462   3.424
10172SOL     OW31414   0.950   1.473   3.059
10172SOL    HW131415   0.948   1.540   3.133
10172SOL    HW231416   0.922   1.516   2.973
10173SOL     OW31417   4.652   3.180   5.329
10173SOL    HW131418   4.722   3.225   5.273
10173SOL    HW231419   4.690   3.161   5.420
10174SOL     OW31420   5.045   4.601   1.406
10174SOL    HW131421   5.127   4.547   1.388
10174SOL    HW231422   5.005   4.573   1.493
10175SOL     OW31423   6.662   6.983   3.726
10175SOL    HW131424   6.731   6.913   3.711
10175SOL    HW231425   6.595   6.950   3.793
10176SOL     OW31426   0.314   0.903   4.955
10176SOL    HW131427   0.385   0.973   4.962
10176SOL    HW231428   0.323   0.839   5.032
10177SOL     OW31429   3.180   1.045   4.237
10177SOL    HW131430   3.173   1.095   4.151
10177SOL    HW231431   3.245   1.091   4.297
10178SOL     OW31432   6.615   1.426   2.222
10178SOL    HW131433   6.652   1.511   2.259
10178SOL    HW231434   6.587   1.366   2.297
10179SOL     OW31435   0.256   6.127   0.616
10179SOL    HW131436   0.313   6.201   0.580
10179SOL    HW231437   0.299   6.039   0.597
10180SOL     OW31438   2.787   0.229   6.171
10180SOL    HW131439   2.829   0.315   6.201
10180SOL    HW231440   2.855   0.172   6.125
10181SOL     OW31441   6.702   4.099   2.358
10181SOL    HW131442   6.669   4.007   2.381
10181SOL    HW231443   6.675   4.163   2.430
10182SOL     OW31444   3.553   6.790   6.860
10182SOL    HW131445   3.518   6.772   6.768
10182SOL    HW231446   3.548   6.707   6.915
10183SOL     OW31447   3.830   6.339   6.267
10183SOL    HW131448   3.823   6.240   6.265
10183SOL    HW231449   3.921   6.366   6.298
10184SOL     OW31450   5.233   2.593   4.871
10184SOL    HW131451   5.324   2.561   4.847
10184SOL    HW231452   5.240   2.659   4.946
10185SOL     OW31453   3.053   4.809   1.985
10185SOL    HW131454   2.985   4.736   1.976
10185SOL    HW231455   3.111   4.811   1.904
10186SOL     OW31456   3.451   2.994   1.084
10186SOL    HW131457   3.359   2.999   1.047
10186SOL    HW231458   3.447   2.985   1.184
10187SOL     OW31459   2.094   4.051   5.613
10187SOL    HW131460   1.995   4.045   5.628
10187SOL    HW231461   2.132   3.960   5.600
10188SOL     OW31462   2.169   0.593   6.538
10188SOL    HW131463   2.085   0.638   6.567
10188SOL    HW231464   2.149   0.524   6.469
10189SOL     OW31465   1.813   1.821   5.493
10189SOL    HW131466   1.786   1.824   5.589
10189SOL    HW231467   1.840   1.912   5.462
10190SOL     OW31468   3.912   3.705   0.551
10190SOL    HW131469   4.009   3.697   0.527
10190SOL    HW231470   3.856   3.682   0.471
10191SOL     OW31471   5.846   0.696   0.500
10191SOL    HW131472   5.761   0.737   0.468
10191SOL    HW231473   5.859   0.607   0.457
10192SOL     OW31474   2.556   0.147   4.049
10192SOL    HW131475   2.541   0.054   4.082
10192SOL    HW231476   2.479   0.204   4.075
10193SOL     OW31477   3.662   3.833   3.652
10193SOL    HW131478   3.606   3.819   3.570
10193SOL    HW231479   3.613   3.799   3.732
10194SOL     OW31480   3.064   5.993   3.782
10194SOL    HW131481   3.105   5.903   3.799
10194SOL    HW231482   3.015   5.991   3.695
10195SOL     OW31483   5.112   0.524   3.153
10195SOL    HW131484   5.151   0.490   3.238
10195SOL    HW231485   5.026   0.477   3.134
10196SOL     OW31486   4.658   4.218   4.043
10196SOL    HW131487   4.755   4.222   4.066
10196SOL    HW231488   4.603   4.228   4.126
10197SOL     OW31489   4.788   2.174   2.793
10197SOL    HW131490   4.861   2.242   2.789
10197SOL    HW231491   4.812   2.097   2.734
10198SOL     OW31492   2.854   1.738   1.996
10198SOL    HW131493   2.880   1.805   2.066
10198SOL    HW231494   2.913   1.657   2.004
10199SOL     OW31495   0.880   1.960   6.957
10199SOL    HW131496   0.824   1.901   6.898
10199SOL    HW231497   0.827   1.985   0.008
10200SOL     OW31498   6.079   6.762   3.560
10200SOL    HW131499   6.023   6.845   3.556
10200SOL    HW231500   6.060   6.706   3.479
10201SOL     OW31501   1.493   4.740   2.164
10201SOL    HW131502   1.575   4.793   2.143
10201SOL    HW231503   1.429   4.796   2.215
10202SOL     OW31504   1.296   2.247   3.335
10202SOL    HW131505   1.198   2.265   3.325
10202SOL    HW231506   1.343   2.332   3.360
10203SOL     OW31507   0.468   1.952   1.275
10203SOL    HW131508   0.439   2.045   1.253
10203SOL    HW231509   0.487   1.945   1.373
10204SOL     OW31510   2.314   5.993   3.729
10204SOL    HW131511   2.374   5.914   3.739
10204SOL    HW231512   2.224   5.971   3.766
10205SOL     OW31513   3.555   0.154   1.224
10205SOL    HW131514   3.535   0.241   1.177
10205SOL    HW231515   3.477   0.129   1.280
10206SOL     OW31516   5.830   6.296   0.175
10206SOL    HW131517   5.784   6.366   0.119
10206SOL    HW231518   5.802   6.206   0.143
10207SOL     OW31519   3.841   1.165   2.178
10207SOL    HW131520   3.756   1.113   2.176
10207SOL    HW231521   3.915   1.107   2.213
10208SOL     OW31522   6.830   2.778   6.191
10208SOL    HW131523   6.919   2.742   6.217
10208SOL    HW231524   6.758   2.716   6.222
10209SOL     OW31525   3.280   6.441   0.102
10209SOL    HW131526   3.290   6.437   0.003
10209SOL    HW231527   3.262   6.535   0.130
10210SOL     OW31528   4.928   5.643   6.592
10210SOL    HW131529   5.027   5.641   6.607
10210SOL    HW231530   4.899   5.737   6.573
10211SOL     OW31531   3.538   5.299   5.775
10211SOL    HW131532   3.585   5.385   5.794
10211SOL    HW231533   3.503   5.300   5.681
10212SOL     OW31534   6.411   6.384   5.907
10212SOL    HW131535   6.454   6.388   5.817
10212SOL    HW231536   6.405   6.476   5.946
10213SOL     OW31537   3.761   6.736   4.612
10213SOL    HW131538   3.807   6.656   4.652
10213SOL    HW231539   3.664   6.715   4.598
10214SOL     OW31540   0.182   0.633   0.088
10214SOL    HW131541   0.258   0.677   0.040
10214SOL    HW231542   0.161   0.545   0.044
10215SOL     OW31543   4.250   2.534   0.280
10215SOL    HW131544   4.216   2.449   0.320
10215SOL    HW231545   4.305   2.513   0.199
10216SOL     OW31546   5.021   0.461   2.627
10216SOL    HW131547   4.985   0.391   2.688
10216SOL    HW231548   4.980   0.450   2.536
10217SOL     OW31549   3.779   2.520   5.317
10217SOL    HW131550   3.822   2.575   5.388
10217SOL    HW231551   3.681   2.514   5.335
10218SOL     OW31552   4.146   0.907   6.859
10218SOL    HW131553   4.125   1.004   6.869
10218SOL    HW231554   4.111   0.856   6.938
10219SOL     OW31555   0.845   5.160   0.442
10219SOL    HW131556   0.830   5.083   0.380
10219SOL    HW231557   0.910   5.224   0.402
10220SOL     OW31558   4.175   2.227   0.041
10220SOL    HW131559   4.199   2.282   0.121
10220SOL    HW231560   4.197   2.278   6.988
10221SOL     OW31561   2.329   0.793   4.144
10221SOL    HW131562   2.418   0.786   4.099
10221SOL    HW231563   2.277   0.868   4.104
10222SOL     OW31564   2.136   4.614   5.246
10222SOL    HW131565   2.104   4.535   5.194
10222SOL    HW231566   2.121   4.698   5.193
10223SOL     OW31567   1.051   5.047   6.303
10223SOL    HW131568   0.956   5.052   6.271
10223SOL    HW231569   1.111   5.093   6.238
10224SOL     OW31570   2.342   6.392   5.233
10224SOL    HW131571   2.412   6.357   5.295
10224SOL    HW231572   2.276   6.319   5.213
10225SOL     OW31573   5.257   6.746   4.369
10225SOL    HW131574   5.185   6.678   4.352
10225SOL    HW231575   5.309   6.720   4.450
10226SOL     OW31576   6.687   2.663   5.985
10226SOL    HW131577   6.623   2.736   6.007
10226SOL    HW231578   6.763   2.665   6.051
10227SOL     OW31579   4.887   4.356   5.526
10227SOL    HW131580   4.795   4.336   5.561
10227SOL    HW231581   4.924   4.436   5.574
10228SOL     OW31582   0.679   3.345   1.870
10228SOL    HW131583   0.759   3.286   1.857
10228SOL    HW231584   0.634   3.322   1.956
10229SOL     OW31585   3.157   0.438   1.809
10229SOL    HW131586   3.180   0.488   1.726
10229SOL    HW231587   3.139   0.342   1.786
10230SOL     OW31588   5.834   6.342   3.534
10230SOL    HW131589   5.788   6.404   3.470
10230SOL    HW231590   5.855   6.256   3.487
10231SOL     OW31591   4.587   6.218   4.437
10231SOL    HW131592   4.503   6.262   4.406
10231SOL    HW231593   4.663   6.247   4.379
10232SOL     OW31594   3.706   2.030   3.323
10232SOL    HW131595   3.701   1.936   3.290
10232SOL    HW231596   3.793   2.071   3.295
10233SOL     OW31597   4.890   6.254   5.757
10233SOL    HW131598   4.853   6.275   5.667
10233SOL    HW231599   4.917   6.158   5.761
10234SOL     OW31600   3.991   5.103   1.385
10234SOL    HW131601   3.916   5.059   1.336
10234SOL    HW231602   3.974   5.201   1.390
10235SOL     OW31603   5.193   0.560   0.077
10235SOL    HW131604   5.197   0.643   0.133
10235SOL    HW231605   5.250   0.572   7.026
10236SOL     OW31606   1.653   5.994   1.308
10236SOL    HW131607   1.685   6.081   1.271
10236SOL    HW231608   1.654   5.925   1.237
10237SOL     OW31609   5.915   2.457   2.618
10237SOL    HW131610   5.969   2.457   2.534
10237SOL    HW231611   5.821   2.483   2.598
10238SOL     OW31612   5.071   5.372   6.110
10238SOL    HW131613   5.053   5.458   6.159
10238SOL    HW231614   5.017   5.370   6.026
10239SOL     OW31615   5.609   3.146   4.683
10239SOL    HW131616   5.703   3.115   4.667
10239SOL    HW231617   5.604   3.245   4.671
10240SOL     OW31618   5.063   3.993   3.334
10240SOL    HW131619   5.065   3.946   3.246
10240SOL    HW231620   5.142   4.053   3.342
10241SOL     OW31621   1.085   2.552   2.739
10241SOL    HW131622   1.059   2.647   2.756
10241SOL    HW231623   1.018   2.491   2.781
10242SOL     OW31624   1.412   5.510   6.234
10242SOL    HW131625   1.469   5.592   6.242
10242SOL    HW231626   1.469   5.429   6.241
10243SOL     OW31627   0.565   5.798   3.186
10243SOL    HW131628   0.593   5.702   3.187
10243SOL    HW231629   0.645   5.855   3.167
10244SOL     OW31630   2.220   6.094   6.686
10244SOL    HW131631   2.155   6.135   6.622
10244SOL    HW231632   2.230   5.997   6.666
10245SOL     OW31633   2.528   2.958   0.999
10245SOL    HW131634   2.533   3.024   0.924
10245SOL    HW231635   2.487   2.873   0.965
10246SOL     OW31636   2.915   3.824   4.333
10246SOL    HW131637   2.988   3.856   4.393
10246SOL    HW231638   2.835   3.884   4.343
10247SOL     OW31639   1.050   6.131   6.281
10247SOL    HW131640   1.002   6.104   6.364
10247SOL    HW231641   1.082   6.049   6.233
10248SOL     OW31642   6.322   1.089   3.729
10248SOL    HW131643   6.412   1.053   3.709
10248SOL    HW231644   6.253   1.018   3.714
10249SOL     OW31645   4.956   0.679   6.109
10249SOL    HW131646   4.879   0.696   6.048
10249SOL    HW231647   4.962   0.753   6.176
10250SOL     OW31648   4.305   5.479   0.783
10250SOL    HW131649   4.347   5.488   0.693
10250SOL    HW231650   4.339   5.397   0.828
10251SOL     OW31651   3.927   4.410   1.625
10251SOL    HW131652   3.932   4.444   1.531
10251SOL    HW231653   3.831   4.411   1.655
10252SOL     OW31654   6.996   3.569   1.067
10252SOL    HW131655   6.992   3.506   1.144
10252SOL    HW231656   0.036   3.539   1.002
10253SOL     OW31657   3.872   4.379   0.713
10253SOL    HW131658   3.832   4.305   0.766
10253SOL    HW231659   3.941   4.342   0.650
10254SOL     OW31660   2.329   1.782   4.612
10254SOL    HW131661   2.284   1.758   4.698
10254SOL    HW231662   2.286   1.864   4.573
10255SOL     OW31663   3.152   5.178   3.666
10255SOL    HW131664   3.204   5.233   3.732
10255SOL    HW231665   3.189   5.193   3.574
10256SOL     OW31666   5.100   6.232   0.937
10256SOL    HW131667   5.114   6.282   0.852
10256SOL    HW231668   5.076   6.137   0.916
10257SOL     OW31669   1.745   5.217   5.717
10257SOL    HW131670   1.773   5.148   5.783
10257SOL    HW231671   1.821   5.279   5.698
10258SOL     OW31672   4.404   1.052   3.073
10258SOL    HW131673   4.372   0.981   3.011
10258SOL    HW231674   4.436   1.131   3.021
10259SOL     OW31675   0.042   3.298   4.232
10259SOL    HW131676   6.998   3.283   4.166
10259SOL    HW231677   0.005   3.293   4.325
10260SOL     OW31678   0.213   5.717   1.994
10260SOL    HW131679   0.220   5.811   2.027
10260SOL    HW231680   0.165   5.662   2.062
10261SOL     OW31681   2.232   0.319   1.964
10261SOL    HW131682   2.209   0.247   1.899
10261SOL    HW231683   2.331   0.323   1.978
10262SOL     OW31684   0.999   6.387   3.732
10262SOL    HW131685   0.980   6.480   3.764
10262SOL    HW231686   1.027   6.330   3.809
10263SOL     OW31687   6.764   3.338   4.887
10263SOL    HW131688   6.697   3.289   4.943
10263SOL    HW231689   6.836   3.374   4.945
10264SOL     OW31690   0.479   6.681   0.146
10264SOL    HW131691   0.460   6.609   0.079
10264SOL    HW231692   0.538   6.645   0.218
10265SOL     OW31693   5.008   2.515   3.779
10265SOL    HW131694   5.043   2.580   3.845
10265SOL    HW231695   5.075   2.442   3.765
10266SOL     OW31696   3.504   3.494   6.687
10266SOL    HW131697   3.424   3.534   6.642
10266SOL    HW231698   3.486   3.398   6.709
10267SOL     OW31699   6.224   1.210   6.572
10267SOL    HW131700   6.303   1.196   6.632
10267SOL    HW231701   6.164   1.280   6.611
10268SOL     OW31702   6.462   3.577   0.534
10268SOL    HW131703   6.375   3.528   0.532
10268SOL    HW231704   6.488   3.602   0.441
10269SOL     OW31705   4.094   1.328   6.269
10269SOL    HW131706   4.153   1.292   6.341
10269SOL    HW231707   4.030   1.395   6.309
10270SOL     OW31708   3.396   5.601   2.465
10270SOL    HW131709   3.333   5.597   2.388
10270SOL    HW231710   3.404   5.696   2.497
10271SOL     OW31711   1.891   4.599   1.653
10271SOL    HW131712   1.894   4.625   1.750
10271SOL    HW231713   1.822   4.654   1.606
10272SOL     OW31714   1.658   1.964   4.167
10272SOL    HW131715   1.749   1.925   4.180
10272SOL    HW231716   1.640   2.031   4.239
10273SOL     OW31717   4.152   6.295   3.745
10273SOL    HW131718   4.139   6.197   3.757
10273SOL    HW231719   4.172   6.315   3.649
10274SOL     OW31720   2.819   4.728   6.413
10274SOL    HW131721   2.859   4.644   6.448
10274SOL    HW231722   2.864   4.754   6.327
10275SOL     OW31723   0.773   6.337   1.494
10275SOL    HW131724   0.819   6.308   1.578
10275SOL    HW231725   0.674   6.332   1.506
10276SOL     OW31726   0.984   6.777   0.528
10276SOL    HW131727   0.890   6.806   0.546
10276SOL    HW231728   0.984   6.690   0.479
10277SOL     OW31729   0.170   5.970   2.175
10277SOL    HW131730   0.107   5.943   2.249
10277SOL    HW231731   0.118   6.017   2.104
10278SOL     OW31732   6.496   0.927   5.957
10278SOL    HW131733   6.534   1.005   6.006
10278SOL    HW231734   6.468   0.857   6.023
10279SOL     OW31735   3.415   6.430   4.828
10279SOL    HW131736   3.321   6.400   4.809
10279SOL    HW231737   3.478   6.384   4.765
10280SOL     OW31738   2.787   3.016   0.024
10280SOL    HW131739   2.821   2.933   7.008
10280SOL    HW231740   2.860   3.084   0.027
10281SOL     OW31741   4.714   0.824   4.516
10281SOL    HW131742   4.650   0.846   4.444
10281SOL    HW231743   4.740   0.727   4.509
10282SOL     OW31744   1.316   3.057   4.089
10282SOL    HW131745   1.413   3.056   4.064
10282SOL    HW231746   1.276   2.968   4.068
10283SOL     OW31747   1.526   5.111   6.060
10283SOL    HW131748   1.578   5.030   6.033
10283SOL    HW231749   1.508   5.167   5.980
10284SOL     OW31750   5.384   2.845   6.922
10284SOL    HW131751   5.460   2.883   6.870
10284SOL    HW231752   5.306   2.907   6.918
10285SOL     OW31753   5.335   1.885   1.326
10285SOL    HW131754   5.419   1.936   1.306
10285SOL    HW231755   5.281   1.936   1.393
10286SOL     OW31756   4.053   0.649   4.180
10286SOL    HW131757   4.092   0.585   4.246
10286SOL    HW231758   4.053   0.741   4.219
10287SOL     OW31759   1.927   4.401   1.882
10287SOL    HW131760   1.908   4.485   1.934
10287SOL    HW231761   1.845   4.343   1.881
10288SOL     OW31762   3.957   6.116   4.323
10288SOL    HW131763   3.941   6.140   4.419
10288SOL    HW231764   4.051   6.142   4.298
10289SOL     OW31765   3.249   1.761   1.864
10289SOL    HW131766   3.209   1.850   1.842
10289SOL    HW231767   3.275   1.714   1.779
10290SOL     OW31768   3.337   3.024   3.117
10290SOL    HW131769   3.388   2.960   3.174
10290SOL    HW231770   3.263   3.065   3.170
10291SOL     OW31771   3.523   0.715   4.700
10291SOL    HW131772   3.613   0.718   4.742
10291SOL    HW231773   3.501   0.622   4.672
10292SOL     OW31774   6.807   2.448   4.364
10292SOL    HW131775   6.722   2.399   4.382
10292SOL    HW231776   6.872   2.388   4.318
10293SOL     OW31777   2.453   4.876   2.844
10293SOL    HW131778   2.544   4.849   2.875
10293SOL    HW231779   2.418   4.949   2.902
10294SOL     OW31780   6.312   0.918   3.219
10294SOL    HW131781   6.381   0.917   3.291
10294SOL    HW231782   6.225   0.886   3.256
10295SOL     OW31783   1.709   3.998   4.439
10295SOL    HW131784   1.736   4.070   4.376
10295SOL    HW231785   1.632   3.947   4.401
10296SOL     OW31786   6.389   3.115   1.968
10296SOL    HW131787   6.453   3.103   1.892
10296SOL    HW231788   6.297   3.089   1.939
10297SOL     OW31789   3.289   4.843   5.187
10297SOL    HW131790   3.223   4.910   5.153
10297SOL    HW231791   3.253   4.751   5.174
10298SOL     OW31792   5.974   3.079   2.958
10298SOL    HW131793   5.981   3.178   2.950
10298SOL    HW231794   6.042   3.036   2.899
10299SOL     OW31795   4.561   4.687   2.421
10299SOL    HW131796   4.528   4.598   2.452
10299SOL    HW231797   4.621   4.727   2.490
10300SOL     OW31798   0.833   6.170   1.747
10300SOL    HW131799   0.890   6.098   1.709
10300SOL    HW231800   0.745   6.131   1.777
10301SOL     OW31801   4.492   0.199   1.994
10301SOL    HW131802   4.588   0.228   2.002
10301SOL    HW231803   4.488   0.104   1.964
10302SOL     OW31804   1.571   4.081   3.621
10302SOL    HW131805   1.585   4.179   3.613
10302SOL    HW231806   1.496   4.053   3.561
10303SOL     OW31807   4.557   2.932   1.233
10303SOL    HW131808   4.492   2.982   1.290
10303SOL    HW231809   4.537   2.834   1.238
10304SOL     OW31810   5.874   6.129   3.358
10304SOL    HW131811   5.809   6.089   3.293
10304SOL    HW231812   5.890   6.065   3.433
10305SOL     OW31813   1.812   5.573   1.120
10305SOL    HW131814   1.884   5.504   1.105
10305SOL    HW231815   1.793   5.579   1.218
10306SOL     OW31816   4.310   4.401   0.318
10306SOL    HW131817   4.245   4.440   0.252
10306SOL    HW231818   4.312   4.302   0.308
10307SOL     OW31819   2.182   1.834   5.659
10307SOL    HW131820   2.153   1.769   5.590
10307SOL    HW231821   2.278   1.856   5.646
10308SOL     OW31822   2.614   5.100   4.158
10308SOL    HW131823   2.649   5.027   4.217
10308SOL    HW231824   2.532   5.070   4.111
10309SOL     OW31825   6.859   6.492   3.657
10309SOL    HW131826   6.847   6.486   3.558
10309SOL    HW231827   6.948   6.534   3.677
10310SOL     OW31828   3.124   3.946   4.442
10310SOL    HW131829   3.178   3.986   4.368
10310SOL    HW231830   3.180   3.883   4.495
10311SOL     OW31831   0.615   0.693   1.131
10311SOL    HW131832   0.601   0.601   1.096
10311SOL    HW231833   0.526   0.738   1.144
10312SOL     OW31834   2.494   5.059   0.855
10312SOL    HW131835   2.523   5.144   0.898
10312SOL    HW231836   2.462   5.077   0.762
10313SOL     OW31837   6.775   5.639   3.973
10313SOL    HW131838   6.713   5.622   3.896
10313SOL    HW231839   6.867   5.609   3.949
10314SOL     OW31840   6.985   5.965   5.244
10314SOL    HW131841   6.906   5.915   5.278
10314SOL    HW231842   6.972   6.063   5.259
10315SOL     OW31843   4.510   6.387   6.036
10315SOL    HW131844   4.607   6.392   6.012
10315SOL    HW231845   4.455   6.373   5.954
10316SOL     OW31846   0.576   4.185   3.367
10316SOL    HW131847   0.618   4.095   3.378
10316SOL    HW231848   0.648   4.254   3.361
10317SOL     OW31849   5.047   3.892   6.610
10317SOL    HW131850   5.095   3.979   6.622
10317SOL    HW231851   5.027   3.852   6.700
10318SOL     OW31852   5.564   5.136   2.750
10318SOL    HW131853   5.535   5.042   2.735
10318SOL    HW231854   5.485   5.191   2.779
10319SOL     OW31855   5.004   6.515   3.798
10319SOL    HW131856   5.034   6.578   3.870
10319SOL    HW231857   4.956   6.437   3.839
10320SOL     OW31858   4.167   6.500   1.914
10320SOL    HW131859   4.147   6.578   1.974
10320SOL    HW231860   4.181   6.533   1.820
10321SOL     OW31861   4.698   6.047   4.632
10321SOL    HW131862   4.729   5.966   4.583
10321SOL    HW231863   4.637   6.100   4.573
10322SOL     OW31864   0.102   1.724   0.031
10322SOL    HW131865   0.073   1.652   6.998
10322SOL    HW231866   0.066   1.812   0.002
10323SOL     OW31867   1.095   2.122   5.377
10323SOL    HW131868   1.050   2.172   5.303
10323SOL    HW231869   1.026   2.081   5.436
10324SOL     OW31870   3.444   2.979   4.001
10324SOL    HW131871   3.368   2.980   4.067
10324SOL    HW231872   3.411   3.008   3.912
10325SOL     OW31873   0.521   3.630   3.861
10325SOL    HW131874   0.479   3.588   3.941
10325SOL    HW231875   0.589   3.568   3.823
10326SOL     OW31876   6.044   2.039   1.529
10326SOL    HW131877   6.041   1.950   1.483
10326SOL    HW231878   6.136   2.054   1.567
10327SOL     OW31879   6.010   1.728   3.316
10327SOL    HW131880   6.041   1.756   3.406
10327SOL    HW231881   5.953   1.646   3.324
10328SOL     OW31882   6.404   3.947   2.655
10328SOL    HW131883   6.477   3.882   2.632
10328SOL    HW231884   6.375   3.995   2.573
10329SOL     OW31885   3.570   5.707   3.402
10329SOL    HW131886   3.488   5.722   3.457
10329SOL    HW231887   3.559   5.752   3.313
10330SOL     OW31888   3.028   3.802   0.957
10330SOL    HW131889   3.068   3.814   1.048
10330SOL    HW231890   3.095   3.757   0.897
10331SOL     OW31891   5.228   1.270   4.167
10331SOL    HW131892   5.169   1.262   4.087
10331SOL    HW231893   5.184   1.229   4.246
10332SOL     OW31894   1.343   2.116   6.311
10332SOL    HW131895   1.322   2.183   6.239
10332SOL    HW231896   1.440   2.121   6.334
10333SOL     OW31897   6.859   4.572   5.508
10333SOL    HW131898   6.890   4.478   5.498
10333SOL    HW231899   6.799   4.595   5.431
10334SOL     OW31900   0.328   5.286   5.305
10334SOL    HW131901   0.393   5.265   5.232
10334SOL    HW231902   0.240   5.312   5.264
10335SOL     OW31903   3.641   5.180   3.335
10335SOL    HW131904   3.592   5.260   3.302
10335SOL    HW231905   3.739   5.200   3.339
10336SOL     OW31906   4.810   6.872   2.914
10336SOL    HW131907   4.844   6.942   2.851
10336SOL    HW231908   4.710   6.875   2.916
10337SOL     OW31909   1.309   3.921   6.280
10337SOL    HW131910   1.352   4.010   6.265
10337SOL    HW231911   1.333   3.859   6.205
10338SOL     OW31912   2.602   4.581   2.581
10338SOL    HW131913   2.593   4.602   2.484
10338SOL    HW231914   2.632   4.663   2.630
10339SOL     OW31915   2.910   5.813   0.180
10339SOL    HW131916   2.864   5.739   0.132
10339SOL    HW231917   3.005   5.818   0.151
10340SOL     OW31918   1.711   6.598   0.735
10340SOL    HW131919   1.628   6.647   0.761
10340SOL    HW231920   1.729   6.612   0.637
10341SOL     OW31921   0.817   2.725   1.785
10341SOL    HW131922   0.883   2.676   1.843
10341SOL    HW231923   0.724   2.703   1.814
10342SOL     OW31924   3.323   5.611   4.237
10342SOL    HW131925   3.378   5.618   4.320
10342SOL    HW231926   3.227   5.625   4.260
10343SOL     OW31927   2.443   2.720   4.799
10343SOL    HW131928   2.524   2.748   4.849
10343SOL    HW231929   2.458   2.630   4.758
10344SOL     OW31930   4.567   3.633   1.522
10344SOL    HW131931   4.536   3.719   1.562
10344SOL    HW231932   4.586   3.567   1.595
10345SOL     OW31933   3.580   1.615   6.425
10345SOL    HW131934   3.606   1.711   6.435
10345SOL    HW231935   3.569   1.593   6.328
10346SOL     OW31936   6.291   5.238   0.567
10346SOL    HW131937   6.367   5.174   0.558
10346SOL    HW231938   6.307   5.317   0.507
10347SOL     OW31939   4.219   6.996   1.891
10347SOL    HW131940   4.176   0.050   1.925
10347SOL    HW231941   4.318   7.000   1.909
10348SOL     OW31942   6.754   4.325   6.046
10348SOL    HW131943   6.788   4.419   6.049
10348SOL    HW231944   6.816   4.269   5.992
10349SOL     OW31945   6.251   2.087   6.984
10349SOL    HW131946   6.284   2.062   0.046
10349SOL    HW231947   6.194   2.013   6.948
10350SOL     OW31948   1.917   4.939   4.053
10350SOL    HW131949   1.981   5.005   4.014
10350SOL    HW231950   1.846   4.988   4.105
10351SOL     OW31951   3.661   5.154   4.944
10351SOL    HW131952   3.736   5.107   4.897
10351SOL    HW231953   3.595   5.087   4.977
10352SOL     OW31954   0.117   0.919   0.951
10352SOL    HW131955   0.137   1.007   0.993
10352SOL    HW231956   0.058   0.866   1.011
10353SOL     OW31957   5.824   2.921   3.658
10353SOL    HW131958   5.731   2.899   3.629
10353SOL    HW231959   5.846   3.015   3.631
10354SOL     OW31960   6.553   3.076   1.212
10354SOL    HW131961   6.652   3.085   1.203
10354SOL    HW231962   6.523   3.121   1.297
10355SOL     OW31963   0.634   1.860   0.841
10355SOL    HW131964   0.670   1.942   0.885
10355SOL    HW231965   0.684   1.844   0.756
10356SOL     OW31966   5.700   2.488   6.902
10356SOL    HW131967   5.707   2.389   6.920
10356SOL    HW231968   5.713   2.538   6.987
10357SOL     OW31969   0.848   0.582   6.405
10357SOL    HW131970   0.944   0.590   6.431
10357SOL    HW231971   0.824   0.486   6.395
10358SOL     OW31972   0.906   2.754   3.871
10358SOL    HW131973   0.984   2.817   3.870
10358SOL    HW231974   0.849   2.771   3.791
10359SOL     OW31975   0.819   2.831   2.517
10359SOL    HW131976   0.885   2.761   2.490
10359SOL    HW231977   0.856   2.922   2.495
10360SOL     OW31978   5.874   4.251   0.956
10360SOL    HW131979   5.921   4.175   1.001
10360SOL    HW231980   5.846   4.223   0.864
10361SOL     OW31981   5.718   1.528   2.186
10361SOL    HW131982   5.721   1.588   2.267
10361SOL    HW231983   5.785   1.455   2.196
10362SOL     OW31984   0.553   6.060   1.515
10362SOL    HW131985   0.645   6.066   1.553
10362SOL    HW231986   0.556   6.014   1.426
10363SOL     OW31987   5.428   4.711   6.067
10363SOL    HW131988   5.433   4.624   6.018
10363SOL    HW231989   5.390   4.781   6.006
10364SOL     OW31990   5.648   5.204   1.916
10364SOL    HW131991   5.639   5.304   1.920
10364SOL    HW231992   5.598   5.163   1.993
10365SOL     OW31993   6.188   5.788   6.857
10365SOL    HW131994   6.196   5.691   6.879
10365SOL    HW231995   6.250   5.841   6.916
10366SOL     OW31996   3.141   6.997   3.469
10366SOL    HW131997   3.181   6.906   3.485
10366SOL    HW231998   3.046   6.997   3.500
10367SOL     OW31999   5.836   6.301   1.918
10367SOL    HW132000   5.785   6.271   1.837
10367SOL    HW232001   5.779   6.288   2.000
10368SOL     OW32002   0.977   6.553   1.706
10368SOL    HW132003   0.986   6.507   1.618
10368SOL    HW232004   1.028   6.503   1.776
10369SOL     OW32005   2.571   0.545   5.660
10369SOL    HW132006   2.543   0.535   5.755
10369SOL    HW232007   2.650   0.606   5.654
10370SOL     OW32008   1.607   1.947   5.886
10370SOL    HW132009   1.705   1.942   5.869
10370SOL    HW232010   1.590   1.940   5.984
10371SOL     OW32011   4.030   5.559   3.775
10371SOL    HW132012   3.934   5.582   3.765
10371SOL    HW232013   4.068   5.609   3.853
10372SOL     OW32014   1.992   6.496   0.359
10372SOL    HW132015   2.027   6.438   0.432
10372SOL    HW232016   1.916   6.551   0.393
10373SOL     OW32017   6.471   0.504   6.840
10373SOL    HW132018   6.432   0.485   6.750
10373SOL    HW232019   6.524   0.588   6.836
10374SOL     OW32020   2.619   4.672   3.386
10374SOL    HW132021   2.572   4.615   3.453
10374SOL    HW232022   2.653   4.755   3.430
10375SOL     OW32023   2.492   5.670   6.912
10375SOL    HW132024   2.515   5.597   6.976
10375SOL    HW232025   2.405   5.649   6.868
10376SOL     OW32026   2.342   4.766   3.922
10376SOL    HW132027   2.272   4.699   3.947
10376SOL    HW232028   2.367   4.820   4.003
10377SOL     OW32029   2.433   0.671   3.556
10377SOL    HW132030   2.437   0.598   3.489
10377SOL    HW232031   2.443   0.632   3.648
10378SOL     OW32032   0.420   6.572   5.449
10378SOL    HW132033   0.512   6.582   5.486
10378SOL    HW232034   0.415   6.615   5.359
10379SOL     OW32035   1.314   6.577   3.532
10379SOL    HW132036   1.318   6.620   3.441
10379SOL    HW232037   1.260   6.493   3.526
10380SOL     OW32038   3.101   1.199   3.776
10380SOL    HW132039   3.175   1.200   3.709
10380SOL    HW232040   3.034   1.129   3.751
10381SOL     OW32041   3.786   0.206   2.841
10381SOL    HW132042   3.710   0.166   2.790
10381SOL    HW232043   3.761   0.212   2.938
10382SOL     OW32044   4.004   5.723   1.956
10382SOL    HW132045   3.952   5.645   1.991
10382SOL    HW232046   3.985   5.804   2.012
10383SOL     OW32047   0.279   6.493   6.911
10383SOL    HW132048   0.235   6.435   6.843
10383SOL    HW232049   0.291   6.585   6.873
10384SOL     OW32050   5.077   5.432   1.083
10384SOL    HW132051   5.160   5.414   1.030
10384SOL    HW232052   5.057   5.354   1.142
10385SOL     OW32053   4.140   4.503   0.115
10385SOL    HW132054   4.205   4.565   0.070
10385SOL    HW232055   4.047   4.533   0.097
10386SOL     OW32056   0.119   0.481   2.090
10386SOL    HW132057   0.123   0.485   1.990
10386SOL    HW232058   0.212   0.485   2.128
10387SOL     OW32059   5.174   2.617   2.075
10387SOL    HW132060   5.119   2.637   2.156
10387SOL    HW232061   5.117   2.570   2.007
10388SOL     OW32062   1.297   0.470   4.768
10388SOL    HW132063   1.357   0.396   4.737
10388SOL    HW232064   1.211   0.466   4.718
10389SOL     OW32065   0.198   3.627   0.073
10389SOL    HW132066   0.138   3.698   0.111
10389SOL    HW232067   0.293   3.657   0.079
10390SOL     OW32068   2.332   1.856   1.992
10390SOL    HW132069   2.430   1.848   1.974
10390SOL    HW232070   2.293   1.925   1.931
10391SOL     OW32071   6.262   6.980   3.150
10391SOL    HW132072   6.196   6.934   3.089
10391SOL    HW232073   6.220   0.033   3.187
10392SOL     OW32074   6.649   3.757   3.987
10392SOL    HW132075   6.639   3.660   3.967
10392SOL    HW232076   6.726   3.771   4.049
10393SOL     OW32077   1.972   2.724   2.310
10393SOL    HW132078   1.964   2.653   2.379
10393SOL    HW232079   2.068   2.751   2.300
10394SOL     OW32080   3.208   6.210   3.866
10394SOL    HW132081   3.189   6.239   3.960
10394SOL    HW232082   3.159   6.125   3.846
10395SOL     OW32083   0.772   0.808   1.311
10395SOL    HW132084   0.814   0.878   1.254
10395SOL    HW232085   0.698   0.763   1.261
10396SOL     OW32086   3.333   2.240   5.334
10396SOL    HW132087   3.273   2.305   5.287
10396SOL    HW232088   3.302   2.147   5.315
10397SOL     OW32089   5.132   1.266   3.877
10397SOL    HW132090   5.132   1.366   3.878
10397SOL    HW232091   5.226   1.232   3.872
10398SOL     OW32092   5.299   1.980   2.426
10398SOL    HW132093   5.370   2.051   2.417
10398SOL    HW232094   5.300   1.923   2.344
10399SOL     OW32095   0.654   3.859   2.336
10399SOL    HW132096   0.651   3.925   2.411
10399SOL    HW232097   0.592   3.888   2.263
10400SOL     OW32098   1.933   6.494   0.891
10400SOL    HW132099   1.868   6.553   0.843
10400SOL    HW232100   1.883   6.421   0.939
10401SOL     OW32101   0.086   0.383   5.991
10401SOL    HW132102   0.159   0.316   5.982
10401SOL    HW232103   0.124   0.475   5.986
10402SOL     OW32104   6.547   4.248   4.888
10402SOL    HW132105   6.451   4.249   4.915
10402SOL    HW232106   6.558   4.303   4.805
10403SOL     OW32107   3.197   0.293   1.104
10403SOL    HW132108   3.232   0.374   1.151
10403SOL    HW232109   3.107   0.314   1.066
10404SOL     OW32110   0.210   6.346   5.736
10404SOL    HW132111   0.158   6.302   5.808
10404SOL    HW232112   0.266   6.420   5.775
10405SOL     OW32113   0.324   2.501   6.653
10405SOL    HW132114   0.258   2.479   6.725
10405SOL    HW232115   0.368   2.417   6.620
10406SOL     OW32116   1.651   5.867   1.069
10406SOL    HW132117   1.572   5.849   1.011
10406SOL    HW232118   1.734   5.839   1.021
10407SOL     OW32119   2.240   6.359   5.886
10407SOL    HW132120   2.160   6.302   5.907
10407SOL    HW232121   2.213   6.431   5.822
10408SOL     OW32122   4.866   0.780   0.266
10408SOL    HW132123   4.903   0.743   0.181
10408SOL    HW232124   4.909   0.733   0.344
10409SOL     OW32125   6.018   3.805   0.789
10409SOL    HW132126   5.996   3.710   0.810
10409SOL    HW232127   6.118   3.815   0.782
10410SOL     OW32128   4.447   0.031   0.360
10410SOL    HW132129   4.546   0.021   0.367
10410SOL    HW232130   4.424   0.073   0.272
10411SOL     OW32131   1.916   5.184   4.581
10411SOL    HW132132   1.922   5.177   4.681
10411SOL    HW232133   1.841   5.127   4.548
10412SOL     OW32134   5.090   6.707   1.197
10412SOL    HW132135   5.027   6.761   1.143
10412SOL    HW232136   5.045   6.624   1.229
10413SOL     OW32137   6.075   3.259   2.653
10413SOL    HW132138   5.978   3.280   2.650
10413SOL    HW232139   6.088   3.168   2.693
10414SOL     OW32140   5.014   2.871   4.651
10414SOL    HW132141   5.001   2.780   4.691
10414SOL    HW232142   4.933   2.896   4.598
10415SOL     OW32143   0.472   0.885   6.531
10415SOL    HW132144   0.556   0.900   6.583
10415SOL    HW232145   0.463   0.956   6.461
10416SOL     OW32146   5.342   2.777   3.637
10416SOL    HW132147   5.299   2.832   3.566
10416SOL    HW232148   5.290   2.785   3.722
10417SOL     OW32149   1.714   4.096   2.893
10417SOL    HW132150   1.739   4.117   2.987
10417SOL    HW232151   1.729   4.176   2.836
10418SOL     OW32152   1.607   5.672   5.858
10418SOL    HW132153   1.545   5.615   5.805
10418SOL    HW232154   1.578   5.672   5.954
10419SOL     OW32155   1.020   1.232   0.296
10419SOL    HW132156   1.020   1.269   0.388
10419SOL    HW232157   0.925   1.225   0.263
10420SOL     OW32158   0.110   2.665   2.785
10420SOL    HW132159   0.154   2.719   2.713
10420SOL    HW232160   0.180   2.613   2.834
10421SOL     OW32161   0.278   1.814   3.130
10421SOL    HW132162   0.265   1.750   3.206
10421SOL    HW232163   0.292   1.763   3.045
10422SOL     OW32164   5.394   3.670   6.056
10422SOL    HW132165   5.435   3.581   6.034
10422SOL    HW232166   5.411   3.691   6.152
10423SOL     OW32167   4.815   4.526   2.731
10423SOL    HW132168   4.806   4.431   2.700
10423SOL    HW232169   4.780   4.533   2.824
10424SOL     OW32170   4.971   1.223   6.306
10424SOL    HW132171   4.989   1.319   6.282
10424SOL    HW232172   4.923   1.178   6.230
10425SOL     OW32173   1.913   6.868   1.691
10425SOL    HW132174   1.889   6.827   1.779
10425SOL    HW232175   1.926   6.967   1.702
10426SOL     OW32176   5.960   4.031   0.487
10426SOL    HW132177   6.047   4.036   0.535
10426SOL    HW232178   5.977   4.013   0.390
10427SOL     OW32179   4.802   0.844   1.021
10427SOL    HW132180   4.727   0.782   0.995
10427SOL    HW232181   4.841   0.814   1.107
10428SOL     OW32182   4.377   0.863   3.631
10428SOL    HW132183   4.285   0.898   3.648
10428SOL    HW232184   4.444   0.923   3.674
10429SOL     OW32185   5.982   5.882   1.864
10429SOL    HW132186   6.044   5.849   1.793
10429SOL    HW232187   5.903   5.820   1.871
10430SOL     OW32188   4.239   6.175   3.268
10430SOL    HW132189   4.322   6.162   3.215
10430SOL    HW232190   4.167   6.212   3.209
10431SOL     OW32191   2.404   1.414   4.994
10431SOL    HW132192   2.404   1.391   4.897
10431SOL    HW232193   2.310   1.433   5.023
10432SOL     OW32194   4.867   0.889   4.916
10432SOL    HW132195   4.853   0.909   4.819
10432SOL    HW232196   4.884   0.974   4.965
10433SOL     OW32197   2.932   6.781   0.890
10433SOL    HW132198   3.022   6.783   0.847
10433SOL    HW232199   2.939   6.739   0.980
10434SOL     OW32200   2.638   2.041   4.857
10434SOL    HW132201   2.702   1.972   4.822
10434SOL    HW232202   2.685   2.099   4.924
10435SOL     OW32203   5.495   5.235   6.608
10435SOL    HW132204   5.466   5.311   6.665
10435SOL    HW232205   5.420   5.209   6.547
10436SOL     OW32206   1.136   0.579   2.534
10436SOL    HW132207   1.092   0.544   2.617
10436SOL    HW232208   1.201   0.511   2.501
10437SOL     OW32209   0.332   4.262   5.963
10437SOL    HW132210   0.368   4.292   5.874
10437SOL    HW232211   0.234   4.277   5.965
10438SOL     OW32212   3.630   0.099   5.729
10438SOL    HW132213   3.694   0.056   5.793
10438SOL    HW232214   3.537   0.092   5.764
10439SOL     OW32215   3.803   1.250   5.448
10439SOL    HW132216   3.855   1.329   5.481
10439SOL    HW232217   3.848   1.166   5.479
10440SOL     OW32218   1.776   5.896   0.723
10440SOL    HW132219   1.739   5.972   0.778
10440SOL    HW232220   1.799   5.929   0.632
10441SOL     OW32221   4.050   6.976   0.627
10441SOL    HW132222   4.127   7.019   0.580
10441SOL    HW232223   4.008   0.012   0.690
10442SOL     OW32224   4.522   6.004   5.467
10442SOL    HW132225   4.556   5.997   5.374
10442SOL    HW232226   4.443   5.944   5.478
10443SOL     OW32227   6.238   2.817   4.815
10443SOL    HW132228   6.266   2.911   4.833
10443SOL    HW232229   6.274   2.788   4.726
10444SOL     OW32230   3.492   4.974   4.688
10444SOL    HW132231   3.506   4.917   4.769
10444SOL    HW232232   3.464   5.066   4.715
10445SOL     OW32233   6.424   5.993   2.583
10445SOL    HW132234   6.329   6.017   2.602
10445SOL    HW232235   6.439   5.897   2.607
10446SOL     OW32236   0.928   6.233   6.682
10446SOL    HW132237   0.900   6.269   6.593
10446SOL    HW232238   0.856   6.172   6.717
10447SOL     OW32239   5.689   1.637   0.655
10447SOL    HW132240   5.695   1.555   0.712
10447SOL    HW232241   5.604   1.685   0.674
10448SOL     OW32242   3.401   3.763   2.204
10448SOL    HW132243   3.490   3.767   2.158
10448SOL    HW232244   3.372   3.856   2.226
10449SOL     OW32245   1.556   5.637   4.812
10449SOL    HW132246   1.550   5.630   4.713
10449SOL    HW232247   1.649   5.662   4.838
10450SOL     OW32248   6.855   3.202   0.953
10450SOL    HW132249   6.776   3.260   0.973
10450SOL    HW232250   6.833   3.107   0.975
10451SOL     OW32251   2.326   4.234   2.379
10451SOL    HW132252   2.291   4.266   2.291
10451SOL    HW232253   2.373   4.309   2.426
10452SOL     OW32254   1.302   2.955   5.256
10452SOL    HW132255   1.363   2.878   5.274
10452SOL    HW232256   1.251   2.977   5.339
10453SOL     OW32257   4.844   0.776   1.355
10453SOL    HW132258   4.803   0.776   1.446
10453SOL    HW232259   4.789   0.720   1.293
10454SOL     OW32260   5.208   3.824   2.180
10454SOL    HW132261   5.162   3.912   2.171
10454SOL    HW232262   5.142   3.754   2.206
10455SOL     OW32263   0.466   4.775   2.690
10455SOL    HW132264   0.492   4.679   2.679
10455SOL    HW232265   0.527   4.833   2.637
10456SOL     OW32266   3.628   6.063   1.584
10456SOL    HW132267   3.606   6.047   1.488
10456SOL    HW232268   3.609   5.981   1.638
10457SOL     OW32269   3.640   3.506   3.614
10457SOL    HW132270   3.615   3.420   3.570
10457SOL    HW232271   3.637   3.580   3.548
10458SOL     OW32272   7.019   6.381   2.061
10458SOL    HW132273   6.955   6.453   2.034
10458SOL    HW232274   6.970   6.308   2.108
10459SOL     OW32275   7.010   5.200   2.035
10459SOL    HW132276   6.924   5.173   2.079
10459SOL    HW232277   7.009   5.172   1.939
10460SOL     OW32278   1.655   4.346   1.896
10460SOL    HW132279   1.588   4.385   1.959
10460SOL    HW232280   1.645   4.388   1.806
10461SOL     OW32281   3.176   1.110   6.288
10461SOL    HW132282   3.112   1.082   6.217
10461SOL    HW232283   3.232   1.187   6.255
10462SOL     OW32284   5.317   6.551   1.176
10462SOL    HW132285   5.226   6.594   1.174
10462SOL    HW232286   5.338   6.512   1.086
10463SOL     OW32287   3.197   3.404   1.454
10463SOL    HW132288   3.238   3.494   1.436
10463SOL    HW232289   3.223   3.341   1.381
10464SOL     OW32290   5.539   6.471   1.546
10464SOL    HW132291   5.583   6.548   1.500
10464SOL    HW232292   5.440   6.481   1.540
10465SOL     OW32293   6.969   5.214   4.774
10465SOL    HW132294   6.871   5.230   4.760
10465SOL    HW232295   6.992   5.121   4.744
10466SOL     OW32296   5.310   6.233   5.976
10466SOL    HW132297   5.324   6.210   5.880
10466SOL    HW232298   5.238   6.175   6.014
10467SOL     OW32299   4.844   1.187   3.856
10467SOL    HW132300   4.942   1.207   3.854
10467SOL    HW232301   4.793   1.272   3.847
10468SOL     OW32302   2.866   5.172   3.650
10468SOL    HW132303   2.825   5.233   3.718
10468SOL    HW232304   2.965   5.166   3.667
10469SOL     OW32305   1.096   5.266   6.702
10469SOL    HW132306   0.996   5.268   6.706
10469SOL    HW232307   1.126   5.189   6.646
10470SOL     OW32308   2.655   1.694   4.332
10470SOL    HW132309   2.687   1.632   4.260
10470SOL    HW232310   2.732   1.724   4.387
10471SOL     OW32311   4.304   4.130   0.378
10471SOL    HW132312   4.333   4.123   0.474
10471SOL    HW232313   4.368   4.081   0.320
10472SOL     OW32314   4.166   1.368   3.744
10472SOL    HW132315   4.105   1.444   3.722
10472SOL    HW232316   4.150   1.292   3.681
10473SOL     OW32317   4.580   5.269   6.825
10473SOL    HW132318   4.504   5.223   6.870
10473SOL    HW232319   4.629   5.326   6.891
10474SOL     OW32320   5.153   1.454   3.525
10474SOL    HW132321   5.228   1.394   3.554
10474SOL    HW232322   5.066   1.417   3.558
10475SOL     OW32323   4.824   6.289   1.892
10475SOL    HW132324   4.726   6.269   1.884
10475SOL    HW232325   4.844   6.374   1.844
10476SOL     OW32326   0.382   4.999   6.846
10476SOL    HW132327   0.448   4.951   6.788
10476SOL    HW232328   0.405   4.984   6.942
10477SOL     OW32329   4.684   4.410   5.091
10477SOL    HW132330   4.635   4.324   5.104
10477SOL    HW232331   4.773   4.404   5.138
10478SOL     OW32332   0.317   6.378   2.896
10478SOL    HW132333   0.374   6.456   2.919
10478SOL    HW232334   0.276   6.392   2.806
10479SOL     OW32335   1.030   4.643   1.842
10479SOL    HW132336   1.057   4.554   1.878
10479SOL    HW232337   0.934   4.661   1.867
10480SOL     OW32338   5.424   0.861   1.250
10480SOL    HW132339   5.429   0.761   1.253
10480SOL    HW232340   5.345   0.891   1.303
10481SOL     OW32341   2.661   1.028   4.342
10481SOL    HW132342   2.746   1.074   4.371
10481SOL    HW232343   2.583   1.085   4.367
10482SOL     OW32344   0.773   6.065   6.324
10482SOL    HW132345   0.815   6.003   6.257
10482SOL    HW232346   0.681   6.089   6.293
10483SOL     OW32347   6.451   5.523   0.761
10483SOL    HW132348   6.361   5.560   0.784
10483SOL    HW232349   6.470   5.444   0.819
10484SOL     OW32350   6.576   2.110   1.610
10484SOL    HW132351   6.516   2.120   1.689
10484SOL    HW232352   6.669   2.091   1.641
10485SOL     OW32353   3.299   4.102   4.318
10485SOL    HW132354   3.380   4.060   4.276
10485SOL    HW232355   3.292   4.197   4.288
10486SOL     OW32356   6.273   5.209   5.821
10486SOL    HW132357   6.180   5.173   5.821
10486SOL    HW232358   6.272   5.306   5.797
10487SOL     OW32359   5.380   2.880   2.883
10487SOL    HW132360   5.468   2.843   2.915
10487SOL    HW232361   5.385   2.980   2.883
10488SOL     OW32362   0.380   2.221   4.881
10488SOL    HW132363   0.316   2.177   4.944
10488SOL    HW232364   0.350   2.205   4.787
10489SOL     OW32365   5.826   4.423   3.417
10489SOL    HW132366   5.805   4.478   3.498
10489SOL    HW232367   5.866   4.336   3.447
10490SOL     OW32368   5.519   6.402   6.672
10490SOL    HW132369   5.484   6.354   6.752
10490SOL    HW232370   5.610   6.440   6.692
10491SOL     OW32371   2.085   3.124   5.766
10491SOL    HW132372   2.073   3.222   5.750
10491SOL    HW232373   1.996   3.082   5.782
10492SOL     OW32374   2.653   6.229   0.578
10492SOL    HW132375   2.575   6.232   0.640
10492SOL    HW232376   2.672   6.321   0.543
10493SOL     OW32377   3.781   5.472   0.856
10493SOL    HW132378   3.879   5.478   0.833
10493SOL    HW232379   3.770   5.472   0.955
10494SOL     OW32380   0.247   4.598   4.208
10494SOL    HW132381   0.175   4.664   4.225
10494SOL    HW232382   0.261   4.589   4.109
10495SOL     OW32383   0.021   0.100   0.747
10495SOL    HW132384   0.055   0.192   0.729
10495SOL    HW232385   6.956   0.104   0.775
10496SOL     OW32386   0.648   4.882   6.165
10496SOL    HW132387   0.556   4.917   6.185
10496SOL    HW232388   0.643   4.814   6.093
10497SOL     OW32389   3.119   6.534   1.584
10497SOL    HW132390   3.131   6.580   1.672
10497SOL    HW232391   3.180   6.574   1.516
10498SOL     OW32392   3.852   3.383   6.777
10498SOL    HW132393   3.818   3.462   6.726
10498SOL    HW232394   3.934   3.408   6.828
10499SOL     OW32395   4.258   4.667   2.696
10499SOL    HW132396   4.166   4.660   2.658
10499SOL    HW232397   4.309   4.584   2.675
10500SOL     OW32398   1.667   3.147   4.927
10500SOL    HW132399   1.766   3.141   4.912
10500SOL    HW232400   1.632   3.229   4.881
10501SOL     OW32401   3.937   4.872   3.475
10501SOL    HW132402   3.983   4.958   3.496
10501SOL    HW232403   3.841   4.889   3.452
10502SOL     OW32404   2.935   3.612   2.648
10502SOL    HW132405   2.997   3.645   2.576
10502SOL    HW232406   2.844   3.651   2.633
10503SOL     OW32407   6.716   1.178   0.169
10503SOL    HW132408   6.799   1.140   0.128
10503SOL    HW232409   6.696   1.132   0.256
10504SOL     OW32410   1.608   3.935   5.545
10504SOL    HW132411   1.555   3.988   5.611
10504SOL    HW232412   1.546   3.893   5.479
10505SOL     OW32413   6.310   6.593   0.942
10505SOL    HW132414   6.238   6.530   0.912
10505SOL    HW232415   6.344   6.644   0.863
10506SOL     OW32416   1.481   4.534   5.658
10506SOL    HW132417   1.428   4.618   5.642
10506SOL    HW232418   1.557   4.530   5.594
10507SOL     OW32419   1.326   6.202   5.715
10507SOL    HW132420   1.272   6.245   5.642
10507SOL    HW232421   1.266   6.152   5.777
10508SOL     OW32422   1.752   6.310   0.715
10508SOL    HW132423   1.762   6.408   0.731
10508SOL    HW232424   1.736   6.293   0.617
10509SOL     OW32425   4.786   2.971   2.777
10509SOL    HW132426   4.861   3.033   2.799
10509SOL    HW232427   4.792   2.890   2.835
10510SOL     OW32428   5.411   5.953   3.144
10510SOL    HW132429   5.393   5.863   3.103
10510SOL    HW232430   5.326   6.005   3.149
10511SOL     OW32431   4.216   1.563   1.069
10511SOL    HW132432   4.144   1.627   1.043
10511SOL    HW232433   4.193   1.471   1.036
10512SOL     OW32434   4.147   1.532   5.835
10512SOL    HW132435   4.171   1.488   5.922
10512SOL    HW232436   4.228   1.577   5.797
10513SOL     OW32437   3.167   3.634   0.777
10513SOL    HW132438   3.248   3.580   0.755
10513SOL    HW232439   3.086   3.576   0.775
10514SOL     OW32440   1.400   5.684   1.537
10514SOL    HW132441   1.383   5.776   1.573
10514SOL    HW232442   1.314   5.640   1.515
10515SOL     OW32443   2.096   3.637   4.883
10515SOL    HW132444   2.130   3.545   4.902
10515SOL    HW232445   2.119   3.661   4.788
10516SOL     OW32446   5.490   1.491   1.808
10516SOL    HW132447   5.434   1.432   1.867
10516SOL    HW232448   5.572   1.441   1.780
10517SOL     OW32449   0.867   1.920   2.191
10517SOL    HW132450   0.885   1.827   2.223
10517SOL    HW232451   0.791   1.918   2.126
10518SOL     OW32452   0.585   6.470   2.216
10518SOL    HW132453   0.550   6.379   2.239
10518SOL    HW232454   0.513   6.524   2.173
10519SOL     OW32455   2.898   6.656   1.123
10519SOL    HW132456   2.926   6.561   1.110
10519SOL    HW232457   2.804   6.659   1.159
10520SOL     OW32458   1.850   2.445   6.250
10520SOL    HW132459   1.876   2.509   6.178
10520SOL    HW232460   1.931   2.394   6.280
10521SOL     OW32461   6.398   2.197   3.030
10521SOL    HW132462   6.309   2.240   3.015
10521SOL    HW232463   6.411   2.179   3.127
10522SOL     OW32464   5.346   1.516   3.838
10522SOL    HW132465   5.255   1.557   3.834
10522SOL    HW232466   5.398   1.542   3.757
10523SOL     OW32467   0.487   3.919   1.880
10523SOL    HW132468   0.567   3.899   1.822
10523SOL    HW232469   0.430   3.987   1.835
10524SOL     OW32470   6.549   5.996   5.074
10524SOL    HW132471   6.467   6.030   5.029
10524SOL    HW232472   6.588   5.921   5.022
10525SOL     OW32473   4.500   1.067   3.784
10525SOL    HW132474   4.529   1.108   3.698
10525SOL    HW232475   4.580   1.039   3.837
10526SOL     OW32476   0.942   6.101   5.969
10526SOL    HW132477   0.888   6.082   5.887
10526SOL    HW232478   0.909   6.044   6.044
10527SOL     OW32479   7.000   6.391   5.567
10527SOL    HW132480   0.014   6.347   5.645
10527SOL    HW232481   6.906   6.359   5.559
10528SOL     OW32482   1.790   5.205   5.336
10528SOL    HW132483   1.754   5.244   5.251
10528SOL    HW232484   1.801   5.278   5.404
10529SOL     OW32485   0.243   5.017   0.401
10529SOL    HW132486   0.223   4.919   0.403
10529SOL    HW232487   0.323   5.036   0.457
10530SOL     OW32488   6.817   0.520   0.864
10530SOL    HW132489   6.879   0.573   0.806
10530SOL    HW232490   6.854   0.428   0.875
10531SOL     OW32491   3.466   2.360   6.418
10531SOL    HW132492   3.437   2.431   6.354
10531SOL    HW232493   3.388   2.330   6.472
10532SOL     OW32494   4.585   6.038   5.748
10532SOL    HW132495   4.554   6.001   5.660
10532SOL    HW232496   4.680   6.068   5.740
10533SOL     OW32497   4.071   6.631   3.541
10533SOL    HW132498   4.112   6.628   3.449
10533SOL    HW232499   3.994   6.567   3.546
10534SOL     OW32500   1.325   6.737   3.752
10534SOL    HW132501   1.324   6.692   3.842
10534SOL    HW232502   1.334   6.667   3.681
10535SOL     OW32503   4.057   1.856   2.768
10535SOL    HW132504   3.981   1.830   2.709
10535SOL    HW232505   4.104   1.773   2.800
10536SOL     OW32506   6.055   3.699   4.435
10536SOL    HW132507   6.142   3.688   4.387
10536SOL    HW232508   5.999   3.617   4.421
10537SOL     OW32509   3.888   1.133   3.246
10537SOL    HW132510   3.878   1.083   3.159
10537SOL    HW232511   3.975   1.181   3.247
10538SOL     OW32512   6.450   2.519   3.763
10538SOL    HW132513   6.433   2.607   3.718
10538SOL    HW232514   6.511   2.463   3.706
10539SOL     OW32515   6.753   6.636   2.983
10539SOL    HW132516   6.671   6.693   2.975
10539SOL    HW232517   6.753   6.591   3.072
10540SOL     OW32518   1.837   3.852   6.906
10540SOL    HW132519   1.880   3.762   6.906
10540SOL    HW232520   1.776   3.859   6.985
10541SOL     OW32521   3.411   2.564   5.642
10541SOL    HW132522   3.507   2.582   5.663
10541SOL    HW232523   3.382   2.480   5.688
10542SOL     OW32524   4.305   6.266   2.441
10542SOL    HW132525   4.310   6.203   2.363
10542SOL    HW232526   4.297   6.213   2.526
10543SOL     OW32527   2.144   2.508   4.180
10543SOL    HW132528   2.147   2.428   4.240
10543SOL    HW232529   2.172   2.589   4.232
10544SOL     OW32530   2.810   1.813   2.423
10544SOL    HW132531   2.754   1.811   2.506
10544SOL    HW232532   2.814   1.720   2.384
10545SOL     OW32533   1.719   3.352   1.878
10545SOL    HW132534   1.787   3.283   1.900
10545SOL    HW232535   1.754   3.412   1.806
10546SOL     OW32536   2.569   0.113   5.231
10546SOL    HW132537   2.503   0.176   5.272
10546SOL    HW232538   2.553   0.106   5.133
10547SOL     OW32539   3.645   6.247   6.055
10547SOL    HW132540   3.691   6.210   6.136
10547SOL    HW232541   3.652   6.347   6.055
10548SOL     OW32542   0.814   5.954   3.143
10548SOL    HW132543   0.837   5.986   3.235
10548SOL    HW232544   0.888   5.978   3.081
10549SOL     OW32545   6.647   0.743   2.756
10549SOL    HW132546   6.594   0.814   2.710
10549SOL    HW232547   6.586   0.685   2.810
10550SOL     OW32548   5.430   6.238   3.027
10550SOL    HW132549   5.391   6.193   3.108
10550SOL    HW232550   5.530   6.232   3.032
10551SOL     OW32551   4.154   0.774   4.691
10551SOL    HW132552   4.130   0.790   4.786
10551SOL    HW232553   4.147   0.677   4.670
10552SOL     OW32554   2.684   6.354   3.576
10552SOL    HW132555   2.609   6.290   3.566
10552SOL    HW232556   2.757   6.312   3.629
10553SOL     OW32557   5.317   5.644   1.413
10553SOL    HW132558   5.377   5.653   1.492
10553SOL    HW232559   5.275   5.553   1.413
10554SOL     OW32560   6.151   6.105   1.926
10554SOL    HW132561   6.076   6.059   1.879
10554SOL    HW232562   6.117   6.189   1.969
10555SOL     OW32563   3.460   3.193   1.587
10555SOL    HW132564   3.402   3.115   1.564
10555SOL    HW232565   3.451   3.214   1.685
10556SOL     OW32566   2.687   2.107   1.982
10556SOL    HW132567   2.702   2.101   1.883
10556SOL    HW232568   2.740   2.183   2.019
10557SOL     OW32569   1.108   4.281   3.026
10557SOL    HW132570   1.088   4.228   2.944
10557SOL    HW232571   1.203   4.265   3.054
10558SOL     OW32572   4.250   4.750   4.553
10558SOL    HW132573   4.162   4.748   4.505
10558SOL    HW232574   4.245   4.814   4.630
10559SOL     OW32575   3.335   5.867   1.339
10559SOL    HW132576   3.264   5.874   1.269
10559SOL    HW232577   3.295   5.833   1.424
10560SOL     OW32578   5.868   6.975   3.535
10560SOL    HW132579   5.834   7.017   3.451
10560SOL    HW232580   5.908   0.015   3.594
10561SOL     OW32581   1.065   5.337   6.151
10561SOL    HW132582   1.144   5.291   6.190
10561SOL    HW232583   1.009   5.271   6.102
10562SOL     OW32584   3.894   6.180   2.289
10562SOL    HW132585   3.944   6.236   2.224
10562SOL    HW232586   3.842   6.110   2.241
10563SOL     OW32587   1.604   6.173   2.211
10563SOL    HW132588   1.620   6.194   2.308
10563SOL    HW232589   1.588   6.258   2.161
10564SOL     OW32590   5.394   4.559   3.352
10564SOL    HW132591   5.303   4.566   3.312
10564SOL    HW232592   5.407   4.633   3.418
10565SOL     OW32593   0.426   1.388   4.876
10565SOL    HW132594   0.375   1.384   4.962
10565SOL    HW232595   0.523   1.403   4.895
10566SOL     OW32596   3.812   2.119   1.137
10566SOL    HW132597   3.774   2.114   1.229
10566SOL    HW232598   3.774   2.045   1.082
10567SOL     OW32599   2.269   2.821   6.565
10567SOL    HW132600   2.171   2.800   6.563
10567SOL    HW232601   2.317   2.752   6.620
10568SOL     OW32602   5.107   2.168   5.790
10568SOL    HW132603   5.179   2.194   5.854
10568SOL    HW232604   5.145   2.108   5.719
10569SOL     OW32605   5.259   0.305   1.141
10569SOL    HW132606   5.198   0.226   1.148
10569SOL    HW232607   5.320   0.293   1.063
10570SOL     OW32608   1.406   3.822   3.375
10570SOL    HW132609   1.345   3.785   3.304
10570SOL    HW232610   1.383   3.918   3.392
10571SOL     OW32611   0.217   3.768   5.968
10571SOL    HW132612   0.301   3.791   5.918
10571SOL    HW232613   0.222   3.803   6.061
10572SOL     OW32614   6.193   4.109   0.874
10572SOL    HW132615   6.108   4.107   0.927
10572SOL    HW232616   6.173   4.092   0.778
10573SOL     OW32617   6.799   2.103   3.438
10573SOL    HW132618   6.761   2.116   3.347
10573SOL    HW232619   6.785   2.008   3.466
10574SOL     OW32620   5.709   2.173   2.684
10574SOL    HW132621   5.741   2.216   2.768
10574SOL    HW232622   5.740   2.078   2.681
10575SOL     OW32623   5.537   6.783   2.871
10575SOL    HW132624   5.469   6.834   2.818
10575SOL    HW232625   5.516   6.686   2.869
10576SOL     OW32626   1.450   3.196   5.213
10576SOL    HW132627   1.360   3.187   5.172
10576SOL    HW232628   1.500   3.110   5.203
10577SOL     OW32629   3.668   4.542   0.128
10577SOL    HW132630   3.658   4.505   0.221
10577SOL    HW232631   3.634   4.474   0.062
10578SOL     OW32632   1.146   3.456   2.675
10578SOL    HW132633   1.235   3.421   2.645
10578SOL    HW232634   1.125   3.541   2.626
10579SOL     OW32635   0.008   3.234   6.817
10579SOL    HW132636   0.105   3.216   6.834
10579SOL    HW232637   7.012   3.193   6.730
10580SOL     OW32638   5.464   6.240   6.892
10580SOL    HW132639   5.372   6.201   6.885
10580SOL    HW232640   5.531   6.166   6.896
10581SOL     OW32641   4.734   0.848   3.316
10581SOL    HW132642   4.706   0.938   3.281
10581SOL    HW232643   4.667   0.816   3.383
10582SOL     OW32644   6.667   3.315   6.902
10582SOL    HW132645   6.611   3.330   6.984
10582SOL    HW232646   6.762   3.300   6.930
10583SOL     OW32647   4.257   2.106   5.523
10583SOL    HW132648   4.243   2.054   5.439
10583SOL    HW232649   4.345   2.153   5.519
10584SOL     OW32650   0.210   0.771   3.818
10584SOL    HW132651   0.281   0.769   3.748
10584SOL    HW232652   0.235   0.711   3.893
10585SOL     OW32653   1.489   1.040   5.605
10585SOL    HW132654   1.405   1.053   5.552
10585SOL    HW232655   1.562   1.010   5.544
10586SOL     OW32656   4.262   3.911   5.631
10586SOL    HW132657   4.208   3.828   5.645
10586SOL    HW232658   4.340   3.911   5.693
10587SOL     OW32659   1.993   5.098   4.851
10587SOL    HW132660   2.083   5.056   4.841
10587SOL    HW232661   1.938   5.044   4.915
10588SOL     OW32662   1.235   3.855   4.061
10588SOL    HW132663   1.285   3.939   4.085
10588SOL    HW232664   1.297   3.792   4.014
10589SOL     OW32665   6.373   0.079   3.479
10589SOL    HW132666   6.344   7.015   3.461
10589SOL    HW232667   6.383   0.093   3.577
10590SOL     OW32668   0.877   5.738   2.273
10590SOL    HW132669   0.961   5.793   2.276
10590SOL    HW232670   0.798   5.798   2.281
10591SOL     OW32671   6.781   4.507   2.410
10591SOL    HW132672   6.813   4.435   2.349
10591SOL    HW232673   6.802   4.481   2.505
10592SOL     OW32674   0.126   2.645   4.595
10592SOL    HW132675   0.077   2.694   4.667
10592SOL    HW232676   0.070   2.643   4.512
10593SOL     OW32677   3.534   5.807   3.748
10593SOL    HW132678   3.550   5.802   3.847
10593SOL    HW232679   3.598   5.873   3.708
10594SOL     OW32680   3.431   5.980   4.102
10594SOL    HW132681   3.334   5.989   4.127
10594SOL    HW232682   3.457   6.055   4.041
10595SOL     OW32683   4.903   6.596   0.915
10595SOL    HW132684   4.833   6.568   0.850
10595SOL    HW232685   4.900   6.537   0.996
10596SOL     OW32686   5.361   3.867   0.325
10596SOL    HW132687   5.452   3.899   0.299
10596SOL    HW232688   5.358   3.854   0.424
10597SOL     OW32689   1.703   6.783   4.994
10597SOL    HW132690   1.672   6.688   4.993
10597SOL    HW232691   1.748   6.804   4.907
10598SOL     OW32692   3.383   1.022   0.694
10598SOL    HW132693   3.380   0.964   0.612
10598SOL    HW232694   3.477   1.053   0.708
10599SOL     OW32695   0.793   2.460   0.820
10599SOL    HW132696   0.848   2.421   0.746
10599SOL    HW232697   0.699   2.474   0.787
10600SOL     OW32698   4.411   0.982   1.827
10600SOL    HW132699   4.377   0.920   1.898
10600SOL    HW232700   4.467   0.931   1.762
10601SOL     OW32701   1.924   1.346   4.950
10601SOL    HW132702   1.898   1.360   4.855
10601SOL    HW232703   1.887   1.258   4.981
10602SOL     OW32704   6.521   6.593   1.507
10602SOL    HW132705   6.537   6.526   1.434
10602SOL    HW232706   6.470   6.549   1.581
10603SOL     OW32707   6.004   0.857   2.993
10603SOL    HW132708   5.929   0.804   2.953
10603SOL    HW232709   6.027   0.933   2.932
10604SOL     OW32710   5.311   2.004   5.193
10604SOL    HW132711   5.364   2.072   5.143
10604SOL    HW232712   5.371   1.955   5.256
10605SOL     OW32713   3.846   2.034   1.572
10605SOL    HW132714   3.843   1.941   1.608
10605SOL    HW232715   3.787   2.093   1.627
10606SOL     OW32716   6.412   1.747   0.379
10606SOL    HW132717   6.371   1.702   0.300
10606SOL    HW232718   6.421   1.681   0.454
10607SOL     OW32719   2.911   4.831   1.005
10607SOL    HW132720   2.942   4.742   1.040
10607SOL    HW232721   2.816   4.823   0.974
10608SOL     OW32722   5.637   3.932   2.868
10608SOL    HW132723   5.629   4.015   2.813
10608SOL    HW232724   5.647   3.957   2.965
10609SOL     OW32725   6.219   6.658   6.525
10609SOL    HW132726   6.132   6.649   6.572
10609SOL    HW232727   6.204   6.651   6.426
10610SOL     OW32728   0.654   1.388   2.955
10610SOL    HW132729   0.663   1.465   2.891
10610SOL    HW232730   0.605   1.313   2.910
10611SOL     OW32731   4.396   5.004   5.119
10611SOL    HW132732   4.331   5.079   5.104
10611SOL    HW232733   4.408   4.953   5.035
10612SOL     OW32734   6.301   2.719   3.578
10612SOL    HW132735   6.227   2.752   3.637
10612SOL    HW232736   6.266   2.650   3.515
10613SOL     OW32737   4.939   5.680   5.212
10613SOL    HW132738   4.959   5.659   5.116
10613SOL    HW232739   4.929   5.595   5.264
10614SOL     OW32740   3.956   2.391   6.736
10614SOL    HW132741   4.050   2.356   6.745
10614SOL    HW232742   3.937   2.453   6.812
10615SOL     OW32743   2.815   2.577   5.365
10615SOL    HW132744   2.901   2.628   5.374
10615SOL    HW232745   2.739   2.640   5.358
10616SOL     OW32746   1.468   6.065   0.166
10616SOL    HW132747   1.478   5.976   0.120
10616SOL    HW232748   1.511   6.060   0.256
10617SOL     OW32749   1.379   2.889   0.607
10617SOL    HW132750   1.313   2.963   0.601
10617SOL    HW232751   1.357   2.819   0.539
10618SOL     OW32752   0.503   5.206   4.414
10618SOL    HW132753   0.537   5.112   4.413
10618SOL    HW232754   0.542   5.256   4.338
10619SOL     OW32755   1.204   3.161   1.150
10619SOL    HW132756   1.142   3.097   1.195
10619SOL    HW232757   1.267   3.111   1.090
10620SOL     OW32758   3.601   0.836   5.653
10620SOL    HW132759   3.523   0.884   5.613
10620SOL    HW232760   3.592   0.836   5.753
10621SOL     OW32761   0.524   3.904   3.848
10621SOL    HW132762   0.543   3.806   3.842
10621SOL    HW232763   0.426   3.919   3.842
10622SOL     OW32764   4.077   2.277   6.064
10622SOL    HW132765   4.122   2.265   5.975
10622SOL    HW232766   4.117   2.357   6.110
10623SOL     OW32767   5.313   5.348   5.667
10623SOL    HW132768   5.280   5.399   5.746
10623SOL    HW232769   5.395   5.392   5.631
10624SOL     OW32770   0.440   1.986   6.454
10624SOL    HW132771   0.432   2.053   6.527
10624SOL    HW232772   0.388   1.904   6.478
10625SOL     OW32773   5.997   5.678   0.460
10625SOL    HW132774   5.917   5.701   0.515
10625SOL    HW232775   6.023   5.757   0.404
10626SOL     OW32776   5.909   3.080   2.331
10626SOL    HW132777   5.903   3.065   2.430
10626SOL    HW232778   5.834   3.138   2.301
10627SOL     OW32779   5.847   4.760   5.328
10627SOL    HW132780   5.802   4.675   5.353
10627SOL    HW232781   5.879   4.807   5.410
10628SOL     OW32782   2.672   5.883   0.806
10628SOL    HW132783   2.734   5.814   0.768
10628SOL    HW232784   2.635   5.939   0.732
10629SOL     OW32785   4.486   5.145   4.073
10629SOL    HW132786   4.496   5.074   4.143
10629SOL    HW232787   4.430   5.111   3.998
10630SOL     OW32788   3.970   0.603   1.369
10630SOL    HW132789   4.064   0.575   1.350
10630SOL    HW232790   3.966   0.702   1.377
10631SOL     OW32791   3.631   5.668   1.856
10631SOL    HW132792   3.647   5.652   1.954
10631SOL    HW232793   3.571   5.598   1.820
10632SOL     OW32794   5.649   7.001   3.966
10632SOL    HW132795   5.704   6.945   3.904
10632SOL    HW232796   5.698   0.056   3.986
10633SOL     OW32797   2.593   3.143   0.172
10633SOL    HW132798   2.518   3.164   0.110
10633SOL    HW232799   2.664   3.093   0.122
10634SOL     OW32800   1.181   4.632   0.048
10634SOL    HW132801   1.193   4.692   0.127
10634SOL    HW232802   1.260   4.571   0.040
10635SOL     OW32803   3.365   5.076   6.497
10635SOL    HW132804   3.405   5.168   6.505
10635SOL    HW232805   3.432   5.013   6.458
10636SOL     OW32806   6.067   3.017   0.527
10636SOL    HW132807   6.134   2.984   0.593
10636SOL    HW232808   6.035   2.941   0.471
10637SOL     OW32809   3.008   1.048   6.056
10637SOL    HW132810   2.960   1.116   6.001
10637SOL    HW232811   2.948   0.970   6.073
10638SOL     OW32812   4.944   5.095   0.518
10638SOL    HW132813   5.014   5.024   0.505
10638SOL    HW232814   4.892   5.106   0.434
10639SOL     OW32815   6.225   5.050   0.287
10639SOL    HW132816   6.169   5.041   0.369
10639SOL    HW232817   6.227   5.146   0.259
10640SOL     OW32818   3.910   6.507   4.336
10640SOL    HW132819   4.009   6.519   4.345
10640SOL    HW232820   3.874   6.461   4.417
10641SOL     OW32821   1.152   1.311   3.225
10641SOL    HW132822   1.087   1.330   3.152
10641SOL    HW232823   1.235   1.365   3.211
10642SOL     OW32824   0.148   2.217   6.157
10642SOL    HW132825   0.177   2.196   6.251
10642SOL    HW232826   0.136   2.132   6.106
10643SOL     OW32827   2.929   5.450   5.714
10643SOL    HW132828   2.949   5.412   5.804
10643SOL    HW232829   3.006   5.432   5.652
10644SOL     OW32830   0.040   3.571   2.929
10644SOL    HW132831   7.020   3.528   3.004
10644SOL    HW232832   7.018   3.649   2.894
10645SOL     OW32833   2.328   2.764   3.104
10645SOL    HW132834   2.277   2.726   3.027
10645SOL    HW232835   2.300   2.858   3.119
10646SOL     OW32836   4.937   0.625   3.446
10646SOL    HW132837   4.930   0.649   3.349
10646SOL    HW232838   4.913   0.705   3.502
10647SOL     OW32839   3.868   5.311   4.969
10647SOL    HW132840   3.901   5.336   4.877
10647SOL    HW232841   3.783   5.259   4.960
10648SOL     OW32842   4.570   4.170   5.249
10648SOL    HW132843   4.526   4.250   5.290
10648SOL    HW232844   4.514   4.089   5.265
10649SOL     OW32845   6.271   3.112   3.696
10649SOL    HW132846   6.357   3.098   3.745
10649SOL    HW232847   6.249   3.030   3.644
10650SOL     OW32848   0.420   6.738   2.745
10650SOL    HW132849   0.464   6.675   2.681
10650SOL    HW232850   0.371   6.809   2.695
10651SOL     OW32851   2.502   6.334   5.924
10651SOL    HW132852   2.407   6.358   5.908
10651SOL    HW232853   2.518   6.240   5.896
10652SOL     OW32854   2.338   0.509   6.977
10652SOL    HW132855   2.409   0.497   6.908
10652SOL    HW232856   2.248   0.494   6.935
10653SOL     OW32857   5.464   6.394   4.665
10653SOL    HW132858   5.448   6.493   4.660
10653SOL    HW232859   5.493   6.361   4.575
10654SOL     OW32860   6.863   1.262   3.888
10654SOL    HW132861   6.877   1.359   3.910
10654SOL    HW232862   6.912   1.205   3.954
10655SOL     OW32863   6.885   4.730   0.657
10655SOL    HW132864   6.789   4.757   0.655
10655SOL    HW232865   6.921   4.729   0.563
10656SOL     OW32866   5.962   1.692   5.579
10656SOL    HW132867   5.939   1.595   5.571
10656SOL    HW232868   6.047   1.711   5.529
10657SOL     OW32869   4.777   6.912   5.367
10657SOL    HW132870   4.810   6.964   5.446
10657SOL    HW232871   4.844   6.843   5.342
10658SOL     OW32872   0.679   1.602   5.725
10658SOL    HW132873   0.591   1.575   5.685
10658SOL    HW232874   0.729   1.520   5.754
10659SOL     OW32875   6.650   5.340   0.442
10659SOL    HW132876   6.743   5.344   0.477
10659SOL    HW232877   6.609   5.431   0.442
10660SOL     OW32878   5.772   3.040   6.601
10660SOL    HW132879   5.825   2.981   6.540
10660SOL    HW232880   5.676   3.039   6.574
10661SOL     OW32881   3.594   5.594   5.785
10661SOL    HW132882   3.506   5.622   5.822
10661SOL    HW232883   3.667   5.639   5.836
10662SOL     OW32884   3.434   1.488   0.988
10662SOL    HW132885   3.344   1.530   1.003
10662SOL    HW232886   3.424   1.389   0.983
10663SOL     OW32887   0.307   2.926   3.590
10663SOL    HW132888   0.256   2.985   3.528
10663SOL    HW232889   0.390   2.974   3.622
10664SOL     OW32890   1.143   6.209   4.621
10664SOL    HW132891   1.048   6.178   4.619
10664SOL    HW232892   1.178   6.207   4.714
10665SOL     OW32893   3.146   3.511   0.423
10665SOL    HW132894   3.087   3.514   0.504
10665SOL    HW232895   3.238   3.540   0.448
10666SOL     OW32896   4.017   3.831   0.948
10666SOL    HW132897   3.969   3.851   1.033
10666SOL    HW232898   3.977   3.749   0.906
10667SOL     OW32899   5.598   2.435   4.299
10667SOL    HW132900   5.646   2.480   4.374
10667SOL    HW232901   5.545   2.504   4.248
10668SOL     OW32902   3.617   3.058   6.022
10668SOL    HW132903   3.631   3.106   5.936
10668SOL    HW232904   3.705   3.032   6.061
10669SOL     OW32905   6.357   2.035   1.440
10669SOL    HW132906   6.352   1.936   1.454
10669SOL    HW232907   6.442   2.071   1.480
10670SOL     OW32908   4.713   4.292   3.776
10670SOL    HW132909   4.735   4.389   3.778
10670SOL    HW232910   4.683   4.263   3.867
10671SOL     OW32911   1.862   3.273   4.689
10671SOL    HW132912   1.825   3.253   4.599
10671SOL    HW232913   1.962   3.277   4.684
10672SOL     OW32914   6.435   3.874   1.828
10672SOL    HW132915   6.399   3.966   1.846
10672SOL    HW232916   6.525   3.865   1.870
10673SOL     OW32917   3.093   1.436   1.336
10673SOL    HW132918   3.047   1.418   1.423
10673SOL    HW232919   3.162   1.508   1.349
10674SOL     OW32920   3.852   3.440   4.103
10674SOL    HW132921   3.848   3.526   4.153
10674SOL    HW232922   3.785   3.442   4.029
10675SOL     OW32923   3.537   6.809   5.623
10675SOL    HW132924   3.531   6.892   5.678
10675SOL    HW232925   3.451   6.758   5.631
10676SOL     OW32926   1.610   0.512   5.350
10676SOL    HW132927   1.676   0.545   5.418
10676SOL    HW232928   1.569   0.427   5.382
10677SOL     OW32929   0.529   2.242   0.039
10677SOL    HW132930   0.529   2.200   0.130
10677SOL    HW232931   0.574   2.331   0.044
10678SOL     OW32932   3.840   5.404   2.557
10678SOL    HW132933   3.892   5.324   2.526
10678SOL    HW232934   3.892   5.451   2.629
10679SOL     OW32935   4.594   3.743   0.467
10679SOL    HW132936   4.691   3.720   0.462
10679SOL    HW232937   4.583   3.843   0.466
10680SOL     OW32938   4.232   1.099   5.989
10680SOL    HW132939   4.307   1.048   6.030
10680SOL    HW232940   4.145   1.053   6.010
10681SOL     OW32941   2.563   3.239   5.373
10681SOL    HW132942   2.617   3.316   5.336
10681SOL    HW232943   2.573   3.160   5.313
10682SOL     OW32944   4.910   3.511   6.689
10682SOL    HW132945   4.966   3.541   6.766
10682SOL    HW232946   4.813   3.512   6.715
10683SOL     OW32947   2.573   0.416   3.107
10683SOL    HW132948   2.589   0.509   3.075
10683SOL    HW232949   2.660   0.370   3.124
10684SOL     OW32950   4.734   4.590   1.884
10684SOL    HW132951   4.713   4.679   1.843
10684SOL    HW232952   4.673   4.574   1.962
10685SOL     OW32953   0.815   6.657   2.175
10685SOL    HW132954   0.725   6.613   2.171
10685SOL    HW232955   0.881   6.596   2.217
10686SOL     OW32956   2.735   1.140   6.880
10686SOL    HW132957   2.748   1.214   6.814
10686SOL    HW232958   2.701   1.058   6.832
10687SOL     OW32959   1.058   3.505   3.500
10687SOL    HW132960   0.958   3.505   3.497
10687SOL    HW232961   1.089   3.501   3.595
10688SOL     OW32962   5.390   1.257   3.446
10688SOL    HW132963   5.445   1.242   3.364
10688SOL    HW232964   5.369   1.169   3.489
10689SOL     OW32965   1.122   1.123   2.532
10689SOL    HW132966   1.134   1.165   2.621
10689SOL    HW232967   1.027   1.092   2.522
10690SOL     OW32968   0.979   6.422   4.487
10690SOL    HW132969   1.069   6.439   4.529
10690SOL    HW232970   0.990   6.412   4.388
10691SOL     OW32971   3.110   6.662   1.840
10691SOL    HW132972   3.118   6.729   1.914
10691SOL    HW232973   3.155   6.577   1.867
10692SOL     OW32974   2.729   1.572   4.081
10692SOL    HW132975   2.782   1.656   4.082
10692SOL    HW232976   2.701   1.551   3.987
10693SOL     OW32977   1.513   5.315   0.404
10693SOL    HW132978   1.457   5.336   0.324
10693SOL    HW232979   1.581   5.246   0.380
10694SOL     OW32980   4.668   0.228   5.633
10694SOL    HW132981   4.612   0.169   5.691
10694SOL    HW232982   4.658   0.323   5.663
10695SOL     OW32983   5.092   4.316   1.828
10695SOL    HW132984   5.184   4.337   1.796
10695SOL    HW232985   5.067   4.377   1.903
10696SOL     OW32986   5.961   4.496   4.219
10696SOL    HW132987   6.050   4.537   4.236
10696SOL    HW232988   5.889   4.560   4.247
10697SOL     OW32989   2.808   5.316   5.283
10697SOL    HW132990   2.819   5.247   5.211
10697SOL    HW232991   2.759   5.395   5.246
10698SOL     OW32992   3.491   3.524   0.483
10698SOL    HW132993   3.570   3.503   0.541
10698SOL    HW232994   3.517   3.518   0.387
10699SOL     OW32995   3.597   3.158   0.709
10699SOL    HW132996   3.656   3.190   0.636
10699SOL    HW232997   3.510   3.207   0.706
10700SOL     OW32998   4.844   0.362   1.265
10700SOL    HW132999   4.839   0.273   1.312
10700SOL    HW233000   4.769   0.420   1.297
10701SOL     OW33001   3.255   6.554   6.496
10701SOL    HW133002   3.284   6.641   6.455
10701SOL    HW233003   3.162   6.564   6.532
10702SOL     OW33004   5.539   1.874   1.777
10702SOL    HW133005   5.575   1.823   1.699
10702SOL    HW233006   5.549   1.819   1.860
10703SOL     OW33007   0.449   1.919   5.248
10703SOL    HW133008   0.494   1.934   5.160
10703SOL    HW233009   0.352   1.899   5.233
10704SOL     OW33010   5.441   6.630   2.253
10704SOL    HW133011   5.503   6.574   2.198
10704SOL    HW233012   5.356   6.647   2.203
10705SOL     OW33013   4.928   3.255   0.554
10705SOL    HW133014   4.989   3.178   0.534
10705SOL    HW233015   4.839   3.239   0.510
10706SOL     OW33016   3.673   0.762   1.422
10706SOL    HW133017   3.741   0.831   1.445
10706SOL    HW233018   3.627   0.731   1.506
10707SOL     OW33019   4.864   6.707   3.616
10707SOL    HW133020   4.829   6.695   3.523
10707SOL    HW233021   4.924   6.631   3.639
10708SOL     OW33022   4.254   0.794   2.063
10708SOL    HW133023   4.194   0.734   2.116
10708SOL    HW233024   4.226   0.794   1.967
10709SOL     OW33025   6.082   4.430   3.069
10709SOL    HW133026   6.015   4.384   3.010
10709SOL    HW233027   6.151   4.475   3.013
10710SOL     OW33028   4.683   1.780   4.118
10710SOL    HW133029   4.677   1.833   4.033
10710SOL    HW233030   4.757   1.816   4.175
10711SOL     OW33031   3.295   0.002   2.602
10711SOL    HW133032   3.304   6.951   2.544
10711SOL    HW233033   3.285   0.084   2.545
10712SOL     OW33034   5.422   0.095   3.612
10712SOL    HW133035   5.519   0.085   3.592
10712SOL    HW233036   5.406   0.077   3.709
10713SOL     OW33037   1.884   3.936   1.974
10713SOL    HW133038   1.894   3.877   2.054
10713SOL    HW233039   1.856   4.027   2.003
10714SOL     OW33040   3.100   3.665   4.595
10714SOL    HW133041   3.069   3.613   4.675
10714SOL    HW233042   3.053   3.633   4.513
10715SOL     OW33043   5.685   0.613   1.766
10715SOL    HW133044   5.628   0.573   1.693
10715SOL    HW233045   5.774   0.567   1.767
10716SOL     OW33046   5.204   0.850   3.165
10716SOL    HW133047   5.219   0.752   3.150
10716SOL    HW233048   5.258   0.902   3.098
10717SOL     OW33049   1.939   3.042   6.451
10717SOL    HW133050   2.012   3.033   6.383
10717SOL    HW233051   1.879   3.117   6.426
10718SOL     OW33052   1.957   5.423   5.689
10718SOL    HW133053   1.958   5.516   5.726
10718SOL    HW233054   2.044   5.378   5.709
10719SOL     OW33055   0.376   5.802   4.597
10719SOL    HW133056   0.347   5.707   4.588
10719SOL    HW233057   0.304   5.863   4.562
10720SOL     OW33058   0.343   4.609   3.314
10720SOL    HW133059   0.283   4.680   3.277
10720SOL    HW233060   0.326   4.599   3.412
10721SOL     OW33061   5.225   3.617   5.836
10721SOL    HW133062   5.296   3.560   5.794
10721SOL    HW233063   5.259   3.653   5.923
10722SOL     OW33064   6.843   3.640   5.776
10722SOL    HW133065   6.771   3.691   5.824
10722SOL    HW233066   6.816   3.544   5.767
10723SOL     OW33067   5.811   6.692   0.912
10723SOL    HW133068   5.713   6.714   0.911
10723SOL    HW233069   5.823   6.597   0.942
10724SOL     OW33070   6.853   6.309   6.611
10724SOL    HW133071   6.905   6.340   6.531
10724SOL    HW233072   6.803   6.386   6.651
10725SOL     OW33073   2.000   6.111   5.631
10725SOL    HW133074   1.950   6.024   5.631
10725SOL    HW233075   2.079   6.104   5.571
10726SOL     OW33076   4.804   1.106   4.366
10726SOL    HW133077   4.888   1.083   4.317
10726SOL    HW233078   4.756   1.179   4.317
10727SOL     OW33079   2.144   6.704   6.046
10727SOL    HW133080   2.125   6.775   5.979
10727SOL    HW233081   2.077   6.630   6.035
10728SOL     OW33082   4.821   5.891   0.645
10728SOL    HW133083   4.906   5.876   0.695
10728SOL    HW233084   4.751   5.829   0.681
10729SOL     OW33085   6.598   2.618   1.346
10729SOL    HW133086   6.630   2.689   1.283
10729SOL    HW233087   6.508   2.642   1.380
10730SOL     OW33088   4.634   7.019   2.635
10730SOL    HW133089   4.622   0.055   2.561
10730SOL    HW233090   4.731   6.995   2.643
10731SOL     OW33091   4.547   0.039   1.019
10731SOL    HW133092   4.477   7.015   1.065
10731SOL    HW233093   4.539   0.027   0.920
10732SOL     OW33094   0.562   4.024   6.175
10732SOL    HW133095   0.607   3.992   6.259
10732SOL    HW233096   0.612   3.989   6.095
10733SOL     OW33097   6.328   1.999   0.201
10733SOL    HW133098   6.419   2.039   0.184
10733SOL    HW233099   6.337   1.920   0.261
10734SOL     OW33100   6.754   2.819   2.163
10734SOL    HW133101   6.750   2.748   2.093
10734SOL    HW233102   6.773   2.907   2.120
10735SOL     OW33103   0.096   4.933   3.031
10735SOL    HW133104   7.030   4.941   3.055
10735SOL    HW233105   0.152   4.982   3.098
10736SOL     OW33106   2.559   0.699   3.947
10736SOL    HW133107   2.543   0.782   3.894
10736SOL    HW233108   2.580   0.623   3.886
10737SOL     OW33109   6.968   2.611   1.359
10737SOL    HW133110   6.922   2.583   1.444
10737SOL    HW233111   0.037   2.601   1.369
10738SOL     OW33112   4.650   7.026   3.636
10738SOL    HW133113   4.583   0.030   3.701
10738SOL    HW233114   4.694   6.943   3.673
10739SOL     OW33115   2.593   1.834   1.983
10739SOL    HW133116   2.626   1.928   1.988
10739SOL    HW233117   2.672   1.772   1.976
10740SOL     OW33118   4.660   5.122   3.071
10740SOL    HW133119   4.690   5.191   3.005
10740SOL    HW233120   4.560   5.128   3.081
10741SOL     OW33121   3.774   0.896   2.834
10741SOL    HW133122   3.752   0.862   2.926
10741SOL    HW233123   3.868   0.872   2.811
10742SOL     OW33124   6.859   5.396   0.650
10742SOL    HW133125   6.827   5.491   0.646
10742SOL    HW233126   6.862   5.366   0.745
10743SOL     OW33127   2.454   2.610   5.219
10743SOL    HW133128   2.510   2.677   5.268
10743SOL    HW233129   2.394   2.658   5.154
10744SOL     OW33130   4.971   1.754   0.569
10744SOL    HW133131   4.910   1.675   0.576
10744SOL    HW233132   4.953   1.816   0.646
10745SOL     OW33133   6.511   5.651   5.941
10745SOL    HW133134   6.443   5.667   6.012
10745SOL    HW233135   6.598   5.625   5.983
10746SOL     OW33136   0.754   4.267   6.235
10746SOL    HW133137   0.783   4.173   6.213
10746SOL    HW233138   0.718   4.310   6.153
10747SOL     OW33139   3.040   2.168   4.546
10747SOL    HW133140   3.138   2.149   4.548
10747SOL    HW233141   3.016   2.226   4.624
10748SOL     OW33142   4.738   1.576   2.253
10748SOL    HW133143   4.715   1.593   2.158
10748SOL    HW233144   4.761   1.479   2.265
10749SOL     OW33145   2.669   0.165   6.404
10749SOL    HW133146   2.702   0.199   6.316
10749SOL    HW233147   2.734   0.190   6.476
10750SOL     OW33148   4.005   0.002   6.459
10750SOL    HW133149   3.970   0.060   6.532
10750SOL    HW233150   4.040   0.060   6.385
10751SOL     OW33151   1.785   5.366   3.848
10751SOL    HW133152   1.694   5.372   3.808
10751SOL    HW233153   1.811   5.269   3.856
10752SOL     OW33154   4.859   4.601   3.978
10752SOL    HW133155   4.770   4.633   4.010
10752SOL    HW233156   4.931   4.653   4.023
10753SOL     OW33157   6.885   3.300   4.429
10753SOL    HW133158   6.828   3.305   4.511
10753SOL    HW233159   6.827   3.300   4.347
10754SOL     OW33160   1.666   0.464   2.338
10754SOL    HW133161   1.700   0.528   2.269
10754SOL    HW233162   1.711   0.481   2.425
10755SOL     OW33163   6.084   5.604   2.107
10755SOL    HW133164   6.098   5.565   2.198
10755SOL    HW233165   6.050   5.698   2.116
10756SOL     OW33166   0.678   7.025   5.042
10756SOL    HW133167   0.651   6.984   5.129
10756SOL    HW233168   0.676   0.095   5.050
10757SOL     OW33169   2.742   3.217   1.347
10757SOL    HW133170   2.743   3.266   1.260
10757SOL    HW233171   2.802   3.263   1.412
10758SOL     OW33172   0.619   5.307   4.197
10758SOL    HW133173   0.595   5.320   4.101
10758SOL    HW233174   0.708   5.261   4.203
10759SOL     OW33175   7.014   2.177   6.637
10759SOL    HW133176   6.943   2.122   6.594
10759SOL    HW233177   6.972   2.244   6.698
10760SOL     OW33178   5.386   1.113   4.624
10760SOL    HW133179   5.400   1.126   4.526
10760SOL    HW233180   5.288   1.108   4.644
10761SOL     OW33181   2.643   4.811   5.575
10761SOL    HW133182   2.704   4.742   5.535
10761SOL    HW233183   2.696   4.892   5.599
10762SOL     OW33184   3.369   1.102   4.834
10762SOL    HW133185   3.289   1.111   4.775
10762SOL    HW233186   3.387   1.005   4.852
10763SOL     OW33187   4.301   6.698   3.684
10763SOL    HW133188   4.223   6.675   3.625
10763SOL    HW233189   4.336   6.614   3.727
10764SOL     OW33190   5.217   6.965   4.800
10764SOL    HW133191   5.218   0.035   4.804
10764SOL    HW233192   5.158   6.929   4.872
10765SOL     OW33193   5.513   3.585   0.875
10765SOL    HW133194   5.587   3.575   0.808
10765SOL    HW233195   5.430   3.615   0.828
10766SOL     OW33196   4.404   3.286   1.412
10766SOL    HW133197   4.480   3.345   1.383
10766SOL    HW233198   4.317   3.331   1.392
10767SOL     OW33199   4.327   1.494   2.529
10767SOL    HW133200   4.286   1.585   2.518
10767SOL    HW233201   4.320   1.466   2.625
10768SOL     OW33202   5.951   4.726   0.195
10768SOL    HW133203   5.929   4.645   0.139
10768SOL    HW233204   5.879   4.740   0.263
10769SOL     OW33205   2.036   4.181   5.255
10769SOL    HW133206   2.065   4.087   5.234
10769SOL    HW233207   2.113   4.231   5.294
10770SOL     OW33208   4.028   6.021   3.766
10770SOL    HW133209   4.101   5.969   3.810
10770SOL    HW233210   3.981   5.962   3.700
10771SOL     OW33211   2.059   1.624   3.716
10771SOL    HW133212   1.986   1.618   3.785
10771SOL    HW233213   2.148   1.619   3.760
10772SOL     OW33214   5.616   5.294   3.947
10772SOL    HW133215   5.586   5.386   3.971
10772SOL    HW233216   5.626   5.239   4.030
10773SOL     OW33217   5.732   4.562   3.674
10773SOL    HW133218   5.773   4.503   3.744
10773SOL    HW233219   5.707   4.649   3.715
10774SOL     OW33220   0.727   0.481   3.153
10774SOL    HW133221   0.722   0.526   3.064
10774SOL    HW233222   0.706   0.548   3.225
10775SOL     OW33223   0.419   3.502   2.000
10775SOL    HW133224   0.446   3.540   1.911
10775SOL    HW233225   0.407   3.403   1.992
10776SOL     OW33226   1.654   0.343   6.574
10776SOL    HW133227   1.590   0.268   6.560
10776SOL    HW233228   1.698   0.333   6.664
10777SOL     OW33229   2.403   5.765   0.974
10777SOL    HW133230   2.430   5.796   0.883
10777SOL    HW233231   2.349   5.836   1.019
10778SOL     OW33232   5.946   5.510   2.621
10778SOL    HW133233   5.849   5.531   2.634
10778SOL    HW233234   5.958   5.412   2.604
10779SOL     OW33235   5.394   2.474   3.700
10779SOL    HW133236   5.393   2.574   3.706
10779SOL    HW233237   5.489   2.441   3.705
10780SOL     OW33238   6.716   0.447   2.648
10780SOL    HW133239   6.734   0.530   2.594
10780SOL    HW233240   6.645   0.466   2.715
10781SOL     OW33241   3.455   0.015   4.260
10781SOL    HW133242   3.506   0.036   4.343
10781SOL    HW233243   3.476   6.952   4.230
10782SOL     OW33244   6.188   5.459   4.303
10782SOL    HW133245   6.177   5.360   4.288
10782SOL    HW233246   6.109   5.508   4.267
10783SOL     OW33247   7.000   1.682   3.355
10783SOL    HW133248   6.909   1.718   3.334
10783SOL    HW233249   6.990   1.594   3.402
10784SOL     OW33250   2.872   1.711   4.552
10784SOL    HW133251   2.950   1.731   4.493
10784SOL    HW233252   2.868   1.613   4.570
10785SOL     OW33253   1.029   3.884   6.322
10785SOL    HW133254   1.116   3.900   6.275
10785SOL    HW233255   0.955   3.930   6.273
10786SOL     OW33256   0.731   4.943   3.187
10786SOL    HW133257   0.685   4.917   3.271
10786SOL    HW233258   0.663   4.959   3.115
10787SOL     OW33259   1.695   1.970   6.446
10787SOL    HW133260   1.655   1.963   6.354
10787SOL    HW233261   1.623   1.986   6.513
10788SOL     OW33262   5.830   3.906   6.177
10788SOL    HW133263   5.879   3.976   6.230
10788SOL    HW233264   5.884   3.822   6.175
10789SOL     OW33265   6.016   2.054   0.550
10789SOL    HW133266   5.924   2.020   0.569
10789SOL    HW233267   6.060   2.082   0.636
10790SOL     OW33268   0.071   5.927   2.916
10790SOL    HW133269   0.119   5.935   3.003
10790SOL    HW233270   0.000   5.857   2.924
10791SOL     OW33271   0.418   6.651   3.015
10791SOL    HW133272   0.414   6.707   2.933
10791SOL    HW233273   0.497   6.679   3.071
10792SOL     OW33274   3.949   4.124   5.303
10792SOL    HW133275   3.880   4.136   5.232
10792SOL    HW233276   3.923   4.047   5.362
10793SOL     OW33277   5.759   3.429   4.658
10793SOL    HW133278   5.761   3.502   4.725
10793SOL    HW233279   5.852   3.414   4.622
10794SOL     OW33280   3.259   4.102   3.448
10794SOL    HW133281   3.309   4.049   3.516
10794SOL    HW233282   3.188   4.044   3.407
10795SOL     OW33283   0.103   4.446   3.392
10795SOL    HW133284   0.058   4.425   3.305
10795SOL    HW233285   0.052   4.404   3.467
10796SOL     OW33286   1.163   6.108   5.247
10796SOL    HW133287   1.217   6.119   5.330
10796SOL    HW233288   1.130   6.198   5.216
10797SOL     OW33289   3.657   2.273   0.079
10797SOL    HW133290   3.577   2.305   0.130
10797SOL    HW233291   3.659   2.317   7.019
10798SOL     OW33292   6.772   1.533   1.172
10798SOL    HW133293   6.748   1.460   1.108
10798SOL    HW233294   6.782   1.619   1.122
10799SOL     OW33295   4.089   2.095   1.494
10799SOL    HW133296   4.097   2.194   1.479
10799SOL    HW233297   3.996   2.074   1.524
10800SOL     OW33298   0.981   0.268   1.553
10800SOL    HW133299   0.983   0.287   1.455
10800SOL    HW233300   0.954   0.351   1.603
10801SOL     OW33301   1.556   0.606   1.222
10801SOL    HW133302   1.606   0.679   1.268
10801SOL    HW233303   1.537   0.634   1.128
10802SOL     OW33304   6.523   1.220   3.489
10802SOL    HW133305   6.503   1.259   3.399
10802SOL    HW233306   6.443   1.230   3.549
10803SOL     OW33307   1.733   5.880   6.129
10803SOL    HW133308   1.811   5.843   6.079
10803SOL    HW233309   1.760   5.965   6.174
10804SOL     OW33310   0.155   3.031   4.472
10804SOL    HW133311   0.227   2.987   4.526
10804SOL    HW233312   0.171   3.129   4.468
10805SOL     OW33313   6.379   1.070   6.388
10805SOL    HW133314   6.431   0.995   6.428
10805SOL    HW233315   6.330   1.119   6.460
10806SOL     OW33316   1.865   5.106   0.079
10806SOL    HW133317   1.846   5.187   0.023
10806SOL    HW233318   1.866   5.025   0.021
10807SOL     OW33319   2.623   6.243   5.243
10807SOL    HW133320   2.716   6.209   5.255
10807SOL    HW233321   2.613   6.284   5.152
10808SOL     OW33322   0.949   3.551   6.162
10808SOL    HW133323   0.905   3.480   6.106
10808SOL    HW233324   1.033   3.514   6.202
10809SOL     OW33325   1.931   0.255   4.657
10809SOL    HW133326   1.906   0.219   4.567
10809SOL    HW233327   1.994   0.190   4.702
10810SOL     OW33328   6.799   0.198   4.091
10810SOL    HW133329   6.784   0.217   3.994
10810SOL    HW233330   6.767   0.274   4.147
10811SOL     OW33331   5.235   5.104   4.594
10811SOL    HW133332   5.284   5.035   4.647
10811SOL    HW233333   5.182   5.060   4.522
10812SOL     OW33334   5.997   2.793   0.349
10812SOL    HW133335   5.973   2.761   0.258
10812SOL    HW233336   5.930   2.760   0.415
10813SOL     OW33337   0.377   3.452   6.211
10813SOL    HW133338   0.328   3.529   6.252
10813SOL    HW233339   0.327   3.367   6.227
10814SOL     OW33340   3.444   1.124   1.309
10814SOL    HW133341   3.527   1.180   1.297
10814SOL    HW233342   3.388   1.164   1.381
10815SOL     OW33343   5.454   0.853   4.716
10815SOL    HW133344   5.434   0.951   4.722
10815SOL    HW233345   5.549   0.840   4.686
10816SOL     OW33346   3.805   3.095   4.609
10816SOL    HW133347   3.716   3.100   4.655
10816SOL    HW233348   3.799   3.031   4.532
10817SOL     OW33349   1.836   6.349   3.642
10817SOL    HW133350   1.827   6.395   3.730
10817SOL    HW233351   1.808   6.411   3.569
10818SOL     OW33352   3.880   4.487   6.967
10818SOL    HW133353   3.792   4.512   7.006
10818SOL    HW233354   3.873   4.483   6.867
10819SOL     OW33355   6.174   6.456   5.535
10819SOL    HW133356   6.264   6.451   5.577
10819SOL    HW233357   6.178   6.515   5.454
10820SOL     OW33358   2.698   4.541   6.080
10820SOL    HW133359   2.780   4.491   6.108
10820SOL    HW233360   2.616   4.495   6.115
10821SOL     OW33361   5.029   5.479   3.019
10821SOL    HW133362   5.040   5.569   2.976
10821SOL    HW233363   5.034   5.488   3.118
10822SOL     OW33364   5.394   1.063   1.736
10822SOL    HW133365   5.375   0.967   1.716
10822SOL    HW233366   5.453   1.101   1.665
10823SOL     OW33367   5.570   6.589   1.241
10823SOL    HW133368   5.472   6.576   1.231
10823SOL    HW233369   5.602   6.661   1.179
10824SOL     OW33370   0.989   3.084   3.889
10824SOL    HW133371   1.048   3.009   3.859
10824SOL    HW233372   1.045   3.157   3.929
10825SOL     OW33373   0.761   2.635   0.543
10825SOL    HW133374   0.666   2.610   0.563
10825SOL    HW233375   0.805   2.667   0.626
10826SOL     OW33376   0.288   3.606   2.859
10826SOL    HW133377   0.317   3.686   2.807
10826SOL    HW233378   0.194   3.619   2.891
10827SOL     OW33379   6.851   4.421   4.656
10827SOL    HW133380   6.846   4.489   4.584
10827SOL    HW233381   6.891   4.337   4.620
10828SOL     OW33382   6.525   4.311   5.327
10828SOL    HW133383   6.523   4.285   5.424
10828SOL    HW233384   6.551   4.231   5.272
10829SOL     OW33385   3.655   3.039   4.826
10829SOL    HW133386   3.750   3.016   4.847
10829SOL    HW233387   3.595   2.967   4.859
10830SOL     OW33388   4.172   2.252   3.335
10830SOL    HW133389   4.258   2.296   3.358
10830SOL    HW233390   4.150   2.268   3.238
10831SOL     OW33391   4.095   6.890   4.089
10831SOL    HW133392   4.145   6.854   4.010
10831SOL    HW233393   4.056   6.979   4.067
10832SOL     OW33394   6.544   2.674   0.088
10832SOL    HW133395   6.532   2.678   0.187
10832SOL    HW233396   6.470   2.724   0.042
10833SOL     OW33397   0.746   1.382   0.004
10833SOL    HW133398   0.719   1.454   0.068
10833SOL    HW233399   0.713   1.405   6.942
10834SOL     OW33400   6.089   6.257   1.579
10834SOL    HW133401   6.055   6.349   1.557
10834SOL    HW233402   6.011   6.197   1.596
10835SOL     OW33403   0.153   2.038   5.680
10835SOL    HW133404   0.244   1.997   5.694
10835SOL    HW233405   0.114   2.063   5.768
10836SOL     OW33406   0.104   1.034   3.293
10836SOL    HW133407   0.114   1.120   3.342
10836SOL    HW233408   0.194   0.993   3.280
10837SOL     OW33409   0.556   3.295   3.012
10837SOL    HW133410   0.520   3.202   3.003
10837SOL    HW233411   0.481   3.360   3.019
10838SOL     OW33412   0.483   6.228   2.256
10838SOL    HW133413   0.466   6.142   2.208
10838SOL    HW233414   0.396   6.274   2.273
10839SOL     OW33415   4.845   2.828   0.455
10839SOL    HW133416   4.759   2.809   0.407
10839SOL    HW233417   4.878   2.745   0.498
10840SOL     OW33418   2.663   0.194   1.601
10840SOL    HW133419   2.687   0.108   1.555
10840SOL    HW233420   2.627   0.259   1.535
10841SOL     OW33421   2.168   5.337   4.749
10841SOL    HW133422   2.104   5.403   4.709
10841SOL    HW233423   2.121   5.250   4.762
10842SOL     OW33424   5.297   4.588   1.946
10842SOL    HW133425   5.247   4.658   1.996
10842SOL    HW233426   5.320   4.512   2.008
10843SOL     OW33427   3.114   2.084   1.358
10843SOL    HW133428   3.021   2.052   1.375
10843SOL    HW233429   3.118   2.131   1.269
10844SOL     OW33430   1.123   5.160   5.173
10844SOL    HW133431   1.089   5.251   5.198
10844SOL    HW233432   1.179   5.123   5.248
10845SOL     OW33433   3.617   0.091   4.518
10845SOL    HW133434   3.712   0.069   4.498
10845SOL    HW233435   3.602   0.189   4.505
10846SOL     OW33436   5.566   0.153   6.222
10846SOL    HW133437   5.633   0.102   6.167
10846SOL    HW233438   5.474   0.133   6.189
10847SOL     OW33439   3.418   0.759   6.119
10847SOL    HW133440   3.390   0.784   6.212
10847SOL    HW233441   3.343   0.778   6.055
10848SOL     OW33442   1.917   4.831   1.878
10848SOL    HW133443   1.982   4.856   1.806
10848SOL    HW233444   1.885   4.913   1.925
10849SOL     OW33445   2.356   6.748   3.328
10849SOL    HW133446   2.433   6.684   3.323
10849SOL    HW233447   2.389   6.838   3.355
10850SOL     OW33448   4.204   4.205   0.943
10850SOL    HW133449   4.117   4.235   0.983
10850SOL    HW233450   4.272   4.277   0.954
10851SOL     OW33451   1.401   4.703   0.419
10851SOL    HW133452   1.401   4.635   0.346
10851SOL    HW233453   1.344   4.671   0.495
10852SOL     OW33454   2.297   2.013   2.664
10852SOL    HW133455   2.204   1.980   2.647
10852SOL    HW233456   2.296   2.112   2.671
10853SOL     OW33457   3.246   1.422   6.277
10853SOL    HW133458   3.337   1.426   6.237
10853SOL    HW233459   3.192   1.500   6.243
10854SOL     OW33460   2.919   6.541   5.114
10854SOL    HW133461   2.981   6.619   5.104
10854SOL    HW233462   2.832   6.572   5.151
10855SOL     OW33463   3.962   1.468   6.976
10855SOL    HW133464   3.888   1.427   6.923
10855SOL    HW233465   4.030   1.508   6.913
10856SOL     OW33466   0.524   1.446   0.789
10856SOL    HW133467   0.484   1.355   0.788
10856SOL    HW233468   0.493   1.497   0.709
10857SOL     OW33469   6.304   2.996   2.489
10857SOL    HW133470   6.402   3.010   2.473
10857SOL    HW233471   6.251   3.056   2.430
10858SOL     OW33472   3.167   6.304   2.275
10858SOL    HW133473   3.082   6.253   2.291
10858SOL    HW233474   3.215   6.264   2.197
10859SOL     OW33475   1.528   5.485   3.730
10859SOL    HW133476   1.440   5.438   3.720
10859SOL    HW233477   1.577   5.483   3.643
10860SOL     OW33478   0.160   3.626   3.495
10860SOL    HW133479   0.150   3.640   3.397
10860SOL    HW233480   0.072   3.600   3.535
10861SOL     OW33481   3.464   2.853   4.923
10861SOL    HW133482   3.419   2.798   4.993
10861SOL    HW233483   3.396   2.879   4.854
10862SOL     OW33484   0.818   0.453   5.103
10862SOL    HW133485   0.795   0.499   5.189
10862SOL    HW233486   0.747   0.472   5.035
10863SOL     OW33487   2.389   6.380   4.360
10863SOL    HW133488   2.304   6.375   4.413
10863SOL    HW233489   2.406   6.474   4.332
10864SOL     OW33490   3.756   6.115   3.017
10864SOL    HW133491   3.842   6.070   2.995
10864SOL    HW233492   3.708   6.140   2.932
10865SOL     OW33493   6.282   1.842   5.959
10865SOL    HW133494   6.191   1.804   5.944
10865SOL    HW233495   6.347   1.768   5.979
10866SOL     OW33496   5.128   4.914   0.421
10866SOL    HW133497   5.191   4.918   0.344
10866SOL    HW233498   5.062   4.840   0.407
10867SOL     OW33499   2.957   1.557   0.251
10867SOL    HW133500   2.994   1.516   0.334
10867SOL    HW233501   2.950   1.488   0.180
10868SOL     OW33502   2.997   2.264   3.152
10868SOL    HW133503   3.007   2.361   3.127
10868SOL    HW233504   3.084   2.217   3.139
10869NA      NA33505   6.360   2.585   5.501
10870NA      NA33506   4.457   4.594   5.239
10871NA      NA33507   2.239   3.585   1.681
10872NA      NA33508   4.836   3.780   5.219
10873NA      NA33509   4.368   2.459   5.297
10874NA      NA33510   3.690   4.818   1.761
10875NA      NA33511   6.442   6.087   4.561
10876NA      NA33512   3.706   3.487   4.868
10877NA      NA33513   4.560   6.977   6.568
10878NA      NA33514   2.843   0.382   5.026
10879NA      NA33515   0.527   5.150   2.470
10880NA      NA33516   2.864   0.587   2.728
10881NA      NA33517   3.484   4.081   1.185
10882NA      NA33518   3.688   3.240   2.894
   7.02995   7.02995   7.02995
