Generated by trjconv : CNT in water t= 192.00000
33518
    1C        C    1   2.839   2.766   4.743
    1C        C    2   2.896   2.713   4.861
    1C        C    3   2.840   2.770   4.976
    1C        C    4   2.842   2.768   4.256
    1C        C    5   2.898   2.726   4.379
    1C        C    6   2.843   2.773   4.500
    1C        C    7   3.006   2.634   4.621
    1C        C    8   2.896   2.722   4.621
    1C        C    9   3.072   2.596   4.740
    1C        C   10   3.007   2.627   4.862
    1C        C   11   3.181   2.487   4.974
    1C        C   12   3.063   2.563   4.974
    1C        C   13   2.841   2.768   3.771
    1C        C   14   2.895   2.719   3.892
    1C        C   15   2.836   2.763   4.013
    1C        C   16   3.014   2.644   4.137
    1C        C   17   2.896   2.722   4.134
    1C        C   18   3.078   2.612   4.258
    1C        C   19   3.014   2.645   4.380
    1C        C   20   3.207   2.555   4.499
    1C        C   21   3.075   2.606   4.501
    1C        C   22   3.275   2.529   4.620
    1C        C   23   3.203   2.540   4.741
    1C        C   24   3.410   2.483   4.860
    1C        C   25   3.268   2.498   4.861
    1C        C   26   3.486   2.471   4.978
    1C        C   27   2.842   2.765   3.281
    1C        C   28   2.900   2.725   3.404
    1C        C   29   2.845   2.767   3.527
    1C        C   30   3.020   2.650   3.646
    1C        C   31   2.900   2.724   3.650
    1C        C   32   3.075   2.609   3.769
    1C        C   33   3.011   2.639   3.892
    1C        C   34   3.205   2.555   4.011
    1C        C   35   3.074   2.607   4.014
    1C        C   36   3.275   2.536   4.133
    1C        C   37   3.209   2.559   4.256
    1C        C   38   3.414   2.505   4.377
    1C        C   39   3.276   2.534   4.378
    1C        C   40   3.484   2.498   4.500
    1C        C   41   3.412   2.496   4.622
    1C        C   42   3.628   2.478   4.741
    1C        C   43   3.486   2.475   4.740
    1C        C   44   3.701   2.479   4.861
    1C        C   45   3.625   2.478   4.979
    1C        C   46   2.829   2.745   2.790
    1C        C   47   2.889   2.707   2.913
    1C        C   48   2.838   2.759   3.034
    1C        C   49   3.011   2.641   3.157
    1C        C   50   2.893   2.718   3.158
    1C        C   51   3.075   2.608   3.279
    1C        C   52   3.014   2.642   3.402
    1C        C   53   3.205   2.549   3.522
    1C        C   54   3.077   2.609   3.523
    1C        C   55   3.272   2.531   3.645
    1C        C   56   3.204   2.551   3.768
    1C        C   57   3.413   2.511   3.889
    1C        C   58   3.273   2.533   3.890
    1C        C   59   3.484   2.503   4.011
    1C        C   60   3.413   2.506   4.133
    1C        C   61   3.625   2.497   4.256
    1C        C   62   3.484   2.496   4.255
    1C        C   63   3.699   2.505   4.376
    1C        C   64   3.625   2.498   4.497
    1C        C   65   3.833   2.537   4.618
    1C        C   66   3.696   2.501   4.619
    1C        C   67   3.900   2.557   4.741
    1C        C   68   3.836   2.520   4.861
    1C        C   69   4.047   2.580   4.972
    1C        C   70   3.916   2.531   4.976
    1C        C   71   2.820   2.732   2.307
    1C        C   72   2.879   2.687   2.427
    1C        C   73   2.823   2.737   2.547
    1C        C   74   3.000   2.620   2.670
    1C        C   75   2.880   2.694   2.669
    1C        C   76   3.067   2.593   2.791
    1C        C   77   3.010   2.634   2.914
    1C        C   78   3.204   2.551   3.034
    1C        C   79   3.073   2.603   3.036
    1C        C   80   3.274   2.533   3.156
    1C        C   81   3.204   2.551   3.277
    1C        C   82   3.410   2.499   3.399
    1C        C   83   3.271   2.526   3.399
    1C        C   84   3.480   2.492   3.521
    1C        C   85   3.410   2.503   3.643
    1C        C   86   3.622   2.498   3.764
    1C        C   87   3.480   2.496   3.766
    1C        C   88   3.693   2.503   3.885
    1C        C   89   3.625   2.500   4.009
    1C        C   90   3.830   2.542   4.131
    1C        C   91   3.692   2.511   4.132
    1C        C   92   3.903   2.557   4.251
    1C        C   93   3.838   2.529   4.374
    1C        C   94   4.027   2.622   4.496
    1C        C   95   3.901   2.558   4.497
    1C        C   96   4.090   2.662   4.616
    1C        C   97   4.026   2.623   4.735
    1C        C   98   4.184   2.764   4.859
    1C        C   99   4.090   2.655   4.858
    1C        C  100   4.206   2.839   4.975
    1C        C  101   2.818   2.727   2.068
    1C        C  102   2.984   2.588   2.187
    1C        C  103   2.869   2.673   2.187
    1C        C  104   3.058   2.572   2.307
    1C        C  105   2.999   2.614   2.428
    1C        C  106   3.199   2.539   2.548
    1C        C  107   3.065   2.585   2.550
    1C        C  108   3.268   2.523   2.670
    1C        C  109   3.198   2.539   2.792
    1C        C  110   3.410   2.503   2.910
    1C        C  111   3.271   2.526   2.912
    1C        C  112   3.482   2.495   3.031
    1C        C  113   3.413   2.511   3.154
    1C        C  114   3.623   2.495   3.277
    1C        C  115   3.482   2.501   3.277
    1C        C  116   3.692   2.498   3.401
    1C        C  117   3.622   2.493   3.523
    1C        C  118   3.832   2.537   3.640
    1C        C  119   3.695   2.504   3.643
    1C        C  120   3.897   2.560   3.763
    1C        C  121   3.829   2.542   3.886
    1C        C  122   4.022   2.628   4.011
    1C        C  123   3.895   2.566   4.008
    1C        C  124   4.086   2.666   4.131
    1C        C  125   4.027   2.625   4.252
    1C        C  126   4.192   2.758   4.374
    1C        C  127   4.086   2.664   4.374
    1C        C  128   4.243   2.811   4.495
    1C        C  129   4.190   2.761   4.616
    1C        C  130   4.320   2.931   4.737
    1C        C  131   4.233   2.819   4.738
    1C        C  132   4.346   3.002   4.856
    1C        C  133   4.275   2.960   4.969
    1C        C  134   3.167   2.461   2.080
    1C        C  135   3.035   2.509   2.079
    1C        C  136   3.256   2.477   2.187
    1C        C  137   3.191   2.520   2.305
    1C        C  138   3.402   2.481   2.425
    1C        C  139   3.263   2.508   2.426
    1C        C  140   3.478   2.475   2.544
    1C        C  141   3.406   2.493   2.664
    1C        C  142   3.618   2.494   2.788
    1C        C  143   3.477   2.492   2.786
    1C        C  144   3.693   2.497   2.908
    1C        C  145   3.623   2.491   3.031
    1C        C  146   3.829   2.530   3.150
    1C        C  147   3.692   2.496   3.154
    1C        C  148   3.895   2.555   3.272
    1C        C  149   3.828   2.536   3.395
    1C        C  150   4.025   2.620   3.517
    1C        C  151   3.896   2.563   3.517
    1C        C  152   4.082   2.659   3.641
    1C        C  153   4.021   2.629   3.764
    1C        C  154   4.187   2.758   3.884
    1C        C  155   4.078   2.669   3.887
    1C        C  156   4.240   2.807   4.005
    1C        C  157   4.192   2.759   4.129
    1C        C  158   4.335   2.914   4.250
    1C        C  159   4.245   2.805   4.252
    1C        C  160   4.368   2.980   4.371
    1C        C  161   4.328   2.924   4.494
    1C        C  162   4.431   3.111   4.610
    1C        C  163   4.365   2.987   4.615
    1C        C  164   4.464   3.178   4.730
    1C        C  165   4.429   3.117   4.853
    1C        C  166   4.507   3.317   4.966
    1C        C  167   4.472   3.182   4.969
    1C        C  168   3.471   2.431   2.069
    1C        C  169   3.396   2.460   2.184
    1C        C  170   3.613   2.472   2.303
    1C        C  171   3.471   2.466   2.303
    1C        C  172   3.690   2.482   2.422
    1C        C  173   3.619   2.481   2.544
    1C        C  174   3.826   2.531   2.661
    1C        C  175   3.688   2.500   2.666
    1C        C  176   3.895   2.554   2.783
    1C        C  177   3.830   2.531   2.906
    1C        C  178   4.024   2.616   3.029
    1C        C  179   3.898   2.551   3.029
    1C        C  180   4.083   2.656   3.151
    1C        C  181   4.022   2.618   3.273
    1C        C  182   4.192   2.745   3.393
    1C        C  183   4.085   2.653   3.394
    1C        C  184   4.242   2.793   3.517
    1C        C  185   4.194   2.745   3.641
    1C        C  186   4.328   2.914   3.761
    1C        C  187   4.243   2.801   3.761
    1C        C  188   4.371   2.974   3.882
    1C        C  189   4.332   2.915   4.004
    1C        C  190   4.437   3.098   4.125
    1C        C  191   4.373   2.972   4.127
    1C        C  192   4.464   3.167   4.245
    1C        C  193   4.434   3.105   4.368
    1C        C  194   4.500   3.311   4.487
    1C        C  195   4.457   3.176   4.487
    1C        C  196   4.521   3.382   4.607
    1C        C  197   4.505   3.314   4.730
    1C        C  198   4.549   3.531   4.844
    1C        C  199   4.526   3.390   4.848
    1C        C  200   4.576   3.617   4.955
    1C        C  201   3.611   2.423   2.065
    1C        C  202   3.821   2.507   2.178
    1C        C  203   3.684   2.465   2.180
    1C        C  204   3.896   2.536   2.296
    1C        C  205   3.827   2.516   2.417
    1C        C  206   4.019   2.611   2.538
    1C        C  207   3.893   2.546   2.538
    1C        C  208   4.081   2.649   2.659
    1C        C  209   4.022   2.615   2.783
    1C        C  210   4.192   2.740   2.903
    1C        C  211   4.082   2.652   2.905
    1C        C  212   4.243   2.791   3.024
    1C        C  213   4.193   2.745   3.148
    1C        C  214   4.331   2.905   3.268
    1C        C  215   4.243   2.794   3.271
    1C        C  216   4.362   2.965   3.392
    1C        C  217   4.327   2.905   3.515
    1C        C  218   4.426   3.095   3.636
    1C        C  219   4.365   2.968   3.636
    1C        C  220   4.457   3.163   3.757
    1C        C  221   4.434   3.100   3.881
    1C        C  222   4.494   3.302   3.999
    1C        C  223   4.463   3.164   4.003
    1C        C  224   4.504   3.374   4.120
    1C        C  225   4.501   3.304   4.243
    1C        C  226   4.512   3.519   4.362
    1C        C  227   4.511   3.378   4.363
    1C        C  228   4.513   3.592   4.483
    1C        C  229   4.525   3.523   4.606
    1C        C  230   4.493   3.739   4.725
    1C        C  231   4.531   3.602   4.723
    1C        C  232   4.482   3.815   4.843
    1C        C  233   4.536   3.752   4.956
    1C        C  234   4.006   2.610   2.057
    1C        C  235   3.886   2.540   2.058
    1C        C  236   4.077   2.646   2.173
    1C        C  237   4.021   2.604   2.296
    1C        C  238   4.202   2.721   2.416
    1C        C  239   4.083   2.643   2.416
    1C        C  240   4.253   2.774   2.537
    1C        C  241   4.196   2.731   2.659
    1C        C  242   4.332   2.896   2.778
    1C        C  243   4.246   2.784   2.780
    1C        C  244   4.373   2.954   2.901
    1C        C  245   4.335   2.899   3.025
    1C        C  246   4.434   3.090   3.145
    1C        C  247   4.372   2.963   3.145
    1C        C  248   4.451   3.157   3.268
    1C        C  249   4.419   3.094   3.391
    1C        C  250   4.485   3.296   3.513
    1C        C  251   4.445   3.161   3.512
    1C        C  252   4.508   3.367   3.632
    1C        C  253   4.494   3.299   3.756
    1C        C  254   4.517   3.512   3.874
    1C        C  255   4.507   3.371   3.877
    1C        C  256   4.508   3.584   3.995
    1C        C  257   4.509   3.515   4.118
    1C        C  258   4.487   3.729   4.236
    1C        C  259   4.508   3.589   4.239
    1C        C  260   4.468   3.798   4.357
    1C        C  261   4.484   3.730   4.480
    1C        C  262   4.417   3.934   4.599
    1C        C  263   4.469   3.802   4.601
    1C        C  264   4.393   4.007   4.717
    1C        C  265   4.426   3.944   4.839
    1C        C  266   4.312   4.127   4.953
    1C        C  267   4.391   4.012   4.956
    1C        C  268   4.266   2.766   2.061
    1C        C  269   4.192   2.727   2.174
    1C        C  270   4.342   2.883   2.294
    1C        C  271   4.250   2.774   2.294
    1C        C  272   4.378   2.948   2.414
    1C        C  273   4.341   2.884   2.535
    1C        C  274   4.441   3.075   2.656
    1C        C  275   4.377   2.949   2.655
    1C        C  276   4.463   3.146   2.777
    1C        C  277   4.434   3.081   2.899
    1C        C  278   4.492   3.288   3.020
    1C        C  279   4.456   3.151   3.020
    1C        C  280   4.498   3.360   3.141
    1C        C  281   4.486   3.294   3.265
    1C        C  282   4.497   3.504   3.384
    1C        C  283   4.493   3.363   3.388
    1C        C  284   4.502   3.576   3.506
    1C        C  285   4.512   3.509   3.629
    1C        C  286   4.489   3.721   3.748
    1C        C  287   4.509   3.581   3.751
    1C        C  288   4.473   3.791   3.870
    1C        C  289   4.488   3.724   3.994
    1C        C  290   4.426   3.930   4.115
    1C        C  291   4.477   3.799   4.114
    1C        C  292   4.390   3.994   4.236
    1C        C  293   4.420   3.931   4.358
    1C        C  294   4.320   4.123   4.473
    1C        C  295   4.389   4.000   4.477
    1C        C  296   4.281   4.186   4.593
    1C        C  297   4.324   4.132   4.716
    1C        C  298   4.197   4.312   4.835
    1C        C  299   4.273   4.191   4.835
    1C        C  300   4.161   4.394   4.947
    1C        C  301   4.348   2.877   2.056
    1C        C  302   4.461   3.065   2.171
    1C        C  303   4.391   2.940   2.174
    1C        C  304   4.476   3.139   2.291
    1C        C  305   4.436   3.077   2.412
    1C        C  306   4.493   3.280   2.534
    1C        C  307   4.465   3.141   2.534
    1C        C  308   4.503   3.354   2.654
    1C        C  309   4.495   3.283   2.776
    1C        C  310   4.516   3.496   2.893
    1C        C  311   4.506   3.355   2.897
    1C        C  312   4.509   3.570   3.013
    1C        C  313   4.504   3.502   3.137
    1C        C  314   4.482   3.712   3.262
    1C        C  315   4.496   3.571   3.260
    1C        C  316   4.464   3.783   3.382
    1C        C  317   4.480   3.715   3.505
    1C        C  318   4.420   3.921   3.623
    1C        C  319   4.469   3.788   3.626
    1C        C  320   4.391   3.984   3.747
    1C        C  321   4.422   3.922   3.870
    1C        C  322   4.314   4.107   3.986
    1C        C  323   4.391   3.989   3.991
    1C        C  324   4.274   4.168   4.107
    1C        C  325   4.320   4.117   4.231
    1C        C  326   4.182   4.282   4.349
    1C        C  327   4.280   4.180   4.350
    1C        C  328   4.134   4.337   4.470
    1C        C  329   4.185   4.290   4.593
    1C        C  330   4.021   4.432   4.712
    1C        C  331   4.136   4.349   4.711
    1C        C  332   3.967   4.494   4.827
    1C        C  333   4.047   4.476   4.941
    1C        C  334   4.549   3.262   2.058
    1C        C  335   4.525   3.124   2.057
    1C        C  336   4.535   3.345   2.169
    1C        C  337   4.507   3.278   2.290
    1C        C  338   4.517   3.491   2.409
    1C        C  339   4.507   3.350   2.412
    1C        C  340   4.516   3.565   2.529
    1C        C  341   4.512   3.495   2.652
    1C        C  342   4.480   3.707   2.772
    1C        C  343   4.510   3.569   2.772
    1C        C  344   4.474   3.778   2.893
    1C        C  345   4.491   3.710   3.016
    1C        C  346   4.417   3.910   3.135
    1C        C  347   4.464   3.777   3.138
    1C        C  348   4.393   3.981   3.255
    1C        C  349   4.424   3.918   3.378
    1C        C  350   4.316   4.102   3.499
    1C        C  351   4.395   3.984   3.499
    1C        C  352   4.271   4.161   3.619
    1C        C  353   4.316   4.103   3.740
    1C        C  354   4.173   4.261   3.862
    1C        C  355   4.272   4.160   3.862
    1C        C  356   4.122   4.314   3.982
    1C        C  357   4.179   4.273   4.105
    1C        C  358   4.007   4.400   4.226
    1C        C  359   4.125   4.321   4.226
    1C        C  360   3.949   4.441   4.347
    1C        C  361   4.013   4.411   4.469
    1C        C  362   3.825   4.511   4.589
    1C        C  363   3.955   4.456   4.590
    1C        C  364   3.757   4.543   4.708
    1C        C  365   3.833   4.540   4.827
    1C        C  366   3.622   4.583   4.945
    1C        C  367   3.760   4.565   4.944
    1C        C  368   4.501   3.558   2.050
    1C        C  369   4.518   3.485   2.168
    1C        C  370   4.492   3.701   2.281
    1C        C  371   4.514   3.562   2.287
    1C        C  372   4.478   3.773   2.402
    1C        C  373   4.496   3.705   2.525
    1C        C  374   4.417   3.903   2.647
    1C        C  375   4.467   3.771   2.646
    1C        C  376   4.394   3.973   2.767
    1C        C  377   4.427   3.912   2.889
    1C        C  378   4.317   4.093   3.008
    1C        C  379   4.392   3.974   3.011
    1C        C  380   4.273   4.154   3.127
    1C        C  381   4.318   4.100   3.250
    1C        C  382   4.174   4.252   3.371
    1C        C  383   4.273   4.151   3.374
    1C        C  384   4.120   4.303   3.491
    1C        C  385   4.169   4.258   3.616
    1C        C  386   4.005   4.388   3.735
    1C        C  387   4.121   4.308   3.739
    1C        C  388   3.944   4.423   3.858
    1C        C  389   4.004   4.392   3.982
    1C        C  390   3.815   4.488   4.101
    1C        C  391   3.945   4.433   4.103
    1C        C  392   3.749   4.513   4.224
    1C        C  393   3.819   4.498   4.345
    1C        C  394   3.616   4.553   4.469
    1C        C  395   3.755   4.528   4.467
    1C        C  396   3.543   4.562   4.589
    1C        C  397   3.618   4.566   4.709
    1C        C  398   3.406   4.545   4.831
    1C        C  399   3.544   4.574   4.829
    1C        C  400   3.341   4.511   4.950
    1C        C  401   4.498   3.697   2.044
    1C        C  402   4.454   3.912   2.161
    1C        C  403   4.484   3.774   2.161
    1C        C  404   4.410   3.973   2.280
    1C        C  405   4.433   3.907   2.403
    1C        C  406   4.329   4.093   2.520
    1C        C  407   4.399   3.970   2.524
    1C        C  408   4.279   4.148   2.640
    1C        C  409   4.319   4.093   2.764
    1C        C  410   4.171   4.246   2.882
    1C        C  411   4.274   4.150   2.886
    1C        C  412   4.116   4.294   3.004
    1C        C  413   4.167   4.248   3.127
    1C        C  414   4.000   4.376   3.247
    1C        C  415   4.116   4.295   3.250
    1C        C  416   3.941   4.415   3.369
    1C        C  417   4.002   4.381   3.492
    1C        C  418   3.811   4.477   3.614
    1C        C  419   3.941   4.421   3.613
    1C        C  420   3.745   4.502   3.736
    1C        C  421   3.814   4.478   3.857
    1C        C  422   3.608   4.529   3.981
    1C        C  423   3.747   4.505   3.979
    1C        C  424   3.538   4.536   4.104
    1C        C  425   3.609   4.534   4.226
    1C        C  426   3.400   4.547   4.351
    1C        C  427   3.541   4.549   4.349
    1C        C  428   3.325   4.543   4.471
    1C        C  429   3.402   4.554   4.589
    1C        C  430   3.193   4.510   4.717
    1C        C  431   3.331   4.541   4.711
    1C        C  432   3.122   4.490   4.839
    1C        C  433   3.203   4.492   4.954
    1C        C  434   4.377   4.115   2.049
    1C        C  435   4.441   3.990   2.046
    1C        C  436   4.301   4.160   2.161
    1C        C  437   4.328   4.090   2.281
    1C        C  438   4.181   4.249   2.400
    1C        C  439   4.283   4.151   2.400
    1C        C  440   4.122   4.292   2.521
    1C        C  441   4.178   4.247   2.642
    1C        C  442   4.000   4.373   2.759
    1C        C  443   4.114   4.290   2.761
    1C        C  444   3.939   4.409   2.881
    1C        C  445   3.998   4.371   3.004
    1C        C  446   3.809   4.471   3.125
    1C        C  447   3.937   4.411   3.125
    1C        C  448   3.743   4.492   3.248
    1C        C  449   3.812   4.471   3.370
    1C        C  450   3.606   4.528   3.493
    1C        C  451   3.744   4.494   3.491
    1C        C  452   3.537   4.546   3.615
    1C        C  453   3.607   4.533   3.737
    1C        C  454   3.394   4.542   3.861
    1C        C  455   3.536   4.538   3.859
    1C        C  456   3.328   4.529   3.985
    1C        C  457   3.397   4.536   4.108
    1C        C  458   3.188   4.510   4.230
    1C        C  459   3.327   4.535   4.231
    1C        C  460   3.119   4.491   4.352
    1C        C  461   3.189   4.506   4.474
    1C        C  462   2.991   4.437   4.599
    1C        C  463   3.122   4.488   4.597
    1C        C  464   2.926   4.400   4.719
    1C        C  465   2.987   4.443   4.840
    1C        C  466   2.800   4.336   4.955
    1C        C  467   2.909   4.424   4.959
    1C        C  468   4.120   4.279   2.037
    1C        C  469   4.187   4.247   2.156
    1C        C  470   4.005   4.366   2.274
    1C        C  471   4.126   4.290   2.277
    1C        C  472   3.939   4.393   2.396
    1C        C  473   4.005   4.370   2.519
    1C        C  474   3.811   4.470   2.638
    1C        C  475   3.938   4.409   2.637
    1C        C  476   3.743   4.494   2.760
    1C        C  477   3.810   4.466   2.882
    1C        C  478   3.602   4.516   3.004
    1C        C  479   3.740   4.486   3.003
    1C        C  480   3.533   4.529   3.127
    1C        C  481   3.604   4.519   3.249
    1C        C  482   3.393   4.532   3.374
    1C        C  483   3.535   4.531   3.371
    1C        C  484   3.323   4.530   3.497
    1C        C  485   3.396   4.540   3.617
    1C        C  486   3.189   4.492   3.742
    1C        C  487   3.326   4.529   3.739
    1C        C  488   3.122   4.474   3.865
    1C        C  489   3.190   4.498   3.987
    1C        C  490   2.998   4.411   4.112
    1C        C  491   3.120   4.482   4.109
    1C        C  492   2.937   4.380   4.235
    1C        C  493   2.997   4.421   4.356
    1C        C  494   2.824   4.301   4.481
    1C        C  495   2.935   4.389   4.479
    1C        C  496   2.771   4.250   4.601
    1C        C  497   2.814   4.312   4.720
    1C        C  498   2.666   4.159   4.844
    1C        C  499   2.752   4.271   4.841
    1C        C  500   2.592   4.115   4.954
    1C        C  501   4.003   4.353   2.037
    1C        C  502   3.813   4.461   2.152
    1C        C  503   3.940   4.400   2.154
    1C        C  504   3.741   4.474   2.273
    1C        C  505   3.808   4.446   2.395
    1C        C  506   3.603   4.502   2.518
    1C        C  507   3.743   4.482   2.515
    1C        C  508   3.529   4.512   2.637
    1C        C  509   3.603   4.512   2.758
    1C        C  510   3.392   4.524   2.882
    1C        C  511   3.533   4.521   2.880
    1C        C  512   3.321   4.513   3.004
    1C        C  513   3.392   4.518   3.126
    1C        C  514   3.188   4.485   3.253
    1C        C  515   3.326   4.517   3.251
    1C        C  516   3.121   4.467   3.376
    1C        C  517   3.186   4.496   3.498
    1C        C  518   2.995   4.407   3.620
    1C        C  519   3.119   4.475   3.621
    1C        C  520   2.940   4.365   3.744
    1C        C  521   2.998   4.406   3.866
    1C        C  522   2.833   4.278   3.992
    1C        C  523   2.938   4.373   3.990
    1C        C  524   2.786   4.231   4.116
    1C        C  525   2.831   4.287   4.238
    1C        C  526   2.692   4.130   4.361
    1C        C  527   2.778   4.242   4.361
    1C        C  528   2.651   4.072   4.483
    1C        C  529   2.687   4.136   4.604
    1C        C  530   2.585   3.953   4.728
    1C        C  531   2.641   4.084   4.727
    1C        C  532   2.543   3.896   4.851
    1C        C  533   2.522   3.993   4.954
    1C        C  534   3.612   4.552   2.036
    1C        C  535   3.746   4.510   2.039
    1C        C  536   3.533   4.523   2.152
    1C        C  537   3.603   4.505   2.275
    1C        C  538   3.390   4.514   2.394
    1C        C  539   3.531   4.509   2.397
    1C        C  540   3.318   4.507   2.516
    1C        C  541   3.388   4.508   2.638
    1C        C  542   3.181   4.478   2.762
    1C        C  543   3.319   4.510   2.762
    1C        C  544   3.116   4.457   2.886
    1C        C  545   3.184   4.479   3.007
    1C        C  546   2.996   4.394   3.132
    1C        C  547   3.119   4.463   3.132
    1C        C  548   2.936   4.361   3.256
    1C        C  549   2.995   4.402   3.377
    1C        C  550   2.827   4.275   3.502
    1C        C  551   2.935   4.365   3.499
    1C        C  552   2.777   4.225   3.625
    1C        C  553   2.830   4.278   3.745
    1C        C  554   2.698   4.117   3.873
    1C        C  555   2.783   4.230   3.869
    1C        C  556   2.663   4.058   3.996
    1C        C  557   2.701   4.118   4.118
    1C        C  558   2.599   3.935   4.244
    1C        C  559   2.658   4.063   4.241
    1C        C  560   2.565   3.873   4.367
    1C        C  561   2.589   3.945   4.486
    1C        C  562   2.524   3.745   4.612
    1C        C  563   2.559   3.882   4.609
    1C        C  564   2.516   3.676   4.735
    1C        C  565   2.517   3.755   4.853
    1C        C  566   2.528   3.543   4.973
    1C        C  567   2.518   3.682   4.973
    1C        C  568   3.323   4.473   2.036
    1C        C  569   3.392   4.507   2.153
    1C        C  570   3.179   4.473   2.275
    1C        C  571   3.317   4.510   2.274
    1C        C  572   3.110   4.452   2.397
    1C        C  573   3.180   4.473   2.517
    1C        C  574   2.983   4.400   2.643
    1C        C  575   3.114   4.454   2.640
    1C        C  576   2.928   4.358   2.766
    1C        C  577   2.989   4.396   2.887
    1C        C  578   2.826   4.265   3.013
    1C        C  579   2.932   4.359   3.011
    1C        C  580   2.777   4.217   3.137
    1C        C  581   2.828   4.269   3.257
    1C        C  582   2.696   4.106   3.380
    1C        C  583   2.782   4.219   3.381
    1C        C  584   2.655   4.051   3.504
    1C        C  585   2.695   4.110   3.626
    1C        C  586   2.599   3.927   3.753
    1C        C  587   2.662   4.054   3.752
    1C        C  588   2.570   3.867   3.877
    1C        C  589   2.597   3.933   3.999
    1C        C  590   2.533   3.732   4.124
    1C        C  591   2.573   3.868   4.122
    1C        C  592   2.519   3.667   4.248
    1C        C  593   2.526   3.738   4.370
    1C        C  594   2.505   3.528   4.495
    1C        C  595   2.511   3.669   4.493
    1C        C  596   2.509   3.458   4.617
    1C        C  597   2.514   3.534   4.736
    1C        C  598   2.530   3.322   4.860
    1C        C  599   2.522   3.463   4.858
    1C        C  600   2.530   3.243   4.976
    1C        C  601   3.189   4.439   2.038
    1C        C  602   2.978   4.387   2.156
    1C        C  603   3.113   4.434   2.156
    1C        C  604   2.919   4.353   2.281
    1C        C  605   2.983   4.391   2.401
    1C        C  606   2.812   4.269   2.526
    1C        C  607   2.920   4.360   2.523
    1C        C  608   2.765   4.217   2.649
    1C        C  609   2.818   4.268   2.769
    1C        C  610   2.684   4.106   2.893
    1C        C  611   2.772   4.217   2.892
    1C        C  612   2.647   4.047   3.016
    1C        C  613   2.691   4.105   3.137
    1C        C  614   2.592   3.918   3.263
    1C        C  615   2.656   4.044   3.260
    1C        C  616   2.569   3.857   3.388
    1C        C  617   2.595   3.924   3.510
    1C        C  618   2.533   3.723   3.637
    1C        C  619   2.570   3.859   3.633
    1C        C  620   2.513   3.658   3.761
    1C        C  621   2.529   3.731   3.880
    1C        C  622   2.505   3.521   4.007
    1C        C  623   2.521   3.661   4.002
    1C        C  624   2.512   3.453   4.130
    1C        C  625   2.511   3.526   4.251
    1C        C  626   2.532   3.316   4.374
    1C        C  627   2.509   3.456   4.374
    1C        C  628   2.548   3.248   4.496
    1C        C  629   2.528   3.318   4.618
    1C        C  630   2.590   3.116   4.743
    1C        C  631   2.538   3.248   4.740
    1C        C  632   2.613   3.046   4.865
    1C        C  633   2.558   3.106   4.983
    1C        C  634   2.770   4.299   2.051
    1C        C  635   2.882   4.383   2.050
    1C        C  636   2.739   4.227   2.167
    1C        C  637   2.802   4.273   2.285
    1C        C  638   2.674   4.104   2.408
    1C        C  639   2.754   4.220   2.407
    1C        C  640   2.638   4.043   2.530
    1C        C  641   2.679   4.105   2.650
    1C        C  642   2.585   3.915   2.775
    1C        C  643   2.645   4.043   2.772
    1C        C  644   2.557   3.853   2.898
    1C        C  645   2.581   3.922   3.019
    1C        C  646   2.519   3.719   3.145
    1C        C  647   2.559   3.855   3.141
    1C        C  648   2.509   3.650   3.268
    1C        C  649   2.529   3.721   3.389
    1C        C  650   2.509   3.515   3.517
    1C        C  651   2.520   3.655   3.513
    1C        C  652   2.506   3.446   3.641
    1C        C  653   2.502   3.517   3.763
    1C        C  654   2.528   3.308   3.885
    1C        C  655   2.504   3.448   3.886
    1C        C  656   2.547   3.242   4.008
    1C        C  657   2.536   3.313   4.130
    1C        C  658   2.595   3.112   4.255
    1C        C  659   2.544   3.244   4.253
    1C        C  660   2.627   3.051   4.378
    1C        C  661   2.593   3.114   4.500
    1C        C  662   2.703   2.934   4.622
    1C        C  663   2.624   3.051   4.622
    1C        C  664   2.745   2.872   4.743
    1C        C  665   2.693   2.928   4.863
    1C        C  666   2.739   2.865   4.980
    1C        C  667   2.676   4.019   2.051
    1C        C  668   2.679   4.099   2.166
    1C        C  669   2.580   3.909   2.288
    1C        C  670   2.639   4.039   2.287
    1C        C  671   2.558   3.842   2.410
    1C        C  672   2.585   3.913   2.530
    1C        C  673   2.515   3.714   2.655
    1C        C  674   2.558   3.848   2.653
    1C        C  675   2.509   3.646   2.778
    1C        C  676   2.524   3.715   2.901
    1C        C  677   2.504   3.506   3.026
    1C        C  678   2.511   3.647   3.024
    1C        C  679   2.502   3.437   3.150
    1C        C  680   2.502   3.509   3.271
    1C        C  681   2.524   3.303   3.396
    1C        C  682   2.506   3.443   3.396
    1C        C  683   2.541   3.236   3.519
    1C        C  684   2.521   3.305   3.641
    1C        C  685   2.593   3.107   3.766
    1C        C  686   2.540   3.238   3.763
    1C        C  687   2.628   3.046   3.889
    1C        C  688   2.595   3.109   4.010
    1C        C  689   2.702   2.928   4.136
    1C        C  690   2.625   3.047   4.134
    1C        C  691   2.746   2.871   4.258
    1C        C  692   2.703   2.931   4.379
    1C        C  693   2.749   2.878   4.501
    1C        C  694   2.623   3.889   2.052
    1C        C  695   2.522   3.701   2.171
    1C        C  696   2.572   3.833   2.169
    1C        C  697   2.499   3.634   2.293
    1C        C  698   2.516   3.708   2.413
    1C        C  699   2.489   3.500   2.539
    1C        C  700   2.494   3.641   2.535
    1C        C  701   2.500   3.430   2.662
    1C        C  702   2.497   3.505   2.781
    1C        C  703   2.521   3.296   2.907
    1C        C  704   2.500   3.435   2.904
    1C        C  705   2.537   3.226   3.029
    1C        C  706   2.525   3.297   3.150
    1C        C  707   2.587   3.099   3.275
    1C        C  708   2.539   3.232   3.274
    1C        C  709   2.621   3.040   3.399
    1C        C  710   2.593   3.105   3.521
    1C        C  711   2.703   2.925   3.645
    1C        C  712   2.623   3.042   3.644
    1C        C  713   2.747   2.873   3.769
    1C        C  714   2.703   2.927   3.892
    1C        C  715   2.742   2.869   4.015
    1C        C  716   2.445   3.496   2.060
    1C        C  717   2.482   3.631   2.056
    1C        C  718   2.460   3.418   2.179
    1C        C  719   2.477   3.494   2.298
    1C        C  720   2.511   3.285   2.421
    1C        C  721   2.486   3.424   2.420
    1C        C  722   2.528   3.216   2.543
    1C        C  723   2.514   3.290   2.662
    1C        C  724   2.588   3.093   2.787
    1C        C  725   2.536   3.225   2.786
    1C        C  726   2.615   3.027   2.909
    1C        C  727   2.584   3.093   3.030
    1C        C  728   2.697   2.917   3.157
    1C        C  729   2.615   3.032   3.154
    1C        C  730   2.740   2.862   3.279
    1C        C  731   2.703   2.925   3.401
    1C        C  732   2.746   2.868   3.523
    1C        C  733   2.484   3.192   2.070
    1C        C  734   2.483   3.277   2.182
    1C        C  735   2.568   3.077   2.304
    1C        C  736   2.511   3.208   2.302
    1C        C  737   2.601   3.011   2.424
    1C        C  738   2.580   3.084   2.543
    1C        C  739   2.688   2.904   2.667
    1C        C  740   2.620   3.028   2.666
    1C        C  741   2.734   2.850   2.789
    1C        C  742   2.694   2.910   2.910
    1C        C  743   2.741   2.861   3.035
    1C        C  744   2.537   3.064   2.068
    1C        C  745   2.673   2.891   2.183
    1C        C  746   2.595   3.008   2.183
    1C        C  747   2.723   2.836   2.303
    1C        C  748   2.680   2.895   2.424
    1C        C  749   2.728   2.842   2.546
    1C        C  750   2.733   2.837   2.068
    1C        C  751   3.660   2.303   1.994
    1C        O  752   3.669   2.195   2.058
    1C        O  753   3.646   2.280   1.856
    1C        C  754   4.596   3.060   1.944
    1C        O  755   4.550   3.048   1.827
    1C        O  756   4.680   2.950   1.963
    1C        C  757   4.447   4.220   1.970
    1C        O  758   4.567   4.254   1.986
    1C        O  759   4.397   4.259   1.845
    1C        C  760   3.582   4.655   1.934
    1C        O  761   3.571   4.776   1.969
    1C        O  762   3.585   4.633   1.796
    1C        C  763   2.901   4.460   1.924
    1C        O  764   2.869   4.418   1.810
    1C        O  765   2.848   4.589   1.937
    1C        C  766   2.350   3.463   1.951
    1C        O  767   2.392   3.432   1.836
    1C        O  768   2.215   3.501   1.942
    1C        C  769   4.673   3.577   5.060
    1C        O  770   4.640   3.587   5.181
    1C        O  771   4.782   3.491   5.045
    1C        C  772   4.249   4.417   5.064
    1C        O  773   4.215   4.388   5.182
    1C        O  774   4.379   4.469   5.056
    1C        C  775   4.152   2.512   5.051
    1C        O  776   4.241   2.432   5.012
    1C        O  777   4.182   2.561   5.178
    1C        C  778   2.908   4.518   5.073
    1C        O  779   2.872   4.639   5.063
    1C        O  780   2.971   4.487   5.194
    1C        C  781   2.464   3.029   5.067
    1C        O  782   2.353   2.998   5.015
    1C        O  783   2.495   2.980   5.193
    1C        C  784   2.394   4.008   5.026
    1C        O  785   2.291   4.068   4.985
    1C        O  786   2.351   3.918   5.125
    1C        C  787   2.944   2.436   1.988
    1C        O  788   2.933   2.451   1.864
    1C        O  789   2.881   2.327   2.048
    1C        C  790   3.175   2.368   5.061
    1C        O  791   3.151   2.259   5.002
    1C        O  792   3.163   2.350   5.200
    1C        H  793   4.261   3.024   5.053
    1C        H  794   4.203   2.790   5.071
    1C        H  795   4.492   3.123   5.056
    1C        H  796   4.559   3.348   5.055
    1C        H  797   4.604   3.817   5.007
    1C        H  798   4.385   3.955   5.046
    1C        H  799   4.292   4.168   5.051
    1C        H  800   4.037   4.550   5.018
    1C        H  801   3.802   4.537   5.038
    1C        H  802   3.581   4.638   5.027
    1C        H  803   3.401   4.484   5.035
    1C        H  804   3.155   4.484   5.049
    1C        H  805   3.881   2.477   5.061
    1C        H  806   3.667   2.484   5.077
    1C        H  807   3.025   2.590   5.070
    1C        H  808   3.435   2.453   5.070
    1C        H  809   2.835   2.705   5.061
    1C        H  810   2.750   2.929   5.066
    1C        H  811   2.473   3.279   5.059
    1C        H  812   2.584   3.511   5.058
    1C        H  813   2.489   3.726   5.066
    1C        H  814   2.596   4.173   5.044
    1C        H  815   2.741   4.334   5.045
    1C        H  816   2.709   2.877   1.971
    1C        H  817   2.821   2.671   1.976
    1C        H  818   3.181   2.374   2.021
    1C        H  819   3.415   2.419   1.979
    1C        H  820   3.858   2.488   1.969
    1C        H  821   4.054   2.620   1.962
    1C        H  822   4.270   2.701   1.976
    1C        H  823   4.406   2.892   1.967
    1C        H  824   4.567   3.305   1.961
    1C        H  825   4.499   3.500   1.960
    1C        H  826   4.498   3.743   1.948
    1C        H  827   3.805   4.524   1.952
    1C        H  828   3.990   4.415   1.951
    1C        H  829   4.135   4.212   1.954
    1C        H  830   4.483   3.960   1.952
    1C        H  831   2.694   3.823   2.007
    1C        H  832   2.741   4.034   1.968
    1C        H  833   2.725   4.270   1.958
    1C        H  834   3.359   4.501   1.939
    1C        H  835   3.140   4.433   1.943
    1C        H  836   2.493   2.995   1.999
    1C        H  837   2.413   3.213   1.993
    1C        H  838   2.452   3.688   1.970
    2V3OU   H29  839   2.800   3.541   1.953
    2V3OU   C27  840   2.779   3.496   2.053
    2V3OU   H27  841   2.730   3.570   2.121
    2V3OU   H28  842   2.724   3.399   2.048
    2V3OU   O11  843   2.906   3.473   2.115
    2V3OU   C15  844   2.919   3.392   2.226
    2V3OU   C13  845   3.046   3.369   2.281
    2V3OU   C14  846   3.072   3.267   2.373
    2V3OU   C16  847   2.969   3.184   2.415
    2V3OU    H6  848   2.993   3.095   2.474
    2V3OU   C12  849   3.210   3.223   2.406
    2V3OU    O2  850   3.234   3.118   2.470
    2V3OU   C10  851   3.321   3.303   2.353
    2V3OU    C8  852   3.452   3.265   2.384
    2V3OU   O10  853   3.485   3.146   2.442
    2V3OU   H26  854   3.395   3.111   2.457
    2V3OU    C6  855   3.561   3.345   2.338
    2V3OU    C5  856   3.534   3.464   2.271
    2V3OU    C4  857   3.697   3.286   2.340
    2V3OU    H4  858   3.724   3.229   2.434
    2V3OU    H5  859   3.705   3.219   2.249
    2V3OU    C2  860   3.809   3.390   2.331
    2V3OU    O6  861   3.801   3.466   2.452
    2V3OU   H21  862   3.764   3.552   2.427
    2V3OU    C3  863   3.776   3.491   2.220
    2V3OU    H2  864   3.853   3.572   2.213
    2V3OU    H3  865   3.774   3.435   2.123
    2V3OU   C25  866   3.945   3.323   2.315
    2V3OU    O7  867   3.994   3.292   2.206
    2V3OU   C26  868   4.029   3.285   2.436
    2V3OU   H22  869   4.051   3.382   2.488
    2V3OU   H23  870   4.119   3.226   2.404
    2V3OU    O8  871   3.955   3.205   2.525
    2V3OU   H24  872   3.921   3.256   2.601
    2V3OU    C1  873   3.644   3.563   2.242
    2V3OU    H1  874   3.619   3.613   2.144
    2V3OU    O3  875   3.656   3.651   2.354
    2V3OU   C19  876   3.616   3.788   2.342
    2V3OU    H9  877   3.523   3.793   2.279
    2V3OU    O4  878   3.714   3.848   2.260
    2V3OU   C20  879   3.843   3.876   2.315
    2V3OU   H10  880   3.890   3.773   2.323
    2V3OU   C24  881   3.609   3.848   2.483
    2V3OU   H16  882   3.541   3.782   2.542
    2V3OU   H17  883   3.562   3.950   2.479
    2V3OU   C23  884   3.745   3.869   2.549
    2V3OU   H15  885   3.788   3.767   2.574
    2V3OU    N1  886   3.733   3.950   2.669
    2V3OU   H19  887   3.809   3.921   2.726
    2V3OU   H20  888   3.647   3.933   2.717
    2V3OU   C21  889   3.844   3.942   2.453
    2V3OU   H11  890   3.946   3.923   2.498
    2V3OU    O5  891   3.824   4.083   2.451
    2V3OU   H18  892   3.778   4.104   2.534
    2V3OU   C22  893   3.913   3.949   2.202
    2V3OU   H12  894   3.863   4.047   2.182
    2V3OU   H13  895   3.906   3.887   2.109
    2V3OU   H14  896   4.022   3.956   2.225
    2V3OU   C11  897   3.155   3.466   2.261
    2V3OU    O1  898   3.138   3.582   2.218
    2V3OU    C9  899   3.295   3.420   2.278
    2V3OU    C7  900   3.400   3.504   2.243
    2V3OU    O9  901   3.381   3.616   2.164
    2V3OU   H25  902   3.285   3.623   2.148
    2V3OU   C17  903   2.815   3.307   2.269
    2V3OU    H7  904   2.714   3.344   2.255
    2V3OU   C18  905   2.842   3.207   2.362
    2V3OU    H8  906   2.764   3.161   2.425
    3SOL     OW  907   3.500   4.632   0.744
    3SOL    HW1  908   3.461   4.699   0.807
    3SOL    HW2  909   3.571   4.579   0.790
    4SOL     OW  910   6.905   6.231   1.788
    4SOL    HW1  911   6.922   6.234   1.886
    4SOL    HW2  912   6.923   6.321   1.748
    5SOL     OW  913   4.083   1.618   2.703
    5SOL    HW1  914   4.081   1.519   2.691
    5SOL    HW2  915   4.016   1.645   2.773
    6SOL     OW  916   4.298   1.457   1.024
    6SOL    HW1  917   4.335   1.371   0.989
    6SOL    HW2  918   4.199   1.449   1.037
    7SOL     OW  919   6.554   3.635   2.313
    7SOL    HW1  920   6.608   3.552   2.296
    7SOL    HW2  921   6.608   3.701   2.364
    8SOL     OW  922   2.742   0.084   6.492
    8SOL    HW1  923   2.769   7.004   6.500
    8SOL    HW2  924   2.797   0.140   6.554
    9SOL     OW  925   6.819   5.562   6.332
    9SOL    HW1  926   6.774   5.477   6.359
    9SOL    HW2  927   6.877   5.594   6.407
   10SOL     OW  928   0.833   5.116   5.933
   10SOL    HW1  929   0.924   5.075   5.940
   10SOL    HW2  930   0.765   5.051   5.967
   11SOL     OW  931   2.843   6.979   6.994
   11SOL    HW1  932   2.809   6.972   6.900
   11SOL    HW2  933   2.916   6.911   7.008
   12SOL     OW  934   3.801   6.218   4.384
   12SOL    HW1  935   3.780   6.212   4.286
   12SOL    HW2  936   3.888   6.172   4.402
   13SOL     OW  937   3.407   5.388   3.780
   13SOL    HW1  938   3.370   5.476   3.811
   13SOL    HW2  939   3.342   5.345   3.718
   14SOL     OW  940   5.123   5.059   6.180
   14SOL    HW1  941   5.211   5.104   6.195
   14SOL    HW2  942   5.058   5.090   6.250
   15SOL     OW  943   1.293   5.787   1.278
   15SOL    HW1  944   1.322   5.792   1.374
   15SOL    HW2  945   1.215   5.848   1.264
   16SOL     OW  946   5.585   3.053   5.597
   16SOL    HW1  947   5.597   3.150   5.576
   16SOL    HW2  948   5.501   3.020   5.555
   17SOL     OW  949   5.381   6.285   5.474
   17SOL    HW1  950   5.333   6.248   5.394
   17SOL    HW2  951   5.328   6.265   5.556
   18SOL     OW  952   3.123   0.970   5.929
   18SOL    HW1  953   3.195   0.913   5.892
   18SOL    HW2  954   3.037   0.952   5.881
   19SOL     OW  955   0.557   7.015   3.525
   19SOL    HW1  956   0.632   0.025   3.587
   19SOL    HW2  957   0.527   0.080   3.474
   20SOL     OW  958   5.395   2.614   4.571
   20SOL    HW1  959   5.361   2.534   4.622
   20SOL    HW2  960   5.491   2.600   4.547
   21SOL     OW  961   3.067   2.141   2.496
   21SOL    HW1  962   2.996   2.089   2.544
   21SOL    HW2  963   3.027   2.189   2.418
   22SOL     OW  964   2.203   6.906   0.102
   22SOL    HW1  965   2.263   6.932   0.177
   22SOL    HW2  966   2.137   6.838   0.135
   23SOL     OW  967   4.751   6.627   3.408
   23SOL    HW1  968   4.682   6.566   3.446
   23SOL    HW2  969   4.718   6.721   3.411
   24SOL     OW  970   4.940   0.866   3.356
   24SOL    HW1  971   4.954   0.782   3.410
   24SOL    HW2  972   4.907   0.939   3.416
   25SOL     OW  973   2.918   6.875   5.060
   25SOL    HW1  974   3.011   6.887   5.025
   25SOL    HW2  975   2.853   6.895   4.987
   26SOL     OW  976   6.166   1.081   0.538
   26SOL    HW1  977   6.117   1.107   0.621
   26SOL    HW2  978   6.264   1.100   0.549
   27SOL     OW  979   0.590   1.660   1.673
   27SOL    HW1  980   0.516   1.700   1.728
   27SOL    HW2  981   0.677   1.671   1.721
   28SOL     OW  982   3.669   1.320   6.682
   28SOL    HW1  983   3.734   1.268   6.736
   28SOL    HW2  984   3.716   1.362   6.604
   29SOL     OW  985   5.031   2.945   1.772
   29SOL    HW1  986   5.006   3.018   1.708
   29SOL    HW2  987   4.996   2.967   1.863
   30SOL     OW  988   3.301   0.851   4.613
   30SOL    HW1  989   3.389   0.805   4.624
   30SOL    HW2  990   3.312   0.934   4.558
   31SOL     OW  991   0.724   2.589   5.769
   31SOL    HW1  992   0.677   2.501   5.759
   31SOL    HW2  993   0.668   2.661   5.728
   32SOL     OW  994   0.224   1.711   3.157
   32SOL    HW1  995   0.141   1.765   3.142
   32SOL    HW2  996   0.261   1.684   3.068
   33SOL     OW  997   2.343   3.416   7.015
   33SOL    HW1  998   2.384   3.506   0.015
   33SOL    HW2  999   2.328   3.370   0.087
   34SOL     OW 1000   2.188   1.551   3.213
   34SOL    HW1 1001   2.263   1.587   3.269
   34SOL    HW2 1002   2.209   1.563   3.116
   35SOL     OW 1003   3.322   2.816   6.891
   35SOL    HW1 1004   3.367   2.882   6.829
   35SOL    HW2 1005   3.264   2.755   6.838
   36SOL     OW 1006   6.208   0.814   5.803
   36SOL    HW1 1007   6.222   0.912   5.816
   36SOL    HW2 1008   6.215   0.792   5.705
   37SOL     OW 1009   1.130   0.305   0.546
   37SOL    HW1 1010   1.192   0.226   0.543
   37SOL    HW2 1011   1.045   0.282   0.500
   38SOL     OW 1012   6.915   4.623   2.303
   38SOL    HW1 1013   6.954   4.571   2.378
   38SOL    HW2 1014   6.880   4.560   2.233
   39SOL     OW 1015   6.872   5.042   6.788
   39SOL    HW1 1016   6.934   5.120   6.778
   39SOL    HW2 1017   6.908   4.964   6.736
   40SOL     OW 1018   5.319   1.964   1.547
   40SOL    HW1 1019   5.322   1.996   1.452
   40SOL    HW2 1020   5.303   2.042   1.607
   41SOL     OW 1021   6.708   6.835   4.073
   41SOL    HW1 1022   6.610   6.845   4.055
   41SOL    HW2 1023   6.748   6.924   4.094
   42SOL     OW 1024   2.505   5.607   5.366
   42SOL    HW1 1025   2.539   5.570   5.280
   42SOL    HW2 1026   2.406   5.619   5.361
   43SOL     OW 1027   5.454   6.427   5.053
   43SOL    HW1 1028   5.374   6.468   5.099
   43SOL    HW2 1029   5.430   6.335   5.022
   44SOL     OW 1030   5.920   1.764   6.534
   44SOL    HW1 1031   5.878   1.816   6.608
   44SOL    HW2 1032   5.875   1.675   6.527
   45SOL     OW 1033   3.341   6.655   3.142
   45SOL    HW1 1034   3.397   6.719   3.090
   45SOL    HW2 1035   3.280   6.606   3.080
   46SOL     OW 1036   1.150   3.055   3.579
   46SOL    HW1 1037   1.164   3.138   3.525
   46SOL    HW2 1038   1.213   3.054   3.657
   47SOL     OW 1039   4.831   4.681   1.171
   47SOL    HW1 1040   4.913   4.654   1.221
   47SOL    HW2 1041   4.831   4.781   1.160
   48SOL     OW 1042   6.854   2.676   6.115
   48SOL    HW1 1043   6.885   2.665   6.210
   48SOL    HW2 1044   6.862   2.772   6.089
   49SOL     OW 1045   4.801   4.135   1.893
   49SOL    HW1 1046   4.798   4.070   1.817
   49SOL    HW2 1047   4.710   4.143   1.933
   50SOL     OW 1048   6.326   2.562   5.535
   50SOL    HW1 1049   6.277   2.630   5.588
   50SOL    HW2 1050   6.279   2.545   5.449
   51SOL     OW 1051   3.213   6.361   2.686
   51SOL    HW1 1052   3.205   6.417   2.604
   51SOL    HW2 1053   3.122   6.339   2.720
   52SOL     OW 1054   5.329   2.413   3.030
   52SOL    HW1 1055   5.421   2.452   3.029
   52SOL    HW2 1056   5.262   2.485   3.049
   53SOL     OW 1057   4.024   6.843   4.562
   53SOL    HW1 1058   4.114   6.842   4.520
   53SOL    HW2 1059   3.957   6.800   4.500
   54SOL     OW 1060   3.750   4.797   1.109
   54SOL    HW1 1061   3.814   4.811   1.034
   54SOL    HW2 1062   3.670   4.747   1.075
   55SOL     OW 1063   3.422   1.588   6.103
   55SOL    HW1 1064   3.393   1.678   6.070
   55SOL    HW2 1065   3.372   1.517   6.053
   56SOL     OW 1066   0.213   0.642   1.340
   56SOL    HW1 1067   0.236   0.545   1.338
   56SOL    HW2 1068   0.264   0.690   1.269
   57SOL     OW 1069   5.217   0.206   0.715
   57SOL    HW1 1070   5.208   0.296   0.673
   57SOL    HW2 1071   5.278   0.212   0.795
   58SOL     OW 1072   6.732   6.713   5.974
   58SOL    HW1 1073   6.736   6.799   6.024
   58SOL    HW2 1074   6.824   6.676   5.963
   59SOL     OW 1075   1.416   1.346   5.565
   59SOL    HW1 1076   1.336   1.394   5.529
   59SOL    HW2 1077   1.408   1.248   5.547
   60SOL     OW 1078   5.511   1.037   5.841
   60SOL    HW1 1079   5.499   0.938   5.852
   60SOL    HW2 1080   5.424   1.083   5.858
   61SOL     OW 1081   5.012   1.902   5.015
   61SOL    HW1 1082   4.921   1.865   5.033
   61SOL    HW2 1083   5.052   1.938   5.099
   62SOL     OW 1084   6.614   1.175   3.260
   62SOL    HW1 1085   6.692   1.119   3.232
   62SOL    HW2 1086   6.634   1.271   3.242
   63SOL     OW 1087   5.531   1.622   3.947
   63SOL    HW1 1088   5.567   1.700   3.896
   63SOL    HW2 1089   5.473   1.567   3.888
   64SOL     OW 1090   0.402   4.060   5.881
   64SOL    HW1 1091   0.398   4.115   5.964
   64SOL    HW2 1092   0.309   4.047   5.845
   65SOL     OW 1093   6.827   4.494   5.335
   65SOL    HW1 1094   6.815   4.396   5.347
   65SOL    HW2 1095   6.795   4.542   5.417
   66SOL     OW 1096   3.663   0.825   5.470
   66SOL    HW1 1097   3.755   0.860   5.455
   66SOL    HW2 1098   3.664   0.725   5.473
   67SOL     OW 1099   5.086   4.317   5.695
   67SOL    HW1 1100   5.061   4.392   5.757
   67SOL    HW2 1101   5.163   4.345   5.638
   68SOL     OW 1102   5.507   0.993   6.710
   68SOL    HW1 1103   5.502   0.894   6.718
   68SOL    HW2 1104   5.462   1.035   6.789
   69SOL     OW 1105   1.002   3.851   6.301
   69SOL    HW1 1106   1.021   3.944   6.269
   69SOL    HW2 1107   0.984   3.792   6.223
   70SOL     OW 1108   5.908   4.990   4.211
   70SOL    HW1 1109   5.898   4.977   4.309
   70SOL    HW2 1110   5.998   4.958   4.182
   71SOL     OW 1111   4.203   1.542   3.053
   71SOL    HW1 1112   4.185   1.460   2.999
   71SOL    HW2 1113   4.235   1.615   2.993
   72SOL     OW 1114   2.483   6.132   4.395
   72SOL    HW1 1115   2.489   6.048   4.448
   72SOL    HW2 1116   2.532   6.205   4.443
   73SOL     OW 1117   3.354   0.990   0.916
   73SOL    HW1 1118   3.414   1.068   0.904
   73SOL    HW2 1119   3.290   0.985   0.840
   74SOL     OW 1120   5.466   6.196   6.406
   74SOL    HW1 1121   5.479   6.141   6.488
   74SOL    HW2 1122   5.424   6.140   6.334
   75SOL     OW 1123   3.878   0.147   0.041
   75SOL    HW1 1124   3.869   0.085   0.119
   75SOL    HW2 1125   3.817   0.117   6.983
   76SOL     OW 1126   2.424   2.496   0.849
   76SOL    HW1 1127   2.437   2.435   0.770
   76SOL    HW2 1128   2.452   2.589   0.824
   77SOL     OW 1129   6.229   6.188   3.524
   77SOL    HW1 1130   6.171   6.237   3.589
   77SOL    HW2 1131   6.317   6.169   3.566
   78SOL     OW 1132   5.692   0.367   6.460
   78SOL    HW1 1133   5.621   0.429   6.425
   78SOL    HW2 1134   5.782   0.406   6.441
   79SOL     OW 1135   3.298   6.109   0.171
   79SOL    HW1 1136   3.372   6.071   0.115
   79SOL    HW2 1137   3.236   6.035   0.198
   80SOL     OW 1138   5.542   2.253   3.647
   80SOL    HW1 1139   5.637   2.225   3.635
   80SOL    HW2 1140   5.491   2.234   3.563
   81SOL     OW 1141   2.492   0.402   3.369
   81SOL    HW1 1142   2.549   0.389   3.450
   81SOL    HW2 1143   2.488   0.317   3.317
   82SOL     OW 1144   6.691   5.114   0.924
   82SOL    HW1 1145   6.598   5.103   0.889
   82SOL    HW2 1146   6.711   5.042   0.990
   83SOL     OW 1147   0.272   0.733   0.682
   83SOL    HW1 1148   0.364   0.695   0.694
   83SOL    HW2 1149   0.279   0.824   0.640
   84SOL     OW 1150   5.413   3.066   3.795
   84SOL    HW1 1151   5.436   3.143   3.854
   84SOL    HW2 1152   5.496   3.034   3.749
   85SOL     OW 1153   2.104   1.932   4.639
   85SOL    HW1 1154   2.129   1.841   4.607
   85SOL    HW2 1155   2.014   1.930   4.682
   86SOL     OW 1156   6.940   0.544   5.042
   86SOL    HW1 1157   6.849   0.585   5.047
   86SOL    HW2 1158   6.931   0.445   5.032
   87SOL     OW 1159   5.379   3.679   0.562
   87SOL    HW1 1160   5.316   3.633   0.625
   87SOL    HW2 1161   5.336   3.685   0.472
   88SOL     OW 1162   3.825   1.610   6.264
   88SOL    HW1 1163   3.789   1.675   6.197
   88SOL    HW2 1164   3.859   1.529   6.216
   89SOL     OW 1165   0.875   2.403   5.372
   89SOL    HW1 1166   0.887   2.368   5.465
   89SOL    HW2 1167   0.934   2.351   5.310
   90SOL     OW 1168   3.973   6.001   2.630
   90SOL    HW1 1169   3.966   6.099   2.610
   90SOL    HW2 1170   3.938   5.949   2.552
   91SOL     OW 1171   4.609   4.293   5.186
   91SOL    HW1 1172   4.660   4.257   5.264
   91SOL    HW2 1173   4.669   4.348   5.128
   92SOL     OW 1174   3.479   4.029   0.200
   92SOL    HW1 1175   3.572   4.052   0.228
   92SOL    HW2 1176   3.480   3.984   0.111
   93SOL     OW 1177   2.538   3.974   6.693
   93SOL    HW1 1178   2.521   3.881   6.660
   93SOL    HW2 1179   2.498   4.040   6.630
   94SOL     OW 1180   2.644   6.229   6.056
   94SOL    HW1 1181   2.596   6.145   6.031
   94SOL    HW2 1182   2.725   6.239   6.000
   95SOL     OW 1183   1.383   0.671   3.043
   95SOL    HW1 1184   1.291   0.668   3.083
   95SOL    HW2 1185   1.401   0.763   3.007
   96SOL     OW 1186   3.176   0.240   5.151
   96SOL    HW1 1187   3.125   0.168   5.199
   96SOL    HW2 1188   3.273   0.232   5.174
   97SOL     OW 1189   1.898   2.966   5.868
   97SOL    HW1 1190   1.919   2.882   5.820
   97SOL    HW2 1191   1.981   3.005   5.906
   98SOL     OW 1192   6.501   3.518   0.688
   98SOL    HW1 1193   6.514   3.582   0.613
   98SOL    HW2 1194   6.551   3.551   0.769
   99SOL     OW 1195   4.199   3.663   1.054
   99SOL    HW1 1196   4.132   3.673   0.980
   99SOL    HW2 1197   4.193   3.570   1.091
  100SOL     OW 1198   6.905   6.717   5.080
  100SOL    HW1 1199   6.839   6.751   5.013
  100SOL    HW2 1200   6.896   6.770   5.164
  101SOL     OW 1201   1.679   5.539   2.367
  101SOL    HW1 1202   1.643   5.450   2.395
  101SOL    HW2 1203   1.672   5.548   2.268
  102SOL     OW 1204   3.992   0.126   2.725
  102SOL    HW1 1205   4.031   0.127   2.817
  102SOL    HW2 1206   4.055   0.174   2.662
  103SOL     OW 1207   2.833   1.159   2.088
  103SOL    HW1 1208   2.780   1.105   2.154
  103SOL    HW2 1209   2.788   1.247   2.074
  104SOL     OW 1210   0.356   5.552   2.944
  104SOL    HW1 1211   0.258   5.567   2.929
  104SOL    HW2 1212   0.381   5.460   2.912
  105SOL     OW 1213   6.919   2.713   6.738
  105SOL    HW1 1214   6.840   2.652   6.728
  105SOL    HW2 1215   6.887   2.802   6.771
  106SOL     OW 1216   3.851   6.242   4.997
  106SOL    HW1 1217   3.863   6.341   5.002
  106SOL    HW2 1218   3.762   6.218   5.036
  107SOL     OW 1219   2.161   1.482   1.933
  107SOL    HW1 1220   2.100   1.537   1.876
  107SOL    HW2 1221   2.109   1.440   2.007
  108SOL     OW 1222   3.718   5.414   5.622
  108SOL    HW1 1223   3.684   5.347   5.688
  108SOL    HW2 1224   3.646   5.434   5.556
  109SOL     OW 1225   6.787   0.713   1.647
  109SOL    HW1 1226   6.861   0.715   1.580
  109SOL    HW2 1227   6.825   0.705   1.739
  110SOL     OW 1228   3.308   5.482   5.165
  110SOL    HW1 1229   3.374   5.517   5.099
  110SOL    HW2 1230   3.317   5.383   5.173
  111SOL     OW 1231   2.683   1.514   4.251
  111SOL    HW1 1232   2.654   1.567   4.330
  111SOL    HW2 1233   2.603   1.479   4.202
  112SOL     OW 1234   4.854   6.979   6.239
  112SOL    HW1 1235   4.805   6.904   6.194
  112SOL    HW2 1236   4.792   0.010   6.302
  113SOL     OW 1237   6.040   5.815   2.948
  113SOL    HW1 1238   5.988   5.773   2.873
  113SOL    HW2 1239   6.106   5.749   2.984
  114SOL     OW 1240   0.528   0.321   1.371
  114SOL    HW1 1241   0.479   0.238   1.341
  114SOL    HW2 1242   0.614   0.327   1.320
  115SOL     OW 1243   4.081   1.459   3.603
  115SOL    HW1 1244   4.073   1.556   3.629
  115SOL    HW2 1245   3.993   1.425   3.572
  116SOL     OW 1246   5.738   4.764   1.716
  116SOL    HW1 1247   5.765   4.786   1.809
  116SOL    HW2 1248   5.728   4.848   1.663
  117SOL     OW 1249   1.176   1.793   0.375
  117SOL    HW1 1250   1.272   1.813   0.395
  117SOL    HW2 1251   1.160   1.695   0.384
  118SOL     OW 1252   1.773   0.975   3.448
  118SOL    HW1 1253   1.681   0.985   3.485
  118SOL    HW2 1254   1.814   1.065   3.435
  119SOL     OW 1255   0.434   1.208   0.014
  119SOL    HW1 1256   0.335   1.208   0.027
  119SOL    HW2 1257   0.457   1.152   6.950
  120SOL     OW 1258   6.483   6.531   0.287
  120SOL    HW1 1259   6.573   6.574   0.285
  120SOL    HW2 1260   6.490   6.438   0.324
  121SOL     OW 1261   2.108   3.472   6.363
  121SOL    HW1 1262   2.133   3.385   6.403
  121SOL    HW2 1263   2.177   3.541   6.384
  122SOL     OW 1264   2.040   4.307   6.355
  122SOL    HW1 1265   2.038   4.278   6.451
  122SOL    HW2 1266   2.001   4.234   6.298
  123SOL     OW 1267   0.337   1.259   1.897
  123SOL    HW1 1268   0.436   1.245   1.902
  123SOL    HW2 1269   0.306   1.242   1.803
  124SOL     OW 1270   4.639   3.117   0.957
  124SOL    HW1 1271   4.619   3.031   0.910
  124SOL    HW2 1272   4.738   3.127   0.968
  125SOL     OW 1273   3.710   1.728   1.535
  125SOL    HW1 1274   3.641   1.779   1.586
  125SOL    HW2 1275   3.788   1.709   1.595
  126SOL     OW 1276   2.692   3.676   0.896
  126SOL    HW1 1277   2.652   3.648   0.983
  126SOL    HW2 1278   2.655   3.619   0.823
  127SOL     OW 1279   0.996   5.341   6.408
  127SOL    HW1 1280   0.949   5.257   6.381
  127SOL    HW2 1281   0.938   5.420   6.387
  128SOL     OW 1282   4.967   3.191   1.300
  128SOL    HW1 1283   4.968   3.092   1.316
  128SOL    HW2 1284   5.012   3.211   1.212
  129SOL     OW 1285   2.348   2.886   6.142
  129SOL    HW1 1286   2.433   2.839   6.167
  129SOL    HW2 1287   2.366   2.952   6.069
  130SOL     OW 1288   0.844   1.858   3.893
  130SOL    HW1 1289   0.829   1.844   3.991
  130SOL    HW2 1290   0.883   1.775   3.853
  131SOL     OW 1291   5.034   1.896   3.863
  131SOL    HW1 1292   4.966   1.873   3.932
  131SOL    HW2 1293   5.029   1.993   3.842
  132SOL     OW 1294   2.137   2.414   1.343
  132SOL    HW1 1295   2.074   2.404   1.420
  132SOL    HW2 1296   2.218   2.357   1.358
  133SOL     OW 1297   4.671   6.521   4.018
  133SOL    HW1 1298   4.701   6.545   3.926
  133SOL    HW2 1299   4.573   6.505   4.019
  134SOL     OW 1300   6.511   1.550   2.447
  134SOL    HW1 1301   6.476   1.543   2.540
  134SOL    HW2 1302   6.587   1.487   2.435
  135SOL     OW 1303   5.700   3.685   3.739
  135SOL    HW1 1304   5.652   3.671   3.825
  135SOL    HW2 1305   5.760   3.607   3.721
  136SOL     OW 1306   3.421   3.796   5.589
  136SOL    HW1 1307   3.453   3.799   5.684
  136SOL    HW2 1308   3.494   3.825   5.528
  137SOL     OW 1309   5.595   1.863   4.934
  137SOL    HW1 1310   5.546   1.786   4.894
  137SOL    HW2 1311   5.530   1.936   4.957
  138SOL     OW 1312   1.090   4.227   2.995
  138SOL    HW1 1313   1.056   4.221   2.901
  138SOL    HW2 1314   1.133   4.316   3.009
  139SOL     OW 1315   2.087   6.970   4.757
  139SOL    HW1 1316   2.024   7.009   4.824
  139SOL    HW2 1317   2.051   6.983   4.665
  140SOL     OW 1318   0.776   5.515   2.674
  140SOL    HW1 1319   0.809   5.476   2.760
  140SOL    HW2 1320   0.792   5.450   2.599
  141SOL     OW 1321   6.263   3.272   5.286
  141SOL    HW1 1322   6.174   3.280   5.330
  141SOL    HW2 1323   6.318   3.353   5.307
  142SOL     OW 1324   1.422   4.145   0.581
  142SOL    HW1 1325   1.409   4.064   0.638
  142SOL    HW2 1326   1.335   4.173   0.542
  143SOL     OW 1327   5.981   4.565   1.336
  143SOL    HW1 1328   6.012   4.473   1.362
  143SOL    HW2 1329   5.881   4.565   1.325
  144SOL     OW 1330   1.178   6.496   5.836
  144SOL    HW1 1331   1.157   6.407   5.794
  144SOL    HW2 1332   1.231   6.482   5.919
  145SOL     OW 1333   6.981   5.862   0.203
  145SOL    HW1 1334   7.012   5.772   0.175
  145SOL    HW2 1335   6.891   5.881   0.164
  146SOL     OW 1336   4.655   0.021   6.672
  146SOL    HW1 1337   4.682   6.955   6.723
  146SOL    HW2 1338   4.730   0.050   6.613
  147SOL     OW 1339   6.446   3.903   6.975
  147SOL    HW1 1340   6.428   3.978   6.912
  147SOL    HW2 1341   6.430   3.932   0.054
  148SOL     OW 1342   0.095   5.247   6.379
  148SOL    HW1 1343   0.150   5.264   6.461
  148SOL    HW2 1344   7.015   5.272   6.398
  149SOL     OW 1345   2.871   1.702   4.197
  149SOL    HW1 1346   2.797   1.635   4.205
  149SOL    HW2 1347   2.882   1.750   4.285
  150SOL     OW 1348   5.801   5.704   6.769
  150SOL    HW1 1349   5.732   5.654   6.820
  150SOL    HW2 1350   5.759   5.747   6.689
  151SOL     OW 1351   3.054   2.252   0.924
  151SOL    HW1 1352   2.961   2.227   0.953
  151SOL    HW2 1353   3.104   2.169   0.899
  152SOL     OW 1354   1.504   0.743   2.425
  152SOL    HW1 1355   1.464   0.807   2.359
  152SOL    HW2 1356   1.604   0.751   2.422
  153SOL     OW 1357   2.712   0.686   1.804
  153SOL    HW1 1358   2.712   0.771   1.750
  153SOL    HW2 1359   2.804   0.667   1.836
  154SOL     OW 1360   0.466   2.201   2.412
  154SOL    HW1 1361   0.521   2.143   2.352
  154SOL    HW2 1362   0.524   2.241   2.482
  155SOL     OW 1363   6.692   1.824   3.127
  155SOL    HW1 1364   6.746   1.822   3.212
  155SOL    HW2 1365   6.613   1.763   3.137
  156SOL     OW 1366   0.468   2.042   0.689
  156SOL    HW1 1367   0.473   1.953   0.735
  156SOL    HW2 1368   0.373   2.062   0.666
  157SOL     OW 1369   5.692   3.050   1.346
  157SOL    HW1 1370   5.615   3.032   1.285
  157SOL    HW2 1371   5.658   3.070   1.438
  158SOL     OW 1372   2.163   5.621   2.622
  158SOL    HW1 1373   2.080   5.676   2.624
  158SOL    HW2 1374   2.193   5.609   2.527
  159SOL     OW 1375   4.320   4.654   2.505
  159SOL    HW1 1376   4.340   4.614   2.595
  159SOL    HW2 1377   4.356   4.595   2.433
  160SOL     OW 1378   6.042   5.267   0.240
  160SOL    HW1 1379   5.978   5.248   0.314
  160SOL    HW2 1380   6.032   5.363   0.213
  161SOL     OW 1381   1.737   5.828   4.163
  161SOL    HW1 1382   1.765   5.835   4.067
  161SOL    HW2 1383   1.795   5.886   4.219
  162SOL     OW 1384   3.654   5.926   0.206
  162SOL    HW1 1385   3.593   5.975   0.144
  162SOL    HW2 1386   3.745   5.966   0.201
  163SOL     OW 1387   5.722   5.687   0.738
  163SOL    HW1 1388   5.661   5.731   0.804
  163SOL    HW2 1389   5.678   5.607   0.699
  164SOL     OW 1390   6.430   4.474   0.281
  164SOL    HW1 1391   6.382   4.389   0.301
  164SOL    HW2 1392   6.510   4.482   0.340
  165SOL     OW 1393   4.965   3.118   1.579
  165SOL    HW1 1394   4.961   3.168   1.492
  165SOL    HW2 1395   4.877   3.077   1.599
  166SOL     OW 1396   0.025   4.459   3.144
  166SOL    HW1 1397   0.112   4.505   3.129
  166SOL    HW2 1398   0.038   4.360   3.139
  167SOL     OW 1399   5.108   2.770   0.442
  167SOL    HW1 1400   5.208   2.772   0.434
  167SOL    HW2 1401   5.072   2.698   0.382
  168SOL     OW 1402   2.410   2.786   1.298
  168SOL    HW1 1403   2.419   2.859   1.231
  168SOL    HW2 1404   2.387   2.825   1.387
  169SOL     OW 1405   4.625   1.076   1.231
  169SOL    HW1 1406   4.594   0.981   1.243
  169SOL    HW2 1407   4.559   1.125   1.174
  170SOL     OW 1408   1.541   1.407   3.255
  170SOL    HW1 1409   1.534   1.406   3.355
  170SOL    HW2 1410   1.581   1.321   3.223
  171SOL     OW 1411   3.862   4.277   6.742
  171SOL    HW1 1412   3.804   4.203   6.709
  171SOL    HW2 1413   3.805   4.358   6.759
  172SOL     OW 1414   6.184   2.039   3.819
  172SOL    HW1 1415   6.255   1.980   3.858
  172SOL    HW2 1416   6.177   2.123   3.874
  173SOL     OW 1417   0.081   1.995   4.426
  173SOL    HW1 1418   0.032   2.081   4.413
  173SOL    HW2 1419   0.156   1.989   4.359
  174SOL     OW 1420   3.594   5.335   3.564
  174SOL    HW1 1421   3.531   5.326   3.487
  174SOL    HW2 1422   3.542   5.347   3.648
  175SOL     OW 1423   2.346   0.509   1.600
  175SOL    HW1 1424   2.363   0.410   1.603
  175SOL    HW2 1425   2.250   0.527   1.620
  176SOL     OW 1426   1.109   4.604   0.829
  176SOL    HW1 1427   1.127   4.528   0.766
  176SOL    HW2 1428   1.118   4.572   0.923
  177SOL     OW 1429   6.081   3.213   2.779
  177SOL    HW1 1430   6.051   3.306   2.758
  177SOL    HW2 1431   6.001   3.153   2.787
  178SOL     OW 1432   2.345   2.597   6.812
  178SOL    HW1 1433   2.393   2.677   6.848
  178SOL    HW2 1434   2.371   2.516   6.866
  179SOL     OW 1435   2.878   1.127   5.730
  179SOL    HW1 1436   2.858   1.052   5.795
  179SOL    HW2 1437   2.853   1.098   5.638
  180SOL     OW 1438   1.850   6.747   0.365
  180SOL    HW1 1439   1.836   6.839   0.400
  180SOL    HW2 1440   1.842   6.681   0.440
  181SOL     OW 1441   3.297   2.471   6.209
  181SOL    HW1 1442   3.305   2.568   6.230
  181SOL    HW2 1443   3.284   2.419   6.294
  182SOL     OW 1444   3.687   1.337   4.477
  182SOL    HW1 1445   3.651   1.360   4.567
  182SOL    HW2 1446   3.780   1.373   4.468
  183SOL     OW 1447   3.387   2.144   3.301
  183SOL    HW1 1448   3.353   2.066   3.354
  183SOL    HW2 1449   3.487   2.143   3.301
  184SOL     OW 1450   1.719   6.383   4.338
  184SOL    HW1 1451   1.689   6.378   4.243
  184SOL    HW2 1452   1.696   6.473   4.375
  185SOL     OW 1453   0.230   1.580   6.162
  185SOL    HW1 1454   0.182   1.510   6.110
  185SOL    HW2 1455   0.313   1.542   6.202
  186SOL     OW 1456   5.582   1.087   4.488
  186SOL    HW1 1457   5.550   1.162   4.546
  186SOL    HW2 1458   5.549   1.101   4.394
  187SOL     OW 1459   3.976   6.939   3.455
  187SOL    HW1 1460   3.915   6.906   3.383
  187SOL    HW2 1461   3.938   0.007   3.496
  188SOL     OW 1462   0.589   1.633   2.544
  188SOL    HW1 1463   0.550   1.549   2.581
  188SOL    HW2 1464   0.589   1.704   2.615
  189SOL     OW 1465   1.812   5.540   1.640
  189SOL    HW1 1466   1.764   5.477   1.702
  189SOL    HW2 1467   1.911   5.530   1.652
  190SOL     OW 1468   5.268   1.994   4.725
  190SOL    HW1 1469   5.175   2.016   4.697
  190SOL    HW2 1470   5.305   2.068   4.780
  191SOL     OW 1471   5.794   6.284   6.970
  191SOL    HW1 1472   5.710   6.273   6.917
  191SOL    HW2 1473   5.795   6.219   0.031
  192SOL     OW 1474   0.692   6.005   2.210
  192SOL    HW1 1475   0.654   5.969   2.296
  192SOL    HW2 1476   0.636   5.974   2.133
  193SOL     OW 1477   4.816   2.760   5.511
  193SOL    HW1 1478   4.854   2.743   5.602
  193SOL    HW2 1479   4.888   2.797   5.452
  194SOL     OW 1480   3.762   0.800   2.717
  194SOL    HW1 1481   3.720   0.715   2.685
  194SOL    HW2 1482   3.702   0.844   2.784
  195SOL     OW 1483   1.687   0.254   4.921
  195SOL    HW1 1484   1.677   0.226   4.826
  195SOL    HW2 1485   1.600   0.290   4.954
  196SOL     OW 1486   2.614   0.380   0.564
  196SOL    HW1 1487   2.589   0.317   0.637
  196SOL    HW2 1488   2.536   0.389   0.501
  197SOL     OW 1489   3.022   0.070   1.750
  197SOL    HW1 1490   3.105   0.039   1.702
  197SOL    HW2 1491   3.030   0.048   1.847
  198SOL     OW 1492   4.494   0.751   2.863
  198SOL    HW1 1493   4.433   0.822   2.827
  198SOL    HW2 1494   4.587   0.767   2.831
  199SOL     OW 1495   6.821   1.974   3.772
  199SOL    HW1 1496   6.748   1.991   3.839
  199SOL    HW2 1497   6.799   1.892   3.719
  200SOL     OW 1498   1.443   3.511   0.654
  200SOL    HW1 1499   1.360   3.542   0.699
  200SOL    HW2 1500   1.421   3.479   0.561
  201SOL     OW 1501   0.354   7.007   6.169
  201SOL    HW1 1502   0.281   0.058   6.186
  201SOL    HW2 1503   0.422   0.033   6.108
  202SOL     OW 1504   3.782   1.082   0.085
  202SOL    HW1 1505   3.836   1.003   0.116
  202SOL    HW2 1506   3.754   1.137   0.163
  203SOL     OW 1507   5.644   2.818   5.319
  203SOL    HW1 1508   5.587   2.806   5.400
  203SOL    HW2 1509   5.596   2.781   5.239
  204SOL     OW 1510   1.131   0.582   4.802
  204SOL    HW1 1511   1.121   0.553   4.707
  204SOL    HW2 1512   1.049   0.633   4.830
  205SOL     OW 1513   0.138   2.176   3.015
  205SOL    HW1 1514   0.048   2.210   2.984
  205SOL    HW2 1515   0.133   2.152   3.112
  206SOL     OW 1516   0.553   4.497   0.973
  206SOL    HW1 1517   0.519   4.540   0.889
  206SOL    HW2 1518   0.649   4.523   0.987
  207SOL     OW 1519   6.351   1.617   3.946
  207SOL    HW1 1520   6.438   1.568   3.945
  207SOL    HW2 1521   6.322   1.630   4.041
  208SOL     OW 1522   6.608   4.524   5.675
  208SOL    HW1 1523   6.689   4.470   5.698
  208SOL    HW2 1524   6.623   4.620   5.699
  209SOL     OW 1525   0.611   5.693   4.283
  209SOL    HW1 1526   0.529   5.680   4.339
  209SOL    HW2 1527   0.654   5.780   4.308
  210SOL     OW 1528   4.705   1.533   0.645
  210SOL    HW1 1529   4.760   1.489   0.717
  210SOL    HW2 1530   4.682   1.626   0.673
  211SOL     OW 1531   1.841   6.437   2.175
  211SOL    HW1 1532   1.813   6.391   2.260
  211SOL    HW2 1533   1.935   6.470   2.184
  212SOL     OW 1534   1.131   3.809   1.689
  212SOL    HW1 1535   1.164   3.869   1.616
  212SOL    HW2 1536   1.204   3.746   1.716
  213SOL     OW 1537   2.856   0.146   0.635
  213SOL    HW1 1538   2.775   0.182   0.680
  213SOL    HW2 1539   2.938   0.183   0.679
  214SOL     OW 1540   3.890   5.400   2.709
  214SOL    HW1 1541   3.961   5.367   2.647
  214SOL    HW2 1542   3.876   5.498   2.696
  215SOL     OW 1543   2.819   3.761   0.664
  215SOL    HW1 1544   2.860   3.852   0.673
  215SOL    HW2 1545   2.795   3.726   0.755
  216SOL     OW 1546   1.189   5.840   3.311
  216SOL    HW1 1547   1.182   5.917   3.375
  216SOL    HW2 1548   1.283   5.806   3.310
  217SOL     OW 1549   1.135   2.953   3.938
  217SOL    HW1 1550   1.048   3.001   3.932
  217SOL    HW2 1551   1.128   2.864   3.892
  218SOL     OW 1552   0.885   3.479   4.375
  218SOL    HW1 1553   0.925   3.560   4.332
  218SOL    HW2 1554   0.904   3.480   4.473
  219SOL     OW 1555   4.313   0.716   0.181
  219SOL    HW1 1556   4.398   0.673   0.210
  219SOL    HW2 1557   4.243   0.703   0.251
  220SOL     OW 1558   3.287   6.951   1.717
  220SOL    HW1 1559   3.346   0.011   1.746
  220SOL    HW2 1560   3.318   6.867   1.761
  221SOL     OW 1561   5.994   4.301   1.068
  221SOL    HW1 1562   5.916   4.363   1.080
  221SOL    HW2 1563   5.997   4.236   1.143
  222SOL     OW 1564   1.575   4.582   5.559
  222SOL    HW1 1565   1.609   4.501   5.606
  222SOL    HW2 1566   1.487   4.562   5.517
  223SOL     OW 1567   6.623   3.346   6.466
  223SOL    HW1 1568   6.555   3.379   6.401
  223SOL    HW2 1569   6.632   3.413   6.540
  224SOL     OW 1570   2.656   1.603   5.644
  224SOL    HW1 1571   2.673   1.513   5.685
  224SOL    HW2 1572   2.703   1.609   5.556
  225SOL     OW 1573   4.921   3.877   6.837
  225SOL    HW1 1574   4.854   3.943   6.802
  225SOL    HW2 1575   4.886   3.784   6.822
  226SOL     OW 1576   1.025   1.515   5.683
  226SOL    HW1 1577   1.071   1.597   5.716
  226SOL    HW2 1578   1.071   1.481   5.601
  227SOL     OW 1579   0.801   3.896   1.361
  227SOL    HW1 1580   0.704   3.896   1.386
  227SOL    HW2 1581   0.854   3.938   1.435
  228SOL     OW 1582   2.559   0.154   3.509
  228SOL    HW1 1583   2.601   0.102   3.584
  228SOL    HW2 1584   2.586   0.113   3.422
  229SOL     OW 1585   6.220   6.399   6.271
  229SOL    HW1 1586   6.173   6.486   6.260
  229SOL    HW2 1587   6.281   6.384   6.194
  230SOL     OW 1588   3.728   5.052   3.348
  230SOL    HW1 1589   3.788   5.122   3.310
  230SOL    HW2 1590   3.654   5.032   3.284
  231SOL     OW 1591   6.085   1.461   6.947
  231SOL    HW1 1592   6.167   1.430   6.994
  231SOL    HW2 1593   6.031   1.382   6.917
  232SOL     OW 1594   0.421   3.469   6.552
  232SOL    HW1 1595   0.516   3.469   6.520
  232SOL    HW2 1596   0.378   3.382   6.530
  233SOL     OW 1597   3.499   1.257   2.961
  233SOL    HW1 1598   3.547   1.338   2.996
  233SOL    HW2 1599   3.487   1.191   3.036
  234SOL     OW 1600   5.305   0.772   6.430
  234SOL    HW1 1601   5.278   0.851   6.484
  234SOL    HW2 1602   5.396   0.787   6.391
  235SOL     OW 1603   4.534   2.564   1.684
  235SOL    HW1 1604   4.563   2.657   1.707
  235SOL    HW2 1605   4.441   2.567   1.647
  236SOL     OW 1606   5.741   2.980   6.764
  236SOL    HW1 1607   5.757   3.008   6.670
  236SOL    HW2 1608   5.799   3.033   6.826
  237SOL     OW 1609   7.006   4.658   1.799
  237SOL    HW1 1610   6.912   4.691   1.800
  237SOL    HW2 1611   0.004   4.596   1.721
  238SOL     OW 1612   5.383   0.852   0.356
  238SOL    HW1 1613   5.442   0.932   0.366
  238SOL    HW2 1614   5.290   0.876   0.386
  239SOL     OW 1615   1.083   4.944   6.529
  239SOL    HW1 1616   1.148   4.944   6.604
  239SOL    HW2 1617   0.994   4.977   6.562
  240SOL     OW 1618   6.751   2.865   3.281
  240SOL    HW1 1619   6.652   2.868   3.297
  240SOL    HW2 1620   6.795   2.809   3.351
  241SOL     OW 1621   2.899   2.179   4.980
  241SOL    HW1 1622   2.997   2.190   4.995
  241SOL    HW2 1623   2.850   2.198   5.065
  242SOL     OW 1624   3.814   3.870   4.137
  242SOL    HW1 1625   3.806   3.850   4.039
  242SOL    HW2 1626   3.905   3.844   4.169
  243SOL     OW 1627   4.372   0.870   6.459
  243SOL    HW1 1628   4.280   0.896   6.428
  243SOL    HW2 1629   4.373   0.866   6.559
  244SOL     OW 1630   6.028   3.241   5.418
  244SOL    HW1 1631   5.976   3.160   5.448
  244SOL    HW2 1632   6.014   3.315   5.483
  245SOL     OW 1633   5.014   2.541   4.118
  245SOL    HW1 1634   4.940   2.602   4.145
  245SOL    HW2 1635   5.102   2.586   4.131
  246SOL     OW 1636   5.055   2.113   3.267
  246SOL    HW1 1637   5.106   2.176   3.324
  246SOL    HW2 1638   4.966   2.153   3.243
  247SOL     OW 1639   2.881   1.480   6.935
  247SOL    HW1 1640   2.871   1.567   6.984
  247SOL    HW2 1641   2.801   1.422   6.954
  248SOL     OW 1642   3.845   1.466   2.481
  248SOL    HW1 1643   3.851   1.388   2.420
  248SOL    HW2 1644   3.912   1.535   2.454
  249SOL     OW 1645   4.349   0.292   4.709
  249SOL    HW1 1646   4.348   0.192   4.718
  249SOL    HW2 1647   4.255   0.325   4.700
  250SOL     OW 1648   4.999   3.283   0.651
  250SOL    HW1 1649   5.001   3.197   0.600
  250SOL    HW2 1650   4.948   3.351   0.599
  251SOL     OW 1651   4.564   3.691   5.672
  251SOL    HW1 1652   4.504   3.620   5.710
  251SOL    HW2 1653   4.630   3.720   5.742
  252SOL     OW 1654   0.048   5.787   5.241
  252SOL    HW1 1655   7.008   5.817   5.163
  252SOL    HW2 1656   0.089   5.868   5.285
  253SOL     OW 1657   2.679   4.878   6.248
  253SOL    HW1 1658   2.708   4.935   6.326
  253SOL    HW2 1659   2.746   4.888   6.174
  254SOL     OW 1660   6.246   2.303   3.908
  254SOL    HW1 1661   6.257   2.327   4.005
  254SOL    HW2 1662   6.159   2.341   3.874
  255SOL     OW 1663   1.659   4.819   5.472
  255SOL    HW1 1664   1.584   4.885   5.465
  255SOL    HW2 1665   1.624   4.732   5.505
  256SOL     OW 1666   6.162   3.815   6.063
  256SOL    HW1 1667   6.211   3.874   5.999
  256SOL    HW2 1668   6.099   3.870   6.118
  257SOL     OW 1669   5.057   0.472   4.039
  257SOL    HW1 1670   5.139   0.515   4.075
  257SOL    HW2 1671   5.078   0.380   4.007
  258SOL     OW 1672   2.298   5.134   4.956
  258SOL    HW1 1673   2.290   5.071   4.879
  258SOL    HW2 1674   2.216   5.128   5.012
  259SOL     OW 1675   6.609   2.454   2.974
  259SOL    HW1 1676   6.573   2.545   2.953
  259SOL    HW2 1677   6.560   2.385   2.921
  260SOL     OW 1678   4.229   0.117   1.725
  260SOL    HW1 1679   4.222   0.216   1.737
  260SOL    HW2 1680   4.203   0.072   1.810
  261SOL     OW 1681   6.437   3.307   0.414
  261SOL    HW1 1682   6.435   3.294   0.513
  261SOL    HW2 1683   6.409   3.223   0.368
  262SOL     OW 1684   0.569   3.502   7.009
  262SOL    HW1 1685   0.503   3.464   6.943
  262SOL    HW2 1686   0.599   3.430   0.056
  263SOL     OW 1687   2.138   0.906   4.656
  263SOL    HW1 1688   2.099   0.982   4.707
  263SOL    HW2 1689   2.187   0.845   4.718
  264SOL     OW 1690   5.876   3.326   0.045
  264SOL    HW1 1691   5.791   3.377   0.058
  264SOL    HW2 1692   5.954   3.387   0.054
  265SOL     OW 1693   5.272   6.607   3.093
  265SOL    HW1 1694   5.230   6.524   3.056
  265SOL    HW2 1695   5.353   6.630   3.038
  266SOL     OW 1696   3.482   2.599   5.890
  266SOL    HW1 1697   3.407   2.564   5.833
  266SOL    HW2 1698   3.547   2.649   5.832
  267SOL     OW 1699   0.878   1.374   6.508
  267SOL    HW1 1700   0.813   1.375   6.584
  267SOL    HW2 1701   0.842   1.317   6.434
  268SOL     OW 1702   3.914   1.375   6.114
  268SOL    HW1 1703   3.836   1.322   6.147
  268SOL    HW2 1704   3.989   1.313   6.089
  269SOL     OW 1705   1.704   3.480   1.062
  269SOL    HW1 1706   1.641   3.446   0.992
  269SOL    HW2 1707   1.697   3.580   1.066
  270SOL     OW 1708   1.119   6.879   0.487
  270SOL    HW1 1709   1.176   6.961   0.493
  270SOL    HW2 1710   1.080   6.860   0.577
  271SOL     OW 1711   6.747   1.829   6.783
  271SOL    HW1 1712   6.746   1.911   6.725
  271SOL    HW2 1713   6.682   1.841   6.858
  272SOL     OW 1714   3.763   5.532   4.237
  272SOL    HW1 1715   3.716   5.500   4.155
  272SOL    HW2 1716   3.696   5.555   4.307
  273SOL     OW 1717   2.144   4.622   4.701
  273SOL    HW1 1718   2.238   4.603   4.728
  273SOL    HW2 1719   2.100   4.537   4.672
  274SOL     OW 1720   3.939   1.982   3.373
  274SOL    HW1 1721   3.946   1.905   3.435
  274SOL    HW2 1722   3.923   1.950   3.280
  275SOL     OW 1723   6.181   4.982   3.710
  275SOL    HW1 1724   6.250   5.020   3.648
  275SOL    HW2 1725   6.211   4.892   3.742
  276SOL     OW 1726   6.502   6.738   2.782
  276SOL    HW1 1727   6.486   6.815   2.844
  276SOL    HW2 1728   6.417   6.715   2.735
  277SOL     OW 1729   1.474   4.248   0.198
  277SOL    HW1 1730   1.572   4.255   0.178
  277SOL    HW2 1731   1.425   4.216   0.117
  278SOL     OW 1732   0.070   5.124   1.824
  278SOL    HW1 1733   0.085   5.041   1.878
  278SOL    HW2 1734   0.060   5.098   1.727
  279SOL     OW 1735   5.934   3.633   4.279
  279SOL    HW1 1736   5.879   3.712   4.307
  279SOL    HW2 1737   5.907   3.553   4.332
  280SOL     OW 1738   3.104   6.543   3.490
  280SOL    HW1 1739   3.115   6.640   3.466
  280SOL    HW2 1740   3.144   6.526   3.580
  281SOL     OW 1741   2.787   4.219   1.674
  281SOL    HW1 1742   2.854   4.203   1.602
  281SOL    HW2 1743   2.814   4.299   1.727
  282SOL     OW 1744   3.283   1.397   6.003
  282SOL    HW1 1745   3.230   1.329   6.053
  282SOL    HW2 1746   3.318   1.357   5.918
  283SOL     OW 1747   6.424   1.446   6.520
  283SOL    HW1 1748   6.432   1.406   6.428
  283SOL    HW2 1749   6.409   1.544   6.513
  284SOL     OW 1750   1.550   4.373   3.397
  284SOL    HW1 1751   1.604   4.329   3.325
  284SOL    HW2 1752   1.471   4.316   3.419
  285SOL     OW 1753   5.852   4.856   4.782
  285SOL    HW1 1754   5.915   4.795   4.829
  285SOL    HW2 1755   5.758   4.832   4.806
  286SOL     OW 1756   3.419   5.581   6.013
  286SOL    HW1 1757   3.355   5.641   5.966
  286SOL    HW2 1758   3.413   5.596   6.112
  287SOL     OW 1759   0.857   3.686   0.351
  287SOL    HW1 1760   0.836   3.738   0.433
  287SOL    HW2 1761   0.954   3.696   0.328
  288SOL     OW 1762   3.791   1.406   6.472
  288SOL    HW1 1763   3.886   1.430   6.452
  288SOL    HW2 1764   3.737   1.413   6.388
  289SOL     OW 1765   0.619   4.209   5.288
  289SOL    HW1 1766   0.693   4.258   5.244
  289SOL    HW2 1767   0.615   4.116   5.252
  290SOL     OW 1768   6.205   2.101   4.999
  290SOL    HW1 1769   6.259   2.064   4.924
  290SOL    HW2 1770   6.153   2.027   5.043
  291SOL     OW 1771   1.802   2.186   4.421
  291SOL    HW1 1772   1.817   2.135   4.337
  291SOL    HW2 1773   1.872   2.258   4.430
  292SOL     OW 1774   1.302   2.888   3.349
  292SOL    HW1 1775   1.366   2.834   3.295
  292SOL    HW2 1776   1.336   2.981   3.359
  293SOL     OW 1777   4.277   5.845   2.390
  293SOL    HW1 1778   4.223   5.818   2.470
  293SOL    HW2 1779   4.238   5.928   2.350
  294SOL     OW 1780   1.349   5.451   6.372
  294SOL    HW1 1781   1.280   5.519   6.349
  294SOL    HW2 1782   1.306   5.375   6.421
  295SOL     OW 1783   3.305   1.623   3.567
  295SOL    HW1 1784   3.299   1.586   3.660
  295SOL    HW2 1785   3.235   1.693   3.554
  296SOL     OW 1786   3.659   2.135   3.276
  296SOL    HW1 1787   3.651   2.128   3.176
  296SOL    HW2 1788   3.740   2.083   3.306
  297SOL     OW 1789   2.544   4.528   3.582
  297SOL    HW1 1790   2.599   4.539   3.665
  297SOL    HW2 1791   2.484   4.606   3.571
  298SOL     OW 1792   3.511   5.965   1.505
  298SOL    HW1 1793   3.556   5.983   1.417
  298SOL    HW2 1794   3.559   5.890   1.552
  299SOL     OW 1795   5.254   3.038   6.354
  299SOL    HW1 1796   5.198   3.116   6.380
  299SOL    HW2 1797   5.281   2.987   6.436
  300SOL     OW 1798   6.486   0.722   2.839
  300SOL    HW1 1799   6.508   0.696   2.933
  300SOL    HW2 1800   6.409   0.786   2.839
  301SOL     OW 1801   4.698   3.478   1.481
  301SOL    HW1 1802   4.764   3.451   1.412
  301SOL    HW2 1803   4.613   3.508   1.437
  302SOL     OW 1804   0.814   0.744   3.251
  302SOL    HW1 1805   0.807   0.838   3.283
  302SOL    HW2 1806   0.862   0.689   3.319
  303SOL     OW 1807   5.737   0.708   2.066
  303SOL    HW1 1808   5.812   0.642   2.055
  303SOL    HW2 1809   5.668   0.690   1.996
  304SOL     OW 1810   2.589   0.310   3.970
  304SOL    HW1 1811   2.617   0.401   4.001
  304SOL    HW2 1812   2.622   0.242   4.035
  305SOL     OW 1813   0.839   3.176   0.241
  305SOL    HW1 1814   0.878   3.263   0.210
  305SOL    HW2 1815   0.850   3.107   0.169
  306SOL     OW 1816   1.740   1.562   3.511
  306SOL    HW1 1817   1.799   1.526   3.440
  306SOL    HW2 1818   1.785   1.552   3.600
  307SOL     OW 1819   4.558   6.970   0.663
  307SOL    HW1 1820   4.651   6.937   0.647
  307SOL    HW2 1821   4.560   0.033   0.725
  308SOL     OW 1822   6.350   3.724   5.172
  308SOL    HW1 1823   6.268   3.779   5.166
  308SOL    HW2 1824   6.431   3.783   5.170
  309SOL     OW 1825   3.521   4.546   6.515
  309SOL    HW1 1826   3.439   4.489   6.504
  309SOL    HW2 1827   3.563   4.561   6.425
  310SOL     OW 1828   6.479   6.556   5.923
  310SOL    HW1 1829   6.567   6.594   5.952
  310SOL    HW2 1830   6.449   6.602   5.840
  311SOL     OW 1831   6.022   5.369   1.583
  311SOL    HW1 1832   6.024   5.320   1.496
  311SOL    HW2 1833   6.116   5.387   1.612
  312SOL     OW 1834   4.436   1.758   5.603
  312SOL    HW1 1835   4.480   1.800   5.682
  312SOL    HW2 1836   4.341   1.787   5.598
  313SOL     OW 1837   3.005   4.066   1.785
  313SOL    HW1 1838   3.077   4.123   1.745
  313SOL    HW2 1839   2.916   4.108   1.767
  314SOL     OW 1840   3.359   5.181   6.731
  314SOL    HW1 1841   3.299   5.204   6.654
  314SOL    HW2 1842   3.447   5.148   6.697
  315SOL     OW 1843   1.259   3.357   3.434
  315SOL    HW1 1844   1.227   3.378   3.526
  315SOL    HW2 1845   1.283   3.441   3.386
  316SOL     OW 1846   2.465   2.396   3.871
  316SOL    HW1 1847   2.390   2.337   3.841
  316SOL    HW2 1848   2.534   2.341   3.918
  317SOL     OW 1849   0.889   0.284   1.379
  317SOL    HW1 1850   0.892   0.188   1.406
  317SOL    HW2 1851   0.851   0.291   1.287
  318SOL     OW 1852   0.839   6.127   6.921
  318SOL    HW1 1853   0.798   6.176   6.998
  318SOL    HW2 1854   0.777   6.054   6.891
  319SOL     OW 1855   0.183   0.556   3.234
  319SOL    HW1 1856   0.179   0.539   3.135
  319SOL    HW2 1857   0.181   0.654   3.251
  320SOL     OW 1858   5.715   2.267   0.050
  320SOL    HW1 1859   5.688   2.170   0.050
  320SOL    HW2 1860   5.666   2.315   0.122
  321SOL     OW 1861   2.899   1.469   1.538
  321SOL    HW1 1862   2.902   1.468   1.638
  321SOL    HW2 1863   2.990   1.487   1.502
  322SOL     OW 1864   3.429   3.555   4.810
  322SOL    HW1 1865   3.406   3.548   4.713
  322SOL    HW2 1866   3.344   3.558   4.864
  323SOL     OW 1867   0.393   3.427   6.816
  323SOL    HW1 1868   0.393   3.445   6.718
  323SOL    HW2 1869   0.327   3.354   6.836
  324SOL     OW 1870   2.239   3.046   4.045
  324SOL    HW1 1871   2.140   3.062   4.051
  324SOL    HW2 1872   2.262   3.013   3.953
  325SOL     OW 1873   1.888   3.044   1.828
  325SOL    HW1 1874   1.934   2.956   1.834
  325SOL    HW2 1875   1.927   3.097   1.753
  326SOL     OW 1876   1.827   5.360   6.127
  326SOL    HW1 1877   1.799   5.440   6.074
  326SOL    HW2 1878   1.758   5.342   6.197
  327SOL     OW 1879   1.740   5.310   3.916
  327SOL    HW1 1880   1.656   5.284   3.963
  327SOL    HW2 1881   1.767   5.236   3.854
  328SOL     OW 1882   2.959   5.314   2.070
  328SOL    HW1 1883   3.000   5.271   2.151
  328SOL    HW2 1884   3.029   5.326   1.999
  329SOL     OW 1885   3.141   4.030   4.340
  329SOL    HW1 1886   3.109   4.029   4.245
  329SOL    HW2 1887   3.239   4.050   4.342
  330SOL     OW 1888   3.397   6.699   1.863
  330SOL    HW1 1889   3.425   6.654   1.947
  330SOL    HW2 1890   3.478   6.728   1.812
  331SOL     OW 1891   4.236   5.000   6.405
  331SOL    HW1 1892   4.244   5.060   6.485
  331SOL    HW2 1893   4.295   4.920   6.418
  332SOL     OW 1894   3.530   1.901   4.445
  332SOL    HW1 1895   3.483   1.988   4.463
  332SOL    HW2 1896   3.463   1.827   4.443
  333SOL     OW 1897   3.326   6.737   6.657
  333SOL    HW1 1898   3.316   6.711   6.754
  333SOL    HW2 1899   3.421   6.765   6.640
  334SOL     OW 1900   2.501   0.309   0.967
  334SOL    HW1 1901   2.407   0.290   0.995
  334SOL    HW2 1902   2.520   0.406   0.980
  335SOL     OW 1903   3.651   6.443   4.415
  335SOL    HW1 1904   3.700   6.357   4.416
  335SOL    HW2 1905   3.703   6.512   4.465
  336SOL     OW 1906   2.795   1.372   3.993
  336SOL    HW1 1907   2.737   1.411   3.921
  336SOL    HW2 1908   2.748   1.381   4.081
  337SOL     OW 1909   7.010   3.571   0.940
  337SOL    HW1 1910   0.039   3.482   0.935
  337SOL    HW2 1911   0.042   3.635   0.880
  338SOL     OW 1912   2.642   2.325   0.901
  338SOL    HW1 1913   2.708   2.254   0.878
  338SOL    HW2 1914   2.586   2.347   0.821
  339SOL     OW 1915   3.837   6.629   4.495
  339SOL    HW1 1916   3.873   6.568   4.566
  339SOL    HW2 1917   3.769   6.691   4.535
  340SOL     OW 1918   4.959   4.175   4.723
  340SOL    HW1 1919   4.861   4.173   4.741
  340SOL    HW2 1920   4.995   4.082   4.722
  341SOL     OW 1921   6.323   6.952   4.289
  341SOL    HW1 1922   6.289   6.862   4.317
  341SOL    HW2 1923   6.373   6.943   4.203
  342SOL     OW 1924   5.870   3.909   6.956
  342SOL    HW1 1925   5.804   3.835   6.941
  342SOL    HW2 1926   5.828   3.980   7.012
  343SOL     OW 1927   2.000   5.882   0.980
  343SOL    HW1 1928   2.065   5.876   1.055
  343SOL    HW2 1929   1.960   5.791   0.963
  344SOL     OW 1930   1.517   5.093   1.919
  344SOL    HW1 1931   1.463   5.160   1.867
  344SOL    HW2 1932   1.565   5.140   1.993
  345SOL     OW 1933   6.426   1.068   5.411
  345SOL    HW1 1934   6.462   1.012   5.486
  345SOL    HW2 1935   6.447   1.164   5.429
  346SOL     OW 1936   1.828   0.844   1.838
  346SOL    HW1 1937   1.786   0.872   1.924
  346SOL    HW2 1938   1.926   0.827   1.853
  347SOL     OW 1939   3.857   6.571   6.606
  347SOL    HW1 1940   3.760   6.547   6.595
  347SOL    HW2 1941   3.893   6.605   6.519
  348SOL     OW 1942   4.934   5.266   1.109
  348SOL    HW1 1943   4.928   5.311   1.198
  348SOL    HW2 1944   5.016   5.210   1.105
  349SOL     OW 1945   6.849   4.314   1.627
  349SOL    HW1 1946   6.792   4.242   1.589
  349SOL    HW2 1947   6.813   4.341   1.717
  350SOL     OW 1948   3.798   3.346   1.761
  350SOL    HW1 1949   3.718   3.297   1.796
  350SOL    HW2 1950   3.854   3.285   1.707
  351SOL     OW 1951   2.450   2.142   0.215
  351SOL    HW1 1952   2.457   2.241   0.221
  351SOL    HW2 1953   2.513   2.108   0.145
  352SOL     OW 1954   3.705   0.053   4.705
  352SOL    HW1 1955   3.624   0.088   4.658
  352SOL    HW2 1956   3.743   0.124   4.763
  353SOL     OW 1957   2.665   0.152   1.202
  353SOL    HW1 1958   2.669   0.213   1.122
  353SOL    HW2 1959   2.727   0.074   1.187
  354SOL     OW 1960   4.372   2.190   0.517
  354SOL    HW1 1961   4.462   2.233   0.516
  354SOL    HW2 1962   4.320   2.219   0.436
  355SOL     OW 1963   0.014   3.192   3.086
  355SOL    HW1 1964   0.025   3.113   3.145
  355SOL    HW2 1965   0.039   3.167   2.992
  356SOL     OW 1966   4.217   5.483   4.461
  356SOL    HW1 1967   4.192   5.560   4.402
  356SOL    HW2 1968   4.313   5.459   4.447
  357SOL     OW 1969   6.586   0.149   5.607
  357SOL    HW1 1970   6.506   0.134   5.666
  357SOL    HW2 1971   6.622   0.061   5.577
  358SOL     OW 1972   5.433   0.119   2.150
  358SOL    HW1 1973   5.527   0.144   2.173
  358SOL    HW2 1974   5.377   0.119   2.233
  359SOL     OW 1975   1.867   2.079   2.552
  359SOL    HW1 1976   1.944   2.015   2.542
  359SOL    HW2 1977   1.888   2.144   2.625
  360SOL     OW 1978   2.110   6.049   6.233
  360SOL    HW1 1979   2.028   6.043   6.289
  360SOL    HW2 1980   2.173   5.975   6.258
  361SOL     OW 1981   5.394   5.556   2.755
  361SOL    HW1 1982   5.372   5.537   2.659
  361SOL    HW2 1983   5.414   5.470   2.802
  362SOL     OW 1984   3.477   4.024   0.681
  362SOL    HW1 1985   3.577   4.025   0.677
  362SOL    HW2 1986   3.440   4.007   0.590
  363SOL     OW 1987   4.363   4.970   3.662
  363SOL    HW1 1988   4.451   4.923   3.673
  363SOL    HW2 1989   4.356   5.007   3.570
  364SOL     OW 1990   0.464   5.691   5.513
  364SOL    HW1 1991   0.373   5.661   5.487
  364SOL    HW2 1992   0.483   5.664   5.607
  365SOL     OW 1993   4.827   5.584   2.524
  365SOL    HW1 1994   4.798   5.524   2.450
  365SOL    HW2 1995   4.867   5.668   2.486
  366SOL     OW 1996   5.550   1.067   0.322
  366SOL    HW1 1997   5.573   1.146   0.379
  366SOL    HW2 1998   5.633   1.031   0.280
  367SOL     OW 1999   5.353   2.798   0.631
  367SOL    HW1 2000   5.417   2.867   0.599
  367SOL    HW2 2001   5.343   2.806   0.731
  368SOL     OW 2002   0.862   3.842   4.645
  368SOL    HW1 2003   0.804   3.909   4.692
  368SOL    HW2 2004   0.828   3.750   4.665
  369SOL     OW 2005   6.729   4.737   1.766
  369SOL    HW1 2006   6.738   4.792   1.683
  369SOL    HW2 2007   6.644   4.684   1.762
  370SOL     OW 2008   3.248   1.857   5.546
  370SOL    HW1 2009   3.182   1.877   5.474
  370SOL    HW2 2010   3.262   1.937   5.603
  371SOL     OW 2011   2.319   3.645   6.424
  371SOL    HW1 2012   2.291   3.726   6.476
  371SOL    HW2 2013   2.388   3.594   6.476
  372SOL     OW 2014   6.500   0.724   5.056
  372SOL    HW1 2015   6.508   0.777   4.972
  372SOL    HW2 2016   6.408   0.685   5.062
  373SOL     OW 2017   6.196   6.688   5.236
  373SOL    HW1 2018   6.143   6.756   5.288
  373SOL    HW2 2019   6.157   6.597   5.252
  374SOL     OW 2020   4.201   6.891   2.523
  374SOL    HW1 2021   4.227   6.807   2.569
  374SOL    HW2 2022   4.230   6.970   2.577
  375SOL     OW 2023   0.320   5.099   3.738
  375SOL    HW1 2024   0.418   5.079   3.743
  375SOL    HW2 2025   0.270   5.016   3.716
  376SOL     OW 2026   1.793   3.105   3.882
  376SOL    HW1 2027   1.776   3.080   3.787
  376SOL    HW2 2028   1.720   3.165   3.914
  377SOL     OW 2029   6.127   2.855   1.901
  377SOL    HW1 2030   6.100   2.779   1.841
  377SOL    HW2 2031   6.141   2.937   1.846
  378SOL     OW 2032   3.394   2.540   5.521
  378SOL    HW1 2033   3.441   2.452   5.531
  378SOL    HW2 2034   3.342   2.539   5.435
  379SOL     OW 2035   6.079   4.396   1.675
  379SOL    HW1 2036   5.997   4.452   1.685
  379SOL    HW2 2037   6.080   4.353   1.585
  380SOL     OW 2038   2.428   1.691   1.995
  380SOL    HW1 2039   2.384   1.711   1.907
  380SOL    HW2 2040   2.519   1.654   1.979
  381SOL     OW 2041   1.815   4.808   1.565
  381SOL    HW1 2042   1.815   4.745   1.487
  381SOL    HW2 2043   1.850   4.760   1.646
  382SOL     OW 2044   4.848   5.642   6.457
  382SOL    HW1 2045   4.893   5.714   6.509
  382SOL    HW2 2046   4.786   5.591   6.517
  383SOL     OW 2047   6.393   3.064   6.434
  383SOL    HW1 2048   6.434   3.114   6.510
  383SOL    HW2 2049   6.442   2.979   6.418
  384SOL     OW 2050   0.821   3.953   4.889
  384SOL    HW1 2051   0.912   3.976   4.853
  384SOL    HW2 2052   0.816   3.854   4.904
  385SOL     OW 2053   4.497   6.201   6.914
  385SOL    HW1 2054   4.529   6.141   6.841
  385SOL    HW2 2055   4.401   6.223   6.899
  386SOL     OW 2056   3.765   0.001   5.040
  386SOL    HW1 2057   3.785   0.096   5.016
  386SOL    HW2 2058   3.838   6.981   5.098
  387SOL     OW 2059   0.099   6.009   3.386
  387SOL    HW1 2060   0.188   6.054   3.390
  387SOL    HW2 2061   0.030   6.073   3.353
  388SOL     OW 2062   0.494   1.924   4.482
  388SOL    HW1 2063   0.402   1.948   4.449
  388SOL    HW2 2064   0.542   2.008   4.507
  389SOL     OW 2065   4.304   4.098   1.676
  389SOL    HW1 2066   4.286   4.011   1.722
  389SOL    HW2 2067   4.326   4.168   1.744
  390SOL     OW 2068   3.364   1.028   0.094
  390SOL    HW1 2069   3.374   1.093   0.169
  390SOL    HW2 2070   3.367   1.077   0.007
  391SOL     OW 2071   2.147   4.039   5.228
  391SOL    HW1 2072   2.118   4.097   5.151
  391SOL    HW2 2073   2.228   3.987   5.202
  392SOL     OW 2074   1.903   3.183   2.263
  392SOL    HW1 2075   1.836   3.207   2.193
  392SOL    HW2 2076   1.951   3.266   2.293
  393SOL     OW 2077   1.544   5.802   0.340
  393SOL    HW1 2078   1.529   5.897   0.368
  393SOL    HW2 2079   1.564   5.799   0.242
  394SOL     OW 2080   0.998   3.175   6.629
  394SOL    HW1 2081   1.007   3.163   6.531
  394SOL    HW2 2082   0.941   3.256   6.648
  395SOL     OW 2083   5.152   4.032   2.321
  395SOL    HW1 2084   5.092   3.987   2.255
  395SOL    HW2 2085   5.190   4.115   2.281
  396SOL     OW 2086   2.291   2.070   2.253
  396SOL    HW1 2087   2.248   2.047   2.341
  396SOL    HW2 2088   2.355   1.998   2.227
  397SOL     OW 2089   5.594   1.483   5.980
  397SOL    HW1 2090   5.555   1.520   6.064
  397SOL    HW2 2091   5.582   1.384   5.978
  398SOL     OW 2092   0.956   6.310   4.688
  398SOL    HW1 2093   0.906   6.283   4.606
  398SOL    HW2 2094   1.012   6.390   4.668
  399SOL     OW 2095   6.567   5.734   4.185
  399SOL    HW1 2096   6.606   5.792   4.257
  399SOL    HW2 2097   6.503   5.789   4.131
  400SOL     OW 2098   6.683   6.519   5.164
  400SOL    HW1 2099   6.617   6.525   5.089
  400SOL    HW2 2100   6.761   6.578   5.144
  401SOL     OW 2101   5.905   0.141   6.291
  401SOL    HW1 2102   5.860   0.155   6.379
  401SOL    HW2 2103   5.844   0.168   6.217
  402SOL     OW 2104   6.245   0.340   2.355
  402SOL    HW1 2105   6.304   0.402   2.303
  402SOL    HW2 2106   6.301   0.278   2.409
  403SOL     OW 2107   3.342   0.140   6.839
  403SOL    HW1 2108   3.383   0.173   6.924
  403SOL    HW2 2109   3.271   0.072   6.860
  404SOL     OW 2110   3.043   5.787   5.520
  404SOL    HW1 2111   2.988   5.710   5.489
  404SOL    HW2 2112   3.018   5.810   5.614
  405SOL     OW 2113   2.264   4.249   3.450
  405SOL    HW1 2114   2.308   4.272   3.362
  405SOL    HW2 2115   2.275   4.151   3.467
  406SOL     OW 2116   0.661   4.765   5.218
  406SOL    HW1 2117   0.607   4.683   5.236
  406SOL    HW2 2118   0.685   4.769   5.122
  407SOL     OW 2119   1.497   3.097   3.682
  407SOL    HW1 2120   1.530   3.039   3.756
  407SOL    HW2 2121   1.467   3.185   3.719
  408SOL     OW 2122   3.397   2.054   3.004
  408SOL    HW1 2123   3.403   2.077   3.102
  408SOL    HW2 2124   3.473   2.097   2.955
  409SOL     OW 2125   6.925   3.790   1.875
  409SOL    HW1 2126   6.937   3.741   1.788
  409SOL    HW2 2127   6.998   3.858   1.885
  410SOL     OW 2128   1.721   2.026   1.222
  410SOL    HW1 2129   1.743   2.091   1.295
  410SOL    HW2 2130   1.741   1.933   1.254
  411SOL     OW 2131   6.549   1.949   1.902
  411SOL    HW1 2132   6.633   1.977   1.856
  411SOL    HW2 2133   6.555   1.853   1.927
  412SOL     OW 2134   3.015   5.229   2.823
  412SOL    HW1 2135   3.113   5.235   2.839
  412SOL    HW2 2136   2.983   5.137   2.846
  413SOL     OW 2137   3.883   5.144   1.972
  413SOL    HW1 2138   3.860   5.051   1.997
  413SOL    HW2 2139   3.820   5.208   2.017
  414SOL     OW 2140   3.355   0.444   3.763
  414SOL    HW1 2141   3.364   0.543   3.761
  414SOL    HW2 2142   3.414   0.404   3.693
  415SOL     OW 2143   0.030   1.710   0.397
  415SOL    HW1 2144   0.059   1.719   0.302
  415SOL    HW2 2145   0.071   1.628   0.437
  416SOL     OW 2146   5.078   4.294   4.516
  416SOL    HW1 2147   5.164   4.250   4.538
  416SOL    HW2 2148   5.011   4.276   4.589
  417SOL     OW 2149   2.091   1.423   6.391
  417SOL    HW1 2150   2.040   1.398   6.308
  417SOL    HW2 2151   2.188   1.429   6.370
  418SOL     OW 2152   3.056   7.013   5.259
  418SOL    HW1 2153   3.002   6.976   5.183
  418SOL    HW2 2154   3.139   6.959   5.270
  419SOL     OW 2155   6.947   6.757   2.896
  419SOL    HW1 2156   7.008   6.783   2.821
  419SOL    HW2 2157   6.875   6.697   2.861
  420SOL     OW 2158   5.318   1.036   6.519
  420SOL    HW1 2159   5.309   1.081   6.431
  420SOL    HW2 2160   5.404   1.065   6.562
  421SOL     OW 2161   5.922   4.066   5.617
  421SOL    HW1 2162   5.970   4.100   5.698
  421SOL    HW2 2163   5.844   4.124   5.597
  422SOL     OW 2164   5.101   1.831   0.812
  422SOL    HW1 2165   5.112   1.731   0.808
  422SOL    HW2 2166   5.005   1.853   0.828
  423SOL     OW 2167   2.767   0.488   6.518
  423SOL    HW1 2168   2.763   0.462   6.421
  423SOL    HW2 2169   2.719   0.420   6.573
  424SOL     OW 2170   2.044   5.323   3.129
  424SOL    HW1 2171   1.974   5.261   3.164
  424SOL    HW2 2172   2.001   5.393   3.073
  425SOL     OW 2173   5.074   1.030   5.104
  425SOL    HW1 2174   4.981   1.003   5.079
  425SOL    HW2 2175   5.138   0.960   5.071
  426SOL     OW 2176   2.485   2.673   5.228
  426SOL    HW1 2177   2.506   2.769   5.209
  426SOL    HW2 2178   2.386   2.662   5.239
  427SOL     OW 2179   5.052   1.091   4.372
  427SOL    HW1 2180   4.988   1.153   4.417
  427SOL    HW2 2181   5.131   1.143   4.339
  428SOL     OW 2182   2.381   1.158   4.393
  428SOL    HW1 2183   2.452   1.179   4.460
  428SOL    HW2 2184   2.408   1.078   4.340
  429SOL     OW 2185   0.758   5.508   4.170
  429SOL    HW1 2186   0.708   5.594   4.180
  429SOL    HW2 2187   0.743   5.451   4.251
  430SOL     OW 2188   1.588   0.310   3.669
  430SOL    HW1 2189   1.553   0.217   3.659
  430SOL    HW2 2190   1.551   0.352   3.751
  431SOL     OW 2191   2.520   2.056   0.934
  431SOL    HW1 2192   2.441   2.001   0.961
  431SOL    HW2 2193   2.509   2.149   0.969
  432SOL     OW 2194   5.615   1.869   1.216
  432SOL    HW1 2195   5.702   1.864   1.168
  432SOL    HW2 2196   5.548   1.919   1.160
  433SOL     OW 2197   3.684   6.262   6.140
  433SOL    HW1 2198   3.626   6.205   6.199
  433SOL    HW2 2199   3.770   6.214   6.123
  434SOL     OW 2200   3.890   6.313   3.608
  434SOL    HW1 2201   3.806   6.364   3.589
  434SOL    HW2 2202   3.969   6.371   3.589
  435SOL     OW 2203   3.917   1.755   5.741
  435SOL    HW1 2204   3.884   1.661   5.731
  435SOL    HW2 2205   3.842   1.813   5.773
  436SOL     OW 2206   3.714   6.220   3.062
  436SOL    HW1 2207   3.723   6.141   3.002
  436SOL    HW2 2208   3.733   6.193   3.156
  437SOL     OW 2209   0.219   1.134   4.672
  437SOL    HW1 2210   0.307   1.176   4.646
  437SOL    HW2 2211   0.163   1.121   4.590
  438SOL     OW 2212   1.327   4.749   2.978
  438SOL    HW1 2213   1.409   4.724   2.927
  438SOL    HW2 2214   1.343   4.833   3.029
  439SOL     OW 2215   5.750   0.978   2.702
  439SOL    HW1 2216   5.654   0.961   2.725
  439SOL    HW2 2217   5.781   0.912   2.634
  440SOL     OW 2218   3.673   0.996   6.746
  440SOL    HW1 2219   3.730   0.914   6.745
  440SOL    HW2 2220   3.700   1.055   6.822
  441SOL     OW 2221   6.408   4.368   2.877
  441SOL    HW1 2222   6.322   4.407   2.910
  441SOL    HW2 2223   6.469   4.442   2.848
  442SOL     OW 2224   4.812   3.996   5.948
  442SOL    HW1 2225   4.828   4.063   5.875
  442SOL    HW2 2226   4.762   3.918   5.912
  443SOL     OW 2227   5.111   4.816   3.014
  443SOL    HW1 2228   5.027   4.776   2.978
  443SOL    HW2 2229   5.154   4.753   3.078
  444SOL     OW 2230   3.844   1.219   6.870
  444SOL    HW1 2231   3.931   1.175   6.848
  444SOL    HW2 2232   3.814   1.189   6.961
  445SOL     OW 2233   2.953   6.257   2.751
  445SOL    HW1 2234   2.886   6.254   2.678
  445SOL    HW2 2235   2.966   6.165   2.789
  446SOL     OW 2236   4.640   6.050   2.720
  446SOL    HW1 2237   4.723   6.031   2.668
  446SOL    HW2 2238   4.661   6.048   2.818
  447SOL     OW 2239   6.323   3.607   5.943
  447SOL    HW1 2240   6.385   3.633   5.869
  447SOL    HW2 2241   6.250   3.676   5.951
  448SOL     OW 2242   2.514   1.560   2.794
  448SOL    HW1 2243   2.539   1.467   2.822
  448SOL    HW2 2244   2.592   1.621   2.806
  449SOL     OW 2245   1.919   2.631   3.500
  449SOL    HW1 2246   1.955   2.694   3.569
  449SOL    HW2 2247   1.989   2.565   3.475
  450SOL     OW 2248   0.480   4.447   3.171
  450SOL    HW1 2249   0.562   4.396   3.200
  450SOL    HW2 2250   0.505   4.511   3.098
  451SOL     OW 2251   6.912   2.081   3.496
  451SOL    HW1 2252   6.897   2.013   3.568
  451SOL    HW2 2253   6.839   2.149   3.498
  452SOL     OW 2254   3.494   6.661   2.588
  452SOL    HW1 2255   3.504   6.594   2.514
  452SOL    HW2 2256   3.547   6.632   2.667
  453SOL     OW 2257   4.414   0.411   6.902
  453SOL    HW1 2258   4.469   0.328   6.906
  453SOL    HW2 2259   4.338   0.403   6.966
  454SOL     OW 2260   6.947   4.192   6.391
  454SOL    HW1 2261   6.897   4.106   6.399
  454SOL    HW2 2262   0.000   4.197   6.463
  455SOL     OW 2263   6.988   4.193   5.470
  455SOL    HW1 2264   6.910   4.178   5.409
  455SOL    HW2 2265   0.018   4.106   5.489
  456SOL     OW 2266   1.551   1.181   3.715
  456SOL    HW1 2267   1.634   1.165   3.768
  456SOL    HW2 2268   1.478   1.213   3.776
  457SOL     OW 2269   1.975   5.942   5.876
  457SOL    HW1 2270   2.071   5.968   5.891
  457SOL    HW2 2271   1.959   5.850   5.912
  458SOL     OW 2272   2.693   1.186   3.090
  458SOL    HW1 2273   2.757   1.108   3.083
  458SOL    HW2 2274   2.623   1.165   3.158
  459SOL     OW 2275   2.223   0.456   5.050
  459SOL    HW1 2276   2.237   0.429   5.145
  459SOL    HW2 2277   2.190   0.550   5.047
  460SOL     OW 2278   1.002   1.568   5.280
  460SOL    HW1 2279   1.067   1.631   5.323
  460SOL    HW2 2280   1.044   1.529   5.197
  461SOL     OW 2281   6.781   4.760   5.579
  461SOL    HW1 2282   6.806   4.763   5.676
  461SOL    HW2 2283   6.710   4.828   5.562
  462SOL     OW 2284   3.364   3.545   4.548
  462SOL    HW1 2285   3.368   3.598   4.463
  462SOL    HW2 2286   3.288   3.481   4.543
  463SOL     OW 2287   5.755   6.814   2.646
  463SOL    HW1 2288   5.809   6.751   2.589
  463SOL    HW2 2289   5.793   6.817   2.738
  464SOL     OW 2290   3.471   5.955   5.959
  464SOL    HW1 2291   3.382   5.948   6.006
  464SOL    HW2 2292   3.542   5.918   6.019
  465SOL     OW 2293   1.565   2.012   0.833
  465SOL    HW1 2294   1.527   2.101   0.860
  465SOL    HW2 2295   1.521   1.939   0.886
  466SOL     OW 2296   3.486   6.171   4.837
  466SOL    HW1 2297   3.503   6.245   4.771
  466SOL    HW2 2298   3.510   6.203   4.929
  467SOL     OW 2299   0.656   1.772   2.328
  467SOL    HW1 2300   0.641   1.713   2.408
  467SOL    HW2 2301   0.569   1.811   2.299
  468SOL     OW 2302   4.735   0.304   6.554
  468SOL    HW1 2303   4.750   0.400   6.533
  468SOL    HW2 2304   4.638   0.281   6.542
  469SOL     OW 2305   3.145   4.296   5.581
  469SOL    HW1 2306   3.070   4.231   5.592
  469SOL    HW2 2307   3.118   4.366   5.516
  470SOL     OW 2308   2.882   5.743   2.956
  470SOL    HW1 2309   2.783   5.743   2.943
  470SOL    HW2 2310   2.917   5.649   2.946
  471SOL     OW 2311   2.741   2.276   3.824
  471SOL    HW1 2312   2.698   2.263   3.735
  471SOL    HW2 2313   2.834   2.238   3.823
  472SOL     OW 2314   5.989   4.145   6.569
  472SOL    HW1 2315   5.924   4.116   6.498
  472SOL    HW2 2316   5.938   4.186   6.644
  473SOL     OW 2317   6.680   2.223   2.405
  473SOL    HW1 2318   6.765   2.204   2.356
  473SOL    HW2 2319   6.682   2.179   2.494
  474SOL     OW 2320   6.349   6.054   4.932
  474SOL    HW1 2321   6.365   6.075   5.028
  474SOL    HW2 2322   6.355   5.955   4.918
  475SOL     OW 2323   5.636   2.747   0.912
  475SOL    HW1 2324   5.693   2.829   0.909
  475SOL    HW2 2325   5.637   2.702   0.823
  476SOL     OW 2326   0.577   4.254   1.738
  476SOL    HW1 2327   0.538   4.270   1.829
  476SOL    HW2 2328   0.612   4.160   1.734
  477SOL     OW 2329   2.824   5.983   3.922
  477SOL    HW1 2330   2.832   6.063   3.863
  477SOL    HW2 2331   2.864   5.903   3.876
  478SOL     OW 2332   4.571   5.795   2.842
  478SOL    HW1 2333   4.548   5.816   2.937
  478SOL    HW2 2334   4.539   5.869   2.783
  479SOL     OW 2335   3.915   3.078   4.048
  479SOL    HW1 2336   3.821   3.103   4.023
  479SOL    HW2 2337   3.971   3.161   4.052
  480SOL     OW 2338   1.558   0.025   3.028
  480SOL    HW1 2339   1.580   0.121   3.044
  480SOL    HW2 2340   1.633   6.997   2.978
  481SOL     OW 2341   1.114   5.993   1.209
  481SOL    HW1 2342   1.058   5.913   1.187
  481SOL    HW2 2343   1.072   6.043   1.285
  482SOL     OW 2344   5.617   4.361   2.897
  482SOL    HW1 2345   5.610   4.309   2.981
  482SOL    HW2 2346   5.654   4.452   2.917
  483SOL     OW 2347   5.883   2.007   2.973
  483SOL    HW1 2348   5.863   2.105   2.963
  483SOL    HW2 2349   5.813   1.954   2.927
  484SOL     OW 2350   2.067   4.416   4.516
  484SOL    HW1 2351   2.130   4.338   4.511
  484SOL    HW2 2352   1.982   4.393   4.470
  485SOL     OW 2353   5.599   3.359   2.514
  485SOL    HW1 2354   5.648   3.274   2.498
  485SOL    HW2 2355   5.614   3.422   2.437
  486SOL     OW 2356   6.057   0.135   6.687
  486SOL    HW1 2357   5.958   0.131   6.691
  486SOL    HW2 2358   6.091   0.055   6.636
  487SOL     OW 2359   0.319   6.858   3.493
  487SOL    HW1 2360   0.387   6.926   3.522
  487SOL    HW2 2361   0.261   6.835   3.571
  488SOL     OW 2362   1.936   6.819   3.561
  488SOL    HW1 2363   1.944   6.785   3.467
  488SOL    HW2 2364   1.950   6.918   3.561
  489SOL     OW 2365   6.557   6.058   4.612
  489SOL    HW1 2366   6.477   6.105   4.574
  489SOL    HW2 2367   6.635   6.120   4.613
  490SOL     OW 2368   1.851   5.678   5.987
  490SOL    HW1 2369   1.779   5.649   6.051
  490SOL    HW2 2370   1.940   5.661   6.028
  491SOL     OW 2371   0.018   2.737   0.203
  491SOL    HW1 2372   6.951   2.775   0.161
  491SOL    HW2 2373   0.072   2.689   0.134
  492SOL     OW 2374   1.712   1.658   5.537
  492SOL    HW1 2375   1.723   1.599   5.618
  492SOL    HW2 2376   1.789   1.721   5.532
  493SOL     OW 2377   2.511   6.657   5.306
  493SOL    HW1 2378   2.605   6.672   5.274
  493SOL    HW2 2379   2.450   6.644   5.228
  494SOL     OW 2380   2.495   0.357   5.542
  494SOL    HW1 2381   2.400   0.379   5.566
  494SOL    HW2 2382   2.527   0.281   5.599
  495SOL     OW 2383   4.238   6.151   5.604
  495SOL    HW1 2384   4.215   6.172   5.698
  495SOL    HW2 2385   4.195   6.065   5.577
  496SOL     OW 2386   6.402   2.014   2.987
  496SOL    HW1 2387   6.401   2.112   2.969
  496SOL    HW2 2388   6.405   1.998   3.086
  497SOL     OW 2389   3.634   1.190   5.911
  497SOL    HW1 2390   3.661   1.211   6.005
  497SOL    HW2 2391   3.551   1.240   5.888
  498SOL     OW 2392   0.169   5.877   1.974
  498SOL    HW1 2393   0.089   5.915   2.019
  498SOL    HW2 2394   0.241   5.860   2.041
  499SOL     OW 2395   3.389   4.773   6.153
  499SOL    HW1 2396   3.363   4.790   6.248
  499SOL    HW2 2397   3.340   4.836   6.093
  500SOL     OW 2398   5.813   3.041   6.515
  500SOL    HW1 2399   5.747   3.003   6.449
  500SOL    HW2 2400   5.895   2.983   6.517
  501SOL     OW 2401   1.777   6.796   2.969
  501SOL    HW1 2402   1.831   6.800   2.885
  501SOL    HW2 2403   1.681   6.814   2.947
  502SOL     OW 2404   1.851   4.746   6.035
  502SOL    HW1 2405   1.843   4.669   6.097
  502SOL    HW2 2406   1.862   4.831   6.087
  503SOL     OW 2407   3.279   4.308   6.652
  503SOL    HW1 2408   3.189   4.270   6.675
  503SOL    HW2 2409   3.302   4.284   6.558
  504SOL     OW 2410   6.875   6.290   2.053
  504SOL    HW1 2411   6.908   6.384   2.063
  504SOL    HW2 2412   6.816   6.267   2.130
  505SOL     OW 2413   3.998   6.980   5.218
  505SOL    HW1 2414   3.988   0.011   5.306
  505SOL    HW2 2415   4.075   6.916   5.222
  506SOL     OW 2416   3.217   6.072   2.764
  506SOL    HW1 2417   3.178   6.158   2.731
  506SOL    HW2 2418   3.304   6.089   2.809
  507SOL     OW 2419   4.256   1.110   1.731
  507SOL    HW1 2420   4.269   1.029   1.675
  507SOL    HW2 2421   4.200   1.177   1.681
  508SOL     OW 2422   6.974   3.881   4.142
  508SOL    HW1 2423   6.977   3.815   4.216
  508SOL    HW2 2424   6.925   3.843   4.064
  509SOL     OW 2425   4.797   0.522   6.916
  509SOL    HW1 2426   4.703   0.554   6.915
  509SOL    HW2 2427   4.839   0.545   7.004
  510SOL     OW 2428   6.294   4.450   6.158
  510SOL    HW1 2429   6.337   4.435   6.246
  510SOL    HW2 2430   6.222   4.382   6.144
  511SOL     OW 2431   1.522   1.383   6.634
  511SOL    HW1 2432   1.534   1.322   6.712
  511SOL    HW2 2433   1.443   1.352   6.581
  512SOL     OW 2434   5.542   2.411   0.193
  512SOL    HW1 2435   5.452   2.425   0.151
  512SOL    HW2 2436   5.534   2.348   0.270
  513SOL     OW 2437   5.811   0.077   2.318
  513SOL    HW1 2438   5.868   0.032   2.249
  513SOL    HW2 2439   5.870   0.126   2.382
  514SOL     OW 2440   6.757   6.704   3.823
  514SOL    HW1 2441   6.751   6.749   3.912
  514SOL    HW2 2442   6.731   6.768   3.752
  515SOL     OW 2443   3.076   0.468   6.508
  515SOL    HW1 2444   3.121   0.543   6.459
  515SOL    HW2 2445   3.014   0.505   6.577
  516SOL     OW 2446   2.386   4.330   1.421
  516SOL    HW1 2447   2.403   4.300   1.515
  516SOL    HW2 2448   2.295   4.370   1.414
  517SOL     OW 2449   3.238   5.439   2.630
  517SOL    HW1 2450   3.220   5.533   2.600
  517SOL    HW2 2451   3.280   5.441   2.721
  518SOL     OW 2452   2.146   3.332   3.690
  518SOL    HW1 2453   2.152   3.340   3.790
  518SOL    HW2 2454   2.111   3.242   3.666
  519SOL     OW 2455   6.477   6.491   3.994
  519SOL    HW1 2456   6.537   6.561   4.031
  519SOL    HW2 2457   6.522   6.402   4.001
  520SOL     OW 2458   1.200   3.142   6.796
  520SOL    HW1 2459   1.110   3.169   6.760
  520SOL    HW2 2460   1.196   3.047   6.826
  521SOL     OW 2461   4.641   4.785   4.370
  521SOL    HW1 2462   4.682   4.876   4.373
  521SOL    HW2 2463   4.610   4.765   4.278
  522SOL     OW 2464   4.252   3.673   1.479
  522SOL    HW1 2465   4.239   3.574   1.473
  522SOL    HW2 2466   4.237   3.703   1.573
  523SOL     OW 2467   0.073   6.706   1.808
  523SOL    HW1 2468   0.018   6.788   1.823
  523SOL    HW2 2469   0.163   6.718   1.849
  524SOL     OW 2470   0.536   3.049   2.316
  524SOL    HW1 2471   0.526   3.082   2.222
  524SOL    HW2 2472   0.492   2.959   2.324
  525SOL     OW 2473   0.919   3.424   6.742
  525SOL    HW1 2474   0.991   3.490   6.723
  525SOL    HW2 2475   0.936   3.380   6.830
  526SOL     OW 2476   3.427   0.044   4.425
  526SOL    HW1 2477   3.416   7.005   4.508
  526SOL    HW2 2478   3.420   0.142   4.449
  527SOL     OW 2479   1.249   2.414   6.830
  527SOL    HW1 2480   1.273   2.409   6.733
  527SOL    HW2 2481   1.204   2.329   6.858
  528SOL     OW 2482   0.688   3.632   3.549
  528SOL    HW1 2483   0.751   3.617   3.473
  528SOL    HW2 2484   0.599   3.593   3.526
  529SOL     OW 2485   3.062   0.343   5.588
  529SOL    HW1 2486   2.981   0.401   5.586
  529SOL    HW2 2487   3.034   0.247   5.597
  530SOL     OW 2488   3.606   2.985   2.129
  530SOL    HW1 2489   3.523   2.935   2.103
  530SOL    HW2 2490   3.650   2.940   2.206
  531SOL     OW 2491   2.310   0.930   2.943
  531SOL    HW1 2492   2.327   0.875   3.025
  531SOL    HW2 2493   2.211   0.935   2.927
  532SOL     OW 2494   2.006   3.657   0.384
  532SOL    HW1 2495   1.926   3.705   0.419
  532SOL    HW2 2496   2.074   3.647   0.456
  533SOL     OW 2497   5.041   0.369   3.716
  533SOL    HW1 2498   4.943   0.379   3.734
  533SOL    HW2 2499   5.074   0.286   3.760
  534SOL     OW 2500   0.949   5.668   1.429
  534SOL    HW1 2501   0.857   5.693   1.461
  534SOL    HW2 2502   1.007   5.649   1.508
  535SOL     OW 2503   6.438   3.962   3.511
  535SOL    HW1 2504   6.477   4.055   3.515
  535SOL    HW2 2505   6.359   3.962   3.449
  536SOL     OW 2506   6.405   5.754   3.217
  536SOL    HW1 2507   6.375   5.806   3.297
  536SOL    HW2 2508   6.480   5.803   3.173
  537SOL     OW 2509   3.731   6.945   4.352
  537SOL    HW1 2510   3.646   6.991   4.327
  537SOL    HW2 2511   3.800   7.013   4.377
  538SOL     OW 2512   1.480   5.199   5.736
  538SOL    HW1 2513   1.563   5.246   5.766
  538SOL    HW2 2514   1.491   5.101   5.750
  539SOL     OW 2515   1.150   5.592   1.611
  539SOL    HW1 2516   1.205   5.662   1.658
  539SOL    HW2 2517   1.209   5.515   1.586
  540SOL     OW 2518   1.746   1.232   4.139
  540SOL    HW1 2519   1.772   1.135   4.143
  540SOL    HW2 2520   1.751   1.264   4.045
  541SOL     OW 2521   4.181   5.721   3.593
  541SOL    HW1 2522   4.134   5.702   3.507
  541SOL    HW2 2523   4.124   5.692   3.670
  542SOL     OW 2524   4.029   5.680   6.563
  542SOL    HW1 2525   4.017   5.583   6.540
  542SOL    HW2 2526   3.940   5.725   6.566
  543SOL     OW 2527   5.577   3.623   3.991
  543SOL    HW1 2528   5.496   3.611   3.934
  543SOL    HW2 2529   5.552   3.677   4.072
  544SOL     OW 2530   0.665   4.807   6.904
  544SOL    HW1 2531   0.584   4.765   6.862
  544SOL    HW2 2532   0.640   4.896   6.943
  545SOL     OW 2533   5.190   1.289   1.183
  545SOL    HW1 2534   5.124   1.353   1.222
  545SOL    HW2 2535   5.216   1.222   1.253
  546SOL     OW 2536   0.774   4.438   1.742
  546SOL    HW1 2537   0.698   4.374   1.731
  546SOL    HW2 2538   0.751   4.506   1.812
  547SOL     OW 2539   3.698   1.961   0.270
  547SOL    HW1 2540   3.697   2.008   0.182
  547SOL    HW2 2541   3.786   1.915   0.283
  548SOL     OW 2542   2.996   3.373   0.521
  548SOL    HW1 2543   3.071   3.434   0.548
  548SOL    HW2 2544   2.957   3.331   0.603
  549SOL     OW 2545   4.937   2.524   0.887
  549SOL    HW1 2546   4.866   2.480   0.833
  549SOL    HW2 2547   4.897   2.560   0.972
  550SOL     OW 2548   6.753   4.702   3.498
  550SOL    HW1 2549   6.658   4.732   3.486
  550SOL    HW2 2550   6.755   4.603   3.508
  551SOL     OW 2551   6.632   1.149   0.802
  551SOL    HW1 2552   6.609   1.190   0.890
  551SOL    HW2 2553   6.726   1.174   0.777
  552SOL     OW 2554   5.281   5.094   5.128
  552SOL    HW1 2555   5.233   5.177   5.098
  552SOL    HW2 2556   5.217   5.018   5.131
  553SOL     OW 2557   3.716   0.887   4.109
  553SOL    HW1 2558   3.687   0.814   4.171
  553SOL    HW2 2559   3.802   0.861   4.065
  554SOL     OW 2560   5.639   5.572   6.936
  554SOL    HW1 2561   5.694   5.574   0.005
  554SOL    HW2 2562   5.549   5.611   6.954
  555SOL     OW 2563   3.547   5.595   5.035
  555SOL    HW1 2564   3.612   5.596   5.110
  555SOL    HW2 2565   3.592   5.624   4.951
  556SOL     OW 2566   5.428   1.773   4.696
  556SOL    HW1 2567   5.359   1.707   4.668
  556SOL    HW2 2568   5.385   1.862   4.711
  557SOL     OW 2569   6.946   4.893   6.163
  557SOL    HW1 2570   6.912   4.846   6.082
  557SOL    HW2 2571   6.902   4.983   6.170
  558SOL     OW 2572   4.123   3.357   3.735
  558SOL    HW1 2573   4.135   3.453   3.712
  558SOL    HW2 2574   4.133   3.301   3.653
  559SOL     OW 2575   6.423   6.284   5.447
  559SOL    HW1 2576   6.458   6.193   5.468
  559SOL    HW2 2577   6.355   6.311   5.516
  560SOL     OW 2578   6.510   3.194   3.274
  560SOL    HW1 2579   6.450   3.234   3.343
  560SOL    HW2 2580   6.604   3.226   3.290
  561SOL     OW 2581   6.801   2.784   6.360
  561SOL    HW1 2582   6.819   2.882   6.365
  561SOL    HW2 2583   6.821   2.742   6.449
  562SOL     OW 2584   4.725   0.091   5.382
  562SOL    HW1 2585   4.656   0.158   5.354
  562SOL    HW2 2586   4.711   0.006   5.330
  563SOL     OW 2587   1.873   1.571   3.773
  563SOL    HW1 2588   1.928   1.629   3.713
  563SOL    HW2 2589   1.801   1.626   3.815
  564SOL     OW 2590   0.102   1.671   6.385
  564SOL    HW1 2591   0.144   1.641   6.470
  564SOL    HW2 2592   0.155   1.636   6.307
  565SOL     OW 2593   2.967   3.251   4.021
  565SOL    HW1 2594   2.882   3.200   4.033
  565SOL    HW2 2595   3.006   3.272   4.111
  566SOL     OW 2596   2.273   4.741   2.791
  566SOL    HW1 2597   2.220   4.657   2.780
  566SOL    HW2 2598   2.320   4.763   2.705
  567SOL     OW 2599   2.662   2.486   0.459
  567SOL    HW1 2600   2.602   2.506   0.382
  567SOL    HW2 2601   2.719   2.565   0.479
  568SOL     OW 2602   5.483   6.790   1.023
  568SOL    HW1 2603   5.523   6.786   0.931
  568SOL    HW2 2604   5.548   6.834   1.085
  569SOL     OW 2605   1.142   2.612   0.941
  569SOL    HW1 2606   1.045   2.633   0.951
  569SOL    HW2 2607   1.156   2.513   0.945
  570SOL     OW 2608   3.207   6.949   6.560
  570SOL    HW1 2609   3.252   6.860   6.567
  570SOL    HW2 2610   3.196   6.989   6.651
  571SOL     OW 2611   2.790   4.845   3.793
  571SOL    HW1 2612   2.711   4.870   3.739
  571SOL    HW2 2613   2.874   4.862   3.741
  572SOL     OW 2614   2.030   5.651   4.804
  572SOL    HW1 2615   2.013   5.749   4.808
  572SOL    HW2 2616   2.116   5.634   4.757
  573SOL     OW 2617   6.215   1.281   5.659
  573SOL    HW1 2618   6.238   1.371   5.696
  573SOL    HW2 2619   6.135   1.289   5.599
  574SOL     OW 2620   3.406   0.585   5.321
  574SOL    HW1 2621   3.407   0.649   5.244
  574SOL    HW2 2622   3.490   0.596   5.375
  575SOL     OW 2623   4.320   2.697   1.113
  575SOL    HW1 2624   4.258   2.635   1.064
  575SOL    HW2 2625   4.310   2.683   1.212
  576SOL     OW 2626   1.716   3.068   2.973
  576SOL    HW1 2627   1.649   3.076   3.046
  576SOL    HW2 2628   1.670   3.071   2.884
  577SOL     OW 2629   1.166   0.689   2.418
  577SOL    HW1 2630   1.150   0.672   2.515
  577SOL    HW2 2631   1.263   0.680   2.397
  578SOL     OW 2632   2.160   5.619   6.451
  578SOL    HW1 2633   2.234   5.564   6.413
  578SOL    HW2 2634   2.197   5.703   6.490
  579SOL     OW 2635   1.899   4.722   2.618
  579SOL    HW1 2636   1.980   4.671   2.589
  579SOL    HW2 2637   1.866   4.687   2.705
  580SOL     OW 2638   4.404   4.822   5.460
  580SOL    HW1 2639   4.451   4.771   5.532
  580SOL    HW2 2640   4.385   4.762   5.383
  581SOL     OW 2641   0.889   2.990   3.571
  581SOL    HW1 2642   0.988   3.004   3.560
  581SOL    HW2 2643   0.846   3.077   3.595
  582SOL     OW 2644   4.793   5.673   3.204
  582SOL    HW1 2645   4.832   5.584   3.227
  582SOL    HW2 2646   4.708   5.659   3.153
  583SOL     OW 2647   2.611   5.515   5.099
  583SOL    HW1 2648   2.623   5.424   5.060
  583SOL    HW2 2649   2.534   5.561   5.055
  584SOL     OW 2650   3.357   6.857   6.170
  584SOL    HW1 2651   3.298   6.902   6.238
  584SOL    HW2 2652   3.400   6.777   6.211
  585SOL     OW 2653   4.229   0.401   1.067
  585SOL    HW1 2654   4.141   0.449   1.065
  585SOL    HW2 2655   4.225   0.321   1.007
  586SOL     OW 2656   3.565   0.606   1.178
  586SOL    HW1 2657   3.515   0.617   1.264
  586SOL    HW2 2658   3.522   0.661   1.107
  587SOL     OW 2659   5.254   1.956   2.460
  587SOL    HW1 2660   5.176   2.010   2.431
  587SOL    HW2 2661   5.314   1.939   2.381
  588SOL     OW 2662   1.801   5.391   1.229
  588SOL    HW1 2663   1.718   5.441   1.256
  588SOL    HW2 2664   1.880   5.452   1.234
  589SOL     OW 2665   3.260   5.751   1.311
  589SOL    HW1 2666   3.320   5.772   1.234
  589SOL    HW2 2667   3.200   5.829   1.329
  590SOL     OW 2668   5.682   1.107   0.772
  590SOL    HW1 2669   5.617   1.132   0.700
  590SOL    HW2 2670   5.696   1.008   0.771
  591SOL     OW 2671   4.154   6.064   3.611
  591SOL    HW1 2672   4.208   6.060   3.695
  591SOL    HW2 2673   4.078   5.999   3.617
  592SOL     OW 2674   4.463   0.598   3.462
  592SOL    HW1 2675   4.407   0.607   3.379
  592SOL    HW2 2676   4.405   0.563   3.537
  593SOL     OW 2677   4.388   1.922   4.934
  593SOL    HW1 2678   4.420   1.876   5.016
  593SOL    HW2 2679   4.356   2.014   4.957
  594SOL     OW 2680   5.980   1.188   0.745
  594SOL    HW1 2681   5.917   1.113   0.727
  594SOL    HW2 2682   5.969   1.219   0.839
  595SOL     OW 2683   5.742   6.468   3.518
  595SOL    HW1 2684   5.653   6.480   3.562
  595SOL    HW2 2685   5.755   6.372   3.494
  596SOL     OW 2686   0.142   5.152   3.485
  596SOL    HW1 2687   0.149   5.103   3.572
  596SOL    HW2 2688   0.087   5.234   3.497
  597SOL     OW 2689   3.002   6.976   6.087
  597SOL    HW1 2690   3.016   6.926   6.173
  597SOL    HW2 2691   3.047   0.050   6.093
  598SOL     OW 2692   3.620   4.192   4.815
  598SOL    HW1 2693   3.567   4.178   4.898
  598SOL    HW2 2694   3.622   4.289   4.792
  599SOL     OW 2695   2.003   5.990   2.483
  599SOL    HW1 2696   1.988   5.960   2.389
  599SOL    HW2 2697   2.065   6.069   2.484
  600SOL     OW 2698   6.976   3.246   5.981
  600SOL    HW1 2699   6.955   3.284   6.071
  600SOL    HW2 2700   6.914   3.286   5.913
  601SOL     OW 2701   1.625   1.251   4.763
  601SOL    HW1 2702   1.697   1.263   4.695
  601SOL    HW2 2703   1.545   1.208   4.720
  602SOL     OW 2704   2.939   0.442   6.088
  602SOL    HW1 2705   2.853   0.473   6.127
  602SOL    HW2 2706   2.995   0.399   6.159
  603SOL     OW 2707   1.761   2.178   5.351
  603SOL    HW1 2708   1.832   2.109   5.333
  603SOL    HW2 2709   1.728   2.169   5.445
  604SOL     OW 2710   0.318   2.375   1.661
  604SOL    HW1 2711   0.370   2.290   1.675
  604SOL    HW2 2712   0.381   2.452   1.655
  605SOL     OW 2713   0.131   4.880   1.901
  605SOL    HW1 2714   0.230   4.880   1.897
  605SOL    HW2 2715   0.095   4.803   1.848
  606SOL     OW 2716   4.299   6.692   5.821
  606SOL    HW1 2717   4.248   6.727   5.742
  606SOL    HW2 2718   4.380   6.644   5.789
  607SOL     OW 2719   0.508   4.962   5.672
  607SOL    HW1 2720   0.479   5.038   5.730
  607SOL    HW2 2721   0.455   4.964   5.587
  608SOL     OW 2722   3.724   0.055   6.861
  608SOL    HW1 2723   3.676   6.983   6.867
  608SOL    HW2 2724   3.780   0.056   6.778
  609SOL     OW 2725   3.586   2.468   1.655
  609SOL    HW1 2726   3.508   2.514   1.696
  609SOL    HW2 2727   3.620   2.398   1.717
  610SOL     OW 2728   4.546   2.251   0.183
  610SOL    HW1 2729   4.505   2.334   0.220
  610SOL    HW2 2730   4.644   2.266   0.167
  611SOL     OW 2731   3.590   0.035   2.709
  611SOL    HW1 2732   3.587   6.988   2.631
  611SOL    HW2 2733   3.564   0.127   2.679
  612SOL     OW 2734   2.770   5.334   4.820
  612SOL    HW1 2735   2.855   5.310   4.867
  612SOL    HW2 2736   2.693   5.288   4.864
  613SOL     OW 2737   5.280   4.675   4.913
  613SOL    HW1 2738   5.184   4.670   4.883
  613SOL    HW2 2739   5.295   4.607   4.985
  614SOL     OW 2740   5.350   5.174   4.750
  614SOL    HW1 2741   5.398   5.088   4.732
  614SOL    HW2 2742   5.251   5.159   4.741
  615SOL     OW 2743   6.899   2.981   1.294
  615SOL    HW1 2744   6.977   2.919   1.300
  615SOL    HW2 2745   6.881   3.020   1.384
  616SOL     OW 2746   6.213   2.212   2.673
  616SOL    HW1 2747   6.175   2.156   2.746
  616SOL    HW2 2748   6.161   2.195   2.589
  617SOL     OW 2749   1.778   4.903   6.840
  617SOL    HW1 2750   1.856   4.848   6.811
  617SOL    HW2 2751   1.743   4.867   6.927
  618SOL     OW 2752   1.597   2.373   1.648
  618SOL    HW1 2753   1.505   2.338   1.666
  618SOL    HW2 2754   1.602   2.405   1.553
  619SOL     OW 2755   1.984   2.015   0.740
  619SOL    HW1 2756   2.083   2.026   0.730
  619SOL    HW2 2757   1.938   2.096   0.705
  620SOL     OW 2758   4.553   1.985   0.320
  620SOL    HW1 2759   4.554   1.925   0.240
  620SOL    HW2 2760   4.529   2.078   0.291
  621SOL     OW 2761   5.556   4.973   6.938
  621SOL    HW1 2762   5.539   5.015   6.849
  621SOL    HW2 2763   5.627   4.903   6.930
  622SOL     OW 2764   1.534   1.310   6.909
  622SOL    HW1 2765   1.461   1.377   6.896
  622SOL    HW2 2766   1.499   1.233   6.963
  623SOL     OW 2767   0.845   5.872   5.860
  623SOL    HW1 2768   0.783   5.824   5.922
  623SOL    HW2 2769   0.845   5.827   5.771
  624SOL     OW 2770   0.210   2.891   2.208
  624SOL    HW1 2771   0.291   2.835   2.190
  624SOL    HW2 2772   0.168   2.918   2.121
  625SOL     OW 2773   2.768   2.243   1.264
  625SOL    HW1 2774   2.705   2.211   1.335
  625SOL    HW2 2775   2.808   2.330   1.291
  626SOL     OW 2776   2.438   5.670   3.545
  626SOL    HW1 2777   2.512   5.737   3.553
  626SOL    HW2 2778   2.460   5.605   3.472
  627SOL     OW 2779   4.832   6.867   0.709
  627SOL    HW1 2780   4.897   6.943   0.711
  627SOL    HW2 2781   4.809   6.841   0.803
  628SOL     OW 2782   4.736   4.892   4.692
  628SOL    HW1 2783   4.739   4.953   4.613
  628SOL    HW2 2784   4.795   4.813   4.676
  629SOL     OW 2785   0.237   0.337   1.023
  629SOL    HW1 2786   0.235   0.272   1.099
  629SOL    HW2 2787   0.190   0.421   1.049
  630SOL     OW 2788   5.572   2.137   2.436
  630SOL    HW1 2789   5.583   2.087   2.523
  630SOL    HW2 2790   5.515   2.083   2.374
  631SOL     OW 2791   3.073   0.485   5.215
  631SOL    HW1 2792   3.126   0.545   5.275
  631SOL    HW2 2793   3.114   0.394   5.213
  632SOL     OW 2794   2.532   1.261   0.213
  632SOL    HW1 2795   2.611   1.323   0.215
  632SOL    HW2 2796   2.535   1.200   0.292
  633SOL     OW 2797   3.501   5.403   0.119
  633SOL    HW1 2798   3.596   5.432   0.112
  633SOL    HW2 2799   3.452   5.426   0.035
  634SOL     OW 2800   4.084   4.661   1.808
  634SOL    HW1 2801   4.157   4.602   1.775
  634SOL    HW2 2802   4.010   4.663   1.741
  635SOL     OW 2803   4.789   6.671   3.101
  635SOL    HW1 2804   4.750   6.668   3.193
  635SOL    HW2 2805   4.879   6.714   3.104
  636SOL     OW 2806   5.240   5.402   6.520
  636SOL    HW1 2807   5.310   5.336   6.547
  636SOL    HW2 2808   5.235   5.407   6.420
  637SOL     OW 2809   5.224   4.808   1.743
  637SOL    HW1 2810   5.250   4.901   1.768
  637SOL    HW2 2811   5.215   4.753   1.827
  638SOL     OW 2812   4.981   1.240   2.566
  638SOL    HW1 2813   4.981   1.256   2.467
  638SOL    HW2 2814   4.967   1.327   2.614
  639SOL     OW 2815   5.116   4.819   2.046
  639SOL    HW1 2816   5.185   4.886   2.074
  639SOL    HW2 2817   5.027   4.863   2.041
  640SOL     OW 2818   2.273   4.869   5.695
  640SOL    HW1 2819   2.348   4.863   5.629
  640SOL    HW2 2820   2.304   4.833   5.783
  641SOL     OW 2821   0.412   5.341   4.360
  641SOL    HW1 2822   0.446   5.250   4.340
  641SOL    HW2 2823   0.417   5.358   4.459
  642SOL     OW 2824   0.481   3.695   4.013
  642SOL    HW1 2825   0.513   3.654   3.928
  642SOL    HW2 2826   0.558   3.707   4.076
  643SOL     OW 2827   5.934   5.296   5.254
  643SOL    HW1 2828   5.906   5.282   5.160
  643SOL    HW2 2829   6.034   5.292   5.260
  644SOL     OW 2830   0.579   5.723   2.681
  644SOL    HW1 2831   0.520   5.696   2.605
  644SOL    HW2 2832   0.658   5.662   2.686
  645SOL     OW 2833   4.911   2.679   4.531
  645SOL    HW1 2834   4.982   2.655   4.465
  645SOL    HW2 2835   4.825   2.695   4.483
  646SOL     OW 2836   1.940   2.201   3.274
  646SOL    HW1 2837   1.903   2.287   3.309
  646SOL    HW2 2838   1.866   2.143   3.240
  647SOL     OW 2839   6.112   2.626   6.459
  647SOL    HW1 2840   6.093   2.539   6.414
  647SOL    HW2 2841   6.188   2.672   6.411
  648SOL     OW 2842   5.869   3.579   2.903
  648SOL    HW1 2843   5.960   3.611   2.880
  648SOL    HW2 2844   5.808   3.592   2.825
  649SOL     OW 2845   4.201   4.404   0.210
  649SOL    HW1 2846   4.200   4.333   0.280
  649SOL    HW2 2847   4.153   4.371   0.128
  650SOL     OW 2848   4.663   4.178   0.423
  650SOL    HW1 2849   4.640   4.107   0.490
  650SOL    HW2 2850   4.595   4.178   0.349
  651SOL     OW 2851   0.659   6.547   0.440
  651SOL    HW1 2852   0.729   6.594   0.494
  651SOL    HW2 2853   0.693   6.457   0.412
  652SOL     OW 2854   4.744   6.584   3.772
  652SOL    HW1 2855   4.767   6.674   3.733
  652SOL    HW2 2856   4.709   6.525   3.700
  653SOL     OW 2857   3.627   5.467   5.287
  653SOL    HW1 2858   3.539   5.432   5.320
  653SOL    HW2 2859   3.700   5.404   5.312
  654SOL     OW 2860   6.862   4.732   5.962
  654SOL    HW1 2861   6.950   4.714   5.919
  654SOL    HW2 2862   6.830   4.649   6.009
  655SOL     OW 2863   0.541   0.156   2.248
  655SOL    HW1 2864   0.548   0.143   2.347
  655SOL    HW2 2865   0.607   0.226   2.220
  656SOL     OW 2866   2.082   5.819   1.602
  656SOL    HW1 2867   2.065   5.913   1.632
  656SOL    HW2 2868   2.076   5.758   1.680
  657SOL     OW 2869   2.276   2.127   1.664
  657SOL    HW1 2870   2.356   2.178   1.694
  657SOL    HW2 2871   2.194   2.182   1.679
  658SOL     OW 2872   3.355   3.044   6.706
  658SOL    HW1 2873   3.354   3.124   6.767
  658SOL    HW2 2874   3.310   3.067   6.620
  659SOL     OW 2875   3.233   6.233   6.065
  659SOL    HW1 2876   3.277   6.257   6.152
  659SOL    HW2 2877   3.152   6.290   6.052
  660SOL     OW 2878   3.841   5.569   1.700
  660SOL    HW1 2879   3.885   5.599   1.784
  660SOL    HW2 2880   3.838   5.646   1.635
  661SOL     OW 2881   4.420   6.409   3.973
  661SOL    HW1 2882   4.399   6.398   4.070
  661SOL    HW2 2883   4.341   6.446   3.925
  662SOL     OW 2884   3.576   0.934   5.720
  662SOL    HW1 2885   3.653   0.986   5.758
  662SOL    HW2 2886   3.605   0.884   5.639
  663SOL     OW 2887   2.174   3.566   5.551
  663SOL    HW1 2888   2.211   3.641   5.496
  663SOL    HW2 2889   2.102   3.519   5.500
  664SOL     OW 2890   0.307   6.356   6.147
  664SOL    HW1 2891   0.348   6.434   6.099
  664SOL    HW2 2892   0.380   6.299   6.185
  665SOL     OW 2893   3.595   5.297   2.673
  665SOL    HW1 2894   3.572   5.355   2.751
  665SOL    HW2 2895   3.693   5.280   2.673
  666SOL     OW 2896   4.386   0.778   1.972
  666SOL    HW1 2897   4.456   0.713   1.944
  666SOL    HW2 2898   4.356   0.831   1.892
  667SOL     OW 2899   1.280   5.310   2.148
  667SOL    HW1 2900   1.333   5.283   2.067
  667SOL    HW2 2901   1.214   5.238   2.169
  668SOL     OW 2902   5.329   6.073   5.744
  668SOL    HW1 2903   5.251   6.018   5.773
  668SOL    HW2 2904   5.302   6.169   5.742
  669SOL     OW 2905   5.793   0.993   3.313
  669SOL    HW1 2906   5.796   0.902   3.271
  669SOL    HW2 2907   5.729   0.992   3.389
  670SOL     OW 2908   2.491   1.893   2.163
  670SOL    HW1 2909   2.465   1.801   2.134
  670SOL    HW2 2910   2.591   1.899   2.168
  671SOL     OW 2911   3.478   5.781   1.157
  671SOL    HW1 2912   3.552   5.815   1.215
  671SOL    HW2 2913   3.462   5.844   1.082
  672SOL     OW 2914   6.925   5.441   1.781
  672SOL    HW1 2915   6.863   5.519   1.792
  672SOL    HW2 2916   6.898   5.368   1.844
  673SOL     OW 2917   6.075   0.002   1.416
  673SOL    HW1 2918   6.119   0.088   1.390
  673SOL    HW2 2919   6.138   6.941   1.399
  674SOL     OW 2920   0.454   1.250   4.605
  674SOL    HW1 2921   0.460   1.312   4.684
  674SOL    HW2 2922   0.454   1.304   4.521
  675SOL     OW 2923   5.281   2.515   2.678
  675SOL    HW1 2924   5.375   2.545   2.657
  675SOL    HW2 2925   5.274   2.416   2.666
  676SOL     OW 2926   2.221   5.244   4.447
  676SOL    HW1 2927   2.278   5.175   4.404
  676SOL    HW2 2928   2.275   5.296   4.513
  677SOL     OW 2929   4.913   0.902   1.604
  677SOL    HW1 2930   4.949   0.916   1.511
  677SOL    HW2 2931   4.966   0.956   1.669
  678SOL     OW 2932   2.759   5.263   4.520
  678SOL    HW1 2933   2.839   5.289   4.574
  678SOL    HW2 2934   2.683   5.241   4.581
  679SOL     OW 2935   5.300   1.548   4.948
  679SOL    HW1 2936   5.221   1.502   4.988
  679SOL    HW2 2937   5.382   1.527   5.002
  680SOL     OW 2938   4.441   5.994   4.375
  680SOL    HW1 2939   4.540   5.982   4.376
  680SOL    HW2 2940   4.402   5.945   4.296
  681SOL     OW 2941   4.216   6.041   1.859
  681SOL    HW1 2942   4.297   6.009   1.811
  681SOL    HW2 2943   4.139   5.982   1.838
  682SOL     OW 2944   6.266   1.329   2.049
  682SOL    HW1 2945   6.271   1.400   1.979
  682SOL    HW2 2946   6.273   1.371   2.140
  683SOL     OW 2947   4.619   2.884   0.791
  683SOL    HW1 2948   4.662   2.849   0.708
  683SOL    HW2 2949   4.532   2.836   0.806
  684SOL     OW 2950   6.259   0.866   0.299
  684SOL    HW1 2951   6.224   0.883   0.207
  684SOL    HW2 2952   6.193   0.900   0.366
  685SOL     OW 2953   2.980   2.116   3.828
  685SOL    HW1 2954   2.952   2.025   3.797
  685SOL    HW2 2955   3.050   2.106   3.899
  686SOL     OW 2956   4.669   2.011   4.258
  686SOL    HW1 2957   4.720   2.081   4.209
  686SOL    HW2 2958   4.720   1.925   4.257
  687SOL     OW 2959   1.113   2.242   4.394
  687SOL    HW1 2960   1.128   2.143   4.397
  687SOL    HW2 2961   1.193   2.289   4.432
  688SOL     OW 2962   6.977   1.439   6.234
  688SOL    HW1 2963   0.010   1.505   6.292
  688SOL    HW2 2964   6.879   1.460   6.234
  689SOL     OW 2965   1.930   4.399   5.901
  689SOL    HW1 2966   1.958   4.330   5.968
  689SOL    HW2 2967   1.976   4.485   5.921
  690SOL     OW 2968   6.812   3.908   3.295
  690SOL    HW1 2969   6.833   3.835   3.360
  690SOL    HW2 2970   6.886   3.976   3.297
  691SOL     OW 2971   3.385   1.514   1.039
  691SOL    HW1 2972   3.456   1.451   1.070
  691SOL    HW2 2973   3.420   1.571   0.964
  692SOL     OW 2974   4.206   1.710   4.903
  692SOL    HW1 2975   4.277   1.780   4.902
  692SOL    HW2 2976   4.154   1.717   4.988
  693SOL     OW 2977   4.745   6.817   4.076
  693SOL    HW1 2978   4.751   6.718   4.087
  693SOL    HW2 2979   4.769   6.861   4.163
  694SOL     OW 2980   4.215   6.133   4.494
  694SOL    HW1 2981   4.166   6.062   4.545
  694SOL    HW2 2982   4.295   6.094   4.449
  695SOL     OW 2983   3.946   5.958   4.316
  695SOL    HW1 2984   3.853   5.939   4.285
  695SOL    HW2 2985   3.980   5.880   4.370
  696SOL     OW 2986   4.851   4.437   3.582
  696SOL    HW1 2987   4.940   4.450   3.626
  696SOL    HW2 2988   4.855   4.358   3.521
  697SOL     OW 2989   1.410   3.542   2.651
  697SOL    HW1 2990   1.450   3.511   2.737
  697SOL    HW2 2991   1.402   3.642   2.651
  698SOL     OW 2992   5.067   6.484   0.846
  698SOL    HW1 2993   5.046   6.426   0.767
  698SOL    HW2 2994   4.982   6.508   0.893
  699SOL     OW 2995   1.689   3.081   6.456
  699SOL    HW1 2996   1.693   3.121   6.364
  699SOL    HW2 2997   1.644   2.992   6.452
  700SOL     OW 2998   3.643   0.222   2.037
  700SOL    HW1 2999   3.609   0.222   2.132
  700SOL    HW2 3000   3.705   0.145   2.024
  701SOL     OW 3001   0.223   4.274   0.132
  701SOL    HW1 3002   0.251   4.370   0.127
  701SOL    HW2 3003   0.228   4.232   0.042
  702SOL     OW 3004   2.227   6.738   4.099
  702SOL    HW1 3005   2.254   6.833   4.082
  702SOL    HW2 3006   2.133   6.724   4.066
  703SOL     OW 3007   3.471   3.006   5.656
  703SOL    HW1 3008   3.538   3.067   5.614
  703SOL    HW2 3009   3.380   3.027   5.621
  704SOL     OW 3010   2.042   2.221   6.235
  704SOL    HW1 3011   2.128   2.245   6.190
  704SOL    HW2 3012   2.061   2.170   6.319
  705SOL     OW 3013   6.225   5.611   3.036
  705SOL    HW1 3014   6.153   5.580   3.099
  705SOL    HW2 3015   6.293   5.664   3.086
  706SOL     OW 3016   4.591   1.969   5.768
  706SOL    HW1 3017   4.498   2.004   5.758
  706SOL    HW2 3018   4.655   2.025   5.715
  707SOL     OW 3019   3.911   4.850   3.128
  707SOL    HW1 3020   3.981   4.785   3.098
  707SOL    HW2 3021   3.865   4.889   3.048
  708SOL     OW 3022   2.821   1.459   3.238
  708SOL    HW1 3023   2.847   1.379   3.184
  708SOL    HW2 3024   2.775   1.525   3.179
  709SOL     OW 3025   1.359   6.526   1.247
  709SOL    HW1 3026   1.336   6.588   1.323
  709SOL    HW2 3027   1.304   6.443   1.254
  710SOL     OW 3028   4.922   2.307   1.603
  710SOL    HW1 3029   4.993   2.259   1.655
  710SOL    HW2 3030   4.838   2.310   1.657
  711SOL     OW 3031   0.204   2.852   6.433
  711SOL    HW1 3032   0.265   2.811   6.366
  711SOL    HW2 3033   0.180   2.783   6.502
  712SOL     OW 3034   4.717   2.125   0.730
  712SOL    HW1 3035   4.696   2.044   0.676
  712SOL    HW2 3036   4.805   2.113   0.776
  713SOL     OW 3037   4.168   2.746   5.367
  713SOL    HW1 3038   4.112   2.737   5.450
  713SOL    HW2 3039   4.137   2.681   5.298
  714SOL     OW 3040   6.069   5.583   4.139
  714SOL    HW1 3041   6.156   5.581   4.090
  714SOL    HW2 3042   5.995   5.603   4.074
  715SOL     OW 3043   6.083   5.376   6.230
  715SOL    HW1 3044   6.128   5.449   6.281
  715SOL    HW2 3045   6.132   5.290   6.243
  716SOL     OW 3046   1.448   1.414   2.989
  716SOL    HW1 3047   1.489   1.393   3.078
  716SOL    HW2 3048   1.362   1.463   3.002
  717SOL     OW 3049   6.469   4.617   4.549
  717SOL    HW1 3050   6.488   4.598   4.646
  717SOL    HW2 3051   6.506   4.542   4.493
  718SOL     OW 3052   5.021   2.706   4.791
  718SOL    HW1 3053   5.094   2.774   4.792
  718SOL    HW2 3054   4.996   2.684   4.697
  719SOL     OW 3055   5.623   0.575   2.584
  719SOL    HW1 3056   5.678   0.567   2.667
  719SOL    HW2 3057   5.552   0.644   2.598
  720SOL     OW 3058   2.214   0.098   6.024
  720SOL    HW1 3059   2.285   0.034   5.995
  720SOL    HW2 3060   2.129   0.048   6.044
  721SOL     OW 3061   1.692   1.269   2.350
  721SOL    HW1 3062   1.792   1.270   2.362
  721SOL    HW2 3063   1.665   1.187   2.301
  722SOL     OW 3064   3.129   0.939   5.576
  722SOL    HW1 3065   3.172   0.961   5.663
  722SOL    HW2 3066   3.099   1.023   5.531
  723SOL     OW 3067   1.667   6.068   3.678
  723SOL    HW1 3068   1.755   6.095   3.639
  723SOL    HW2 3069   1.596   6.077   3.608
  724SOL     OW 3070   0.129   1.090   3.607
  724SOL    HW1 3071   0.036   1.095   3.569
  724SOL    HW2 3072   0.173   1.179   3.599
  725SOL     OW 3073   2.100   4.557   2.588
  725SOL    HW1 3074   2.087   4.458   2.590
  725SOL    HW2 3075   2.161   4.581   2.512
  726SOL     OW 3076   2.324   5.110   1.076
  726SOL    HW1 3077   2.324   5.057   1.161
  726SOL    HW2 3078   2.286   5.054   1.002
  727SOL     OW 3079   5.026   4.633   6.637
  727SOL    HW1 3080   5.055   4.620   6.732
  727SOL    HW2 3081   4.984   4.549   6.604
  728SOL     OW 3082   6.833   3.282   4.335
  728SOL    HW1 3083   6.840   3.318   4.242
  728SOL    HW2 3084   6.775   3.200   4.335
  729SOL     OW 3085   0.606   2.788   1.108
  729SOL    HW1 3086   0.518   2.755   1.144
  729SOL    HW2 3087   0.594   2.821   1.014
  730SOL     OW 3088   5.683   0.701   3.582
  730SOL    HW1 3089   5.717   0.794   3.572
  730SOL    HW2 3090   5.680   0.657   3.492
  731SOL     OW 3091   4.991   5.026   6.888
  731SOL    HW1 3092   5.085   4.991   6.887
  731SOL    HW2 3093   4.983   5.100   6.954
  732SOL     OW 3094   5.586   2.782   2.349
  732SOL    HW1 3095   5.613   2.834   2.268
  732SOL    HW2 3096   5.567   2.845   2.424
  733SOL     OW 3097   6.117   0.524   4.318
  733SOL    HW1 3098   6.044   0.488   4.260
  733SOL    HW2 3099   6.150   0.610   4.279
  734SOL     OW 3100   6.204   4.813   2.690
  734SOL    HW1 3101   6.300   4.837   2.701
  734SOL    HW2 3102   6.197   4.723   2.647
  735SOL     OW 3103   4.402   1.080   0.796
  735SOL    HW1 3104   4.309   1.055   0.824
  735SOL    HW2 3105   4.436   1.013   0.731
  736SOL     OW 3106   1.441   1.774   3.511
  736SOL    HW1 3107   1.433   1.702   3.443
  736SOL    HW2 3108   1.382   1.851   3.486
  737SOL     OW 3109   6.054   1.468   6.475
  737SOL    HW1 3110   6.061   1.568   6.485
  737SOL    HW2 3111   6.082   1.441   6.383
  738SOL     OW 3112   2.651   3.947   1.561
  738SOL    HW1 3113   2.738   3.929   1.607
  738SOL    HW2 3114   2.578   3.952   1.630
  739SOL     OW 3115   3.790   0.565   5.106
  739SOL    HW1 3116   3.813   0.662   5.114
  739SOL    HW2 3117   3.873   0.511   5.096
  740SOL     OW 3118   5.627   1.793   3.197
  740SOL    HW1 3119   5.541   1.775   3.246
  740SOL    HW2 3120   5.689   1.844   3.257
  741SOL     OW 3121   1.847   0.941   4.159
  741SOL    HW1 3122   1.787   0.862   4.172
  741SOL    HW2 3123   1.942   0.914   4.175
  742SOL     OW 3124   2.416   6.079   1.323
  742SOL    HW1 3125   2.444   6.115   1.234
  742SOL    HW2 3126   2.429   5.979   1.324
  743SOL     OW 3127   0.328   6.023   3.192
  743SOL    HW1 3128   0.426   6.027   3.213
  743SOL    HW2 3129   0.299   5.928   3.185
  744SOL     OW 3130   5.988   0.865   0.764
  744SOL    HW1 3131   6.081   0.829   0.752
  744SOL    HW2 3132   5.976   0.894   0.859
  745SOL     OW 3133   2.226   5.636   5.340
  745SOL    HW1 3134   2.244   5.714   5.399
  745SOL    HW2 3135   2.163   5.663   5.266
  746SOL     OW 3136   6.096   4.170   5.815
  746SOL    HW1 3137   6.107   4.248   5.754
  746SOL    HW2 3138   6.130   4.194   5.906
  747SOL     OW 3139   4.336   5.789   4.220
  747SOL    HW1 3140   4.368   5.753   4.308
  747SOL    HW2 3141   4.397   5.757   4.147
  748SOL     OW 3142   5.013   5.410   1.993
  748SOL    HW1 3143   5.000   5.477   1.920
  748SOL    HW2 3144   5.054   5.327   1.956
  749SOL     OW 3145   6.031   3.613   4.014
  749SOL    HW1 3146   5.978   3.606   4.099
  749SOL    HW2 3147   6.101   3.542   4.013
  750SOL     OW 3148   2.594   0.917   0.761
  750SOL    HW1 3149   2.619   1.004   0.719
  750SOL    HW2 3150   2.676   0.860   0.770
  751SOL     OW 3151   4.785   1.308   1.259
  751SOL    HW1 3152   4.745   1.219   1.280
  751SOL    HW2 3153   4.872   1.318   1.308
  752SOL     OW 3154   2.858   2.324   6.724
  752SOL    HW1 3155   2.802   2.247   6.754
  752SOL    HW2 3156   2.931   2.291   6.664
  753SOL     OW 3157   2.545   3.498   5.711
  753SOL    HW1 3158   2.554   3.590   5.674
  753SOL    HW2 3159   2.505   3.438   5.642
  754SOL     OW 3160   4.126   1.124   0.517
  754SOL    HW1 3161   4.194   1.062   0.477
  754SOL    HW2 3162   4.121   1.207   0.462
  755SOL     OW 3163   2.833   4.585   5.397
  755SOL    HW1 3164   2.888   4.575   5.479
  755SOL    HW2 3165   2.887   4.557   5.317
  756SOL     OW 3166   3.331   4.498   0.138
  756SOL    HW1 3167   3.257   4.541   0.190
  756SOL    HW2 3168   3.319   4.399   0.141
  757SOL     OW 3169   2.178   6.192   2.422
  757SOL    HW1 3170   2.153   6.278   2.377
  757SOL    HW2 3171   2.244   6.210   2.494
  758SOL     OW 3172   3.857   1.368   4.183
  758SOL    HW1 3173   3.823   1.354   4.276
  758SOL    HW2 3174   3.820   1.454   4.146
  759SOL     OW 3175   6.670   3.348   2.566
  759SOL    HW1 3176   6.695   3.252   2.575
  759SOL    HW2 3177   6.628   3.364   2.477
  760SOL     OW 3178   6.157   6.718   4.305
  760SOL    HW1 3179   6.130   6.743   4.212
  760SOL    HW2 3180   6.189   6.624   4.307
  761SOL     OW 3181   5.652   4.386   5.938
  761SOL    HW1 3182   5.587   4.426   5.874
  761SOL    HW2 3183   5.613   4.387   6.030
  762SOL     OW 3184   2.684   6.728   5.560
  762SOL    HW1 3185   2.743   6.655   5.594
  762SOL    HW2 3186   2.614   6.689   5.499
  763SOL     OW 3187   4.799   6.583   6.720
  763SOL    HW1 3188   4.896   6.582   6.745
  763SOL    HW2 3189   4.759   6.670   6.750
  764SOL     OW 3190   5.774   1.109   5.417
  764SOL    HW1 3191   5.760   1.022   5.370
  764SOL    HW2 3192   5.817   1.175   5.355
  765SOL     OW 3193   1.463   6.537   0.569
  765SOL    HW1 3194   1.553   6.544   0.528
  765SOL    HW2 3195   1.398   6.592   0.517
  766SOL     OW 3196   2.978   2.184   5.273
  766SOL    HW1 3197   3.005   2.100   5.322
  766SOL    HW2 3198   3.060   2.237   5.251
  767SOL     OW 3199   6.459   6.263   3.689
  767SOL    HW1 3200   6.547   6.307   3.708
  767SOL    HW2 3201   6.441   6.193   3.757
  768SOL     OW 3202   1.976   6.300   3.425
  768SOL    HW1 3203   1.876   6.297   3.425
  768SOL    HW2 3204   2.010   6.287   3.332
  769SOL     OW 3205   3.196   1.710   5.167
  769SOL    HW1 3206   3.234   1.628   5.211
  769SOL    HW2 3207   3.222   1.711   5.071
  770SOL     OW 3208   2.074   4.654   3.930
  770SOL    HW1 3209   2.038   4.746   3.946
  770SOL    HW2 3210   2.090   4.609   4.018
  771SOL     OW 3211   1.079   4.957   3.225
  771SOL    HW1 3212   1.075   5.010   3.309
  771SOL    HW2 3213   1.122   4.869   3.243
  772SOL     OW 3214   5.896   4.516   6.013
  772SOL    HW1 3215   5.805   4.477   5.995
  772SOL    HW2 3216   5.962   4.442   6.023
  773SOL     OW 3217   0.994   4.163   2.747
  773SOL    HW1 3218   0.900   4.129   2.754
  773SOL    HW2 3219   1.014   4.186   2.652
  774SOL     OW 3220   2.316   1.148   2.665
  774SOL    HW1 3221   2.234   1.204   2.651
  774SOL    HW2 3222   2.362   1.177   2.749
  775SOL     OW 3223   2.047   2.138   4.181
  775SOL    HW1 3224   2.108   2.211   4.212
  775SOL    HW2 3225   2.052   2.061   4.245
  776SOL     OW 3226   0.189   0.169   6.646
  776SOL    HW1 3227   0.269   0.217   6.611
  776SOL    HW2 3228   0.121   0.235   6.676
  777SOL     OW 3229   1.668   3.743   1.128
  777SOL    HW1 3230   1.708   3.798   1.202
  777SOL    HW2 3231   1.578   3.778   1.105
  778SOL     OW 3232   2.374   0.234   1.573
  778SOL    HW1 3233   2.292   0.213   1.520
  778SOL    HW2 3234   2.451   0.180   1.538
  779SOL     OW 3235   6.919   2.333   1.746
  779SOL    HW1 3236   6.824   2.304   1.754
  779SOL    HW2 3237   6.976   2.256   1.719
  780SOL     OW 3238   0.676   2.653   4.584
  780SOL    HW1 3239   0.722   2.564   4.586
  780SOL    HW2 3240   0.657   2.683   4.678
  781SOL     OW 3241   6.864   5.006   0.415
  781SOL    HW1 3242   6.835   4.964   0.501
  781SOL    HW2 3243   6.795   5.071   0.385
  782SOL     OW 3244   2.246   3.777   5.384
  782SOL    HW1 3245   2.294   3.799   5.299
  782SOL    HW2 3246   2.152   3.812   5.380
  783SOL     OW 3247   5.923   4.948   1.371
  783SOL    HW1 3248   6.008   4.896   1.375
  783SOL    HW2 3249   5.878   4.933   1.283
  784SOL     OW 3250   2.910   5.730   1.826
  784SOL    HW1 3251   2.904   5.762   1.732
  784SOL    HW2 3252   3.005   5.739   1.858
  785SOL     OW 3253   0.427   1.578   3.681
  785SOL    HW1 3254   0.337   1.621   3.672
  785SOL    HW2 3255   0.479   1.591   3.597
  786SOL     OW 3256   6.593   1.071   2.953
  786SOL    HW1 3257   6.654   1.025   3.018
  786SOL    HW2 3258   6.619   1.045   2.860
  787SOL     OW 3259   2.252   6.713   6.863
  787SOL    HW1 3260   2.153   6.714   6.875
  787SOL    HW2 3261   2.296   6.697   6.951
  788SOL     OW 3262   3.821   2.593   1.717
  788SOL    HW1 3263   3.733   2.551   1.693
  788SOL    HW2 3264   3.806   2.688   1.743
  789SOL     OW 3265   4.560   5.595   2.615
  789SOL    HW1 3266   4.465   5.568   2.630
  789SOL    HW2 3267   4.587   5.662   2.684
  790SOL     OW 3268   1.746   1.183   2.065
  790SOL    HW1 3269   1.739   1.280   2.041
  790SOL    HW2 3270   1.838   1.150   2.045
  791SOL     OW 3271   2.757   6.431   5.501
  791SOL    HW1 3272   2.792   6.509   5.449
  791SOL    HW2 3273   2.829   6.393   5.558
  792SOL     OW 3274   0.454   1.586   1.445
  792SOL    HW1 3275   0.502   1.503   1.418
  792SOL    HW2 3276   0.494   1.622   1.529
  793SOL     OW 3277   4.747   6.001   5.152
  793SOL    HW1 3278   4.744   6.037   5.059
  793SOL    HW2 3279   4.676   6.045   5.208
  794SOL     OW 3280   3.658   3.821   5.459
  794SOL    HW1 3281   3.670   3.794   5.363
  794SOL    HW2 3282   3.730   3.780   5.515
  795SOL     OW 3283   3.674   0.648   5.821
  795SOL    HW1 3284   3.748   0.583   5.805
  795SOL    HW2 3285   3.605   0.638   5.750
  796SOL     OW 3286   1.907   2.825   0.126
  796SOL    HW1 3287   1.879   2.735   0.091
  796SOL    HW2 3288   1.826   2.882   0.139
  797SOL     OW 3289   4.121   0.366   0.768
  797SOL    HW1 3290   4.084   0.453   0.736
  797SOL    HW2 3291   4.220   0.376   0.784
  798SOL     OW 3292   3.127   6.269   1.466
  798SOL    HW1 3293   3.092   6.231   1.381
  798SOL    HW2 3294   3.188   6.346   1.445
  799SOL     OW 3295   0.318   1.869   6.191
  799SOL    HW1 3296   0.251   1.941   6.174
  799SOL    HW2 3297   0.283   1.782   6.154
  800SOL     OW 3298   6.712   1.811   2.436
  800SOL    HW1 3299   6.623   1.833   2.475
  800SOL    HW2 3300   6.748   1.728   2.478
  801SOL     OW 3301   1.905   4.557   5.163
  801SOL    HW1 3302   1.889   4.633   5.226
  801SOL    HW2 3303   2.003   4.546   5.147
  802SOL     OW 3304   4.021   2.637   6.870
  802SOL    HW1 3305   4.037   2.590   6.956
  802SOL    HW2 3306   3.966   2.719   6.886
  803SOL     OW 3307   2.231   6.756   5.967
  803SOL    HW1 3308   2.145   6.805   5.951
  803SOL    HW2 3309   2.292   6.812   6.022
  804SOL     OW 3310   6.729   6.587   1.655
  804SOL    HW1 3311   6.651   6.541   1.699
  804SOL    HW2 3312   6.813   6.537   1.675
  805SOL     OW 3313   1.419   0.410   3.898
  805SOL    HW1 3314   1.351   0.391   3.827
  805SOL    HW2 3315   1.373   0.441   3.981
  806SOL     OW 3316   6.671   0.557   5.708
  806SOL    HW1 3317   6.660   0.544   5.807
  806SOL    HW2 3318   6.703   0.471   5.667
  807SOL     OW 3319   0.545   6.957   3.977
  807SOL    HW1 3320   0.496   6.884   3.929
  807SOL    HW2 3321   0.501   0.029   3.959
  808SOL     OW 3322   5.608   2.863   0.203
  808SOL    HW1 3323   5.651   2.953   0.202
  808SOL    HW2 3324   5.670   2.795   0.164
  809SOL     OW 3325   1.085   5.284   0.276
  809SOL    HW1 3326   1.100   5.213   0.207
  809SOL    HW2 3327   1.111   5.249   0.366
  810SOL     OW 3328   2.703   3.044   0.658
  810SOL    HW1 3329   2.735   2.990   0.736
  810SOL    HW2 3330   2.765   3.031   0.581
  811SOL     OW 3331   5.709   5.208   4.833
  811SOL    HW1 3332   5.733   5.159   4.917
  811SOL    HW2 3333   5.615   5.240   4.839
  812SOL     OW 3334   0.585   2.113   2.185
  812SOL    HW1 3335   0.673   2.065   2.187
  812SOL    HW2 3336   0.511   2.047   2.199
  813SOL     OW 3337   2.764   0.021   4.373
  813SOL    HW1 3338   2.734   6.946   4.403
  813SOL    HW2 3339   2.844   0.049   4.426
  814SOL     OW 3340   6.366   5.657   2.174
  814SOL    HW1 3341   6.437   5.722   2.201
  814SOL    HW2 3342   6.299   5.705   2.116
  815SOL     OW 3343   5.090   2.700   3.703
  815SOL    HW1 3344   5.101   2.739   3.612
  815SOL    HW2 3345   5.015   2.634   3.701
  816SOL     OW 3346   4.658   4.600   0.151
  816SOL    HW1 3347   4.662   4.510   0.108
  816SOL    HW2 3348   4.749   4.642   0.148
  817SOL     OW 3349   1.070   5.480   1.857
  817SOL    HW1 3350   1.104   5.513   1.769
  817SOL    HW2 3351   1.078   5.381   1.861
  818SOL     OW 3352   5.506   2.973   4.175
  818SOL    HW1 3353   5.533   3.053   4.229
  818SOL    HW2 3354   5.581   2.947   4.114
  819SOL     OW 3355   5.680   3.031   1.774
  819SOL    HW1 3356   5.710   3.126   1.780
  819SOL    HW2 3357   5.619   3.020   1.695
  820SOL     OW 3358   3.372   2.094   4.567
  820SOL    HW1 3359   3.292   2.094   4.507
  820SOL    HW2 3360   3.354   2.154   4.646
  821SOL     OW 3361   5.976   4.865   5.465
  821SOL    HW1 3362   5.902   4.813   5.423
  821SOL    HW2 3363   6.040   4.896   5.395
  822SOL     OW 3364   0.470   4.121   3.125
  822SOL    HW1 3365   0.483   4.100   3.222
  822SOL    HW2 3366   0.554   4.100   3.075
  823SOL     OW 3367   6.691   4.168   5.793
  823SOL    HW1 3368   6.722   4.080   5.756
  823SOL    HW2 3369   6.751   4.240   5.760
  824SOL     OW 3370   5.586   1.252   5.644
  824SOL    HW1 3371   5.623   1.213   5.560
  824SOL    HW2 3372   5.582   1.182   5.715
  825SOL     OW 3373   6.187   5.761   0.585
  825SOL    HW1 3374   6.218   5.706   0.507
  825SOL    HW2 3375   6.087   5.758   0.590
  826SOL     OW 3376   3.658   2.268   5.861
  826SOL    HW1 3377   3.751   2.274   5.897
  826SOL    HW2 3378   3.592   2.290   5.933
  827SOL     OW 3379   2.879   4.269   5.334
  827SOL    HW1 3380   2.785   4.246   5.308
  827SOL    HW2 3381   2.904   4.358   5.296
  828SOL     OW 3382   6.035   5.543   5.782
  828SOL    HW1 3383   6.090   5.623   5.807
  828SOL    HW2 3384   6.009   5.493   5.864
  829SOL     OW 3385   3.106   3.120   2.089
  829SOL    HW1 3386   3.011   3.135   2.117
  829SOL    HW2 3387   3.141   3.203   2.044
  830SOL     OW 3388   6.008   4.724   6.782
  830SOL    HW1 3389   6.092   4.729   6.835
  830SOL    HW2 3390   5.989   4.813   6.740
  831SOL     OW 3391   6.190   6.740   1.268
  831SOL    HW1 3392   6.259   6.802   1.231
  831SOL    HW2 3393   6.101   6.761   1.227
  832SOL     OW 3394   4.577   1.254   4.466
  832SOL    HW1 3395   4.583   1.345   4.507
  832SOL    HW2 3396   4.621   1.255   4.376
  833SOL     OW 3397   1.619   3.585   6.702
  833SOL    HW1 3398   1.550   3.624   6.763
  833SOL    HW2 3399   1.596   3.607   6.607
  834SOL     OW 3400   5.042   3.051   0.499
  834SOL    HW1 3401   5.120   3.113   0.493
  834SOL    HW2 3402   5.075   2.957   0.504
  835SOL     OW 3403   1.930   0.266   5.190
  835SOL    HW1 3404   1.982   0.225   5.115
  835SOL    HW2 3405   1.901   0.194   5.253
  836SOL     OW 3406   3.227   1.228   5.383
  836SOL    HW1 3407   3.265   1.229   5.475
  836SOL    HW2 3408   3.131   1.201   5.386
  837SOL     OW 3409   1.168   0.285   1.121
  837SOL    HW1 3410   1.245   0.259   1.062
  837SOL    HW2 3411   1.114   0.204   1.143
  838SOL     OW 3412   1.895   6.326   4.547
  838SOL    HW1 3413   1.824   6.344   4.478
  838SOL    HW2 3414   1.933   6.413   4.578
  839SOL     OW 3415   2.362   1.444   1.354
  839SOL    HW1 3416   2.419   1.526   1.342
  839SOL    HW2 3417   2.306   1.431   1.272
  840SOL     OW 3418   6.444   5.363   6.839
  840SOL    HW1 3419   6.365   5.353   6.899
  840SOL    HW2 3420   6.417   5.410   6.755
  841SOL     OW 3421   3.689   5.786   6.058
  841SOL    HW1 3422   3.632   5.710   6.024
  841SOL    HW2 3423   3.774   5.789   6.006
  842SOL     OW 3424   3.544   6.527   6.908
  842SOL    HW1 3425   3.538   6.450   6.972
  842SOL    HW2 3426   3.556   6.492   6.815
  843SOL     OW 3427   2.564   2.131   1.970
  843SOL    HW1 3428   2.501   2.183   1.913
  843SOL    HW2 3429   2.525   2.041   1.991
  844SOL     OW 3430   0.468   6.563   1.387
  844SOL    HW1 3431   0.439   6.514   1.305
  844SOL    HW2 3432   0.406   6.640   1.403
  845SOL     OW 3433   5.085   2.605   3.208
  845SOL    HW1 3434   5.120   2.645   3.123
  845SOL    HW2 3435   4.993   2.570   3.192
  846SOL     OW 3436   3.205   0.751   6.644
  846SOL    HW1 3437   3.190   0.696   6.726
  846SOL    HW2 3438   3.291   0.802   6.654
  847SOL     OW 3439   1.998   3.420   1.839
  847SOL    HW1 3440   2.080   3.441   1.892
  847SOL    HW2 3441   1.938   3.360   1.892
  848SOL     OW 3442   6.700   6.853   5.735
  848SOL    HW1 3443   6.647   6.794   5.674
  848SOL    HW2 3444   6.722   6.803   5.819
  849SOL     OW 3445   6.466   4.099   6.786
  849SOL    HW1 3446   6.495   4.193   6.770
  849SOL    HW2 3447   6.378   4.083   6.741
  850SOL     OW 3448   0.400   0.023   4.837
  850SOL    HW1 3449   0.338   0.100   4.847
  850SOL    HW2 3450   0.398   7.005   4.743
  851SOL     OW 3451   6.530   2.468   6.637
  851SOL    HW1 3452   6.629   2.463   6.642
  851SOL    HW2 3453   6.501   2.562   6.617
  852SOL     OW 3454   0.526   4.713   0.749
  852SOL    HW1 3455   0.553   4.741   0.841
  852SOL    HW2 3456   0.566   4.776   0.682
  853SOL     OW 3457   1.816   4.087   6.319
  853SOL    HW1 3458   1.831   3.992   6.344
  853SOL    HW2 3459   1.786   4.093   6.224
  854SOL     OW 3460   5.589   6.616   0.395
  854SOL    HW1 3461   5.685   6.591   0.402
  854SOL    HW2 3462   5.579   6.700   0.341
  855SOL     OW 3463   5.928   0.160   0.546
  855SOL    HW1 3464   5.863   0.085   0.532
  855SOL    HW2 3465   6.018   0.134   0.512
  856SOL     OW 3466   1.230   6.938   5.665
  856SOL    HW1 3467   1.140   6.894   5.663
  856SOL    HW2 3468   1.300   6.869   5.684
  857SOL     OW 3469   6.951   5.651   2.143
  857SOL    HW1 3470   6.957   5.558   2.180
  857SOL    HW2 3471   6.940   5.648   2.044
  858SOL     OW 3472   2.889   3.820   0.999
  858SOL    HW1 3473   2.931   3.876   0.928
  858SOL    HW2 3474   2.814   3.766   0.958
  859SOL     OW 3475   5.285   5.909   5.473
  859SOL    HW1 3476   5.304   5.955   5.560
  859SOL    HW2 3477   5.189   5.882   5.471
  860SOL     OW 3478   5.842   3.299   6.644
  860SOL    HW1 3479   5.823   3.205   6.616
  860SOL    HW2 3480   5.772   3.329   6.709
  861SOL     OW 3481   2.458   5.478   3.339
  861SOL    HW1 3482   2.450   5.559   3.281
  861SOL    HW2 3483   2.367   5.451   3.373
  862SOL     OW 3484   1.924   5.097   3.454
  862SOL    HW1 3485   2.013   5.073   3.492
  862SOL    HW2 3486   1.888   5.178   3.501
  863SOL     OW 3487   5.777   0.975   5.809
  863SOL    HW1 3488   5.686   1.015   5.804
  863SOL    HW2 3489   5.780   0.891   5.755
  864SOL     OW 3490   4.154   7.007   4.933
  864SOL    HW1 3491   4.062   6.990   4.899
  864SOL    HW2 3492   4.150   0.011   5.031
  865SOL     OW 3493   1.815   0.243   6.105
  865SOL    HW1 3494   1.903   0.247   6.058
  865SOL    HW2 3495   1.775   0.335   6.107
  866SOL     OW 3496   3.306   6.555   0.878
  866SOL    HW1 3497   3.303   6.592   0.785
  866SOL    HW2 3498   3.257   6.617   0.940
  867SOL     OW 3499   5.288   3.190   0.520
  867SOL    HW1 3500   5.341   3.109   0.494
  867SOL    HW2 3501   5.333   3.235   0.597
  868SOL     OW 3502   0.051   1.848   2.454
  868SOL    HW1 3503   0.113   1.912   2.500
  868SOL    HW2 3504   6.997   1.900   2.403
  869SOL     OW 3505   6.793   3.578   3.437
  869SOL    HW1 3506   6.816   3.522   3.358
  869SOL    HW2 3507   6.701   3.555   3.468
  870SOL     OW 3508   3.811   4.282   1.032
  870SOL    HW1 3509   3.867   4.214   0.984
  870SOL    HW2 3510   3.724   4.241   1.059
  871SOL     OW 3511   5.393   2.506   4.072
  871SOL    HW1 3512   5.359   2.412   4.078
  871SOL    HW2 3513   5.359   2.549   3.989
  872SOL     OW 3514   0.276   2.025   4.254
  872SOL    HW1 3515   0.346   1.982   4.197
  872SOL    HW2 3516   0.263   2.120   4.226
  873SOL     OW 3517   4.146   5.838   5.320
  873SOL    HW1 3518   4.173   5.928   5.286
  873SOL    HW2 3519   4.209   5.768   5.286
  874SOL     OW 3520   6.172   4.224   0.589
  874SOL    HW1 3521   6.136   4.157   0.654
  874SOL    HW2 3522   6.156   4.316   0.625
  875SOL     OW 3523   5.200   5.427   0.852
  875SOL    HW1 3524   5.147   5.486   0.913
  875SOL    HW2 3525   5.192   5.461   0.758
  876SOL     OW 3526   0.431   5.685   1.731
  876SOL    HW1 3527   0.339   5.656   1.756
  876SOL    HW2 3528   0.439   5.784   1.743
  877SOL     OW 3529   3.202   4.309   5.877
  877SOL    HW1 3530   3.108   4.303   5.911
  877SOL    HW2 3531   3.206   4.273   5.783
  878SOL     OW 3532   4.414   0.087   3.854
  878SOL    HW1 3533   4.367   0.097   3.766
  878SOL    HW2 3534   4.387   0.000   3.896
  879SOL     OW 3535   3.688   0.607   1.593
  879SOL    HW1 3536   3.671   0.642   1.685
  879SOL    HW2 3537   3.722   0.513   1.599
  880SOL     OW 3538   3.819   3.846   3.863
  880SOL    HW1 3539   3.841   3.750   3.845
  880SOL    HW2 3540   3.836   3.900   3.781
  881SOL     OW 3541   5.156   2.928   4.798
  881SOL    HW1 3542   5.172   3.012   4.850
  881SOL    HW2 3543   5.160   2.948   4.700
  882SOL     OW 3544   0.781   3.238   3.641
  882SOL    HW1 3545   0.704   3.267   3.584
  882SOL    HW2 3546   0.747   3.179   3.715
  883SOL     OW 3547   3.308   0.878   1.619
  883SOL    HW1 3548   3.260   0.808   1.672
  883SOL    HW2 3549   3.274   0.968   1.645
  884SOL     OW 3550   5.498   3.268   5.984
  884SOL    HW1 3551   5.590   3.241   6.011
  884SOL    HW2 3552   5.486   3.253   5.886
  885SOL     OW 3553   3.301   0.970   5.328
  885SOL    HW1 3554   3.355   0.988   5.411
  885SOL    HW2 3555   3.293   1.054   5.275
  886SOL     OW 3556   3.425   0.237   0.062
  886SOL    HW1 3557   3.502   0.279   0.014
  886SOL    HW2 3558   3.415   0.280   0.152
  887SOL     OW 3559   3.863   6.643   3.499
  887SOL    HW1 3560   3.806   6.639   3.581
  887SOL    HW2 3561   3.829   6.713   3.437
  888SOL     OW 3562   6.966   6.454   3.460
  888SOL    HW1 3563   6.930   6.474   3.551
  888SOL    HW2 3564   0.040   6.497   3.448
  889SOL     OW 3565   0.100   2.950   0.852
  889SOL    HW1 3566   0.082   2.903   0.765
  889SOL    HW2 3567   0.013   2.970   0.897
  890SOL     OW 3568   1.634   5.143   2.753
  890SOL    HW1 3569   1.710   5.119   2.693
  890SOL    HW2 3570   1.644   5.095   2.840
  891SOL     OW 3571   5.533   4.920   1.078
  891SOL    HW1 3572   5.573   4.844   1.028
  891SOL    HW2 3573   5.589   4.940   1.158
  892SOL     OW 3574   2.806   3.858   5.305
  892SOL    HW1 3575   2.843   3.897   5.220
  892SOL    HW2 3576   2.707   3.852   5.299
  893SOL     OW 3577   2.111   6.235   3.180
  893SOL    HW1 3578   2.031   6.277   3.136
  893SOL    HW2 3579   2.194   6.274   3.142
  894SOL     OW 3580   0.705   2.994   1.553
  894SOL    HW1 3581   0.725   2.896   1.556
  894SOL    HW2 3582   0.680   3.020   1.460
  895SOL     OW 3583   0.868   5.165   3.817
  895SOL    HW1 3584   0.938   5.179   3.887
  895SOL    HW2 3585   0.907   5.116   3.739
  896SOL     OW 3586   5.162   4.885   1.378
  896SOL    HW1 3587   5.102   4.806   1.394
  896SOL    HW2 3588   5.220   4.867   1.299
  897SOL     OW 3589   4.185   1.494   6.666
  897SOL    HW1 3590   4.261   1.430   6.652
  897SOL    HW2 3591   4.199   1.545   6.750
  898SOL     OW 3592   3.655   6.600   2.838
  898SOL    HW1 3593   3.644   6.691   2.876
  898SOL    HW2 3594   3.591   6.537   2.882
  899SOL     OW 3595   0.137   6.737   0.443
  899SOL    HW1 3596   0.218   6.765   0.495
  899SOL    HW2 3597   0.159   6.659   0.385
  900SOL     OW 3598   5.811   6.874   0.315
  900SOL    HW1 3599   5.889   6.927   0.283
  900SOL    HW2 3600   5.744   6.866   0.241
  901SOL     OW 3601   2.342   6.974   3.124
  901SOL    HW1 3602   2.384   6.976   3.033
  901SOL    HW2 3603   2.371   0.040   3.175
  902SOL     OW 3604   0.558   1.787   0.818
  902SOL    HW1 3605   0.605   1.761   0.733
  902SOL    HW2 3606   0.572   1.715   0.886
  903SOL     OW 3607   0.318   2.340   6.262
  903SOL    HW1 3608   0.390   2.399   6.227
  903SOL    HW2 3609   0.358   2.259   6.304
  904SOL     OW 3610   2.326   2.213   2.705
  904SOL    HW1 3611   2.414   2.199   2.659
  904SOL    HW2 3612   2.328   2.170   2.795
  905SOL     OW 3613   5.175   1.954   6.544
  905SOL    HW1 3614   5.115   1.899   6.485
  905SOL    HW2 3615   5.195   1.903   6.627
  906SOL     OW 3616   0.201   1.900   6.820
  906SOL    HW1 3617   0.127   1.849   6.864
  906SOL    HW2 3618   0.176   1.920   6.725
  907SOL     OW 3619   5.477   3.271   0.729
  907SOL    HW1 3620   5.564   3.251   0.685
  907SOL    HW2 3621   5.471   3.223   0.816
  908SOL     OW 3622   2.706   4.643   2.846
  908SOL    HW1 3623   2.710   4.699   2.929
  908SOL    HW2 3624   2.781   4.577   2.847
  909SOL     OW 3625   4.262   5.938   1.479
  909SOL    HW1 3626   4.313   5.979   1.403
  909SOL    HW2 3627   4.221   5.852   1.448
  910SOL     OW 3628   3.218   1.970   0.883
  910SOL    HW1 3629   3.308   1.938   0.912
  910SOL    HW2 3630   3.212   1.967   0.783
  911SOL     OW 3631   0.895   6.201   6.344
  911SOL    HW1 3632   0.843   6.248   6.415
  911SOL    HW2 3633   0.954   6.267   6.297
  912SOL     OW 3634   6.293   2.371   3.077
  912SOL    HW1 3635   6.234   2.450   3.058
  912SOL    HW2 3636   6.309   2.364   3.175
  913SOL     OW 3637   4.076   7.011   3.167
  913SOL    HW1 3638   4.038   6.927   3.129
  913SOL    HW2 3639   4.104   6.995   3.262
  914SOL     OW 3640   2.806   0.190   6.204
  914SOL    HW1 3641   2.762   0.164   6.290
  914SOL    HW2 3642   2.893   0.236   6.224
  915SOL     OW 3643   6.130   4.249   0.164
  915SOL    HW1 3644   6.137   4.235   0.066
  915SOL    HW2 3645   6.122   4.347   0.184
  916SOL     OW 3646   1.771   2.544   1.780
  916SOL    HW1 3647   1.738   2.554   1.874
  916SOL    HW2 3648   1.716   2.475   1.734
  917SOL     OW 3649   0.623   6.637   1.094
  917SOL    HW1 3650   0.543   6.586   1.064
  917SOL    HW2 3651   0.594   6.724   1.135
  918SOL     OW 3652   3.335   0.471   0.550
  918SOL    HW1 3653   3.404   0.539   0.524
  918SOL    HW2 3654   3.244   0.507   0.532
  919SOL     OW 3655   5.652   1.586   3.011
  919SOL    HW1 3656   5.697   1.633   2.935
  919SOL    HW2 3657   5.609   1.653   3.071
  920SOL     OW 3658   2.520   4.254   1.727
  920SOL    HW1 3659   2.617   4.237   1.712
  920SOL    HW2 3660   2.477   4.174   1.767
  921SOL     OW 3661   4.540   6.030   4.073
  921SOL    HW1 3662   4.584   6.119   4.080
  921SOL    HW2 3663   4.440   6.042   4.069
  922SOL     OW 3664   3.756   3.520   4.411
  922SOL    HW1 3665   3.786   3.426   4.391
  922SOL    HW2 3666   3.703   3.555   4.334
  923SOL     OW 3667   2.103   3.183   6.757
  923SOL    HW1 3668   2.023   3.135   6.722
  923SOL    HW2 3669   2.182   3.121   6.755
  924SOL     OW 3670   6.239   3.994   1.432
  924SOL    HW1 3671   6.205   3.932   1.361
  924SOL    HW2 3672   6.185   3.982   1.515
  925SOL     OW 3673   0.316   2.269   0.179
  925SOL    HW1 3674   0.241   2.320   0.222
  925SOL    HW2 3675   0.385   2.248   0.248
  926SOL     OW 3676   6.337   0.936   1.467
  926SOL    HW1 3677   6.429   0.950   1.428
  926SOL    HW2 3678   6.337   0.853   1.523
  927SOL     OW 3679   5.438   3.384   3.629
  927SOL    HW1 3680   5.339   3.397   3.616
  927SOL    HW2 3681   5.483   3.387   3.540
  928SOL     OW 3682   2.065   6.107   0.402
  928SOL    HW1 3683   2.029   6.148   0.486
  928SOL    HW2 3684   2.054   6.007   0.406
  929SOL     OW 3685   0.062   0.990   6.953
  929SOL    HW1 3686   6.978   0.981   6.949
  929SOL    HW2 3687   0.101   0.953   6.868
  930SOL     OW 3688   5.082   6.083   6.301
  930SOL    HW1 3689   5.033   6.166   6.329
  930SOL    HW2 3690   5.116   6.036   6.382
  931SOL     OW 3691   6.845   1.307   4.539
  931SOL    HW1 3692   6.906   1.379   4.572
  931SOL    HW2 3693   6.894   1.220   4.535
  932SOL     OW 3694   2.599   1.766   3.216
  932SOL    HW1 3695   2.659   1.718   3.152
  932SOL    HW2 3696   2.628   1.861   3.226
  933SOL     OW 3697   1.217   5.082   3.009
  933SOL    HW1 3698   1.309   5.056   3.039
  933SOL    HW2 3699   1.149   5.041   3.070
  934SOL     OW 3700   2.567   5.898   6.252
  934SOL    HW1 3701   2.651   5.844   6.243
  934SOL    HW2 3702   2.587   5.983   6.301
  935SOL     OW 3703   5.588   4.335   4.106
  935SOL    HW1 3704   5.634   4.249   4.080
  935SOL    HW2 3705   5.539   4.371   4.028
  936SOL     OW 3706   0.813   6.436   6.045
  936SOL    HW1 3707   0.734   6.461   6.101
  936SOL    HW2 3708   0.781   6.402   5.956
  937SOL     OW 3709   5.809   1.741   6.159
  937SOL    HW1 3710   5.816   1.839   6.141
  937SOL    HW2 3711   5.716   1.719   6.186
  938SOL     OW 3712   6.259   5.466   4.609
  938SOL    HW1 3713   6.347   5.514   4.603
  938SOL    HW2 3714   6.189   5.530   4.642
  939SOL     OW 3715   0.153   6.816   3.694
  939SOL    HW1 3716   0.087   6.741   3.695
  939SOL    HW2 3717   0.104   6.903   3.700
  940SOL     OW 3718   0.561   3.707   0.286
  940SOL    HW1 3719   0.657   3.682   0.271
  940SOL    HW2 3720   0.556   3.793   0.335
  941SOL     OW 3721   5.080   0.386   0.110
  941SOL    HW1 3722   5.087   0.296   0.065
  941SOL    HW2 3723   5.168   0.411   0.149
  942SOL     OW 3724   5.705   6.994   1.976
  942SOL    HW1 3725   5.766   0.036   2.031
  942SOL    HW2 3726   5.684   6.910   2.025
  943SOL     OW 3727   1.461   4.718   2.558
  943SOL    HW1 3728   1.488   4.662   2.480
  943SOL    HW2 3729   1.367   4.748   2.547
  944SOL     OW 3730   0.493   5.720   4.892
  944SOL    HW1 3731   0.565   5.705   4.960
  944SOL    HW2 3732   0.530   5.770   4.814
  945SOL     OW 3733   0.419   4.904   5.316
  945SOL    HW1 3734   0.348   4.864   5.258
  945SOL    HW2 3735   0.509   4.874   5.285
  946SOL     OW 3736   4.834   4.634   4.638
  946SOL    HW1 3737   4.898   4.621   4.714
  946SOL    HW2 3738   4.763   4.563   4.641
  947SOL     OW 3739   3.462   3.309   3.788
  947SOL    HW1 3740   3.562   3.309   3.781
  947SOL    HW2 3741   3.434   3.373   3.859
  948SOL     OW 3742   4.367   1.280   3.214
  948SOL    HW1 3743   4.412   1.191   3.223
  948SOL    HW2 3744   4.347   1.298   3.118
  949SOL     OW 3745   2.962   5.983   0.373
  949SOL    HW1 3746   2.875   5.968   0.325
  949SOL    HW2 3747   3.033   5.925   0.332
  950SOL     OW 3748   6.161   5.481   2.472
  950SOL    HW1 3749   6.097   5.517   2.540
  950SOL    HW2 3750   6.118   5.485   2.382
  951SOL     OW 3751   0.820   0.102   3.338
  951SOL    HW1 3752   0.898   0.073   3.283
  951SOL    HW2 3753   0.845   0.103   3.435
  952SOL     OW 3754   4.292   2.185   2.537
  952SOL    HW1 3755   4.337   2.274   2.536
  952SOL    HW2 3756   4.203   2.192   2.583
  953SOL     OW 3757   5.943   5.345   4.932
  953SOL    HW1 3758   6.003   5.422   4.956
  953SOL    HW2 3759   5.894   5.366   4.848
  954SOL     OW 3760   3.775   6.287   2.121
  954SOL    HW1 3761   3.687   6.268   2.164
  954SOL    HW2 3762   3.812   6.203   2.081
  955SOL     OW 3763   2.179   4.346   0.194
  955SOL    HW1 3764   2.105   4.283   0.168
  955SOL    HW2 3765   2.177   4.361   0.293
  956SOL     OW 3766   6.880   0.705   1.894
  956SOL    HW1 3767   6.840   0.755   1.971
  956SOL    HW2 3768   6.958   0.650   1.926
  957SOL     OW 3769   6.053   1.814   1.699
  957SOL    HW1 3770   5.992   1.853   1.768
  957SOL    HW2 3771   6.148   1.836   1.720
  958SOL     OW 3772   4.074   6.640   1.594
  958SOL    HW1 3773   4.143   6.663   1.663
  958SOL    HW2 3774   4.104   6.559   1.544
  959SOL     OW 3775   3.350   6.757   5.110
  959SOL    HW1 3776   3.416   6.808   5.054
  959SOL    HW2 3777   3.267   6.743   5.057
  960SOL     OW 3778   1.796   0.051   1.438
  960SOL    HW1 3779   1.873   0.078   1.496
  960SOL    HW2 3780   1.713   0.046   1.493
  961SOL     OW 3781   4.549   6.309   3.095
  961SOL    HW1 3782   4.585   6.233   3.043
  961SOL    HW2 3783   4.622   6.349   3.151
  962SOL     OW 3784   6.786   0.624   4.244
  962SOL    HW1 3785   6.720   0.682   4.197
  962SOL    HW2 3786   6.842   0.681   4.305
  963SOL     OW 3787   4.317   0.981   0.389
  963SOL    HW1 3788   4.406   0.957   0.427
  963SOL    HW2 3789   4.330   1.032   0.304
  964SOL     OW 3790   4.871   5.052   5.537
  964SOL    HW1 3791   4.903   4.958   5.546
  964SOL    HW2 3792   4.950   5.114   5.535
  965SOL     OW 3793   5.959   1.658   2.642
  965SOL    HW1 3794   6.009   1.745   2.632
  965SOL    HW2 3795   6.021   1.588   2.677
  966SOL     OW 3796   5.575   2.896   3.481
  966SOL    HW1 3797   5.656   2.839   3.474
  966SOL    HW2 3798   5.581   2.953   3.563
  967SOL     OW 3799   2.905   4.743   6.759
  967SOL    HW1 3800   2.907   4.765   6.857
  967SOL    HW2 3801   2.963   4.663   6.742
  968SOL     OW 3802   3.873   6.714   1.409
  968SOL    HW1 3803   3.957   6.706   1.463
  968SOL    HW2 3804   3.885   6.785   1.339
  969SOL     OW 3805   2.151   5.112   5.733
  969SOL    HW1 3806   2.178   5.023   5.697
  969SOL    HW2 3807   2.055   5.110   5.759
  970SOL     OW 3808   5.049   0.070   6.081
  970SOL    HW1 3809   5.025   0.099   5.989
  970SOL    HW2 3810   4.970   0.025   6.124
  971SOL     OW 3811   0.025   3.335   2.319
  971SOL    HW1 3812   6.992   3.304   2.237
  971SOL    HW2 3813   6.990   3.410   2.361
  972SOL     OW 3814   6.738   2.525   1.533
  972SOL    HW1 3815   6.817   2.471   1.505
  972SOL    HW2 3816   6.769   2.604   1.586
  973SOL     OW 3817   1.223   5.507   6.915
  973SOL    HW1 3818   1.183   5.586   6.868
  973SOL    HW2 3819   1.242   5.435   6.849
  974SOL     OW 3820   0.375   5.532   2.308
  974SOL    HW1 3821   0.393   5.463   2.237
  974SOL    HW2 3822   0.460   5.578   2.331
  975SOL     OW 3823   2.598   0.064   0.432
  975SOL    HW1 3824   2.620   0.080   0.335
  975SOL    HW2 3825   2.665   0.111   0.489
  976SOL     OW 3826   6.784   3.686   1.171
  976SOL    HW1 3827   6.872   3.707   1.213
  976SOL    HW2 3828   6.711   3.731   1.222
  977SOL     OW 3829   0.494   1.148   2.185
  977SOL    HW1 3830   0.538   1.198   2.110
  977SOL    HW2 3831   0.399   1.178   2.194
  978SOL     OW 3832   5.171   1.576   0.924
  978SOL    HW1 3833   5.199   1.485   0.954
  978SOL    HW2 3834   5.175   1.640   1.001
  979SOL     OW 3835   0.692   3.216   6.663
  979SOL    HW1 3836   0.635   3.214   6.745
  979SOL    HW2 3837   0.714   3.311   6.639
  980SOL     OW 3838   5.047   1.434   5.007
  980SOL    HW1 3839   4.989   1.381   4.945
  980SOL    HW2 3840   4.990   1.489   5.068
  981SOL     OW 3841   0.428   0.744   4.677
  981SOL    HW1 3842   0.334   0.722   4.652
  981SOL    HW2 3843   0.491   0.708   4.608
  982SOL     OW 3844   0.840   1.686   5.095
  982SOL    HW1 3845   0.869   1.778   5.069
  982SOL    HW2 3846   0.899   1.651   5.168
  983SOL     OW 3847   6.781   3.873   2.715
  983SOL    HW1 3848   6.753   3.963   2.749
  983SOL    HW2 3849   6.866   3.846   2.761
  984SOL     OW 3850   1.649   2.403   3.088
  984SOL    HW1 3851   1.595   2.373   3.167
  984SOL    HW2 3852   1.596   2.391   3.004
  985SOL     OW 3853   6.608   3.724   4.544
  985SOL    HW1 3854   6.512   3.714   4.570
  985SOL    HW2 3855   6.614   3.768   4.454
  986SOL     OW 3856   4.349   5.393   1.443
  986SOL    HW1 3857   4.316   5.299   1.443
  986SOL    HW2 3858   4.327   5.437   1.356
  987SOL     OW 3859   5.266   6.355   2.435
  987SOL    HW1 3860   5.272   6.451   2.406
  987SOL    HW2 3861   5.170   6.327   2.438
  988SOL     OW 3862   3.328   4.016   2.067
  988SOL    HW1 3863   3.229   4.010   2.074
  988SOL    HW2 3864   3.369   4.006   2.158
  989SOL     OW 3865   6.555   1.476   0.036
  989SOL    HW1 3866   6.650   1.488   0.064
  989SOL    HW2 3867   6.550   1.478   6.951
  990SOL     OW 3868   3.402   0.529   2.401
  990SOL    HW1 3869   3.412   0.571   2.310
  990SOL    HW2 3870   3.469   0.568   2.463
  991SOL     OW 3871   0.461   4.256   4.021
  991SOL    HW1 3872   0.550   4.275   4.064
  991SOL    HW2 3873   0.453   4.309   3.937
  992SOL     OW 3874   0.301   3.305   1.047
  992SOL    HW1 3875   0.227   3.277   0.986
  992SOL    HW2 3876   0.269   3.376   1.109
  993SOL     OW 3877   0.347   3.808   0.793
  993SOL    HW1 3878   0.419   3.864   0.752
  993SOL    HW2 3879   0.373   3.782   0.885
  994SOL     OW 3880   3.762   5.310   1.340
  994SOL    HW1 3881   3.664   5.293   1.347
  994SOL    HW2 3882   3.789   5.312   1.243
  995SOL     OW 3883   4.397   3.005   6.205
  995SOL    HW1 3884   4.316   2.960   6.167
  995SOL    HW2 3885   4.460   3.028   6.130
  996SOL     OW 3886   3.642   5.332   4.788
  996SOL    HW1 3887   3.637   5.292   4.880
  996SOL    HW2 3888   3.649   5.431   4.796
  997SOL     OW 3889   1.162   6.890   3.316
  997SOL    HW1 3890   1.214   6.862   3.396
  997SOL    HW2 3891   1.222   6.940   3.253
  998SOL     OW 3892   6.760   6.991   6.516
  998SOL    HW1 3893   6.686   0.012   6.573
  998SOL    HW2 3894   6.799   0.050   6.462
  999SOL     OW 3895   4.974   3.663   1.584
  999SOL    HW1 3896   4.936   3.637   1.672
  999SOL    HW2 3897   5.026   3.748   1.593
 1000SOL     OW 3898   4.267   1.526   1.315
 1000SOL    HW1 3899   4.341   1.459   1.307
 1000SOL    HW2 3900   4.248   1.565   1.225
 1001SOL     OW 3901   3.927   6.065   2.068
 1001SOL    HW1 3902   3.992   6.037   2.138
 1001SOL    HW2 3903   3.884   5.984   2.028
 1002SOL     OW 3904   5.428   2.324   1.226
 1002SOL    HW1 3905   5.522   2.356   1.228
 1002SOL    HW2 3906   5.377   2.372   1.155
 1003SOL     OW 3907   2.008   5.898   2.897
 1003SOL    HW1 3908   1.998   5.815   2.953
 1003SOL    HW2 3909   1.942   5.967   2.927
 1004SOL     OW 3910   6.982   1.157   2.461
 1004SOL    HW1 3911   6.903   1.115   2.504
 1004SOL    HW2 3912   0.002   1.097   2.389
 1005SOL     OW 3913   1.641   4.233   4.154
 1005SOL    HW1 3914   1.660   4.160   4.089
 1005SOL    HW2 3915   1.727   4.276   4.182
 1006SOL     OW 3916   1.607   4.022   0.389
 1006SOL    HW1 3917   1.595   4.084   0.311
 1006SOL    HW2 3918   1.569   4.065   0.472
 1007SOL     OW 3919   4.968   1.006   5.835
 1007SOL    HW1 3920   4.903   1.080   5.819
 1007SOL    HW2 3921   4.999   0.970   5.747
 1008SOL     OW 3922   7.007   3.596   5.155
 1008SOL    HW1 3923   0.069   3.609   5.093
 1008SOL    HW2 3924   6.992   3.499   5.169
 1009SOL     OW 3925   6.321   4.003   5.909
 1009SOL    HW1 3926   6.249   4.049   5.858
 1009SOL    HW2 3927   6.406   4.055   5.903
 1010SOL     OW 3928   2.889   2.493   1.269
 1010SOL    HW1 3929   2.881   2.572   1.329
 1010SOL    HW2 3930   2.858   2.517   1.177
 1011SOL     OW 3931   0.565   5.585   3.774
 1011SOL    HW1 3932   0.503   5.515   3.737
 1011SOL    HW2 3933   0.555   5.588   3.873
 1012SOL     OW 3934   6.783   6.658   2.334
 1012SOL    HW1 3935   6.876   6.628   2.312
 1012SOL    HW2 3936   6.786   6.736   2.396
 1013SOL     OW 3937   6.758   1.340   6.521
 1013SOL    HW1 3938   6.709   1.417   6.479
 1013SOL    HW2 3939   6.781   1.363   6.616
 1014SOL     OW 3940   0.788   3.686   4.935
 1014SOL    HW1 3941   0.873   3.633   4.936
 1014SOL    HW2 3942   0.715   3.631   4.976
 1015SOL     OW 3943   2.712   0.441   6.252
 1015SOL    HW1 3944   2.652   0.489   6.188
 1015SOL    HW2 3945   2.739   0.353   6.213
 1016SOL     OW 3946   4.547   4.938   1.248
 1016SOL    HW1 3947   4.482   4.902   1.315
 1016SOL    HW2 3948   4.615   4.994   1.295
 1017SOL     OW 3949   2.991   1.738   0.938
 1017SOL    HW1 3950   3.027   1.785   1.018
 1017SOL    HW2 3951   2.908   1.784   0.907
 1018SOL     OW 3952   0.595   5.021   3.763
 1018SOL    HW1 3953   0.626   5.092   3.826
 1018SOL    HW2 3954   0.642   4.935   3.784
 1019SOL     OW 3955   6.972   5.270   0.546
 1019SOL    HW1 3956   6.896   5.205   0.537
 1019SOL    HW2 3957   0.005   5.253   0.632
 1020SOL     OW 3958   6.151   0.971   1.190
 1020SOL    HW1 3959   6.223   0.967   1.121
 1020SOL    HW2 3960   6.182   0.924   1.273
 1021SOL     OW 3961   6.682   6.177   2.207
 1021SOL    HW1 3962   6.642   6.102   2.155
 1021SOL    HW2 3963   6.611   6.218   2.265
 1022SOL     OW 3964   2.684   5.612   5.773
 1022SOL    HW1 3965   2.642   5.546   5.710
 1022SOL    HW2 3966   2.613   5.653   5.830
 1023SOL     OW 3967   0.081   0.872   2.939
 1023SOL    HW1 3968   0.071   0.970   2.923
 1023SOL    HW2 3969   0.014   0.822   2.884
 1024SOL     OW 3970   0.899   1.835   4.159
 1024SOL    HW1 3971   0.985   1.785   4.165
 1024SOL    HW2 3972   0.838   1.805   4.233
 1025SOL     OW 3973   4.754   2.820   0.566
 1025SOL    HW1 3974   4.845   2.819   0.607
 1025SOL    HW2 3975   4.728   2.727   0.539
 1026SOL     OW 3976   2.876   2.733   1.414
 1026SOL    HW1 3977   2.933   2.807   1.450
 1026SOL    HW2 3978   2.826   2.691   1.490
 1027SOL     OW 3979   1.924   6.967   2.098
 1027SOL    HW1 3980   1.865   7.014   2.164
 1027SOL    HW2 3981   1.972   0.019   2.042
 1028SOL     OW 3982   1.264   6.695   2.927
 1028SOL    HW1 3983   1.288   6.646   3.011
 1028SOL    HW2 3984   1.182   6.750   2.943
 1029SOL     OW 3985   0.847   1.717   5.915
 1029SOL    HW1 3986   0.932   1.732   5.866
 1029SOL    HW2 3987   0.801   1.636   5.879
 1030SOL     OW 3988   3.434   3.149   1.611
 1030SOL    HW1 3989   3.515   3.112   1.566
 1030SOL    HW2 3990   3.462   3.214   1.681
 1031SOL     OW 3991   4.488   3.306   1.296
 1031SOL    HW1 3992   4.561   3.249   1.336
 1031SOL    HW2 3993   4.512   3.328   1.201
 1032SOL     OW 3994   2.173   1.265   5.231
 1032SOL    HW1 3995   2.231   1.344   5.211
 1032SOL    HW2 3996   2.198   1.226   5.319
 1033SOL     OW 3997   1.397   5.789   2.327
 1033SOL    HW1 3998   1.429   5.703   2.366
 1033SOL    HW2 3999   1.366   5.774   2.234
 1034SOL     OW 4000   1.366   6.234   4.051
 1034SOL    HW1 4001   1.289   6.193   4.003
 1034SOL    HW2 4002   1.387   6.181   4.134
 1035SOL     OW 4003   0.019   2.166   6.664
 1035SOL    HW1 4004   0.065   2.085   6.628
 1035SOL    HW2 4005   0.001   2.231   6.590
 1036SOL     OW 4006   4.342   0.981   1.401
 1036SOL    HW1 4007   4.298   1.039   1.332
 1036SOL    HW2 4008   4.433   0.954   1.370
 1037SOL     OW 4009   1.512   2.225   3.293
 1037SOL    HW1 4010   1.585   2.160   3.315
 1037SOL    HW2 4011   1.480   2.207   3.200
 1038SOL     OW 4012   1.267   0.972   5.711
 1038SOL    HW1 4013   1.318   0.901   5.759
 1038SOL    HW2 4014   1.329   1.021   5.649
 1039SOL     OW 4015   3.246   3.492   4.215
 1039SOL    HW1 4016   3.279   3.399   4.198
 1039SOL    HW2 4017   3.154   3.488   4.253
 1040SOL     OW 4018   4.997   1.281   2.243
 1040SOL    HW1 4019   5.038   1.316   2.159
 1040SOL    HW2 4020   5.046   1.199   2.273
 1041SOL     OW 4021   0.156   6.551   3.311
 1041SOL    HW1 4022   0.234   6.605   3.279
 1041SOL    HW2 4023   0.182   6.455   3.319
 1042SOL     OW 4024   4.727   5.378   3.013
 1042SOL    HW1 4025   4.726   5.337   2.922
 1042SOL    HW2 4026   4.780   5.320   3.075
 1043SOL     OW 4027   4.266   2.056   3.504
 1043SOL    HW1 4028   4.191   2.120   3.517
 1043SOL    HW2 4029   4.276   2.000   3.586
 1044SOL     OW 4030   6.164   5.899   1.619
 1044SOL    HW1 4031   6.212   5.902   1.707
 1044SOL    HW2 4032   6.219   5.945   1.550
 1045SOL     OW 4033   3.463   0.706   2.887
 1045SOL    HW1 4034   3.398   0.660   2.826
 1045SOL    HW2 4035   3.414   0.769   2.947
 1046SOL     OW 4036   1.734   1.611   6.935
 1046SOL    HW1 4037   1.728   1.711   6.931
 1046SOL    HW2 4038   1.659   1.576   6.992
 1047SOL     OW 4039   3.491   0.601   4.146
 1047SOL    HW1 4040   3.564   0.580   4.211
 1047SOL    HW2 4041   3.422   0.658   4.192
 1048SOL     OW 4042   3.270   5.417   2.176
 1048SOL    HW1 4043   3.295   5.342   2.114
 1048SOL    HW2 4044   3.350   5.445   2.229
 1049SOL     OW 4045   5.193   6.733   3.930
 1049SOL    HW1 4046   5.128   6.722   3.855
 1049SOL    HW2 4047   5.262   6.801   3.906
 1050SOL     OW 4048   3.613   6.034   2.466
 1050SOL    HW1 4049   3.604   5.982   2.381
 1050SOL    HW2 4050   3.590   5.975   2.543
 1051SOL     OW 4051   0.305   5.617   6.992
 1051SOL    HW1 4052   0.212   5.610   0.011
 1051SOL    HW2 4053   0.353   5.691   0.024
 1052SOL     OW 4054   4.832   1.048   5.530
 1052SOL    HW1 4055   4.821   1.145   5.548
 1052SOL    HW2 4056   4.930   1.025   5.527
 1053SOL     OW 4057   5.831   4.026   2.848
 1053SOL    HW1 4058   5.840   4.060   2.941
 1053SOL    HW2 4059   5.916   4.042   2.798
 1054SOL     OW 4060   2.831   3.281   0.727
 1054SOL    HW1 4061   2.770   3.210   0.692
 1054SOL    HW2 4062   2.798   3.313   0.816
 1055SOL     OW 4063   4.596   6.122   5.814
 1055SOL    HW1 4064   4.624   6.208   5.769
 1055SOL    HW2 4065   4.565   6.142   5.906
 1056SOL     OW 4066   0.847   4.044   6.994
 1056SOL    HW1 4067   0.894   3.978   0.036
 1056SOL    HW2 4068   0.773   3.999   6.944
 1057SOL     OW 4069   3.752   2.180   1.279
 1057SOL    HW1 4070   3.755   2.148   1.374
 1057SOL    HW2 4071   3.820   2.253   1.266
 1058SOL     OW 4072   5.080   2.760   3.440
 1058SOL    HW1 4073   4.987   2.792   3.422
 1058SOL    HW2 4074   5.101   2.684   3.378
 1059SOL     OW 4075   2.052   6.802   2.287
 1059SOL    HW1 4076   2.144   6.837   2.304
 1059SOL    HW2 4077   2.012   6.849   2.208
 1060SOL     OW 4078   0.662   5.066   4.172
 1060SOL    HW1 4079   0.632   5.138   4.109
 1060SOL    HW2 4080   0.610   5.072   4.257
 1061SOL     OW 4081   6.534   3.786   6.529
 1061SOL    HW1 4082   6.538   3.690   6.558
 1061SOL    HW2 4083   6.592   3.841   6.590
 1062SOL     OW 4084   3.905   5.725   5.353
 1062SOL    HW1 4085   3.979   5.791   5.342
 1062SOL    HW2 4086   3.922   5.645   5.295
 1063SOL     OW 4087   0.191   6.745   0.769
 1063SOL    HW1 4088   0.253   6.677   0.730
 1063SOL    HW2 4089   0.191   6.827   0.711
 1064SOL     OW 4090   0.923   4.036   1.582
 1064SOL    HW1 4091   1.000   4.041   1.644
 1064SOL    HW2 4092   0.920   4.118   1.525
 1065SOL     OW 4093   3.576   0.982   3.597
 1065SOL    HW1 4094   3.510   1.055   3.611
 1065SOL    HW2 4095   3.558   0.936   3.510
 1066SOL     OW 4096   4.548   6.815   2.278
 1066SOL    HW1 4097   4.542   6.842   2.182
 1066SOL    HW2 4098   4.641   6.786   2.299
 1067SOL     OW 4099   2.125   1.073   6.726
 1067SOL    HW1 4100   2.133   0.975   6.705
 1067SOL    HW2 4101   2.068   1.117   6.657
 1068SOL     OW 4102   6.071   3.900   1.628
 1068SOL    HW1 4103   6.041   3.990   1.660
 1068SOL    HW2 4104   5.993   3.853   1.585
 1069SOL     OW 4105   5.437   5.631   0.425
 1069SOL    HW1 4106   5.475   5.590   0.508
 1069SOL    HW2 4107   5.502   5.622   0.350
 1070SOL     OW 4108   2.257   6.922   2.532
 1070SOL    HW1 4109   2.259   7.003   2.473
 1070SOL    HW2 4110   2.227   6.949   2.624
 1071SOL     OW 4111   1.765   2.088   4.140
 1071SOL    HW1 4112   1.865   2.087   4.142
 1071SOL    HW2 4113   1.730   1.994   4.138
 1072SOL     OW 4114   2.300   1.028   1.772
 1072SOL    HW1 4115   2.320   0.979   1.687
 1072SOL    HW2 4116   2.382   1.033   1.828
 1073SOL     OW 4117   5.115   1.832   3.379
 1073SOL    HW1 4118   5.098   1.787   3.291
 1073SOL    HW2 4119   5.089   1.928   3.373
 1074SOL     OW 4120   2.507   5.114   1.956
 1074SOL    HW1 4121   2.480   5.028   1.913
 1074SOL    HW2 4122   2.606   5.125   1.950
 1075SOL     OW 4123   5.807   1.523   3.585
 1075SOL    HW1 4124   5.720   1.490   3.550
 1075SOL    HW2 4125   5.813   1.505   3.684
 1076SOL     OW 4126   0.363   2.925   5.330
 1076SOL    HW1 4127   0.409   2.844   5.292
 1076SOL    HW2 4128   0.299   2.896   5.401
 1077SOL     OW 4129   6.752   6.495   0.405
 1077SOL    HW1 4130   6.695   6.423   0.446
 1077SOL    HW2 4131   6.815   6.531   0.474
 1078SOL     OW 4132   6.572   0.632   3.097
 1078SOL    HW1 4133   6.501   0.615   3.165
 1078SOL    HW2 4134   6.573   0.558   3.030
 1079SOL     OW 4135   1.539   4.882   2.161
 1079SOL    HW1 4136   1.474   4.936   2.107
 1079SOL    HW2 4137   1.581   4.813   2.103
 1080SOL     OW 4138   2.545   5.870   4.078
 1080SOL    HW1 4139   2.573   5.867   3.982
 1080SOL    HW2 4140   2.582   5.953   4.121
 1081SOL     OW 4141   6.558   5.109   5.277
 1081SOL    HW1 4142   6.491   5.065   5.336
 1081SOL    HW2 4143   6.600   5.186   5.326
 1082SOL     OW 4144   5.778   1.987   6.058
 1082SOL    HW1 4145   5.819   2.076   6.039
 1082SOL    HW2 4146   5.702   1.998   6.121
 1083SOL     OW 4147   4.833   3.074   6.898
 1083SOL    HW1 4148   4.842   3.011   6.821
 1083SOL    HW2 4149   4.737   3.100   6.909
 1084SOL     OW 4150   6.672   6.749   6.959
 1084SOL    HW1 4151   6.769   6.767   6.976
 1084SOL    HW2 4152   6.648   6.783   6.868
 1085SOL     OW 4153   2.179   3.343   3.979
 1085SOL    HW1 4154   2.108   3.341   4.050
 1085SOL    HW2 4155   2.224   3.253   3.975
 1086SOL     OW 4156   6.844   5.298   6.436
 1086SOL    HW1 4157   6.848   5.343   6.526
 1086SOL    HW2 4158   6.796   5.211   6.445
 1087SOL     OW 4159   0.691   1.809   5.345
 1087SOL    HW1 4160   0.697   1.763   5.433
 1087SOL    HW2 4161   0.768   1.781   5.287
 1088SOL     OW 4162   0.259   4.621   3.186
 1088SOL    HW1 4163   0.259   4.704   3.241
 1088SOL    HW2 4164   0.346   4.572   3.199
 1089SOL     OW 4165   1.211   6.107   5.038
 1089SOL    HW1 4166   1.225   6.072   4.945
 1089SOL    HW2 4167   1.201   6.207   5.034
 1090SOL     OW 4168   4.337   2.025   2.957
 1090SOL    HW1 4169   4.421   1.984   2.922
 1090SOL    HW2 4170   4.333   2.013   3.057
 1091SOL     OW 4171   2.138   3.547   3.562
 1091SOL    HW1 4172   2.234   3.571   3.573
 1091SOL    HW2 4173   2.123   3.454   3.595
 1092SOL     OW 4174   1.064   5.407   0.672
 1092SOL    HW1 4175   1.123   5.383   0.595
 1092SOL    HW2 4176   1.006   5.329   0.696
 1093SOL     OW 4177   2.388   6.779   1.482
 1093SOL    HW1 4178   2.295   6.756   1.452
 1093SOL    HW2 4179   2.382   6.842   1.560
 1094SOL     OW 4180   0.852   6.791   2.698
 1094SOL    HW1 4181   0.855   6.793   2.798
 1094SOL    HW2 4182   0.761   6.818   2.668
 1095SOL     OW 4183   0.569   2.525   6.795
 1095SOL    HW1 4184   0.605   2.615   6.819
 1095SOL    HW2 4185   0.566   2.516   6.696
 1096SOL     OW 4186   3.721   4.257   1.472
 1096SOL    HW1 4187   3.763   4.318   1.405
 1096SOL    HW2 4188   3.707   4.307   1.558
 1097SOL     OW 4189   2.115   4.952   2.928
 1097SOL    HW1 4190   2.111   4.922   3.024
 1097SOL    HW2 4191   2.202   4.925   2.888
 1098SOL     OW 4192   6.436   4.028   6.451
 1098SOL    HW1 4193   6.477   3.951   6.501
 1098SOL    HW2 4194   6.359   4.064   6.503
 1099SOL     OW 4195   4.496   1.137   6.433
 1099SOL    HW1 4196   4.544   1.142   6.520
 1099SOL    HW2 4197   4.440   1.054   6.431
 1100SOL     OW 4198   3.949   1.385   4.537
 1100SOL    HW1 4199   4.007   1.305   4.520
 1100SOL    HW2 4200   3.999   1.468   4.513
 1101SOL     OW 4201   5.540   4.167   5.354
 1101SOL    HW1 4202   5.509   4.091   5.297
 1101SOL    HW2 4203   5.500   4.252   5.321
 1102SOL     OW 4204   2.289   1.389   4.908
 1102SOL    HW1 4205   2.210   1.404   4.848
 1102SOL    HW2 4206   2.280   1.446   4.989
 1103SOL     OW 4207   2.143   1.823   0.381
 1103SOL    HW1 4208   2.128   1.771   0.465
 1103SOL    HW2 4209   2.078   1.792   0.311
 1104SOL     OW 4210   1.927   3.955   3.678
 1104SOL    HW1 4211   1.947   3.880   3.615
 1104SOL    HW2 4212   1.901   4.036   3.627
 1105SOL     OW 4213   5.564   3.189   4.522
 1105SOL    HW1 4214   5.573   3.178   4.423
 1105SOL    HW2 4215   5.509   3.114   4.559
 1106SOL     OW 4216   0.222   1.444   0.880
 1106SOL    HW1 4217   0.319   1.436   0.857
 1106SOL    HW2 4218   0.183   1.353   0.892
 1107SOL     OW 4219   0.909   0.738   6.980
 1107SOL    HW1 4220   0.899   0.834   7.007
 1107SOL    HW2 4221   0.992   0.728   6.925
 1108SOL     OW 4222   3.664   6.657   5.427
 1108SOL    HW1 4223   3.669   6.748   5.385
 1108SOL    HW2 4224   3.645   6.667   5.525
 1109SOL     OW 4225   5.532   1.170   4.209
 1109SOL    HW1 4226   5.567   1.264   4.205
 1109SOL    HW2 4227   5.545   1.126   4.120
 1110SOL     OW 4228   3.854   1.069   3.484
 1110SOL    HW1 4229   3.947   1.086   3.517
 1110SOL    HW2 4230   3.796   1.146   3.509
 1111SOL     OW 4231   5.643   4.455   6.466
 1111SOL    HW1 4232   5.731   4.447   6.514
 1111SOL    HW2 4233   5.583   4.379   6.493
 1112SOL     OW 4234   6.367   0.566   3.238
 1112SOL    HW1 4235   6.401   0.512   3.315
 1112SOL    HW2 4236   6.299   0.632   3.271
 1113SOL     OW 4237   6.101   4.324   1.429
 1113SOL    HW1 4238   6.199   4.303   1.435
 1113SOL    HW2 4239   6.057   4.259   1.367
 1114SOL     OW 4240   3.146   1.688   6.300
 1114SOL    HW1 4241   3.073   1.703   6.233
 1114SOL    HW2 4242   3.207   1.615   6.268
 1115SOL     OW 4243   4.171   3.922   5.267
 1115SOL    HW1 4244   4.125   4.004   5.302
 1115SOL    HW2 4245   4.270   3.935   5.273
 1116SOL     OW 4246   6.062   6.977   0.244
 1116SOL    HW1 4247   6.152   0.005   0.246
 1116SOL    HW2 4248   6.012   7.008   0.163
 1117SOL     OW 4249   0.493   1.819   1.256
 1117SOL    HW1 4250   0.465   1.732   1.297
 1117SOL    HW2 4251   0.581   1.846   1.294
 1118SOL     OW 4252   2.359   5.310   0.500
 1118SOL    HW1 4253   2.279   5.337   0.448
 1118SOL    HW2 4254   2.436   5.369   0.475
 1119SOL     OW 4255   4.261   4.468   1.731
 1119SOL    HW1 4256   4.232   4.400   1.663
 1119SOL    HW2 4257   4.321   4.424   1.798
 1120SOL     OW 4258   6.423   5.539   1.132
 1120SOL    HW1 4259   6.442   5.632   1.100
 1120SOL    HW2 4260   6.356   5.496   1.072
 1121SOL     OW 4261   0.341   4.620   4.836
 1121SOL    HW1 4262   0.279   4.698   4.822
 1121SOL    HW2 4263   0.315   4.546   4.774
 1122SOL     OW 4264   5.788   2.934   2.020
 1122SOL    HW1 4265   5.743   2.962   1.935
 1122SOL    HW2 4266   5.809   2.836   2.016
 1123SOL     OW 4267   5.087   2.169   3.811
 1123SOL    HW1 4268   5.054   2.184   3.718
 1123SOL    HW2 4269   5.169   2.224   3.827
 1124SOL     OW 4270   0.676   4.076   5.919
 1124SOL    HW1 4271   0.714   4.120   5.838
 1124SOL    HW2 4272   0.599   4.018   5.892
 1125SOL     OW 4273   1.809   2.552   3.989
 1125SOL    HW1 4274   1.841   2.645   3.973
 1125SOL    HW2 4275   1.722   2.538   3.940
 1126SOL     OW 4276   5.631   6.380   5.341
 1126SOL    HW1 4277   5.647   6.306   5.275
 1126SOL    HW2 4278   5.576   6.345   5.417
 1127SOL     OW 4279   5.832   6.124   4.690
 1127SOL    HW1 4280   5.747   6.159   4.651
 1127SOL    HW2 4281   5.837   6.025   4.677
 1128SOL     OW 4282   6.290   1.682   5.097
 1128SOL    HW1 4283   6.363   1.750   5.099
 1128SOL    HW2 4284   6.327   1.595   5.064
 1129SOL     OW 4285   2.033   6.499   0.946
 1129SOL    HW1 4286   1.963   6.494   0.876
 1129SOL    HW2 4287   1.991   6.493   1.036
 1130SOL     OW 4288   1.933   5.009   1.183
 1130SOL    HW1 4289   1.990   5.019   1.101
 1130SOL    HW2 4290   1.896   4.916   1.187
 1131SOL     OW 4291   1.733   0.512   5.141
 1131SOL    HW1 4292   1.782   0.531   5.057
 1131SOL    HW2 4293   1.782   0.443   5.194
 1132SOL     OW 4294   3.939   0.487   3.174
 1132SOL    HW1 4295   4.023   0.435   3.156
 1132SOL    HW2 4296   3.955   0.549   3.251
 1133SOL     OW 4297   0.577   0.949   0.401
 1133SOL    HW1 4298   0.626   0.878   0.349
 1133SOL    HW2 4299   0.590   1.038   0.357
 1134SOL     OW 4300   5.393   6.954   3.022
 1134SOL    HW1 4301   5.484   6.982   2.993
 1134SOL    HW2 4302   5.398   6.903   3.108
 1135SOL     OW 4303   2.366   6.433   3.791
 1135SOL    HW1 4304   2.359   6.350   3.846
 1135SOL    HW2 4305   2.290   6.437   3.726
 1136SOL     OW 4306   3.426   4.924   2.865
 1136SOL    HW1 4307   3.445   4.977   2.782
 1136SOL    HW2 4308   3.329   4.900   2.867
 1137SOL     OW 4309   0.922   6.027   0.294
 1137SOL    HW1 4310   0.951   5.965   0.367
 1137SOL    HW2 4311   0.822   6.027   0.289
 1138SOL     OW 4312   1.052   1.759   4.883
 1138SOL    HW1 4313   1.143   1.783   4.848
 1138SOL    HW2 4314   1.059   1.678   4.940
 1139SOL     OW 4315   2.673   4.642   4.032
 1139SOL    HW1 4316   2.719   4.689   3.957
 1139SOL    HW2 4317   2.598   4.587   3.996
 1140SOL     OW 4318   2.597   0.364   2.675
 1140SOL    HW1 4319   2.680   0.399   2.718
 1140SOL    HW2 4320   2.608   0.267   2.654
 1141SOL     OW 4321   6.827   5.981   6.915
 1141SOL    HW1 4322   6.854   6.026   6.830
 1141SOL    HW2 4323   6.746   6.027   6.952
 1142SOL     OW 4324   3.112   0.069   3.917
 1142SOL    HW1 4325   3.114   0.145   3.981
 1142SOL    HW2 4326   3.170   0.090   3.838
 1143SOL     OW 4327   1.503   3.248   2.747
 1143SOL    HW1 4328   1.459   3.306   2.816
 1143SOL    HW2 4329   1.543   3.305   2.675
 1144SOL     OW 4330   5.605   4.253   3.145
 1144SOL    HW1 4331   5.556   4.172   3.176
 1144SOL    HW2 4332   5.640   4.303   3.225
 1145SOL     OW 4333   1.407   2.913   0.470
 1145SOL    HW1 4334   1.399   2.997   0.523
 1145SOL    HW2 4335   1.426   2.837   0.531
 1146SOL     OW 4336   0.809   1.845   1.288
 1146SOL    HW1 4337   0.886   1.835   1.352
 1146SOL    HW2 4338   0.795   1.758   1.240
 1147SOL     OW 4339   2.947   6.270   0.926
 1147SOL    HW1 4340   2.856   6.295   0.894
 1147SOL    HW2 4341   3.011   6.274   0.849
 1148SOL     OW 4342   3.837   6.299   0.766
 1148SOL    HW1 4343   3.838   6.398   0.780
 1148SOL    HW2 4344   3.857   6.279   0.670
 1149SOL     OW 4345   5.408   2.756   1.947
 1149SOL    HW1 4346   5.465   2.695   2.002
 1149SOL    HW2 4347   5.312   2.739   1.966
 1150SOL     OW 4348   0.424   4.062   0.006
 1150SOL    HW1 4349   0.413   3.980   0.063
 1150SOL    HW2 4350   0.474   4.038   6.938
 1151SOL     OW 4351   6.153   4.783   4.579
 1151SOL    HW1 4352   6.073   4.771   4.520
 1151SOL    HW2 4353   6.209   4.858   4.543
 1152SOL     OW 4354   5.193   6.436   6.201
 1152SOL    HW1 4355   5.223   6.524   6.236
 1152SOL    HW2 4356   5.150   6.384   6.275
 1153SOL     OW 4357   6.718   0.266   1.478
 1153SOL    HW1 4358   6.702   0.171   1.450
 1153SOL    HW2 4359   6.631   0.315   1.480
 1154SOL     OW 4360   0.591   3.881   0.692
 1154SOL    HW1 4361   0.652   3.801   0.698
 1154SOL    HW2 4362   0.646   3.964   0.685
 1155SOL     OW 4363   2.940   5.545   5.784
 1155SOL    HW1 4364   2.944   5.445   5.786
 1155SOL    HW2 4365   2.845   5.574   5.787
 1156SOL     OW 4366   4.636   2.177   4.783
 1156SOL    HW1 4367   4.656   2.263   4.831
 1156SOL    HW2 4368   4.545   2.144   4.811
 1157SOL     OW 4369   5.242   0.733   6.075
 1157SOL    HW1 4370   5.276   0.808   6.131
 1157SOL    HW2 4371   5.158   0.761   6.028
 1158SOL     OW 4372   6.506   5.617   4.588
 1158SOL    HW1 4373   6.481   5.704   4.545
 1158SOL    HW2 4374   6.571   5.633   4.661
 1159SOL     OW 4375   5.668   0.040   3.017
 1159SOL    HW1 4376   5.619   0.121   2.984
 1159SOL    HW2 4377   5.634   0.016   3.108
 1160SOL     OW 4378   4.275   5.322   1.806
 1160SOL    HW1 4379   4.310   5.397   1.749
 1160SOL    HW2 4380   4.175   5.317   1.797
 1161SOL     OW 4381   0.636   5.691   6.724
 1161SOL    HW1 4382   0.628   5.631   6.803
 1161SOL    HW2 4383   0.714   5.663   6.669
 1162SOL     OW 4384   2.512   2.542   5.475
 1162SOL    HW1 4385   2.545   2.590   5.393
 1162SOL    HW2 4386   2.420   2.506   5.457
 1163SOL     OW 4387   5.960   4.644   1.962
 1163SOL    HW1 4388   6.040   4.601   2.002
 1163SOL    HW2 4389   5.948   4.611   1.868
 1164SOL     OW 4390   5.012   2.834   5.348
 1164SOL    HW1 4391   4.971   2.863   5.262
 1164SOL    HW2 4392   5.094   2.888   5.366
 1165SOL     OW 4393   4.130   5.746   3.300
 1165SOL    HW1 4394   4.066   5.670   3.285
 1165SOL    HW2 4395   4.221   5.719   3.270
 1166SOL     OW 4396   2.280   5.859   6.884
 1166SOL    HW1 4397   2.231   5.937   6.924
 1166SOL    HW2 4398   2.375   5.884   6.867
 1167SOL     OW 4399   4.891   5.091   0.671
 1167SOL    HW1 4400   4.975   5.110   0.723
 1167SOL    HW2 4401   4.811   5.107   0.729
 1168SOL     OW 4402   6.625   2.926   1.252
 1168SOL    HW1 4403   6.715   2.966   1.270
 1168SOL    HW2 4404   6.577   2.912   1.338
 1169SOL     OW 4405   5.111   1.973   5.268
 1169SOL    HW1 4406   5.209   1.983   5.287
 1169SOL    HW2 4407   5.073   1.900   5.326
 1170SOL     OW 4408   5.587   0.115   3.301
 1170SOL    HW1 4409   5.607   0.212   3.287
 1170SOL    HW2 4410   5.489   0.102   3.311
 1171SOL     OW 4411   2.869   6.577   0.293
 1171SOL    HW1 4412   2.829   6.666   0.271
 1171SOL    HW2 4413   2.873   6.565   0.392
 1172SOL     OW 4414   5.279   4.206   1.134
 1172SOL    HW1 4415   5.217   4.175   1.062
 1172SOL    HW2 4416   5.316   4.126   1.182
 1173SOL     OW 4417   3.103   1.488   0.999
 1173SOL    HW1 4418   3.196   1.512   1.027
 1173SOL    HW2 4419   3.058   1.568   0.958
 1174SOL     OW 4420   3.749   3.989   1.888
 1174SOL    HW1 4421   3.756   3.904   1.940
 1174SOL    HW2 4422   3.705   4.059   1.944
 1175SOL     OW 4423   4.940   3.617   6.523
 1175SOL    HW1 4424   4.891   3.544   6.475
 1175SOL    HW2 4425   4.890   3.642   6.605
 1176SOL     OW 4426   5.243   3.391   0.337
 1176SOL    HW1 4427   5.266   3.312   0.394
 1176SOL    HW2 4428   5.161   3.436   0.373
 1177SOL     OW 4429   6.834   3.755   5.001
 1177SOL    HW1 4430   6.916   3.728   5.051
 1177SOL    HW2 4431   6.848   3.742   4.903
 1178SOL     OW 4432   2.483   4.182   0.592
 1178SOL    HW1 4433   2.540   4.264   0.586
 1178SOL    HW2 4434   2.439   4.165   0.504
 1179SOL     OW 4435   2.302   5.837   0.592
 1179SOL    HW1 4436   2.396   5.817   0.566
 1179SOL    HW2 4437   2.250   5.864   0.511
 1180SOL     OW 4438   2.811   6.484   3.880
 1180SOL    HW1 4439   2.765   6.517   3.797
 1180SOL    HW2 4440   2.744   6.443   3.942
 1181SOL     OW 4441   0.740   5.234   5.686
 1181SOL    HW1 4442   0.737   5.159   5.619
 1181SOL    HW2 4443   0.765   5.198   5.775
 1182SOL     OW 4444   4.074   4.955   3.323
 1182SOL    HW1 4445   4.077   4.908   3.411
 1182SOL    HW2 4446   4.003   4.914   3.265
 1183SOL     OW 4447   2.242   3.798   0.029
 1183SOL    HW1 4448   2.302   3.718   0.034
 1183SOL    HW2 4449   2.159   3.774   6.993
 1184SOL     OW 4450   6.757   0.999   4.673
 1184SOL    HW1 4451   6.704   0.936   4.617
 1184SOL    HW2 4452   6.708   1.018   4.758
 1185SOL     OW 4453   0.789   1.235   0.807
 1185SOL    HW1 4454   0.788   1.329   0.841
 1185SOL    HW2 4455   0.734   1.177   0.868
 1186SOL     OW 4456   5.711   6.792   5.960
 1186SOL    HW1 4457   5.745   6.863   5.898
 1186SOL    HW2 4458   5.660   6.724   5.907
 1187SOL     OW 4459   6.274   6.617   6.846
 1187SOL    HW1 4460   6.224   6.662   6.920
 1187SOL    HW2 4461   6.358   6.576   6.883
 1188SOL     OW 4462   3.906   6.077   5.623
 1188SOL    HW1 4463   3.816   6.037   5.639
 1188SOL    HW2 4464   3.974   6.005   5.618
 1189SOL     OW 4465   6.145   2.631   1.485
 1189SOL    HW1 4466   6.197   2.706   1.445
 1189SOL    HW2 4467   6.204   2.550   1.492
 1190SOL     OW 4468   2.844   5.210   3.724
 1190SOL    HW1 4469   2.797   5.163   3.798
 1190SOL    HW2 4470   2.896   5.287   3.762
 1191SOL     OW 4471   4.529   5.451   3.817
 1191SOL    HW1 4472   4.600   5.480   3.882
 1191SOL    HW2 4473   4.557   5.365   3.774
 1192SOL     OW 4474   4.091   5.306   2.545
 1192SOL    HW1 4475   4.187   5.290   2.524
 1192SOL    HW2 4476   4.035   5.242   2.493
 1193SOL     OW 4477   6.324   2.732   5.240
 1193SOL    HW1 4478   6.295   2.783   5.159
 1193SOL    HW2 4479   6.279   2.769   5.321
 1194SOL     OW 4480   5.967   6.968   1.686
 1194SOL    HW1 4481   6.011   6.981   1.598
 1194SOL    HW2 4482   5.913   6.884   1.685
 1195SOL     OW 4483   6.867   4.109   0.794
 1195SOL    HW1 4484   6.800   4.123   0.721
 1195SOL    HW2 4485   6.821   4.069   0.874
 1196SOL     OW 4486   0.115   5.600   2.859
 1196SOL    HW1 4487   0.085   5.623   2.766
 1196SOL    HW2 4488   0.058   5.649   2.925
 1197SOL     OW 4489   4.662   0.722   4.911
 1197SOL    HW1 4490   4.618   0.758   4.829
 1197SOL    HW2 4491   4.602   0.735   4.990
 1198SOL     OW 4492   1.293   2.783   2.165
 1198SOL    HW1 4493   1.306   2.688   2.192
 1198SOL    HW2 4494   1.382   2.828   2.156
 1199SOL     OW 4495   3.867   3.888   1.354
 1199SOL    HW1 4496   3.966   3.888   1.336
 1199SOL    HW2 4497   3.841   3.801   1.395
 1200SOL     OW 4498   3.399   3.875   4.123
 1200SOL    HW1 4499   3.314   3.927   4.113
 1200SOL    HW2 4500   3.436   3.855   4.032
 1201SOL     OW 4501   0.804   0.899   4.111
 1201SOL    HW1 4502   0.869   0.839   4.063
 1201SOL    HW2 4503   0.732   0.843   4.152
 1202SOL     OW 4504   0.477   5.661   5.792
 1202SOL    HW1 4505   0.542   5.596   5.832
 1202SOL    HW2 4506   0.391   5.657   5.843
 1203SOL     OW 4507   6.332   5.994   6.717
 1203SOL    HW1 4508   6.414   5.942   6.691
 1203SOL    HW2 4509   6.294   6.038   6.636
 1204SOL     OW 4510   3.415   6.495   1.472
 1204SOL    HW1 4511   3.511   6.470   1.471
 1204SOL    HW2 4512   3.393   6.546   1.389
 1205SOL     OW 4513   4.483   3.686   1.102
 1205SOL    HW1 4514   4.386   3.676   1.084
 1205SOL    HW2 4515   4.496   3.742   1.185
 1206SOL     OW 4516   2.930   2.730   5.396
 1206SOL    HW1 4517   2.986   2.652   5.422
 1206SOL    HW2 4518   2.952   2.757   5.302
 1207SOL     OW 4519   2.117   6.244   0.963
 1207SOL    HW1 4520   2.071   6.246   1.052
 1207SOL    HW2 4521   2.101   6.331   0.915
 1208SOL     OW 4522   3.163   3.900   1.417
 1208SOL    HW1 4523   3.178   3.816   1.470
 1208SOL    HW2 4524   3.073   3.896   1.374
 1209SOL     OW 4525   4.892   1.251   4.846
 1209SOL    HW1 4526   4.911   1.156   4.825
 1209SOL    HW2 4527   4.823   1.256   4.918
 1210SOL     OW 4528   3.049   0.437   3.523
 1210SOL    HW1 4529   2.988   0.506   3.484
 1210SOL    HW2 4530   3.043   0.439   3.623
 1211SOL     OW 4531   0.907   3.629   1.613
 1211SOL    HW1 4532   0.847   3.708   1.618
 1211SOL    HW2 4533   1.003   3.659   1.610
 1212SOL     OW 4534   6.133   0.645   0.015
 1212SOL    HW1 4535   6.117   0.738   0.049
 1212SOL    HW2 4536   6.074   0.581   0.064
 1213SOL     OW 4537   0.012   1.973   0.095
 1213SOL    HW1 4538   0.017   2.002   0.190
 1213SOL    HW2 4539   0.069   2.034   0.039
 1214SOL     OW 4540   0.788   2.702   6.408
 1214SOL    HW1 4541   0.853   2.723   6.481
 1214SOL    HW2 4542   0.818   2.746   6.323
 1215SOL     OW 4543   0.756   4.332   3.248
 1215SOL    HW1 4544   0.745   4.250   3.304
 1215SOL    HW2 4545   0.784   4.409   3.305
 1216SOL     OW 4546   4.995   0.772   1.183
 1216SOL    HW1 4547   5.034   0.682   1.168
 1216SOL    HW2 4548   4.937   0.797   1.106
 1217SOL     OW 4549   2.508   4.657   0.059
 1217SOL    HW1 4550   2.450   4.686   6.998
 1217SOL    HW2 4551   2.571   4.586   0.028
 1218SOL     OW 4552   2.283   4.204   4.580
 1218SOL    HW1 4553   2.284   4.207   4.480
 1218SOL    HW2 4554   2.296   4.110   4.610
 1219SOL     OW 4555   5.715   6.355   1.960
 1219SOL    HW1 4556   5.706   6.344   2.059
 1219SOL    HW2 4557   5.799   6.407   1.940
 1220SOL     OW 4558   1.173   4.724   3.317
 1220SOL    HW1 4559   1.268   4.696   3.329
 1220SOL    HW2 4560   1.113   4.647   3.337
 1221SOL     OW 4561   5.789   3.828   6.263
 1221SOL    HW1 4562   5.708   3.821   6.204
 1221SOL    HW2 4563   5.816   3.737   6.293
 1222SOL     OW 4564   6.606   6.818   6.717
 1222SOL    HW1 4565   6.643   6.812   6.625
 1222SOL    HW2 4566   6.508   6.799   6.716
 1223SOL     OW 4567   4.183   0.688   0.659
 1223SOL    HW1 4568   4.094   0.645   0.676
 1223SOL    HW2 4569   4.178   0.786   0.681
 1224SOL     OW 4570   3.021   5.450   0.323
 1224SOL    HW1 4571   3.025   5.547   0.299
 1224SOL    HW2 4572   3.043   5.395   0.243
 1225SOL     OW 4573   3.338   3.258   6.864
 1225SOL    HW1 4574   3.285   3.264   6.948
 1225SOL    HW2 4575   3.352   3.350   6.827
 1226SOL     OW 4576   2.293   5.388   1.256
 1226SOL    HW1 4577   2.317   5.473   1.302
 1226SOL    HW2 4578   2.268   5.319   1.323
 1227SOL     OW 4579   6.998   3.633   0.098
 1227SOL    HW1 4580   0.023   3.718   0.065
 1227SOL    HW2 4581   6.901   3.630   0.073
 1228SOL     OW 4582   4.344   2.069   6.605
 1228SOL    HW1 4583   4.344   1.972   6.580
 1228SOL    HW2 4584   4.421   2.115   6.559
 1229SOL     OW 4585   3.778   5.135   6.017
 1229SOL    HW1 4586   3.869   5.175   6.012
 1229SOL    HW2 4587   3.784   5.043   6.055
 1230SOL     OW 4588   4.617   0.320   2.991
 1230SOL    HW1 4589   4.668   0.329   3.076
 1230SOL    HW2 4590   4.670   0.268   2.925
 1231SOL     OW 4591   1.620   3.456   4.131
 1231SOL    HW1 4592   1.617   3.401   4.047
 1231SOL    HW2 4593   1.530   3.496   4.147
 1232SOL     OW 4594   0.410   2.445   5.605
 1232SOL    HW1 4595   0.434   2.414   5.697
 1232SOL    HW2 4596   0.346   2.380   5.564
 1233SOL     OW 4597   1.345   3.667   3.907
 1233SOL    HW1 4598   1.286   3.734   3.862
 1233SOL    HW2 4599   1.433   3.663   3.861
 1234SOL     OW 4600   6.550   3.870   4.816
 1234SOL    HW1 4601   6.647   3.847   4.809
 1234SOL    HW2 4602   6.495   3.787   4.808
 1235SOL     OW 4603   6.905   5.999   2.371
 1235SOL    HW1 4604   6.985   5.939   2.370
 1235SOL    HW2 4605   6.822   5.945   2.386
 1236SOL     OW 4606   5.088   1.094   0.359
 1236SOL    HW1 4607   5.154   1.058   0.425
 1236SOL    HW2 4608   5.118   1.186   0.330
 1237SOL     OW 4609   1.752   4.771   5.780
 1237SOL    HW1 4610   1.698   4.688   5.767
 1237SOL    HW2 4611   1.799   4.766   5.868
 1238SOL     OW 4612   2.221   0.665   0.259
 1238SOL    HW1 4613   2.141   0.621   0.299
 1238SOL    HW2 4614   2.283   0.693   0.332
 1239SOL     OW 4615   6.885   6.575   6.278
 1239SOL    HW1 4616   6.833   6.613   6.353
 1239SOL    HW2 4617   6.978   6.613   6.279
 1240SOL     OW 4618   5.533   5.961   1.888
 1240SOL    HW1 4619   5.611   6.014   1.922
 1240SOL    HW2 4620   5.562   5.906   1.810
 1241SOL     OW 4621   6.434   4.473   3.859
 1241SOL    HW1 4622   6.338   4.492   3.843
 1241SOL    HW2 4623   6.483   4.471   3.772
 1242SOL     OW 4624   0.233   3.710   1.850
 1242SOL    HW1 4625   0.255   3.613   1.851
 1242SOL    HW2 4626   0.149   3.726   1.902
 1243SOL     OW 4627   0.438   6.742   5.209
 1243SOL    HW1 4628   0.404   6.751   5.115
 1243SOL    HW2 4629   0.369   6.699   5.266
 1244SOL     OW 4630   6.510   6.852   3.499
 1244SOL    HW1 4631   6.603   6.854   3.534
 1244SOL    HW2 4632   6.499   6.773   3.438
 1245SOL     OW 4633   4.922   4.284   6.347
 1245SOL    HW1 4634   4.833   4.330   6.356
 1245SOL    HW2 4635   4.952   4.288   6.252
 1246SOL     OW 4636   2.160   6.196   1.308
 1246SOL    HW1 4637   2.229   6.126   1.327
 1246SOL    HW2 4638   2.158   6.262   1.383
 1247SOL     OW 4639   2.434   0.061   6.588
 1247SOL    HW1 4640   2.507   0.128   6.584
 1247SOL    HW2 4641   2.348   0.106   6.615
 1248SOL     OW 4642   2.289   0.007   4.117
 1248SOL    HW1 4643   2.283   0.036   4.213
 1248SOL    HW2 4644   2.384   6.999   4.095
 1249SOL     OW 4645   5.742   2.224   2.010
 1249SOL    HW1 4646   5.649   2.248   1.982
 1249SOL    HW2 4647   5.806   2.251   1.937
 1250SOL     OW 4648   6.703   5.018   4.683
 1250SOL    HW1 4649   6.618   4.965   4.685
 1250SOL    HW2 4650   6.767   4.977   4.617
 1251SOL     OW 4651   2.537   6.954   4.133
 1251SOL    HW1 4652   2.602   0.014   4.140
 1251SOL    HW2 4653   2.576   6.881   4.076
 1252SOL     OW 4654   3.812   3.472   5.832
 1252SOL    HW1 4655   3.836   3.431   5.744
 1252SOL    HW2 4656   3.795   3.399   5.898
 1253SOL     OW 4657   3.152   5.047   1.393
 1253SOL    HW1 4658   3.114   4.974   1.449
 1253SOL    HW2 4659   3.251   5.052   1.406
 1254SOL     OW 4660   6.483   3.113   2.772
 1254SOL    HW1 4661   6.435   3.035   2.812
 1254SOL    HW2 4662   6.572   3.083   2.737
 1255SOL     OW 4663   6.693   1.850   4.589
 1255SOL    HW1 4664   6.663   1.890   4.502
 1255SOL    HW2 4665   6.709   1.923   4.655
 1256SOL     OW 4666   6.492   6.758   3.183
 1256SOL    HW1 4667   6.393   6.760   3.193
 1256SOL    HW2 4668   6.519   6.677   3.132
 1257SOL     OW 4669   6.416   6.959   3.743
 1257SOL    HW1 4670   6.317   6.974   3.742
 1257SOL    HW2 4671   6.442   6.902   3.665
 1258SOL     OW 4672   1.569   5.049   3.745
 1258SOL    HW1 4673   1.516   5.074   3.665
 1258SOL    HW2 4674   1.660   5.088   3.739
 1259SOL     OW 4675   3.468   1.423   4.278
 1259SOL    HW1 4676   3.495   1.477   4.198
 1259SOL    HW2 4677   3.550   1.392   4.326
 1260SOL     OW 4678   1.702   1.347   6.433
 1260SOL    HW1 4679   1.670   1.318   6.523
 1260SOL    HW2 4680   1.662   1.288   6.363
 1261SOL     OW 4681   0.141   5.763   6.568
 1261SOL    HW1 4682   0.163   5.766   6.470
 1261SOL    HW2 4683   0.222   5.737   6.620
 1262SOL     OW 4684   5.419   5.387   1.247
 1262SOL    HW1 4685   5.325   5.357   1.262
 1262SOL    HW2 4686   5.481   5.334   1.304
 1263SOL     OW 4687   0.122   1.177   2.688
 1263SOL    HW1 4688   0.081   1.150   2.600
 1263SOL    HW2 4689   0.221   1.188   2.676
 1264SOL     OW 4690   0.320   4.223   6.183
 1264SOL    HW1 4691   0.331   4.321   6.196
 1264SOL    HW2 4692   0.227   4.204   6.150
 1265SOL     OW 4693   5.983   5.093   4.773
 1265SOL    HW1 4694   5.901   5.145   4.800
 1265SOL    HW2 4695   5.961   4.996   4.769
 1266SOL     OW 4696   0.553   0.732   4.254
 1266SOL    HW1 4697   0.453   0.737   4.249
 1266SOL    HW2 4698   0.587   0.680   4.176
 1267SOL     OW 4699   4.981   1.288   1.496
 1267SOL    HW1 4700   4.946   1.376   1.528
 1267SOL    HW2 4701   5.081   1.288   1.502
 1268SOL     OW 4702   2.703   2.792   6.857
 1268SOL    HW1 4703   2.776   2.836   6.909
 1268SOL    HW2 4704   2.699   2.832   6.765
 1269SOL     OW 4705   6.042   2.810   3.856
 1269SOL    HW1 4706   6.096   2.813   3.940
 1269SOL    HW2 4707   5.953   2.770   3.875
 1270SOL     OW 4708   2.278   4.578   2.380
 1270SOL    HW1 4709   2.259   4.496   2.326
 1270SOL    HW2 4710   2.377   4.585   2.396
 1271SOL     OW 4711   3.210   1.321   1.954
 1271SOL    HW1 4712   3.159   1.270   1.884
 1271SOL    HW2 4713   3.169   1.305   2.043
 1272SOL     OW 4714   6.349   4.577   6.692
 1272SOL    HW1 4715   6.318   4.601   6.784
 1272SOL    HW2 4716   6.275   4.534   6.642
 1273SOL     OW 4717   1.383   3.911   5.127
 1273SOL    HW1 4718   1.469   3.949   5.161
 1273SOL    HW2 4719   1.403   3.832   5.069
 1274SOL     OW 4720   0.527   4.232   0.888
 1274SOL    HW1 4721   0.438   4.196   0.915
 1274SOL    HW2 4722   0.531   4.329   0.910
 1275SOL     OW 4723   3.168   1.097   3.330
 1275SOL    HW1 4724   3.116   1.092   3.415
 1275SOL    HW2 4725   3.160   1.010   3.281
 1276SOL     OW 4726   5.395   5.345   4.946
 1276SOL    HW1 4727   5.377   5.300   4.859
 1276SOL    HW2 4728   5.387   5.444   4.935
 1277SOL     OW 4729   1.624   5.424   6.980
 1277SOL    HW1 4730   1.564   5.347   7.001
 1277SOL    HW2 4731   1.686   5.398   6.905
 1278SOL     OW 4732   1.455   0.519   4.342
 1278SOL    HW1 4733   1.393   0.575   4.396
 1278SOL    HW2 4734   1.416   0.504   4.251
 1279SOL     OW 4735   2.349   4.441   6.083
 1279SOL    HW1 4736   2.340   4.453   5.985
 1279SOL    HW2 4737   2.432   4.486   6.115
 1280SOL     OW 4738   4.162   0.219   3.906
 1280SOL    HW1 4739   4.168   0.287   3.979
 1280SOL    HW2 4740   4.245   0.163   3.905
 1281SOL     OW 4741   2.632   6.081   3.618
 1281SOL    HW1 4742   2.718   6.123   3.647
 1281SOL    HW2 4743   2.566   6.153   3.594
 1282SOL     OW 4744   0.009   2.537   6.989
 1282SOL    HW1 4745   6.966   2.603   6.942
 1282SOL    HW2 4746   0.051   2.476   6.921
 1283SOL     OW 4747   6.424   3.785   5.579
 1283SOL    HW1 4748   6.467   3.698   5.554
 1283SOL    HW2 4749   6.436   3.850   5.504
 1284SOL     OW 4750   3.808   0.774   1.158
 1284SOL    HW1 4751   3.841   0.783   1.252
 1284SOL    HW2 4752   3.731   0.711   1.156
 1285SOL     OW 4753   4.551   1.249   5.312
 1285SOL    HW1 4754   4.620   1.244   5.384
 1285SOL    HW2 4755   4.482   1.317   5.336
 1286SOL     OW 4756   4.440   2.279   0.948
 1286SOL    HW1 4757   4.511   2.212   0.971
 1286SOL    HW2 4758   4.475   2.371   0.964
 1287SOL     OW 4759   5.311   4.795   5.338
 1287SOL    HW1 4760   5.316   4.824   5.433
 1287SOL    HW2 4761   5.230   4.835   5.295
 1288SOL     OW 4762   4.146   4.902   5.520
 1288SOL    HW1 4763   4.235   4.905   5.476
 1288SOL    HW2 4764   4.121   4.994   5.552
 1289SOL     OW 4765   0.370   0.899   2.119
 1289SOL    HW1 4766   0.385   0.856   2.030
 1289SOL    HW2 4767   0.387   0.998   2.112
 1290SOL     OW 4768   1.542   6.875   0.981
 1290SOL    HW1 4769   1.464   6.932   1.008
 1290SOL    HW2 4770   1.527   6.839   0.889
 1291SOL     OW 4771   0.171   4.855   4.563
 1291SOL    HW1 4772   0.226   4.775   4.537
 1291SOL    HW2 4773   0.215   4.938   4.529
 1292SOL     OW 4774   0.607   5.686   2.352
 1292SOL    HW1 4775   0.670   5.635   2.293
 1292SOL    HW2 4776   0.653   5.769   2.385
 1293SOL     OW 4777   2.671   1.964   0.092
 1293SOL    HW1 4778   2.685   1.916   0.006
 1293SOL    HW2 4779   2.634   1.901   0.160
 1294SOL     OW 4780   1.565   4.177   6.147
 1294SOL    HW1 4781   1.476   4.181   6.102
 1294SOL    HW2 4782   1.637   4.166   6.078
 1295SOL     OW 4783   0.617   2.938   0.786
 1295SOL    HW1 4784   0.651   2.861   0.733
 1295SOL    HW2 4785   0.543   2.983   0.735
 1296SOL     OW 4786   4.710   6.827   5.315
 1296SOL    HW1 4787   4.614   6.849   5.332
 1296SOL    HW2 4788   4.721   6.729   5.301
 1297SOL     OW 4789   0.847   6.335   1.516
 1297SOL    HW1 4790   0.800   6.382   1.442
 1297SOL    HW2 4791   0.819   6.373   1.604
 1298SOL     OW 4792   4.927   6.164   3.591
 1298SOL    HW1 4793   4.883   6.199   3.674
 1298SOL    HW2 4794   4.857   6.144   3.522
 1299SOL     OW 4795   2.039   2.721   3.756
 1299SOL    HW1 4796   2.130   2.755   3.730
 1299SOL    HW2 4797   2.046   2.625   3.784
 1300SOL     OW 4798   1.961   3.232   1.630
 1300SOL    HW1 4799   2.041   3.287   1.656
 1300SOL    HW2 4800   1.982   3.183   1.545
 1301SOL     OW 4801   1.116   6.737   1.920
 1301SOL    HW1 4802   1.125   6.678   2.000
 1301SOL    HW2 4803   1.035   6.711   1.868
 1302SOL     OW 4804   5.515   0.463   5.551
 1302SOL    HW1 4805   5.570   0.498   5.475
 1302SOL    HW2 4806   5.453   0.535   5.582
 1303SOL     OW 4807   3.987   0.886   1.921
 1303SOL    HW1 4808   3.921   0.959   1.938
 1303SOL    HW2 4809   4.009   0.839   2.007
 1304SOL     OW 4810   1.957   1.207   1.616
 1304SOL    HW1 4811   2.014   1.228   1.695
 1304SOL    HW2 4812   1.896   1.132   1.639
 1305SOL     OW 4813   5.478   4.214   6.576
 1305SOL    HW1 4814   5.444   4.245   6.665
 1305SOL    HW2 4815   5.548   4.144   6.589
 1306SOL     OW 4816   1.640   5.904   4.591
 1306SOL    HW1 4817   1.677   5.817   4.558
 1306SOL    HW2 4818   1.545   5.893   4.617
 1307SOL     OW 4819   1.987   3.376   4.173
 1307SOL    HW1 4820   2.021   3.368   4.267
 1307SOL    HW2 4821   1.931   3.458   4.165
 1308SOL     OW 4822   0.035   6.943   6.219
 1308SOL    HW1 4823   0.075   0.013   6.186
 1308SOL    HW2 4824   6.951   6.948   6.213
 1309SOL     OW 4825   5.270   4.451   5.554
 1309SOL    HW1 4826   5.233   4.497   5.473
 1309SOL    HW2 4827   5.342   4.508   5.595
 1310SOL     OW 4828   0.245   4.330   3.249
 1310SOL    HW1 4829   0.307   4.404   3.225
 1310SOL    HW2 4830   0.270   4.247   3.200
 1311SOL     OW 4831   6.708   6.010   6.540
 1311SOL    HW1 4832   6.795   6.000   6.588
 1311SOL    HW2 4833   6.639   5.952   6.583
 1312SOL     OW 4834   1.853   7.000   0.136
 1312SOL    HW1 4835   1.844   6.939   0.057
 1312SOL    HW2 4836   1.773   6.990   0.195
 1313SOL     OW 4837   6.679   5.259   2.328
 1313SOL    HW1 4838   6.615   5.258   2.405
 1313SOL    HW2 4839   6.773   5.259   2.362
 1314SOL     OW 4840   3.085   1.976   4.558
 1314SOL    HW1 4841   3.075   2.025   4.644
 1314SOL    HW2 4842   3.125   2.037   4.489
 1315SOL     OW 4843   6.938   0.827   3.479
 1315SOL    HW1 4844   6.846   0.791   3.461
 1315SOL    HW2 4845   6.998   0.805   3.403
 1316SOL     OW 4846   3.618   0.363   5.053
 1316SOL    HW1 4847   3.665   0.448   5.078
 1316SOL    HW2 4848   3.565   0.330   5.131
 1317SOL     OW 4849   1.474   4.198   4.898
 1317SOL    HW1 4850   1.534   4.274   4.923
 1317SOL    HW2 4851   1.379   4.229   4.895
 1318SOL     OW 4852   1.572   2.588   6.767
 1318SOL    HW1 4853   1.532   2.528   6.836
 1318SOL    HW2 4854   1.672   2.590   6.777
 1319SOL     OW 4855   0.413   5.394   0.123
 1319SOL    HW1 4856   0.334   5.451   0.100
 1319SOL    HW2 4857   0.495   5.433   0.082
 1320SOL     OW 4858   2.951   2.872   6.915
 1320SOL    HW1 4859   2.996   2.881   6.827
 1320SOL    HW2 4860   3.016   2.894   6.988
 1321SOL     OW 4861   4.987   2.319   6.623
 1321SOL    HW1 4862   4.935   2.256   6.681
 1321SOL    HW2 4863   5.035   2.385   6.681
 1322SOL     OW 4864   4.157   1.855   4.233
 1322SOL    HW1 4865   4.242   1.883   4.275
 1322SOL    HW2 4866   4.176   1.799   4.152
 1323SOL     OW 4867   3.509   6.222   0.466
 1323SOL    HW1 4868   3.549   6.198   0.377
 1323SOL    HW2 4869   3.522   6.319   0.483
 1324SOL     OW 4870   0.680   3.414   0.311
 1324SOL    HW1 4871   0.745   3.339   0.303
 1324SOL    HW2 4872   0.599   3.393   0.256
 1325SOL     OW 4873   4.209   6.344   5.236
 1325SOL    HW1 4874   4.116   6.375   5.252
 1325SOL    HW2 4875   4.247   6.392   5.157
 1326SOL     OW 4876   4.696   3.979   5.371
 1326SOL    HW1 4877   4.783   4.000   5.327
 1326SOL    HW2 4878   4.690   3.880   5.386
 1327SOL     OW 4879   1.047   6.468   1.097
 1327SOL    HW1 4880   1.047   6.524   1.180
 1327SOL    HW2 4881   1.106   6.388   1.110
 1328SOL     OW 4882   2.317   3.008   6.751
 1328SOL    HW1 4883   2.368   2.949   6.814
 1328SOL    HW2 4884   2.325   2.971   6.658
 1329SOL     OW 4885   6.869   2.457   2.687
 1329SOL    HW1 4886   6.933   2.500   2.750
 1329SOL    HW2 4887   6.901   2.365   2.664
 1330SOL     OW 4888   1.077   2.035   0.912
 1330SOL    HW1 4889   1.037   2.065   0.998
 1330SOL    HW2 4890   1.009   2.042   0.839
 1331SOL     OW 4891   4.587   2.530   2.907
 1331SOL    HW1 4892   4.550   2.577   2.987
 1331SOL    HW2 4893   4.674   2.488   2.930
 1332SOL     OW 4894   2.663   6.923   0.754
 1332SOL    HW1 4895   2.687   6.934   0.657
 1332SOL    HW2 4896   2.723   6.854   0.796
 1333SOL     OW 4897   2.999   3.849   3.357
 1333SOL    HW1 4898   2.958   3.810   3.439
 1333SOL    HW2 4899   3.000   3.781   3.284
 1334SOL     OW 4900   6.585   1.466   3.955
 1334SOL    HW1 4901   6.625   1.555   3.977
 1334SOL    HW2 4902   6.655   1.408   3.913
 1335SOL     OW 4903   2.128   2.256   2.104
 1335SOL    HW1 4904   2.180   2.197   2.166
 1335SOL    HW2 4905   2.108   2.342   2.150
 1336SOL     OW 4906   4.163   1.703   5.425
 1336SOL    HW1 4907   4.157   1.790   5.474
 1336SOL    HW2 4908   4.204   1.634   5.485
 1337SOL     OW 4909   6.975   1.555   3.260
 1337SOL    HW1 4910   6.942   1.649   3.276
 1337SOL    HW2 4911   6.988   1.540   3.162
 1338SOL     OW 4912   0.276   3.836   3.935
 1338SOL    HW1 4913   0.354   3.809   3.991
 1338SOL    HW2 4914   0.202   3.867   3.995
 1339SOL     OW 4915   6.585   1.109   6.900
 1339SOL    HW1 4916   6.684   1.119   6.892
 1339SOL    HW2 4917   6.546   1.096   6.808
 1340SOL     OW 4918   5.432   0.978   2.511
 1340SOL    HW1 4919   5.505   1.027   2.463
 1340SOL    HW2 4920   5.385   0.918   2.446
 1341SOL     OW 4921   4.372   6.234   0.480
 1341SOL    HW1 4922   4.277   6.264   0.482
 1341SOL    HW2 4923   4.414   6.263   0.394
 1342SOL     OW 4924   2.802   5.460   6.539
 1342SOL    HW1 4925   2.899   5.445   6.559
 1342SOL    HW2 4926   2.792   5.479   6.441
 1343SOL     OW 4927   5.426   5.255   2.921
 1343SOL    HW1 4928   5.348   5.229   2.978
 1343SOL    HW2 4929   5.412   5.223   2.827
 1344SOL     OW 4930   0.263   6.700   4.154
 1344SOL    HW1 4931   0.300   6.613   4.186
 1344SOL    HW2 4932   0.164   6.700   4.166
 1345SOL     OW 4933   0.732   4.914   2.041
 1345SOL    HW1 4934   0.713   5.011   2.056
 1345SOL    HW2 4935   0.701   4.861   2.120
 1346SOL     OW 4936   2.317   5.602   5.623
 1346SOL    HW1 4937   2.373   5.679   5.592
 1346SOL    HW2 4938   2.315   5.532   5.552
 1347SOL     OW 4939   0.674   6.727   6.839
 1347SOL    HW1 4940   0.758   6.716   6.786
 1347SOL    HW2 4941   0.662   6.823   6.864
 1348SOL     OW 4942   6.749   6.645   5.540
 1348SOL    HW1 4943   6.758   6.739   5.506
 1348SOL    HW2 4944   6.685   6.595   5.482
 1349SOL     OW 4945   5.182   2.678   4.402
 1349SOL    HW1 4946   5.188   2.774   4.375
 1349SOL    HW2 4947   5.241   2.662   4.481
 1350SOL     OW 4948   4.632   5.386   5.819
 1350SOL    HW1 4949   4.603   5.291   5.816
 1350SOL    HW2 4950   4.590   5.432   5.897
 1351SOL     OW 4951   5.650   2.672   4.126
 1351SOL    HW1 4952   5.576   2.605   4.118
 1351SOL    HW2 4953   5.632   2.732   4.204
 1352SOL     OW 4954   6.634   6.283   4.152
 1352SOL    HW1 4955   6.702   6.243   4.214
 1352SOL    HW2 4956   6.587   6.358   4.199
 1353SOL     OW 4957   0.977   1.958   0.304
 1353SOL    HW1 4958   0.936   2.010   0.379
 1353SOL    HW2 4959   1.063   1.919   0.333
 1354SOL     OW 4960   0.029   4.251   1.827
 1354SOL    HW1 4961   0.017   4.270   1.730
 1354SOL    HW2 4962   0.071   4.330   1.871
 1355SOL     OW 4963   6.123   4.080   4.251
 1355SOL    HW1 4964   6.137   4.176   4.277
 1355SOL    HW2 4965   6.034   4.050   4.284
 1356SOL     OW 4966   3.677   3.166   1.943
 1356SOL    HW1 4967   3.774   3.143   1.952
 1356SOL    HW2 4968   3.624   3.118   2.013
 1357SOL     OW 4969   0.015   4.762   6.381
 1357SOL    HW1 4970   0.005   4.805   6.291
 1357SOL    HW2 4971   0.076   4.683   6.373
 1358SOL     OW 4972   6.374   6.142   0.375
 1358SOL    HW1 4973   6.316   6.105   0.303
 1358SOL    HW2 4974   6.321   6.149   0.460
 1359SOL     OW 4975   6.141   4.327   2.262
 1359SOL    HW1 4976   6.153   4.335   2.361
 1359SOL    HW2 4977   6.054   4.282   2.243
 1360SOL     OW 4978   2.437   2.881   0.185
 1360SOL    HW1 4979   2.512   2.858   0.247
 1360SOL    HW2 4980   2.358   2.911   0.238
 1361SOL     OW 4981   6.633   4.289   4.678
 1361SOL    HW1 4982   6.705   4.340   4.726
 1361SOL    HW2 4983   6.612   4.334   4.591
 1362SOL     OW 4984   3.897   3.838   2.874
 1362SOL    HW1 4985   3.855   3.755   2.839
 1362SOL    HW2 4986   3.984   3.815   2.919
 1363SOL     OW 4987   0.250   5.547   4.315
 1363SOL    HW1 4988   0.310   5.468   4.327
 1363SOL    HW2 4989   0.191   5.556   4.394
 1364SOL     OW 4990   4.894   4.260   0.237
 1364SOL    HW1 4991   4.822   4.279   0.304
 1364SOL    HW2 4992   4.974   4.316   0.257
 1365SOL     OW 4993   1.005   4.500   6.516
 1365SOL    HW1 4994   1.089   4.490   6.569
 1365SOL    HW2 4995   1.010   4.583   6.461
 1366SOL     OW 4996   1.516   6.895   6.257
 1366SOL    HW1 4997   1.582   6.852   6.318
 1366SOL    HW2 4998   1.501   6.836   6.178
 1367SOL     OW 4999   2.041   0.630   2.371
 1367SOL    HW1 5000   1.991   0.563   2.426
 1367SOL    HW2 5001   2.066   0.589   2.283
 1368SOL     OW 5002   5.306   6.890   4.809
 1368SOL    HW1 5003   5.335   6.900   4.714
 1368SOL    HW2 5004   5.376   6.926   4.870
 1369SOL     OW 5005   1.876   6.371   3.096
 1369SOL    HW1 5006   1.878   6.422   3.010
 1369SOL    HW2 5007   1.854   6.433   3.171
 1370SOL     OW 5008   3.249   0.962   1.961
 1370SOL    HW1 5009   3.321   1.021   1.925
 1370SOL    HW2 5010   3.260   0.954   2.060
 1371SOL     OW 5011   4.610   1.493   4.587
 1371SOL    HW1 5012   4.540   1.563   4.574
 1371SOL    HW2 5013   4.674   1.522   4.658
 1372SOL     OW 5014   1.925   3.305   1.151
 1372SOL    HW1 5015   1.877   3.352   1.077
 1372SOL    HW2 5016   2.010   3.353   1.172
 1373SOL     OW 5017   6.548   4.198   0.810
 1373SOL    HW1 5018   6.577   4.257   0.885
 1373SOL    HW2 5019   6.587   4.232   0.724
 1374SOL     OW 5020   4.309   1.933   0.959
 1374SOL    HW1 5021   4.336   1.969   0.870
 1374SOL    HW2 5022   4.308   2.008   1.026
 1375SOL     OW 5023   0.189   5.361   6.042
 1375SOL    HW1 5024   0.185   5.278   6.098
 1375SOL    HW2 5025   0.278   5.366   5.996
 1376SOL     OW 5026   4.807   2.782   3.367
 1376SOL    HW1 5027   4.738   2.720   3.405
 1376SOL    HW2 5028   4.803   2.869   3.416
 1377SOL     OW 5029   0.092   4.284   6.013
 1377SOL    HW1 5030   0.006   4.235   6.017
 1377SOL    HW2 5031   0.108   4.316   5.919
 1378SOL     OW 5032   0.483   2.377   5.125
 1378SOL    HW1 5033   0.574   2.354   5.091
 1378SOL    HW2 5034   0.417   2.371   5.050
 1379SOL     OW 5035   3.211   6.697   2.629
 1379SOL    HW1 5036   3.309   6.687   2.612
 1379SOL    HW2 5037   3.179   6.783   2.589
 1380SOL     OW 5038   6.693   0.329   2.591
 1380SOL    HW1 5039   6.754   0.338   2.512
 1380SOL    HW2 5040   6.704   0.409   2.650
 1381SOL     OW 5041   5.271   2.478   0.099
 1381SOL    HW1 5042   5.231   2.400   0.148
 1381SOL    HW2 5043   5.264   2.560   0.155
 1382SOL     OW 5044   6.266   4.711   6.257
 1382SOL    HW1 5045   6.288   4.624   6.212
 1382SOL    HW2 5046   6.248   4.781   6.188
 1383SOL     OW 5047   0.802   1.297   0.116
 1383SOL    HW1 5048   0.893   1.265   0.140
 1383SOL    HW2 5049   0.805   1.345   0.028
 1384SOL     OW 5050   2.845   1.471   3.640
 1384SOL    HW1 5051   2.901   1.469   3.557
 1384SOL    HW2 5052   2.752   1.499   3.617
 1385SOL     OW 5053   6.797   2.696   3.040
 1385SOL    HW1 5054   6.797   2.739   3.130
 1385SOL    HW2 5055   6.777   2.598   3.050
 1386SOL     OW 5056   2.283   2.883   4.550
 1386SOL    HW1 5057   2.301   2.877   4.452
 1386SOL    HW2 5058   2.348   2.826   4.600
 1387SOL     OW 5059   3.333   0.557   4.592
 1387SOL    HW1 5060   3.405   0.626   4.588
 1387SOL    HW2 5061   3.265   0.575   4.521
 1388SOL     OW 5062   6.067   0.088   4.257
 1388SOL    HW1 5063   6.041   0.088   4.161
 1388SOL    HW2 5064   6.147   0.030   4.270
 1389SOL     OW 5065   6.706   0.167   4.470
 1389SOL    HW1 5066   6.625   0.116   4.500
 1389SOL    HW2 5067   6.678   0.255   4.434
 1390SOL     OW 5068   4.112   1.324   0.355
 1390SOL    HW1 5069   4.018   1.355   0.366
 1390SOL    HW2 5070   4.164   1.392   0.304
 1391SOL     OW 5071   6.210   0.926   5.367
 1391SOL    HW1 5072   6.298   0.970   5.383
 1391SOL    HW2 5073   6.137   0.994   5.375
 1392SOL     OW 5074   4.805   5.936   5.765
 1392SOL    HW1 5075   4.717   5.983   5.767
 1392SOL    HW2 5076   4.804   5.862   5.833
 1393SOL     OW 5077   6.695   1.790   6.467
 1393SOL    HW1 5078   6.757   1.737   6.526
 1393SOL    HW2 5079   6.691   1.884   6.499
 1394SOL     OW 5080   4.089   6.266   3.178
 1394SOL    HW1 5081   4.026   6.323   3.231
 1394SOL    HW2 5082   4.062   6.170   3.185
 1395SOL     OW 5083   0.646   3.989   2.691
 1395SOL    HW1 5084   0.590   3.906   2.691
 1395SOL    HW2 5085   0.587   4.069   2.681
 1396SOL     OW 5086   1.795   1.218   4.557
 1396SOL    HW1 5087   1.782   1.136   4.501
 1396SOL    HW2 5088   1.893   1.238   4.564
 1397SOL     OW 5089   0.094   5.417   4.828
 1397SOL    HW1 5090   7.013   5.434   4.805
 1397SOL    HW2 5091   0.153   5.479   4.776
 1398SOL     OW 5092   2.254   1.180   0.079
 1398SOL    HW1 5093   2.310   1.252   0.119
 1398SOL    HW2 5094   2.310   1.121   0.022
 1399SOL     OW 5095   3.958   6.938   0.692
 1399SOL    HW1 5096   4.023   7.011   0.671
 1399SOL    HW2 5097   3.935   6.888   0.609
 1400SOL     OW 5098   6.644   0.382   4.301
 1400SOL    HW1 5099   6.700   0.458   4.270
 1400SOL    HW2 5100   6.547   0.408   4.296
 1401SOL     OW 5101   5.452   6.983   4.341
 1401SOL    HW1 5102   5.534   6.989   4.398
 1401SOL    HW2 5103   5.376   0.013   4.388
 1402SOL     OW 5104   5.396   3.975   1.246
 1402SOL    HW1 5105   5.490   3.954   1.218
 1402SOL    HW2 5106   5.345   3.890   1.255
 1403SOL     OW 5107   3.268   3.149   0.255
 1403SOL    HW1 5108   3.339   3.182   0.193
 1403SOL    HW2 5109   3.307   3.081   0.318
 1404SOL     OW 5110   4.883   0.436   1.314
 1404SOL    HW1 5111   4.855   0.339   1.316
 1404SOL    HW2 5112   4.930   0.455   1.228
 1405SOL     OW 5113   2.199   3.545   0.877
 1405SOL    HW1 5114   2.174   3.475   0.945
 1405SOL    HW2 5115   2.117   3.593   0.848
 1406SOL     OW 5116   2.596   3.521   1.549
 1406SOL    HW1 5117   2.519   3.581   1.570
 1406SOL    HW2 5118   2.578   3.473   1.463
 1407SOL     OW 5119   0.744   3.453   1.765
 1407SOL    HW1 5120   0.770   3.369   1.718
 1407SOL    HW2 5121   0.784   3.532   1.719
 1408SOL     OW 5122   6.166   5.583   6.364
 1408SOL    HW1 5123   6.137   5.658   6.305
 1408SOL    HW2 5124   6.251   5.608   6.411
 1409SOL     OW 5125   0.193   0.988   5.714
 1409SOL    HW1 5126   0.177   0.940   5.628
 1409SOL    HW2 5127   0.234   1.077   5.696
 1410SOL     OW 5128   2.681   2.714   5.950
 1410SOL    HW1 5129   2.750   2.691   5.881
 1410SOL    HW2 5130   2.594   2.735   5.905
 1411SOL     OW 5131   3.951   5.726   0.045
 1411SOL    HW1 5132   3.889   5.798   0.012
 1411SOL    HW2 5133   4.002   5.688   6.982
 1412SOL     OW 5134   1.490   2.687   0.625
 1412SOL    HW1 5135   1.585   2.656   0.627
 1412SOL    HW2 5136   1.456   2.698   0.719
 1413SOL     OW 5137   1.953   1.982   5.349
 1413SOL    HW1 5138   2.049   2.008   5.346
 1413SOL    HW2 5139   1.935   1.928   5.431
 1414SOL     OW 5140   0.744   3.454   2.326
 1414SOL    HW1 5141   0.666   3.409   2.371
 1414SOL    HW2 5142   0.824   3.394   2.332
 1415SOL     OW 5143   2.405   2.230   4.431
 1415SOL    HW1 5144   2.442   2.272   4.514
 1415SOL    HW2 5145   2.480   2.212   4.367
 1416SOL     OW 5146   4.237   0.200   5.652
 1416SOL    HW1 5147   4.314   0.141   5.674
 1416SOL    HW2 5148   4.271   0.287   5.617
 1417SOL     OW 5149   2.931   3.064   6.031
 1417SOL    HW1 5150   2.981   2.978   6.017
 1417SOL    HW2 5151   2.875   3.083   5.951
 1418SOL     OW 5152   3.517   3.683   0.057
 1418SOL    HW1 5153   3.521   3.778   0.029
 1418SOL    HW2 5154   3.586   3.665   0.127
 1419SOL     OW 5155   1.937   4.826   3.710
 1419SOL    HW1 5156   1.848   4.831   3.756
 1419SOL    HW2 5157   1.965   4.730   3.704
 1420SOL     OW 5158   3.967   5.026   2.559
 1420SOL    HW1 5159   4.044   4.968   2.535
 1420SOL    HW2 5160   3.887   5.000   2.505
 1421SOL     OW 5161   0.982   4.838   5.290
 1421SOL    HW1 5162   0.888   4.845   5.325
 1421SOL    HW2 5163   1.016   4.929   5.266
 1422SOL     OW 5164   2.586   4.102   6.038
 1422SOL    HW1 5165   2.492   4.131   6.019
 1422SOL    HW2 5166   2.649   4.152   5.978
 1423SOL     OW 5167   4.378   1.640   4.621
 1423SOL    HW1 5168   4.439   1.708   4.662
 1423SOL    HW2 5169   4.283   1.667   4.637
 1424SOL     OW 5170   6.376   2.882   6.773
 1424SOL    HW1 5171   6.371   2.805   6.837
 1424SOL    HW2 5172   6.386   2.847   6.680
 1425SOL     OW 5173   3.624   6.054   4.560
 1425SOL    HW1 5174   3.626   6.111   4.477
 1425SOL    HW2 5175   3.663   5.964   4.539
 1426SOL     OW 5176   2.346   1.457   6.330
 1426SOL    HW1 5177   2.372   1.488   6.421
 1426SOL    HW2 5178   2.370   1.361   6.318
 1427SOL     OW 5179   1.108   1.340   3.028
 1427SOL    HW1 5180   1.097   1.258   3.085
 1427SOL    HW2 5181   1.034   1.343   2.960
 1428SOL     OW 5182   0.010   2.940   2.667
 1428SOL    HW1 5183   0.051   2.849   2.660
 1428SOL    HW2 5184   0.030   2.992   2.585
 1429SOL     OW 5185   6.292   1.603   0.485
 1429SOL    HW1 5186   6.193   1.612   0.493
 1429SOL    HW2 5187   6.315   1.512   0.449
 1430SOL     OW 5188   2.266   4.283   3.917
 1430SOL    HW1 5189   2.240   4.193   3.953
 1430SOL    HW2 5190   2.315   4.271   3.830
 1431SOL     OW 5191   2.481   1.086   5.838
 1431SOL    HW1 5192   2.453   1.124   5.750
 1431SOL    HW2 5193   2.566   1.035   5.827
 1432SOL     OW 5194   2.326   1.090   0.986
 1432SOL    HW1 5195   2.241   1.103   1.038
 1432SOL    HW2 5196   2.378   1.015   1.027
 1433SOL     OW 5197   3.142   0.582   4.358
 1433SOL    HW1 5198   3.185   0.664   4.322
 1433SOL    HW2 5199   3.096   0.532   4.284
 1434SOL     OW 5200   0.106   2.511   6.309
 1434SOL    HW1 5201   0.180   2.444   6.301
 1434SOL    HW2 5202   0.145   2.603   6.313
 1435SOL     OW 5203   0.331   0.488   3.579
 1435SOL    HW1 5204   0.261   0.552   3.610
 1435SOL    HW2 5205   0.389   0.533   3.510
 1436SOL     OW 5206   5.705   2.379   0.617
 1436SOL    HW1 5207   5.732   2.453   0.556
 1436SOL    HW2 5208   5.717   2.408   0.712
 1437SOL     OW 5209   4.685   1.197   6.218
 1437SOL    HW1 5210   4.619   1.156   6.281
 1437SOL    HW2 5211   4.752   1.128   6.191
 1438SOL     OW 5212   2.797   0.947   1.702
 1438SOL    HW1 5213   2.834   1.020   1.759
 1438SOL    HW2 5214   2.757   0.986   1.619
 1439SOL     OW 5215   6.913   5.692   6.673
 1439SOL    HW1 5216   7.006   5.721   6.649
 1439SOL    HW2 5217   6.901   5.697   6.772
 1440SOL     OW 5218   3.254   2.966   4.160
 1440SOL    HW1 5219   3.185   3.020   4.208
 1440SOL    HW2 5220   3.230   2.956   4.064
 1441SOL     OW 5221   6.356   3.192   4.396
 1441SOL    HW1 5222   6.392   3.253   4.467
 1441SOL    HW2 5223   6.317   3.110   4.440
 1442SOL     OW 5224   5.366   4.608   0.638
 1442SOL    HW1 5225   5.365   4.599   0.538
 1442SOL    HW2 5226   5.458   4.592   0.672
 1443SOL     OW 5227   1.070   1.021   3.483
 1443SOL    HW1 5228   1.086   1.050   3.577
 1443SOL    HW2 5229   1.118   1.081   3.420
 1444SOL     OW 5230   4.414   0.166   3.386
 1444SOL    HW1 5231   4.494   0.223   3.405
 1444SOL    HW2 5232   4.421   0.128   3.294
 1445SOL     OW 5233   0.073   2.725   1.445
 1445SOL    HW1 5234   0.065   2.653   1.515
 1445SOL    HW2 5235   0.168   2.758   1.442
 1446SOL     OW 5236   3.932   1.847   1.378
 1446SOL    HW1 5237   3.955   1.908   1.454
 1446SOL    HW2 5238   3.840   1.811   1.392
 1447SOL     OW 5239   6.640   0.799   5.285
 1447SOL    HW1 5240   6.576   0.764   5.217
 1447SOL    HW2 5241   6.723   0.831   5.240
 1448SOL     OW 5242   5.587   1.265   0.506
 1448SOL    HW1 5243   5.602   1.361   0.480
 1448SOL    HW2 5244   5.505   1.258   0.562
 1449SOL     OW 5245   5.206   6.504   0.557
 1449SOL    HW1 5246   5.111   6.532   0.545
 1449SOL    HW2 5247   5.241   6.466   0.472
 1450SOL     OW 5248   5.749   2.736   2.738
 1450SOL    HW1 5249   5.725   2.825   2.700
 1450SOL    HW2 5250   5.692   2.717   2.817
 1451SOL     OW 5251   1.982   6.825   2.787
 1451SOL    HW1 5252   2.079   6.803   2.779
 1451SOL    HW2 5253   1.949   6.867   2.703
 1452SOL     OW 5254   5.325   0.621   4.906
 1452SOL    HW1 5255   5.322   0.601   5.004
 1452SOL    HW2 5256   5.379   0.551   4.860
 1453SOL     OW 5257   5.334   4.075   4.816
 1453SOL    HW1 5258   5.351   4.136   4.738
 1453SOL    HW2 5259   5.392   3.994   4.807
 1454SOL     OW 5260   5.377   3.024   1.958
 1454SOL    HW1 5261   5.300   3.028   2.022
 1454SOL    HW2 5262   5.411   2.930   1.953
 1455SOL     OW 5263   1.103   0.657   1.912
 1455SOL    HW1 5264   1.169   0.587   1.883
 1455SOL    HW2 5265   1.114   0.675   2.010
 1456SOL     OW 5266   6.710   6.875   4.421
 1456SOL    HW1 5267   6.731   6.973   4.430
 1456SOL    HW2 5268   6.683   6.856   4.327
 1457SOL     OW 5269   1.256   0.406   3.681
 1457SOL    HW1 5270   1.344   0.398   3.634
 1457SOL    HW2 5271   1.182   0.397   3.615
 1458SOL     OW 5272   5.055   6.864   5.773
 1458SOL    HW1 5273   4.999   6.784   5.749
 1458SOL    HW2 5274   5.111   6.842   5.852
 1459SOL     OW 5275   3.018   6.405   6.916
 1459SOL    HW1 5276   3.090   6.469   6.943
 1459SOL    HW2 5277   3.028   6.383   6.819
 1460SOL     OW 5278   0.909   6.535   6.967
 1460SOL    HW1 5279   0.982   6.467   6.955
 1460SOL    HW2 5280   0.933   6.618   6.917
 1461SOL     OW 5281   5.747   4.254   3.388
 1461SOL    HW1 5282   5.704   4.189   3.451
 1461SOL    HW2 5283   5.845   4.256   3.402
 1462SOL     OW 5284   6.342   0.960   0.984
 1462SOL    HW1 5285   6.423   0.953   1.043
 1462SOL    HW2 5286   6.334   1.054   0.951
 1463SOL     OW 5287   0.589   0.364   4.872
 1463SOL    HW1 5288   0.576   0.314   4.959
 1463SOL    HW2 5289   0.685   0.362   4.847
 1464SOL     OW 5290   0.422   6.630   0.592
 1464SOL    HW1 5291   0.472   6.677   0.665
 1464SOL    HW2 5292   0.482   6.618   0.513
 1465SOL     OW 5293   7.009   0.383   3.804
 1465SOL    HW1 5294   0.069   0.333   3.761
 1465SOL    HW2 5295   6.951   0.423   3.733
 1466SOL     OW 5296   6.538   5.625   2.472
 1466SOL    HW1 5297   6.575   5.595   2.383
 1466SOL    HW2 5298   6.485   5.550   2.512
 1467SOL     OW 5299   1.676   1.194   3.168
 1467SOL    HW1 5300   1.596   1.133   3.171
 1467SOL    HW2 5301   1.726   1.177   3.083
 1468SOL     OW 5302   5.650   5.520   3.664
 1468SOL    HW1 5303   5.600   5.491   3.582
 1468SOL    HW2 5304   5.740   5.555   3.637
 1469SOL     OW 5305   0.324   0.396   2.523
 1469SOL    HW1 5306   0.333   0.493   2.547
 1469SOL    HW2 5307   0.240   0.359   2.562
 1470SOL     OW 5308   1.478   0.946   2.918
 1470SOL    HW1 5309   1.447   0.883   2.846
 1470SOL    HW2 5310   1.529   1.021   2.877
 1471SOL     OW 5311   7.009   0.215   0.286
 1471SOL    HW1 5312   7.011   0.231   0.385
 1471SOL    HW2 5313   6.924   0.168   0.262
 1472SOL     OW 5314   4.590   0.326   5.289
 1472SOL    HW1 5315   4.531   0.368   5.219
 1472SOL    HW2 5316   4.680   0.369   5.286
 1473SOL     OW 5317   6.452   5.387   2.909
 1473SOL    HW1 5318   6.370   5.404   2.964
 1473SOL    HW2 5319   6.525   5.449   2.938
 1474SOL     OW 5320   6.308   5.584   3.987
 1474SOL    HW1 5321   6.310   5.504   3.928
 1474SOL    HW2 5322   6.400   5.605   4.019
 1475SOL     OW 5323   0.028   0.373   2.614
 1475SOL    HW1 5324   0.030   0.320   2.698
 1475SOL    HW2 5325   7.000   0.320   2.541
 1476SOL     OW 5326   1.582   1.058   2.220
 1476SOL    HW1 5327   1.484   1.045   2.202
 1476SOL    HW2 5328   1.620   1.122   2.152
 1477SOL     OW 5329   3.326   0.348   5.589
 1477SOL    HW1 5330   3.362   0.260   5.622
 1477SOL    HW2 5331   3.228   0.340   5.574
 1478SOL     OW 5332   6.373   5.333   0.884
 1478SOL    HW1 5333   6.344   5.414   0.832
 1478SOL    HW2 5334   6.467   5.347   0.916
 1479SOL     OW 5335   1.810   4.887   0.488
 1479SOL    HW1 5336   1.846   4.815   0.429
 1479SOL    HW2 5337   1.716   4.865   0.514
 1480SOL     OW 5338   1.817   1.502   6.239
 1480SOL    HW1 5339   1.888   1.567   6.267
 1480SOL    HW2 5340   1.778   1.459   6.320
 1481SOL     OW 5341   6.056   2.181   5.800
 1481SOL    HW1 5342   6.155   2.192   5.790
 1481SOL    HW2 5343   6.013   2.272   5.804
 1482SOL     OW 5344   5.431   0.816   0.708
 1482SOL    HW1 5345   5.525   0.795   0.735
 1482SOL    HW2 5346   5.374   0.819   0.790
 1483SOL     OW 5347   6.630   2.445   0.146
 1483SOL    HW1 5348   6.539   2.427   0.107
 1483SOL    HW2 5349   6.624   2.520   0.212
 1484SOL     OW 5350   6.852   4.458   2.082
 1484SOL    HW1 5351   6.882   4.369   2.114
 1484SOL    HW2 5352   6.833   4.454   1.984
 1485SOL     OW 5353   5.494   2.767   2.847
 1485SOL    HW1 5354   5.501   2.863   2.874
 1485SOL    HW2 5355   5.399   2.745   2.828
 1486SOL     OW 5356   4.806   2.175   3.184
 1486SOL    HW1 5357   4.796   2.161   3.085
 1486SOL    HW2 5358   4.768   2.097   3.233
 1487SOL     OW 5359   5.840   1.398   6.235
 1487SOL    HW1 5360   5.873   1.392   6.141
 1487SOL    HW2 5361   5.741   1.417   6.233
 1488SOL     OW 5362   4.804   1.038   3.201
 1488SOL    HW1 5363   4.862   0.973   3.250
 1488SOL    HW2 5364   4.732   1.070   3.263
 1489SOL     OW 5365   3.808   4.994   4.892
 1489SOL    HW1 5366   3.845   5.064   4.831
 1489SOL    HW2 5367   3.795   4.909   4.841
 1490SOL     OW 5368   1.163   1.229   0.391
 1490SOL    HW1 5369   1.201   1.264   0.477
 1490SOL    HW2 5370   1.232   1.236   0.319
 1491SOL     OW 5371   6.930   3.704   3.153
 1491SOL    HW1 5372   6.918   3.803   3.150
 1491SOL    HW2 5373   0.003   3.682   3.196
 1492SOL     OW 5374   5.050   2.110   1.405
 1492SOL    HW1 5375   5.031   2.201   1.442
 1492SOL    HW2 5376   5.013   2.041   1.467
 1493SOL     OW 5377   4.276   0.441   4.925
 1493SOL    HW1 5378   4.308   0.529   4.890
 1493SOL    HW2 5379   4.302   0.369   4.861
 1494SOL     OW 5380   3.606   2.618   6.115
 1494SOL    HW1 5381   3.556   2.616   6.029
 1494SOL    HW2 5382   3.572   2.546   6.175
 1495SOL     OW 5383   0.852   3.649   2.934
 1495SOL    HW1 5384   0.903   3.567   2.958
 1495SOL    HW2 5385   0.858   3.665   2.836
 1496SOL     OW 5386   6.487   0.076   1.992
 1496SOL    HW1 5387   6.511   0.117   2.080
 1496SOL    HW2 5388   6.570   0.051   1.943
 1497SOL     OW 5389   0.115   5.374   4.133
 1497SOL    HW1 5390   0.183   5.323   4.080
 1497SOL    HW2 5391   0.159   5.452   4.177
 1498SOL     OW 5392   2.613   4.540   6.139
 1498SOL    HW1 5393   2.624   4.590   6.053
 1498SOL    HW2 5394   2.653   4.593   6.213
 1499SOL     OW 5395   1.061   3.649   5.024
 1499SOL    HW1 5396   1.047   3.608   5.114
 1499SOL    HW2 5397   1.074   3.748   5.034
 1500SOL     OW 5398   5.405   6.859   0.353
 1500SOL    HW1 5399   5.412   6.922   0.275
 1500SOL    HW2 5400   5.402   6.911   0.438
 1501SOL     OW 5401   4.279   0.419   6.489
 1501SOL    HW1 5402   4.244   0.340   6.540
 1501SOL    HW2 5403   4.330   0.479   6.551
 1502SOL     OW 5404   6.688   6.222   6.952
 1502SOL    HW1 5405   6.744   6.301   6.927
 1502SOL    HW2 5406   6.591   6.243   6.933
 1503SOL     OW 5407   2.124   2.516   0.165
 1503SOL    HW1 5408   2.097   2.583   0.096
 1503SOL    HW2 5409   2.160   2.435   0.119
 1504SOL     OW 5410   3.016   0.116   4.728
 1504SOL    HW1 5411   3.035   0.092   4.633
 1504SOL    HW2 5412   2.956   0.048   4.769
 1505SOL     OW 5413   5.757   0.235   5.259
 1505SOL    HW1 5414   5.686   0.276   5.316
 1505SOL    HW2 5415   5.755   0.135   5.270
 1506SOL     OW 5416   1.019   5.131   3.435
 1506SOL    HW1 5417   1.079   5.133   3.516
 1506SOL    HW2 5418   1.061   5.184   3.361
 1507SOL     OW 5419   1.809   2.147   4.701
 1507SOL    HW1 5420   1.807   2.202   4.618
 1507SOL    HW2 5421   1.860   2.195   4.772
 1508SOL     OW 5422   4.197   0.067   0.674
 1508SOL    HW1 5423   4.245   7.002   0.640
 1508SOL    HW2 5424   4.239   0.150   0.637
 1509SOL     OW 5425   4.631   3.372   6.222
 1509SOL    HW1 5426   4.543   3.330   6.240
 1509SOL    HW2 5427   4.662   3.348   6.129
 1510SOL     OW 5428   6.855   2.171   4.364
 1510SOL    HW1 5429   6.822   2.135   4.451
 1510SOL    HW2 5430   6.913   2.250   4.380
 1511SOL     OW 5431   2.818   1.841   6.657
 1511SOL    HW1 5432   2.774   1.886   6.580
 1511SOL    HW2 5433   2.888   1.777   6.624
 1512SOL     OW 5434   0.081   0.499   1.743
 1512SOL    HW1 5435   0.036   0.468   1.660
 1512SOL    HW2 5436   0.100   0.597   1.737
 1513SOL     OW 5437   3.571   0.244   4.122
 1513SOL    HW1 5438   3.502   0.306   4.082
 1513SOL    HW2 5439   3.661   0.271   4.090
 1514SOL     OW 5440   5.608   1.880   5.341
 1514SOL    HW1 5441   5.635   1.976   5.348
 1514SOL    HW2 5442   5.626   1.834   5.429
 1515SOL     OW 5443   0.343   4.270   5.294
 1515SOL    HW1 5444   0.430   4.236   5.328
 1515SOL    HW2 5445   0.305   4.205   5.228
 1516SOL     OW 5446   0.797   1.485   0.905
 1516SOL    HW1 5447   0.712   1.529   0.934
 1516SOL    HW2 5448   0.861   1.555   0.873
 1517SOL     OW 5449   4.401   5.134   3.459
 1517SOL    HW1 5450   4.475   5.176   3.406
 1517SOL    HW2 5451   4.348   5.073   3.400
 1518SOL     OW 5452   6.787   4.123   0.403
 1518SOL    HW1 5453   6.742   4.113   0.315
 1518SOL    HW2 5454   6.818   4.034   0.435
 1519SOL     OW 5455   6.796   4.892   1.063
 1519SOL    HW1 5456   6.891   4.862   1.059
 1519SOL    HW2 5457   6.746   4.836   1.129
 1520SOL     OW 5458   2.050   3.476   2.174
 1520SOL    HW1 5459   2.113   3.481   2.096
 1520SOL    HW2 5460   2.094   3.428   2.249
 1521SOL     OW 5461   1.528   3.153   0.120
 1521SOL    HW1 5462   1.429   3.144   0.105
 1521SOL    HW2 5463   1.560   3.075   0.175
 1522SOL     OW 5464   7.010   1.861   6.206
 1522SOL    HW1 5465   7.010   1.784   6.270
 1522SOL    HW2 5466   0.017   1.945   6.255
 1523SOL     OW 5467   6.292   2.882   0.072
 1523SOL    HW1 5468   6.203   2.860   0.031
 1523SOL    HW2 5469   6.336   2.955   0.020
 1524SOL     OW 5470   0.243   1.550   1.625
 1524SOL    HW1 5471   0.317   1.539   1.559
 1524SOL    HW2 5472   0.280   1.572   1.714
 1525SOL     OW 5473   4.165   1.265   5.783
 1525SOL    HW1 5474   4.075   1.233   5.810
 1525SOL    HW2 5475   4.192   1.342   5.841
 1526SOL     OW 5476   6.964   1.777   1.456
 1526SOL    HW1 5477   0.026   1.787   1.519
 1526SOL    HW2 5478   6.987   1.708   1.387
 1527SOL     OW 5479   3.550   1.636   4.969
 1527SOL    HW1 5480   3.512   1.683   4.889
 1527SOL    HW2 5481   3.593   1.704   5.029
 1528SOL     OW 5482   4.639   6.443   2.750
 1528SOL    HW1 5483   4.642   6.482   2.842
 1528SOL    HW2 5484   4.619   6.345   2.755
 1529SOL     OW 5485   4.267   0.804   5.744
 1529SOL    HW1 5486   4.294   0.721   5.794
 1529SOL    HW2 5487   4.170   0.798   5.720
 1530SOL     OW 5488   2.881   6.430   1.968
 1530SOL    HW1 5489   2.797   6.484   1.958
 1530SOL    HW2 5490   2.895   6.373   1.888
 1531SOL     OW 5491   6.376   0.424   4.229
 1531SOL    HW1 5492   6.323   0.440   4.311
 1531SOL    HW2 5493   6.328   0.461   4.150
 1532SOL     OW 5494   3.255   2.266   5.425
 1532SOL    HW1 5495   3.226   2.312   5.341
 1532SOL    HW2 5496   3.176   2.221   5.468
 1533SOL     OW 5497   6.608   3.504   0.077
 1533SOL    HW1 5498   6.513   3.482   0.057
 1533SOL    HW2 5499   6.631   3.593   0.039
 1534SOL     OW 5500   1.858   5.963   0.681
 1534SOL    HW1 5501   1.790   5.935   0.749
 1534SOL    HW2 5502   1.950   5.940   0.713
 1535SOL     OW 5503   5.351   4.855   4.427
 1535SOL    HW1 5504   5.303   4.864   4.514
 1535SOL    HW2 5505   5.433   4.799   4.440
 1536SOL     OW 5506   2.342   5.720   4.185
 1536SOL    HW1 5507   2.413   5.655   4.213
 1536SOL    HW2 5508   2.380   5.781   4.115
 1537SOL     OW 5509   2.728   5.513   3.655
 1537SOL    HW1 5510   2.768   5.501   3.746
 1537SOL    HW2 5511   2.800   5.541   3.591
 1538SOL     OW 5512   2.631   4.432   6.953
 1538SOL    HW1 5513   2.597   4.429   6.859
 1538SOL    HW2 5514   2.584   4.361   7.006
 1539SOL     OW 5515   3.693   4.403   1.699
 1539SOL    HW1 5516   3.775   4.430   1.751
 1539SOL    HW2 5517   3.620   4.469   1.717
 1540SOL     OW 5518   0.821   0.428   4.546
 1540SOL    HW1 5519   0.880   0.501   4.579
 1540SOL    HW2 5520   0.867   0.340   4.557
 1541SOL     OW 5521   3.788   2.845   1.107
 1541SOL    HW1 5522   3.696   2.872   1.078
 1541SOL    HW2 5523   3.783   2.762   1.162
 1542SOL     OW 5524   0.284   6.082   1.562
 1542SOL    HW1 5525   0.381   6.099   1.546
 1542SOL    HW2 5526   0.257   5.997   1.517
 1543SOL     OW 5527   3.354   3.515   3.952
 1543SOL    HW1 5528   3.408   3.599   3.955
 1543SOL    HW2 5529   3.318   3.496   4.044
 1544SOL     OW 5530   3.043   3.923   2.314
 1544SOL    HW1 5531   3.130   3.965   2.340
 1544SOL    HW2 5532   3.017   3.954   2.222
 1545SOL     OW 5533   6.016   0.816   5.196
 1545SOL    HW1 5534   6.110   0.842   5.215
 1545SOL    HW2 5535   5.976   0.880   5.130
 1546SOL     OW 5536   6.446   0.055   6.305
 1546SOL    HW1 5537   6.366   0.111   6.286
 1546SOL    HW2 5538   6.473   0.066   6.401
 1547SOL     OW 5539   2.902   4.992   2.587
 1547SOL    HW1 5540   2.846   5.033   2.660
 1547SOL    HW2 5541   2.935   5.064   2.526
 1548SOL     OW 5542   3.962   4.782   5.336
 1548SOL    HW1 5543   4.036   4.819   5.392
 1548SOL    HW2 5544   3.972   4.683   5.331
 1549SOL     OW 5545   6.751   2.061   1.730
 1549SOL    HW1 5546   6.798   1.980   1.697
 1549SOL    HW2 5547   6.690   2.095   1.659
 1550SOL     OW 5548   2.258   6.385   5.110
 1550SOL    HW1 5549   2.199   6.393   5.190
 1550SOL    HW2 5550   2.312   6.301   5.116
 1551SOL     OW 5551   1.739   2.902   1.164
 1551SOL    HW1 5552   1.746   2.848   1.248
 1551SOL    HW2 5553   1.733   2.999   1.187
 1552SOL     OW 5554   1.478   0.170   1.243
 1552SOL    HW1 5555   1.432   0.213   1.165
 1552SOL    HW2 5556   1.575   0.195   1.243
 1553SOL     OW 5557   6.228   1.692   0.058
 1553SOL    HW1 5558   6.276   1.709   6.987
 1553SOL    HW2 5559   6.146   1.638   0.040
 1554SOL     OW 5560   4.162   2.244   3.006
 1554SOL    HW1 5561   4.206   2.327   2.973
 1554SOL    HW2 5562   4.213   2.164   2.974
 1555SOL     OW 5563   4.762   1.591   4.807
 1555SOL    HW1 5564   4.751   1.529   4.884
 1555SOL    HW2 5565   4.697   1.667   4.816
 1556SOL     OW 5566   3.776   0.331   0.620
 1556SOL    HW1 5567   3.731   0.417   0.598
 1556SOL    HW2 5568   3.791   0.326   0.719
 1557SOL     OW 5569   1.958   2.573   1.151
 1557SOL    HW1 5570   1.862   2.552   1.170
 1557SOL    HW2 5571   2.008   2.577   1.238
 1558SOL     OW 5572   6.599   2.745   5.290
 1558SOL    HW1 5573   6.520   2.720   5.235
 1558SOL    HW2 5574   6.586   2.714   5.384
 1559SOL     OW 5575   1.030   4.001   2.302
 1559SOL    HW1 5576   0.964   3.982   2.376
 1559SOL    HW2 5577   1.003   4.085   2.255
 1560SOL     OW 5578   3.870   1.396   0.437
 1560SOL    HW1 5579   3.877   1.412   0.535
 1560SOL    HW2 5580   3.801   1.458   0.398
 1561SOL     OW 5581   5.716   6.300   2.237
 1561SOL    HW1 5582   5.776   6.270   2.312
 1561SOL    HW2 5583   5.639   6.237   2.229
 1562SOL     OW 5584   3.116   6.880   2.346
 1562SOL    HW1 5585   3.020   6.889   2.317
 1562SOL    HW2 5586   3.158   6.803   2.297
 1563SOL     OW 5587   3.179   2.100   4.783
 1563SOL    HW1 5588   3.207   2.023   4.841
 1563SOL    HW2 5589   3.131   2.168   4.839
 1564SOL     OW 5590   1.555   1.893   2.309
 1564SOL    HW1 5591   1.464   1.874   2.272
 1564SOL    HW2 5592   1.624   1.856   2.247
 1565SOL     OW 5593   3.972   6.337   3.873
 1565SOL    HW1 5594   4.066   6.359   3.846
 1565SOL    HW2 5595   3.922   6.304   3.793
 1566SOL     OW 5596   5.337   4.643   3.730
 1566SOL    HW1 5597   5.337   4.693   3.817
 1566SOL    HW2 5598   5.368   4.703   3.656
 1567SOL     OW 5599   5.655   5.820   6.580
 1567SOL    HW1 5600   5.575   5.760   6.587
 1567SOL    HW2 5601   5.697   5.809   6.490
 1568SOL     OW 5602   1.846   6.673   3.783
 1568SOL    HW1 5603   1.765   6.624   3.751
 1568SOL    HW2 5604   1.882   6.729   3.708
 1569SOL     OW 5605   3.273   0.409   2.974
 1569SOL    HW1 5606   3.296   0.426   2.878
 1569SOL    HW2 5607   3.349   0.362   3.018
 1570SOL     OW 5608   3.143   6.867   0.104
 1570SOL    HW1 5609   3.241   6.873   0.125
 1570SOL    HW2 5610   3.113   6.772   0.114
 1571SOL     OW 5611   1.000   2.357   3.602
 1571SOL    HW1 5612   0.961   2.431   3.657
 1571SOL    HW2 5613   1.093   2.382   3.574
 1572SOL     OW 5614   1.965   5.040   1.609
 1572SOL    HW1 5615   1.903   4.965   1.588
 1572SOL    HW2 5616   1.960   5.108   1.536
 1573SOL     OW 5617   4.922   5.368   1.382
 1573SOL    HW1 5618   4.962   5.364   1.474
 1573SOL    HW2 5619   4.824   5.347   1.388
 1574SOL     OW 5620   6.379   3.442   2.139
 1574SOL    HW1 5621   6.426   3.503   2.203
 1574SOL    HW2 5622   6.368   3.352   2.182
 1575SOL     OW 5623   1.268   0.827   1.564
 1575SOL    HW1 5624   1.219   0.757   1.512
 1575SOL    HW2 5625   1.210   0.860   1.638
 1576SOL     OW 5626   0.323   6.244   2.766
 1576SOL    HW1 5627   0.248   6.221   2.828
 1576SOL    HW2 5628   0.407   6.201   2.797
 1577SOL     OW 5629   3.165   0.242   6.656
 1577SOL    HW1 5630   3.222   0.234   6.737
 1577SOL    HW2 5631   3.139   0.337   6.641
 1578SOL     OW 5632   3.880   0.998   0.454
 1578SOL    HW1 5633   3.957   1.046   0.497
 1578SOL    HW2 5634   3.910   0.958   0.368
 1579SOL     OW 5635   1.222   2.710   1.550
 1579SOL    HW1 5636   1.317   2.740   1.558
 1579SOL    HW2 5637   1.192   2.723   1.455
 1580SOL     OW 5638   3.447   3.798   3.357
 1580SOL    HW1 5639   3.475   3.705   3.380
 1580SOL    HW2 5640   3.371   3.794   3.291
 1581SOL     OW 5641   0.362   4.496   6.100
 1581SOL    HW1 5642   0.372   4.452   6.010
 1581SOL    HW2 5643   0.272   4.538   6.106
 1582SOL     OW 5644   4.524   6.289   5.571
 1582SOL    HW1 5645   4.444   6.233   5.592
 1582SOL    HW2 5646   4.607   6.235   5.585
 1583SOL     OW 5647   0.816   6.368   4.963
 1583SOL    HW1 5648   0.721   6.360   4.934
 1583SOL    HW2 5649   0.876   6.339   4.888
 1584SOL     OW 5650   1.571   5.616   6.450
 1584SOL    HW1 5651   1.478   5.580   6.456
 1584SOL    HW2 5652   1.572   5.711   6.480
 1585SOL     OW 5653   4.121   1.086   3.586
 1585SOL    HW1 5654   4.148   1.111   3.678
 1585SOL    HW2 5655   4.150   1.158   3.522
 1586SOL     OW 5656   2.982   5.496   3.287
 1586SOL    HW1 5657   2.970   5.585   3.333
 1586SOL    HW2 5658   2.901   5.476   3.232
 1587SOL     OW 5659   2.266   5.828   6.016
 1587SOL    HW1 5660   2.272   5.862   6.110
 1587SOL    HW2 5661   2.208   5.746   6.014
 1588SOL     OW 5662   4.570   0.420   2.555
 1588SOL    HW1 5663   4.503   0.346   2.547
 1588SOL    HW2 5664   4.548   0.492   2.490
 1589SOL     OW 5665   6.136   3.653   2.487
 1589SOL    HW1 5666   6.065   3.583   2.494
 1589SOL    HW2 5667   6.198   3.646   2.565
 1590SOL     OW 5668   5.325   2.122   3.045
 1590SOL    HW1 5669   5.240   2.088   3.004
 1590SOL    HW2 5670   5.321   2.222   3.051
 1591SOL     OW 5671   6.869   5.621   1.368
 1591SOL    HW1 5672   6.942   5.645   1.430
 1591SOL    HW2 5673   6.864   5.688   1.294
 1592SOL     OW 5674   1.497   4.350   6.560
 1592SOL    HW1 5675   1.589   4.350   6.521
 1592SOL    HW2 5676   1.497   4.398   6.647
 1593SOL     OW 5677   1.167   0.226   6.459
 1593SOL    HW1 5678   1.227   0.169   6.404
 1593SOL    HW2 5679   1.163   0.191   6.553
 1594SOL     OW 5680   6.860   0.397   2.021
 1594SOL    HW1 5681   6.818   0.364   1.937
 1594SOL    HW2 5682   6.956   0.367   2.024
 1595SOL     OW 5683   2.001   3.721   6.931
 1595SOL    HW1 5684   2.034   3.685   6.844
 1595SOL    HW2 5685   1.990   3.646   6.997
 1596SOL     OW 5686   6.038   3.872   3.559
 1596SOL    HW1 5687   5.949   3.842   3.524
 1596SOL    HW2 5688   6.087   3.920   3.487
 1597SOL     OW 5689   2.601   5.570   0.768
 1597SOL    HW1 5690   2.677   5.516   0.732
 1597SOL    HW2 5691   2.551   5.517   0.836
 1598SOL     OW 5692   1.825   5.744   6.762
 1598SOL    HW1 5693   1.849   5.668   6.701
 1598SOL    HW2 5694   1.838   5.716   6.857
 1599SOL     OW 5695   3.818   5.207   4.416
 1599SOL    HW1 5696   3.834   5.293   4.463
 1599SOL    HW2 5697   3.884   5.198   4.341
 1600SOL     OW 5698   3.640   0.978   2.901
 1600SOL    HW1 5699   3.676   1.062   2.859
 1600SOL    HW2 5700   3.541   0.985   2.910
 1601SOL     OW 5701   6.365   6.527   3.749
 1601SOL    HW1 5702   6.411   6.501   3.834
 1601SOL    HW2 5703   6.367   6.451   3.685
 1602SOL     OW 5704   4.783   5.482   3.919
 1602SOL    HW1 5705   4.860   5.420   3.934
 1602SOL    HW2 5706   4.815   5.568   3.881
 1603SOL     OW 5707   2.915   5.590   4.021
 1603SOL    HW1 5708   2.972   5.609   4.101
 1603SOL    HW2 5709   2.928   5.664   3.954
 1604SOL     OW 5710   3.965   4.893   2.227
 1604SOL    HW1 5711   4.031   4.968   2.220
 1604SOL    HW2 5712   4.003   4.821   2.284
 1605SOL     OW 5713   5.579   5.458   1.745
 1605SOL    HW1 5714   5.542   5.366   1.733
 1605SOL    HW2 5715   5.658   5.471   1.685
 1606SOL     OW 5716   3.948   5.634   4.716
 1606SOL    HW1 5717   3.991   5.692   4.785
 1606SOL    HW2 5718   3.849   5.643   4.721
 1607SOL     OW 5719   4.178   0.272   2.182
 1607SOL    HW1 5720   4.107   0.215   2.141
 1607SOL    HW2 5721   4.251   0.214   2.218
 1608SOL     OW 5722   0.100   0.827   3.228
 1608SOL    HW1 5723   0.080   0.819   3.130
 1608SOL    HW2 5724   0.115   0.924   3.251
 1609SOL     OW 5725   3.284   6.130   0.581
 1609SOL    HW1 5726   3.294   6.040   0.538
 1609SOL    HW2 5727   3.353   6.192   0.546
 1610SOL     OW 5728   4.725   6.171   0.630
 1610SOL    HW1 5729   4.701   6.230   0.554
 1610SOL    HW2 5730   4.820   6.189   0.657
 1611SOL     OW 5731   1.378   3.799   1.102
 1611SOL    HW1 5732   1.352   3.704   1.088
 1611SOL    HW2 5733   1.400   3.842   1.014
 1612SOL     OW 5734   2.878   5.767   1.192
 1612SOL    HW1 5735   2.901   5.679   1.149
 1612SOL    HW2 5736   2.846   5.830   1.121
 1613SOL     OW 5737   0.612   5.957   2.463
 1613SOL    HW1 5738   0.592   5.902   2.545
 1613SOL    HW2 5739   0.648   6.046   2.491
 1614SOL     OW 5740   5.607   2.288   6.470
 1614SOL    HW1 5741   5.666   2.299   6.390
 1614SOL    HW2 5742   5.648   2.223   6.534
 1615SOL     OW 5743   0.241   5.104   6.638
 1615SOL    HW1 5744   0.239   5.005   6.652
 1615SOL    HW2 5745   0.279   5.149   6.719
 1616SOL     OW 5746   3.731   0.844   5.183
 1616SOL    HW1 5747   3.778   0.931   5.167
 1616SOL    HW2 5748   3.728   0.825   5.281
 1617SOL     OW 5749   4.772   0.348   3.247
 1617SOL    HW1 5750   4.715   0.357   3.329
 1617SOL    HW2 5751   4.815   0.435   3.226
 1618SOL     OW 5752   1.725   6.055   2.563
 1618SOL    HW1 5753   1.687   5.970   2.600
 1618SOL    HW2 5754   1.822   6.044   2.545
 1619SOL     OW 5755   1.479   5.455   0.261
 1619SOL    HW1 5756   1.423   5.405   0.195
 1619SOL    HW2 5757   1.552   5.395   0.295
 1620SOL     OW 5758   2.629   5.192   0.952
 1620SOL    HW1 5759   2.723   5.208   0.923
 1620SOL    HW2 5760   2.599   5.101   0.923
 1621SOL     OW 5761   5.993   6.209   1.445
 1621SOL    HW1 5762   5.916   6.235   1.387
 1621SOL    HW2 5763   5.973   6.234   1.540
 1622SOL     OW 5764   0.804   4.257   6.094
 1622SOL    HW1 5765   0.748   4.195   6.039
 1622SOL    HW2 5766   0.892   4.273   6.048
 1623SOL     OW 5767   0.475   2.172   4.833
 1623SOL    HW1 5768   0.402   2.232   4.865
 1623SOL    HW2 5769   0.490   2.099   4.900
 1624SOL     OW 5770   3.431   1.209   0.294
 1624SOL    HW1 5771   3.422   1.305   0.268
 1624SOL    HW2 5772   3.526   1.180   0.283
 1625SOL     OW 5773   1.643   5.303   0.413
 1625SOL    HW1 5774   1.661   5.397   0.443
 1625SOL    HW2 5775   1.693   5.239   0.471
 1626SOL     OW 5776   2.891   1.993   2.610
 1626SOL    HW1 5777   2.939   1.909   2.636
 1626SOL    HW2 5778   2.801   1.970   2.573
 1627SOL     OW 5779   5.225   2.927   4.193
 1627SOL    HW1 5780   5.195   2.944   4.099
 1627SOL    HW2 5781   5.325   2.922   4.195
 1628SOL     OW 5782   4.990   5.846   6.600
 1628SOL    HW1 5783   5.064   5.889   6.548
 1628SOL    HW2 5784   5.028   5.775   6.659
 1629SOL     OW 5785   2.717   2.017   3.163
 1629SOL    HW1 5786   2.804   2.022   3.212
 1629SOL    HW2 5787   2.735   2.018   3.064
 1630SOL     OW 5788   0.115   4.140   6.583
 1630SOL    HW1 5789   0.195   4.197   6.564
 1630SOL    HW2 5790   0.120   4.105   6.676
 1631SOL     OW 5791   6.683   3.432   1.158
 1631SOL    HW1 5792   6.720   3.524   1.163
 1631SOL    HW2 5793   6.750   3.366   1.191
 1632SOL     OW 5794   5.153   4.311   2.972
 1632SOL    HW1 5795   5.095   4.348   2.900
 1632SOL    HW2 5796   5.249   4.327   2.950
 1633SOL     OW 5797   4.782   4.340   3.984
 1633SOL    HW1 5798   4.759   4.417   4.043
 1633SOL    HW2 5799   4.779   4.255   4.038
 1634SOL     OW 5800   3.691   0.556   4.359
 1634SOL    HW1 5801   3.769   0.607   4.323
 1634SOL    HW2 5802   3.717   0.460   4.371
 1635SOL     OW 5803   2.736   5.030   6.454
 1635SOL    HW1 5804   2.690   5.110   6.493
 1635SOL    HW2 5805   2.819   5.059   6.405
 1636SOL     OW 5806   3.938   6.051   0.861
 1636SOL    HW1 5807   3.883   6.118   0.811
 1636SOL    HW2 5808   4.018   6.026   0.806
 1637SOL     OW 5809   6.852   6.839   3.359
 1637SOL    HW1 5810   6.801   6.753   3.360
 1637SOL    HW2 5811   6.938   6.826   3.310
 1638SOL     OW 5812   0.352   2.854   1.384
 1638SOL    HW1 5813   0.370   2.930   1.322
 1638SOL    HW2 5814   0.360   2.768   1.334
 1639SOL     OW 5815   6.490   3.888   1.492
 1639SOL    HW1 5816   6.412   3.941   1.458
 1639SOL    HW2 5817   6.457   3.814   1.550
 1640SOL     OW 5818   6.328   6.962   1.155
 1640SOL    HW1 5819   6.298   0.038   1.128
 1640SOL    HW2 5820   6.414   6.940   1.110
 1641SOL     OW 5821   6.778   1.768   3.606
 1641SOL    HW1 5822   6.733   1.680   3.621
 1641SOL    HW2 5823   6.717   1.828   3.555
 1642SOL     OW 5824   6.793   2.448   6.689
 1642SOL    HW1 5825   6.810   2.385   6.764
 1642SOL    HW2 5826   6.864   2.437   6.619
 1643SOL     OW 5827   3.394   5.274   3.340
 1643SOL    HW1 5828   3.320   5.207   3.340
 1643SOL    HW2 5829   3.444   5.270   3.254
 1644SOL     OW 5830   6.007   2.638   0.115
 1644SOL    HW1 5831   5.908   2.647   0.128
 1644SOL    HW2 5832   6.030   2.661   0.021
 1645SOL     OW 5833   3.045   0.304   6.299
 1645SOL    HW1 5834   3.108   0.227   6.304
 1645SOL    HW2 5835   3.057   0.362   6.380
 1646SOL     OW 5836   1.822   6.469   6.502
 1646SOL    HW1 5837   1.744   6.528   6.520
 1646SOL    HW2 5838   1.792   6.388   6.452
 1647SOL     OW 5839   5.667   2.921   3.981
 1647SOL    HW1 5840   5.759   2.889   4.005
 1647SOL    HW2 5841   5.635   2.871   3.901
 1648SOL     OW 5842   5.541   6.302   0.142
 1648SOL    HW1 5843   5.590   6.324   0.226
 1648SOL    HW2 5844   5.534   6.202   0.132
 1649SOL     OW 5845   3.287   0.733   3.772
 1649SOL    HW1 5846   3.226   0.757   3.696
 1649SOL    HW2 5847   3.334   0.815   3.803
 1650SOL     OW 5848   1.557   5.316   6.239
 1650SOL    HW1 5849   1.485   5.360   6.294
 1650SOL    HW2 5850   1.533   5.220   6.224
 1651SOL     OW 5851   0.016   2.442   3.125
 1651SOL    HW1 5852   6.958   2.379   3.096
 1651SOL    HW2 5853   0.027   2.436   3.224
 1652SOL     OW 5854   1.057   3.254   1.658
 1652SOL    HW1 5855   1.119   3.247   1.580
 1652SOL    HW2 5856   0.962   3.247   1.626
 1653SOL     OW 5857   0.071   5.799   2.316
 1653SOL    HW1 5858   0.017   5.745   2.253
 1653SOL    HW2 5859   0.161   5.816   2.277
 1654SOL     OW 5860   0.710   3.364   1.373
 1654SOL    HW1 5861   0.640   3.426   1.338
 1654SOL    HW2 5862   0.698   3.273   1.332
 1655SOL     OW 5863   0.119   0.869   4.403
 1655SOL    HW1 5864   0.174   0.890   4.321
 1655SOL    HW2 5865   0.173   0.812   4.465
 1656SOL     OW 5866   2.313   5.589   3.790
 1656SOL    HW1 5867   2.356   5.643   3.718
 1656SOL    HW2 5868   2.325   5.492   3.770
 1657SOL     OW 5869   6.409   1.443   4.804
 1657SOL    HW1 5870   6.408   1.490   4.716
 1657SOL    HW2 5871   6.327   1.386   4.812
 1658SOL     OW 5872   6.994   0.193   0.557
 1658SOL    HW1 5873   0.013   0.226   0.645
 1658SOL    HW2 5874   6.979   0.094   0.562
 1659SOL     OW 5875   4.196   0.113   0.088
 1659SOL    HW1 5876   4.270   0.050   0.063
 1659SOL    HW2 5877   4.127   0.063   0.141
 1660SOL     OW 5878   1.676   6.885   2.285
 1660SOL    HW1 5879   1.708   6.956   2.348
 1660SOL    HW2 5880   1.592   6.845   2.320
 1661SOL     OW 5881   2.816   5.410   1.835
 1661SOL    HW1 5882   2.799   5.367   1.923
 1661SOL    HW2 5883   2.858   5.500   1.849
 1662SOL     OW 5884   6.782   1.049   5.339
 1662SOL    HW1 5885   6.763   1.147   5.339
 1662SOL    HW2 5886   6.700   0.999   5.368
 1663SOL     OW 5887   5.117   5.198   2.608
 1663SOL    HW1 5888   5.215   5.190   2.626
 1663SOL    HW2 5889   5.068   5.203   2.695
 1664SOL     OW 5890   1.277   0.728   5.207
 1664SOL    HW1 5891   1.363   0.734   5.258
 1664SOL    HW2 5892   1.220   0.654   5.245
 1665SOL     OW 5893   0.983   3.349   1.366
 1665SOL    HW1 5894   0.890   3.380   1.346
 1665SOL    HW2 5895   1.047   3.423   1.347
 1666SOL     OW 5896   5.533   6.632   6.708
 1666SOL    HW1 5897   5.508   6.728   6.694
 1666SOL    HW2 5898   5.523   6.583   6.622
 1667SOL     OW 5899   6.922   6.621   1.062
 1667SOL    HW1 5900   6.849   6.657   1.004
 1667SOL    HW2 5901   6.937   6.683   1.139
 1668SOL     OW 5902   5.089   5.063   3.702
 1668SOL    HW1 5903   5.073   5.082   3.605
 1668SOL    HW2 5904   5.042   4.978   3.727
 1669SOL     OW 5905   0.146   4.433   5.393
 1669SOL    HW1 5906   0.228   4.386   5.360
 1669SOL    HW2 5907   0.069   4.370   5.393
 1670SOL     OW 5908   1.257   4.823   5.701
 1670SOL    HW1 5909   1.265   4.830   5.601
 1670SOL    HW2 5910   1.339   4.861   5.744
 1671SOL     OW 5911   5.133   1.718   3.074
 1671SOL    HW1 5912   5.097   1.730   2.982
 1671SOL    HW2 5913   5.168   1.625   3.084
 1672SOL     OW 5914   1.143   3.805   6.776
 1672SOL    HW1 5915   1.069   3.774   6.715
 1672SOL    HW2 5916   1.215   3.849   6.722
 1673SOL     OW 5917   2.273   1.817   5.007
 1673SOL    HW1 5918   2.206   1.804   5.080
 1673SOL    HW2 5919   2.250   1.759   4.930
 1674SOL     OW 5920   5.967   2.709   2.338
 1674SOL    HW1 5921   5.887   2.667   2.381
 1674SOL    HW2 5922   6.044   2.646   2.345
 1675SOL     OW 5923   4.795   0.244   0.922
 1675SOL    HW1 5924   4.713   0.200   0.886
 1675SOL    HW2 5925   4.805   0.222   1.019
 1676SOL     OW 5926   1.954   2.342   2.635
 1676SOL    HW1 5927   1.873   2.395   2.612
 1676SOL    HW2 5928   2.031   2.373   2.579
 1677SOL     OW 5929   3.765   4.074   2.961
 1677SOL    HW1 5930   3.772   4.117   2.871
 1677SOL    HW2 5931   3.803   3.981   2.956
 1678SOL     OW 5932   0.703   6.019   1.415
 1678SOL    HW1 5933   0.692   6.088   1.486
 1678SOL    HW2 5934   0.692   6.062   1.325
 1679SOL     OW 5935   1.221   1.316   5.208
 1679SOL    HW1 5936   1.307   1.282   5.170
 1679SOL    HW2 5937   1.161   1.346   5.133
 1680SOL     OW 5938   5.440   3.179   4.826
 1680SOL    HW1 5939   5.461   3.100   4.767
 1680SOL    HW2 5940   5.342   3.182   4.844
 1681SOL     OW 5941   1.806   5.583   4.949
 1681SOL    HW1 5942   1.889   5.610   4.901
 1681SOL    HW2 5943   1.738   5.656   4.943
 1682SOL     OW 5944   2.503   0.457   5.828
 1682SOL    HW1 5945   2.528   0.484   5.735
 1682SOL    HW2 5946   2.494   0.358   5.832
 1683SOL     OW 5947   5.344   6.164   3.045
 1683SOL    HW1 5948   5.426   6.178   3.101
 1683SOL    HW2 5949   5.294   6.083   3.077
 1684SOL     OW 5950   1.049   4.411   1.759
 1684SOL    HW1 5951   1.076   4.451   1.846
 1684SOL    HW2 5952   0.949   4.416   1.749
 1685SOL     OW 5953   2.066   2.189   5.557
 1685SOL    HW1 5954   2.012   2.179   5.641
 1685SOL    HW2 5955   2.143   2.125   5.559
 1686SOL     OW 5956   4.010   5.430   3.680
 1686SOL    HW1 5957   4.104   5.399   3.670
 1686SOL    HW2 5958   4.009   5.518   3.726
 1687SOL     OW 5959   0.443   4.179   1.497
 1687SOL    HW1 5960   0.541   4.169   1.515
 1687SOL    HW2 5961   0.404   4.246   1.559
 1688SOL     OW 5962   1.617   2.471   3.788
 1688SOL    HW1 5963   1.522   2.442   3.791
 1688SOL    HW2 5964   1.631   2.531   3.709
 1689SOL     OW 5965   6.682   1.140   2.479
 1689SOL    HW1 5966   6.631   1.078   2.419
 1689SOL    HW2 5967   6.719   1.215   2.425
 1690SOL     OW 5968   1.235   3.330   4.256
 1690SOL    HW1 5969   1.268   3.397   4.323
 1690SOL    HW2 5970   1.292   3.249   4.259
 1691SOL     OW 5971   4.888   3.636   4.131
 1691SOL    HW1 5972   4.893   3.626   4.230
 1691SOL    HW2 5973   4.807   3.690   4.107
 1692SOL     OW 5974   5.638   5.366   1.447
 1692SOL    HW1 5975   5.709   5.344   1.514
 1692SOL    HW2 5976   5.671   5.437   1.385
 1693SOL     OW 5977   0.114   1.724   4.479
 1693SOL    HW1 5978   0.089   1.820   4.469
 1693SOL    HW2 5979   0.155   1.691   4.394
 1694SOL     OW 5980   6.118   0.882   4.516
 1694SOL    HW1 5981   6.037   0.938   4.533
 1694SOL    HW2 5982   6.162   0.913   4.432
 1695SOL     OW 5983   3.542   0.692   6.760
 1695SOL    HW1 5984   3.502   0.724   6.846
 1695SOL    HW2 5985   3.634   0.729   6.750
 1696SOL     OW 5986   4.095   5.727   0.573
 1696SOL    HW1 5987   4.132   5.736   0.666
 1696SOL    HW2 5988   3.996   5.738   0.576
 1697SOL     OW 5989   5.750   2.364   0.908
 1697SOL    HW1 5990   5.674   2.418   0.944
 1697SOL    HW2 5991   5.836   2.401   0.942
 1698SOL     OW 5992   3.576   0.926   1.660
 1698SOL    HW1 5993   3.595   0.864   1.736
 1698SOL    HW2 5994   3.489   0.901   1.617
 1699SOL     OW 5995   2.429   1.861   5.997
 1699SOL    HW1 5996   2.478   1.936   6.040
 1699SOL    HW2 5997   2.421   1.785   6.062
 1700SOL     OW 5998   5.657   3.336   3.764
 1700SOL    HW1 5999   5.569   3.351   3.719
 1700SOL    HW2 6000   5.722   3.407   3.735
 1701SOL     OW 6001   6.128   5.117   5.025
 1701SOL    HW1 6002   6.048   5.128   4.966
 1701SOL    HW2 6003   6.173   5.206   5.037
 1702SOL     OW 6004   1.494   0.970   6.100
 1702SOL    HW1 6005   1.408   1.018   6.082
 1702SOL    HW2 6006   1.480   0.872   6.086
 1703SOL     OW 6007   3.806   1.498   5.695
 1703SOL    HW1 6008   3.796   1.400   5.684
 1703SOL    HW2 6009   3.740   1.532   5.761
 1704SOL     OW 6010   1.401   1.654   6.680
 1704SOL    HW1 6011   1.451   1.576   6.644
 1704SOL    HW2 6012   1.401   1.728   6.613
 1705SOL     OW 6013   3.926   1.898   1.945
 1705SOL    HW1 6014   3.957   1.976   2.000
 1705SOL    HW2 6015   3.838   1.867   1.979
 1706SOL     OW 6016   4.129   1.751   0.918
 1706SOL    HW1 6017   4.070   1.742   0.998
 1706SOL    HW2 6018   4.211   1.802   0.944
 1707SOL     OW 6019   4.682   1.864   3.075
 1707SOL    HW1 6020   4.637   1.894   2.991
 1707SOL    HW2 6021   4.680   1.764   3.080
 1708SOL     OW 6022   3.939   5.529   2.008
 1708SOL    HW1 6023   3.858   5.489   2.051
 1708SOL    HW2 6024   3.934   5.629   2.015
 1709SOL     OW 6025   4.294   6.656   0.895
 1709SOL    HW1 6026   4.363   6.628   0.828
 1709SOL    HW2 6027   4.334   6.721   0.960
 1710SOL     OW 6028   4.373   4.934   3.268
 1710SOL    HW1 6029   4.365   4.835   3.280
 1710SOL    HW2 6030   4.286   4.970   3.233
 1711SOL     OW 6031   2.692   4.758   5.675
 1711SOL    HW1 6032   2.789   4.779   5.679
 1711SOL    HW2 6033   2.644   4.831   5.625
 1712SOL     OW 6034   0.294   2.349   4.928
 1712SOL    HW1 6035   0.228   2.300   4.871
 1712SOL    HW2 6036   0.299   2.445   4.899
 1713SOL     OW 6037   3.559   1.123   2.083
 1713SOL    HW1 6038   3.557   1.216   2.118
 1713SOL    HW2 6039   3.518   1.120   1.992
 1714SOL     OW 6040   3.049   1.988   6.846
 1714SOL    HW1 6041   2.953   1.984   6.816
 1714SOL    HW2 6042   3.109   1.972   6.768
 1715SOL     OW 6043   2.048   5.681   2.291
 1715SOL    HW1 6044   1.993   5.764   2.287
 1715SOL    HW2 6045   2.132   5.699   2.342
 1716SOL     OW 6046   4.868   0.247   4.157
 1716SOL    HW1 6047   4.891   0.216   4.065
 1716SOL    HW2 6048   4.951   0.247   4.213
 1717SOL     OW 6049   3.901   5.514   5.121
 1717SOL    HW1 6050   3.979   5.541   5.064
 1717SOL    HW2 6051   3.869   5.423   5.093
 1718SOL     OW 6052   2.461   2.278   2.339
 1718SOL    HW1 6053   2.514   2.304   2.258
 1718SOL    HW2 6054   2.444   2.180   2.337
 1719SOL     OW 6055   1.497   4.555   1.047
 1719SOL    HW1 6056   1.505   4.601   1.136
 1719SOL    HW2 6057   1.442   4.612   0.986
 1720SOL     OW 6058   6.949   2.942   6.042
 1720SOL    HW1 6059   6.931   3.019   5.981
 1720SOL    HW2 6060   7.015   2.970   6.113
 1721SOL     OW 6061   1.288   0.250   2.393
 1721SOL    HW1 6062   1.295   0.344   2.359
 1721SOL    HW2 6063   1.203   0.209   2.362
 1722SOL     OW 6064   3.034   1.737   2.971
 1722SOL    HW1 6065   2.995   1.830   2.967
 1722SOL    HW2 6066   3.020   1.699   3.062
 1723SOL     OW 6067   4.979   1.900   6.830
 1723SOL    HW1 6068   4.939   1.837   6.897
 1723SOL    HW2 6069   5.069   1.868   6.803
 1724SOL     OW 6070   6.330   2.097   1.457
 1724SOL    HW1 6071   6.271   2.108   1.377
 1724SOL    HW2 6072   6.366   2.004   1.461
 1725SOL     OW 6073   1.851   4.505   6.762
 1725SOL    HW1 6074   1.940   4.551   6.756
 1725SOL    HW2 6075   1.865   4.410   6.790
 1726SOL     OW 6076   5.794   3.927   3.708
 1726SOL    HW1 6077   5.750   3.837   3.714
 1726SOL    HW2 6078   5.886   3.922   3.747
 1727SOL     OW 6079   3.504   3.547   3.408
 1727SOL    HW1 6080   3.466   3.473   3.353
 1727SOL    HW2 6081   3.584   3.514   3.458
 1728SOL     OW 6082   4.572   4.389   5.772
 1728SOL    HW1 6083   4.481   4.350   5.786
 1728SOL    HW2 6084   4.641   4.324   5.805
 1729SOL     OW 6085   1.173   3.876   2.101
 1729SOL    HW1 6086   1.126   3.914   2.180
 1729SOL    HW2 6087   1.120   3.799   2.065
 1730SOL     OW 6088   2.703   6.276   5.270
 1730SOL    HW1 6089   2.718   6.180   5.294
 1730SOL    HW2 6090   2.690   6.330   5.354
 1731SOL     OW 6091   5.447   4.850   3.609
 1731SOL    HW1 6092   5.497   4.933   3.588
 1731SOL    HW2 6093   5.467   4.821   3.703
 1732SOL     OW 6094   2.107   4.304   6.077
 1732SOL    HW1 6095   2.204   4.330   6.075
 1732SOL    HW2 6096   2.064   4.343   6.159
 1733SOL     OW 6097   2.690   4.270   0.249
 1733SOL    HW1 6098   2.602   4.275   0.202
 1733SOL    HW2 6099   2.751   4.342   0.215
 1734SOL     OW 6100   6.489   3.188   1.475
 1734SOL    HW1 6101   6.390   3.181   1.489
 1734SOL    HW2 6102   6.524   3.098   1.449
 1735SOL     OW 6103   4.531   5.261   6.609
 1735SOL    HW1 6104   4.561   5.221   6.696
 1735SOL    HW2 6105   4.587   5.342   6.588
 1736SOL     OW 6106   4.144   3.832   1.297
 1736SOL    HW1 6107   4.181   3.801   1.384
 1736SOL    HW2 6108   4.170   3.768   1.224
 1737SOL     OW 6109   5.440   0.831   4.024
 1737SOL    HW1 6110   5.356   0.788   4.058
 1737SOL    HW2 6111   5.452   0.809   3.927
 1738SOL     OW 6112   2.011   3.651   4.490
 1738SOL    HW1 6113   1.942   3.722   4.482
 1738SOL    HW2 6114   2.073   3.673   4.565
 1739SOL     OW 6115   5.814   0.112   3.852
 1739SOL    HW1 6116   5.767   0.199   3.862
 1739SOL    HW2 6117   5.747   0.039   3.837
 1740SOL     OW 6118   6.934   1.958   4.678
 1740SOL    HW1 6119   6.940   1.874   4.731
 1740SOL    HW2 6120   6.999   1.955   4.602
 1741SOL     OW 6121   1.316   1.992   3.312
 1741SOL    HW1 6122   1.323   2.091   3.310
 1741SOL    HW2 6123   1.366   1.953   3.234
 1742SOL     OW 6124   6.090   0.343   5.947
 1742SOL    HW1 6125   6.076   0.402   6.026
 1742SOL    HW2 6126   6.014   0.280   5.938
 1743SOL     OW 6127   1.175   2.026   2.935
 1743SOL    HW1 6128   1.096   2.076   2.900
 1743SOL    HW2 6129   1.239   2.007   2.861
 1744SOL     OW 6130   4.985   2.418   3.443
 1744SOL    HW1 6131   4.923   2.445   3.370
 1744SOL    HW2 6132   5.080   2.425   3.412
 1745SOL     OW 6133   6.262   6.073   0.835
 1745SOL    HW1 6134   6.332   6.026   0.780
 1745SOL    HW2 6135   6.271   6.172   0.823
 1746SOL     OW 6136   2.143   3.598   3.877
 1746SOL    HW1 6137   2.060   3.586   3.823
 1746SOL    HW2 6138   2.161   3.515   3.929
 1747SOL     OW 6139   3.674   1.690   2.234
 1747SOL    HW1 6140   3.663   1.625   2.158
 1747SOL    HW2 6141   3.618   1.661   2.311
 1748SOL     OW 6142   6.604   1.626   4.281
 1748SOL    HW1 6143   6.621   1.531   4.306
 1748SOL    HW2 6144   6.624   1.685   4.359
 1749SOL     OW 6145   3.155   6.285   0.753
 1749SOL    HW1 6146   3.192   6.214   0.693
 1749SOL    HW2 6147   3.137   6.367   0.700
 1750SOL     OW 6148   4.133   0.887   4.929
 1750SOL    HW1 6149   4.125   0.973   4.880
 1750SOL    HW2 6150   4.163   0.904   5.023
 1751SOL     OW 6151   6.094   2.585   5.032
 1751SOL    HW1 6152   6.118   2.681   5.027
 1751SOL    HW2 6153   6.177   2.529   5.021
 1752SOL     OW 6154   6.574   1.256   1.289
 1752SOL    HW1 6155   6.608   1.162   1.297
 1752SOL    HW2 6156   6.475   1.257   1.298
 1753SOL     OW 6157   6.908   1.453   1.761
 1753SOL    HW1 6158   6.984   1.476   1.822
 1753SOL    HW2 6159   6.822   1.480   1.804
 1754SOL     OW 6160   2.941   5.859   5.765
 1754SOL    HW1 6161   2.983   5.925   5.827
 1754SOL    HW2 6162   2.878   5.801   5.815
 1755SOL     OW 6163   6.415   6.695   5.090
 1755SOL    HW1 6164   6.440   6.607   5.050
 1755SOL    HW2 6165   6.322   6.691   5.125
 1756SOL     OW 6166   5.013   0.397   6.178
 1756SOL    HW1 6167   5.008   0.393   6.278
 1756SOL    HW2 6168   4.961   0.321   6.139
 1757SOL     OW 6169   2.338   5.329   4.175
 1757SOL    HW1 6170   2.375   5.257   4.235
 1757SOL    HW2 6171   2.241   5.343   4.196
 1758SOL     OW 6172   1.805   6.667   5.144
 1758SOL    HW1 6173   1.901   6.690   5.127
 1758SOL    HW2 6174   1.750   6.694   5.065
 1759SOL     OW 6175   1.538   6.212   6.213
 1759SOL    HW1 6176   1.500   6.158   6.138
 1759SOL    HW2 6177   1.495   6.185   6.299
 1760SOL     OW 6178   5.995   0.681   4.940
 1760SOL    HW1 6179   5.974   0.684   4.843
 1760SOL    HW2 6180   5.975   0.769   4.983
 1761SOL     OW 6181   6.761   1.457   1.229
 1761SOL    HW1 6182   6.681   1.514   1.211
 1761SOL    HW2 6183   6.733   1.374   1.276
 1762SOL     OW 6184   0.597   1.324   5.055
 1762SOL    HW1 6185   0.678   1.268   5.071
 1762SOL    HW2 6186   0.612   1.415   5.093
 1763SOL     OW 6187   1.204   4.271   4.823
 1763SOL    HW1 6188   1.135   4.331   4.863
 1763SOL    HW2 6189   1.199   4.276   4.723
 1764SOL     OW 6190   1.443   3.934   2.076
 1764SOL    HW1 6191   1.483   3.950   2.167
 1764SOL    HW2 6192   1.350   3.900   2.086
 1765SOL     OW 6193   4.899   2.569   1.601
 1765SOL    HW1 6194   4.921   2.473   1.620
 1765SOL    HW2 6195   4.848   2.608   1.678
 1766SOL     OW 6196   4.696   4.701   3.694
 1766SOL    HW1 6197   4.701   4.638   3.617
 1766SOL    HW2 6198   4.633   4.665   3.763
 1767SOL     OW 6199   6.987   5.297   2.663
 1767SOL    HW1 6200   0.049   5.265   2.717
 1767SOL    HW2 6201   7.013   5.380   2.613
 1768SOL     OW 6202   4.375   6.131   1.315
 1768SOL    HW1 6203   4.319   6.178   1.247
 1768SOL    HW2 6204   4.468   6.169   1.314
 1769SOL     OW 6205   5.914   0.619   6.412
 1769SOL    HW1 6206   5.903   0.623   6.511
 1769SOL    HW2 6207   5.993   0.675   6.385
 1770SOL     OW 6208   1.293   4.792   5.400
 1770SOL    HW1 6209   1.222   4.774   5.333
 1770SOL    HW2 6210   1.379   4.750   5.370
 1771SOL     OW 6211   1.190   4.495   6.696
 1771SOL    HW1 6212   1.280   4.528   6.665
 1771SOL    HW2 6213   1.199   4.403   6.732
 1772SOL     OW 6214   3.537   5.182   3.918
 1772SOL    HW1 6215   3.493   5.265   3.885
 1772SOL    HW2 6216   3.485   5.102   3.889
 1773SOL     OW 6217   0.744   0.658   4.849
 1773SOL    HW1 6218   0.728   0.654   4.751
 1773SOL    HW2 6219   0.711   0.746   4.885
 1774SOL     OW 6220   5.897   6.578   2.022
 1774SOL    HW1 6221   5.848   6.616   2.102
 1774SOL    HW2 6222   5.961   6.646   1.988
 1775SOL     OW 6223   2.292   5.216   6.272
 1775SOL    HW1 6224   2.335   5.127   6.256
 1775SOL    HW2 6225   2.205   5.220   6.223
 1776SOL     OW 6226   5.315   1.338   5.672
 1776SOL    HW1 6227   5.265   1.324   5.587
 1776SOL    HW2 6228   5.405   1.295   5.666
 1777SOL     OW 6229   4.374   6.691   6.511
 1777SOL    HW1 6230   4.391   6.682   6.609
 1777SOL    HW2 6231   4.460   6.699   6.462
 1778SOL     OW 6232   5.551   1.557   4.209
 1778SOL    HW1 6233   5.522   1.631   4.270
 1778SOL    HW2 6234   5.528   1.582   4.115
 1779SOL     OW 6235   4.918   0.190   5.129
 1779SOL    HW1 6236   4.974   0.109   5.146
 1779SOL    HW2 6237   4.973   0.261   5.084
 1780SOL     OW 6238   1.268   5.549   4.900
 1780SOL    HW1 6239   1.330   5.618   4.862
 1780SOL    HW2 6240   1.295   5.458   4.868
 1781SOL     OW 6241   4.729   0.194   4.453
 1781SOL    HW1 6242   4.784   0.270   4.419
 1781SOL    HW2 6243   4.785   0.136   4.512
 1782SOL     OW 6244   1.741   1.701   2.887
 1782SOL    HW1 6245   1.823   1.757   2.880
 1782SOL    HW2 6246   1.767   1.605   2.902
 1783SOL     OW 6247   2.131   3.437   5.885
 1783SOL    HW1 6248   2.118   3.472   5.977
 1783SOL    HW2 6249   2.110   3.508   5.819
 1784SOL     OW 6250   2.609   0.535   1.102
 1784SOL    HW1 6251   2.652   0.508   1.188
 1784SOL    HW2 6252   2.513   0.559   1.118
 1785SOL     OW 6253   0.349   6.469   4.253
 1785SOL    HW1 6254   0.397   6.497   4.336
 1785SOL    HW2 6255   0.401   6.397   4.207
 1786SOL     OW 6256   1.925   5.610   0.966
 1786SOL    HW1 6257   1.965   5.568   1.047
 1786SOL    HW2 6258   1.826   5.603   0.970
 1787SOL     OW 6259   1.640   2.592   5.416
 1787SOL    HW1 6260   1.595   2.557   5.498
 1787SOL    HW2 6261   1.586   2.667   5.378
 1788SOL     OW 6262   4.238   4.149   0.416
 1788SOL    HW1 6263   4.239   4.202   0.500
 1788SOL    HW2 6264   4.329   4.152   0.373
 1789SOL     OW 6265   6.331   3.469   1.824
 1789SOL    HW1 6266   6.292   3.515   1.904
 1789SOL    HW2 6267   6.258   3.440   1.763
 1790SOL     OW 6268   2.888   1.819   4.453
 1790SOL    HW1 6269   2.846   1.739   4.496
 1790SOL    HW2 6270   2.961   1.853   4.512
 1791SOL     OW 6271   6.308   1.015   3.809
 1791SOL    HW1 6272   6.283   1.070   3.889
 1791SOL    HW2 6273   6.332   1.076   3.733
 1792SOL     OW 6274   0.044   2.183   5.293
 1792SOL    HW1 6275   0.142   2.188   5.314
 1792SOL    HW2 6276   0.017   2.264   5.241
 1793SOL     OW 6277   0.054   1.229   5.170
 1793SOL    HW1 6278   0.116   1.219   5.092
 1793SOL    HW2 6279   0.061   1.149   5.229
 1794SOL     OW 6280   6.647   0.454   6.282
 1794SOL    HW1 6281   6.674   0.427   6.375
 1794SOL    HW2 6282   6.586   0.533   6.287
 1795SOL     OW 6283   5.837   4.806   0.283
 1795SOL    HW1 6284   5.770   4.784   0.212
 1795SOL    HW2 6285   5.790   4.843   0.363
 1796SOL     OW 6286   1.408   0.116   5.449
 1796SOL    HW1 6287   1.400   0.021   5.482
 1796SOL    HW2 6288   1.495   0.154   5.479
 1797SOL     OW 6289   1.743   6.458   4.857
 1797SOL    HW1 6290   1.736   6.558   4.848
 1797SOL    HW2 6291   1.652   6.417   4.853
 1798SOL     OW 6292   3.504   3.190   4.338
 1798SOL    HW1 6293   3.574   3.119   4.330
 1798SOL    HW2 6294   3.539   3.265   4.394
 1799SOL     OW 6295   3.410   0.455   6.610
 1799SOL    HW1 6296   3.469   0.530   6.639
 1799SOL    HW2 6297   3.337   0.442   6.678
 1800SOL     OW 6298   5.270   4.141   3.982
 1800SOL    HW1 6299   5.223   4.131   3.894
 1800SOL    HW2 6300   5.366   4.113   3.971
 1801SOL     OW 6301   1.121   1.141   1.848
 1801SOL    HW1 6302   1.170   1.146   1.936
 1801SOL    HW2 6303   1.149   1.217   1.790
 1802SOL     OW 6304   6.446   4.578   3.607
 1802SOL    HW1 6305   6.478   4.658   3.556
 1802SOL    HW2 6306   6.522   4.515   3.621
 1803SOL     OW 6307   6.937   6.485   2.605
 1803SOL    HW1 6308   6.842   6.496   2.635
 1803SOL    HW2 6309   6.946   6.399   2.555
 1804SOL     OW 6310   3.115   3.776   6.158
 1804SOL    HW1 6311   3.203   3.731   6.142
 1804SOL    HW2 6312   3.042   3.723   6.115
 1805SOL     OW 6313   0.841   6.773   6.222
 1805SOL    HW1 6314   0.910   6.767   6.150
 1805SOL    HW2 6315   0.759   6.724   6.194
 1806SOL     OW 6316   6.502   2.304   2.199
 1806SOL    HW1 6317   6.562   2.269   2.270
 1806SOL    HW2 6318   6.502   2.242   2.120
 1807SOL     OW 6319   6.741   4.025   1.026
 1807SOL    HW1 6320   6.724   3.997   1.120
 1807SOL    HW2 6321   6.704   4.117   1.012
 1808SOL     OW 6322   4.815   2.494   5.387
 1808SOL    HW1 6323   4.907   2.495   5.349
 1808SOL    HW2 6324   4.819   2.514   5.485
 1809SOL     OW 6325   3.692   2.164   5.234
 1809SOL    HW1 6326   3.646   2.147   5.147
 1809SOL    HW2 6327   3.791   2.162   5.221
 1810SOL     OW 6328   7.010   0.030   3.698
 1810SOL    HW1 6329   6.915   0.034   3.729
 1810SOL    HW2 6330   0.037   0.121   3.708
 1811SOL     OW 6331   3.906   5.210   2.335
 1811SOL    HW1 6332   3.957   5.153   2.271
 1811SOL    HW2 6333   3.847   5.273   2.285
 1812SOL     OW 6334   4.234   0.099   6.352
 1812SOL    HW1 6335   4.253   0.157   6.273
 1812SOL    HW2 6336   4.319   0.085   6.404
 1813SOL     OW 6337   4.635   4.914   2.718
 1813SOL    HW1 6338   4.728   4.902   2.685
 1813SOL    HW2 6339   4.571   4.906   2.642
 1814SOL     OW 6340   0.588   6.736   0.783
 1814SOL    HW1 6341   0.577   6.673   0.859
 1814SOL    HW2 6342   0.625   6.823   0.816
 1815SOL     OW 6343   5.687   5.765   2.378
 1815SOL    HW1 6344   5.613   5.723   2.326
 1815SOL    HW2 6345   5.654   5.792   2.468
 1816SOL     OW 6346   4.127   5.910   5.586
 1816SOL    HW1 6347   4.205   5.895   5.646
 1816SOL    HW2 6348   4.144   5.867   5.498
 1817SOL     OW 6349   2.943   1.447   2.949
 1817SOL    HW1 6350   3.008   1.409   3.015
 1817SOL    HW2 6351   2.992   1.508   2.886
 1818SOL     OW 6352   1.703   6.629   0.134
 1818SOL    HW1 6353   1.739   6.660   0.223
 1818SOL    HW2 6354   1.748   6.679   0.061
 1819SOL     OW 6355   0.623   4.594   2.757
 1819SOL    HW1 6356   0.626   4.629   2.663
 1819SOL    HW2 6357   0.655   4.500   2.758
 1820SOL     OW 6358   3.909   0.233   3.432
 1820SOL    HW1 6359   3.984   0.295   3.407
 1820SOL    HW2 6360   3.901   0.231   3.532
 1821SOL     OW 6361   3.454   1.129   1.843
 1821SOL    HW1 6362   3.510   1.053   1.808
 1821SOL    HW2 6363   3.397   1.165   1.770
 1822SOL     OW 6364   0.832   3.358   2.047
 1822SOL    HW1 6365   0.776   3.370   1.964
 1822SOL    HW2 6366   0.786   3.400   2.124
 1823SOL     OW 6367   4.026   6.308   2.292
 1823SOL    HW1 6368   4.041   6.401   2.326
 1823SOL    HW2 6369   3.979   6.312   2.204
 1824SOL     OW 6370   4.090   4.260   1.098
 1824SOL    HW1 6371   4.132   4.170   1.105
 1824SOL    HW2 6372   3.990   4.250   1.105
 1825SOL     OW 6373   1.791   2.478   4.816
 1825SOL    HW1 6374   1.866   2.419   4.786
 1825SOL    HW2 6375   1.780   2.554   4.752
 1826SOL     OW 6376   3.502   1.919   1.616
 1826SOL    HW1 6377   3.479   1.860   1.693
 1826SOL    HW2 6378   3.506   2.014   1.647
 1827SOL     OW 6379   5.526   4.949   0.701
 1827SOL    HW1 6380   5.494   5.007   0.776
 1827SOL    HW2 6381   5.493   4.856   0.713
 1828SOL     OW 6382   1.240   3.455   6.102
 1828SOL    HW1 6383   1.153   3.481   6.145
 1828SOL    HW2 6384   1.297   3.537   6.092
 1829SOL     OW 6385   3.925   0.658   4.214
 1829SOL    HW1 6386   3.947   0.566   4.245
 1829SOL    HW2 6387   3.994   0.722   4.249
 1830SOL     OW 6388   6.002   0.057   4.820
 1830SOL    HW1 6389   5.911   0.035   4.855
 1830SOL    HW2 6390   6.063   0.078   4.897
 1831SOL     OW 6391   5.169   5.197   3.019
 1831SOL    HW1 6392   5.126   5.168   3.105
 1831SOL    HW2 6393   5.111   5.169   2.942
 1832SOL     OW 6394   2.389   3.775   0.511
 1832SOL    HW1 6395   2.406   3.687   0.467
 1832SOL    HW2 6396   2.420   3.849   0.450
 1833SOL     OW 6397   5.047   7.010   1.925
 1833SOL    HW1 6398   5.106   6.941   1.967
 1833SOL    HW2 6399   5.097   0.080   1.914
 1834SOL     OW 6400   2.881   2.125   0.193
 1834SOL    HW1 6401   2.808   2.060   0.170
 1834SOL    HW2 6402   2.936   2.089   0.268
 1835SOL     OW 6403   0.316   5.044   1.309
 1835SOL    HW1 6404   0.288   5.138   1.291
 1835SOL    HW2 6405   0.321   4.994   1.222
 1836SOL     OW 6406   5.616   1.757   2.183
 1836SOL    HW1 6407   5.706   1.771   2.224
 1836SOL    HW2 6408   5.591   1.661   2.188
 1837SOL     OW 6409   2.626   0.831   5.978
 1837SOL    HW1 6410   2.549   0.883   6.014
 1837SOL    HW2 6411   2.619   0.736   6.008
 1838SOL     OW 6412   5.982   0.801   0.480
 1838SOL    HW1 6413   6.020   0.710   0.495
 1838SOL    HW2 6414   6.008   0.861   0.555
 1839SOL     OW 6415   5.863   1.589   0.308
 1839SOL    HW1 6416   5.946   1.644   0.301
 1839SOL    HW2 6417   5.886   1.492   0.310
 1840SOL     OW 6418   3.738   0.329   3.098
 1840SOL    HW1 6419   3.810   0.395   3.120
 1840SOL    HW2 6420   3.776   0.237   3.099
 1841SOL     OW 6421   2.173   0.580   2.133
 1841SOL    HW1 6422   2.241   0.509   2.152
 1841SOL    HW2 6423   2.195   0.624   2.045
 1842SOL     OW 6424   2.037   4.628   0.854
 1842SOL    HW1 6425   2.018   4.535   0.885
 1842SOL    HW2 6426   2.089   4.677   0.924
 1843SOL     OW 6427   3.583   1.467   4.683
 1843SOL    HW1 6428   3.506   1.525   4.710
 1843SOL    HW2 6429   3.659   1.525   4.654
 1844SOL     OW 6430   5.115   1.347   6.282
 1844SOL    HW1 6431   5.128   1.390   6.371
 1844SOL    HW2 6432   5.025   1.372   6.246
 1845SOL     OW 6433   2.463   1.034   3.234
 1845SOL    HW1 6434   2.404   1.052   3.313
 1845SOL    HW2 6435   2.432   0.952   3.186
 1846SOL     OW 6436   4.454   1.049   2.963
 1846SOL    HW1 6437   4.476   0.998   3.047
 1846SOL    HW2 6438   4.538   1.080   2.920
 1847SOL     OW 6439   2.174   0.533   4.413
 1847SOL    HW1 6440   2.257   0.478   4.426
 1847SOL    HW2 6441   2.195   0.629   4.426
 1848SOL     OW 6442   1.901   6.053   4.261
 1848SOL    HW1 6443   1.938   6.072   4.170
 1848SOL    HW2 6444   1.974   6.058   4.329
 1849SOL     OW 6445   4.443   2.418   2.519
 1849SOL    HW1 6446   4.429   2.514   2.543
 1849SOL    HW2 6447   4.475   2.411   2.425
 1850SOL     OW 6448   5.282   2.366   2.275
 1850SOL    HW1 6449   5.240   2.454   2.253
 1850SOL    HW2 6450   5.245   2.295   2.215
 1851SOL     OW 6451   0.074   3.018   6.249
 1851SOL    HW1 6452   0.102   2.959   6.325
 1851SOL    HW2 6453   0.135   3.096   6.243
 1852SOL     OW 6454   1.495   4.075   2.325
 1852SOL    HW1 6455   1.499   4.171   2.298
 1852SOL    HW2 6456   1.538   4.063   2.414
 1853SOL     OW 6457   0.414   3.292   4.577
 1853SOL    HW1 6458   0.365   3.258   4.657
 1853SOL    HW2 6459   0.366   3.264   4.494
 1854SOL     OW 6460   0.680   5.614   3.398
 1854SOL    HW1 6461   0.729   5.626   3.312
 1854SOL    HW2 6462   0.654   5.704   3.434
 1855SOL     OW 6463   4.978   3.356   4.561
 1855SOL    HW1 6464   5.050   3.387   4.623
 1855SOL    HW2 6465   4.908   3.306   4.612
 1856SOL     OW 6466   3.777   3.397   7.011
 1856SOL    HW1 6467   3.794   3.330   0.067
 1856SOL    HW2 6468   3.741   3.481   0.037
 1857SOL     OW 6469   5.053   0.827   0.208
 1857SOL    HW1 6470   5.068   0.923   0.228
 1857SOL    HW2 6471   5.082   0.771   0.286
 1858SOL     OW 6472   4.376   2.139   4.414
 1858SOL    HW1 6473   4.372   2.049   4.371
 1858SOL    HW2 6474   4.336   2.207   4.353
 1859SOL     OW 6475   5.806   1.911   5.151
 1859SOL    HW1 6476   5.728   1.871   5.199
 1859SOL    HW2 6477   5.789   2.009   5.136
 1860SOL     OW 6478   0.811   1.843   4.806
 1860SOL    HW1 6479   0.743   1.850   4.879
 1860SOL    HW2 6480   0.902   1.832   4.847
 1861SOL     OW 6481   6.254   0.901   2.580
 1861SOL    HW1 6482   6.208   0.978   2.538
 1861SOL    HW2 6483   6.192   0.856   2.644
 1862SOL     OW 6484   2.122   6.452   0.090
 1862SOL    HW1 6485   2.038   6.434   0.038
 1862SOL    HW2 6486   2.112   6.537   0.142
 1863SOL     OW 6487   0.419   3.066   1.194
 1863SOL    HW1 6488   0.366   3.001   1.138
 1863SOL    HW2 6489   0.383   3.158   1.182
 1864SOL     OW 6490   2.930   5.768   3.787
 1864SOL    HW1 6491   3.028   5.784   3.804
 1864SOL    HW2 6492   2.919   5.721   3.699
 1865SOL     OW 6493   4.748   1.135   6.895
 1865SOL    HW1 6494   4.830   1.159   6.946
 1865SOL    HW2 6495   4.739   1.035   6.890
 1866SOL     OW 6496   0.702   4.357   4.143
 1866SOL    HW1 6497   0.716   4.379   4.239
 1866SOL    HW2 6498   0.741   4.267   4.123
 1867SOL     OW 6499   2.619   2.127   1.449
 1867SOL    HW1 6500   2.563   2.057   1.405
 1867SOL    HW2 6501   2.634   2.102   1.544
 1868SOL     OW 6502   5.665   4.205   5.592
 1868SOL    HW1 6503   5.627   4.129   5.646
 1868SOL    HW2 6504   5.631   4.199   5.498
 1869SOL     OW 6505   4.533   2.042   3.993
 1869SOL    HW1 6506   4.583   2.048   4.080
 1869SOL    HW2 6507   4.480   2.126   3.980
 1870SOL     OW 6508   1.379   4.422   4.205
 1870SOL    HW1 6509   1.312   4.348   4.196
 1870SOL    HW2 6510   1.471   4.385   4.199
 1871SOL     OW 6511   0.664   6.871   0.384
 1871SOL    HW1 6512   0.674   6.793   0.446
 1871SOL    HW2 6513   0.748   6.883   0.331
 1872SOL     OW 6514   3.284   2.030   0.437
 1872SOL    HW1 6515   3.291   2.072   0.347
 1872SOL    HW2 6516   3.321   2.092   0.506
 1873SOL     OW 6517   6.338   0.498   6.744
 1873SOL    HW1 6518   6.329   0.461   6.837
 1873SOL    HW2 6519   6.287   0.440   6.681
 1874SOL     OW 6520   1.053   6.313   6.131
 1874SOL    HW1 6521   0.966   6.356   6.104
 1874SOL    HW2 6522   1.056   6.220   6.096
 1875SOL     OW 6523   6.558   5.689   6.891
 1875SOL    HW1 6524   6.491   5.705   6.963
 1875SOL    HW2 6525   6.569   5.591   6.876
 1876SOL     OW 6526   5.558   6.449   6.352
 1876SOL    HW1 6527   5.550   6.460   6.253
 1876SOL    HW2 6528   5.524   6.358   6.378
 1877SOL     OW 6529   0.401   1.462   2.294
 1877SOL    HW1 6530   0.363   1.497   2.380
 1877SOL    HW2 6531   0.331   1.408   2.247
 1878SOL     OW 6532   0.493   4.092   3.401
 1878SOL    HW1 6533   0.575   4.097   3.459
 1878SOL    HW2 6534   0.449   4.182   3.400
 1879SOL     OW 6535   2.996   5.232   4.956
 1879SOL    HW1 6536   3.001   5.317   5.007
 1879SOL    HW2 6537   3.040   5.159   5.009
 1880SOL     OW 6538   0.009   2.478   3.407
 1880SOL    HW1 6539   0.088   2.446   3.459
 1880SOL    HW2 6540   0.002   2.578   3.415
 1881SOL     OW 6541   0.859   2.332   3.972
 1881SOL    HW1 6542   0.822   2.243   3.946
 1881SOL    HW2 6543   0.886   2.331   4.068
 1882SOL     OW 6544   1.078   5.942   0.041
 1882SOL    HW1 6545   1.029   5.957   0.127
 1882SOL    HW2 6546   1.086   6.029   7.007
 1883SOL     OW 6547   1.271   4.037   2.841
 1883SOL    HW1 6548   1.176   4.053   2.813
 1883SOL    HW2 6549   1.275   4.026   2.940
 1884SOL     OW 6550   3.108   1.127   0.279
 1884SOL    HW1 6551   3.045   1.149   0.205
 1884SOL    HW2 6552   3.193   1.179   0.267
 1885SOL     OW 6553   6.885   2.521   0.617
 1885SOL    HW1 6554   6.889   2.424   0.640
 1885SOL    HW2 6555   6.858   2.573   0.698
 1886SOL     OW 6556   2.084   1.622   6.582
 1886SOL    HW1 6557   2.081   1.533   6.537
 1886SOL    HW2 6558   1.994   1.644   6.620
 1887SOL     OW 6559   0.994   5.580   5.814
 1887SOL    HW1 6560   0.938   5.644   5.761
 1887SOL    HW2 6561   1.021   5.623   5.900
 1888SOL     OW 6562   1.949   1.795   5.557
 1888SOL    HW1 6563   1.970   1.863   5.627
 1888SOL    HW2 6564   1.984   1.706   5.586
 1889SOL     OW 6565   4.395   3.132   0.571
 1889SOL    HW1 6566   4.471   3.196   0.557
 1889SOL    HW2 6567   4.413   3.048   0.520
 1890SOL     OW 6568   0.914   5.772   6.426
 1890SOL    HW1 6569   0.934   5.828   6.345
 1890SOL    HW2 6570   0.857   5.695   6.399
 1891SOL     OW 6571   5.698   3.309   5.608
 1891SOL    HW1 6572   5.642   3.383   5.570
 1891SOL    HW2 6573   5.791   3.343   5.625
 1892SOL     OW 6574   3.744   5.606   1.051
 1892SOL    HW1 6575   3.813   5.610   1.124
 1892SOL    HW2 6576   3.657   5.575   1.090
 1893SOL     OW 6577   3.540   2.091   3.812
 1893SOL    HW1 6578   3.613   2.086   3.744
 1893SOL    HW2 6579   3.578   2.083   3.904
 1894SOL     OW 6580   4.495   3.802   1.650
 1894SOL    HW1 6581   4.497   3.704   1.667
 1894SOL    HW2 6582   4.407   3.840   1.680
 1895SOL     OW 6583   6.253   0.954   2.192
 1895SOL    HW1 6584   6.199   0.973   2.110
 1895SOL    HW2 6585   6.200   0.898   2.256
 1896SOL     OW 6586   6.126   1.789   4.895
 1896SOL    HW1 6587   6.182   1.746   4.966
 1896SOL    HW2 6588   6.056   1.724   4.863
 1897SOL     OW 6589   6.142   4.974   3.305
 1897SOL    HW1 6590   6.057   5.007   3.346
 1897SOL    HW2 6591   6.219   5.026   3.341
 1898SOL     OW 6592   5.698   5.879   0.976
 1898SOL    HW1 6593   5.709   5.936   1.057
 1898SOL    HW2 6594   5.686   5.783   1.003
 1899SOL     OW 6595   0.399   3.275   3.153
 1899SOL    HW1 6596   0.341   3.355   3.166
 1899SOL    HW2 6597   0.400   3.250   3.056
 1900SOL     OW 6598   1.703   6.394   6.104
 1900SOL    HW1 6599   1.667   6.482   6.074
 1900SOL    HW2 6600   1.632   6.345   6.155
 1901SOL     OW 6601   1.871   0.598   6.931
 1901SOL    HW1 6602   1.787   0.602   6.875
 1901SOL    HW2 6603   1.887   0.503   6.958
 1902SOL     OW 6604   1.020   3.320   4.077
 1902SOL    HW1 6605   1.082   3.342   4.152
 1902SOL    HW2 6606   0.926   3.344   4.103
 1903SOL     OW 6607   6.578   4.222   3.470
 1903SOL    HW1 6608   6.557   4.274   3.387
 1903SOL    HW2 6609   6.663   4.256   3.510
 1904SOL     OW 6610   0.376   0.226   4.439
 1904SOL    HW1 6611   0.421   0.258   4.356
 1904SOL    HW2 6612   0.418   0.140   4.470
 1905SOL     OW 6613   0.061   2.364   4.227
 1905SOL    HW1 6614   0.064   2.352   4.327
 1905SOL    HW2 6615   0.122   2.297   4.184
 1906SOL     OW 6616   2.447   6.936   6.003
 1906SOL    HW1 6617   2.532   6.908   5.958
 1906SOL    HW2 6618   2.465   6.953   6.100
 1907SOL     OW 6619   3.113   6.784   3.350
 1907SOL    HW1 6620   3.189   6.790   3.285
 1907SOL    HW2 6621   3.034   6.831   3.312
 1908SOL     OW 6622   4.422   0.596   5.840
 1908SOL    HW1 6623   4.384   0.512   5.879
 1908SOL    HW2 6624   4.473   0.645   5.910
 1909SOL     OW 6625   2.408   4.529   4.872
 1909SOL    HW1 6626   2.389   4.444   4.922
 1909SOL    HW2 6627   2.406   4.510   4.773
 1910SOL     OW 6628   5.261   2.200   6.672
 1910SOL    HW1 6629   5.223   2.116   6.635
 1910SOL    HW2 6630   5.340   2.178   6.729
 1911SOL     OW 6631   6.647   2.292   5.217
 1911SOL    HW1 6632   6.676   2.219   5.155
 1911SOL    HW2 6633   6.682   2.380   5.183
 1912SOL     OW 6634   3.032   6.574   2.452
 1912SOL    HW1 6635   3.081   6.608   2.371
 1912SOL    HW2 6636   3.077   6.607   2.535
 1913SOL     OW 6637   2.038   6.062   5.121
 1913SOL    HW1 6638   1.996   6.047   5.210
 1913SOL    HW2 6639   2.016   6.154   5.088
 1914SOL     OW 6640   2.510   2.521   6.168
 1914SOL    HW1 6641   2.422   2.563   6.190
 1914SOL    HW2 6642   2.554   2.572   6.094
 1915SOL     OW 6643   3.908   0.608   6.191
 1915SOL    HW1 6644   3.876   0.519   6.221
 1915SOL    HW2 6645   4.000   0.600   6.152
 1916SOL     OW 6646   3.873   5.732   1.275
 1916SOL    HW1 6647   3.935   5.809   1.265
 1916SOL    HW2 6648   3.923   5.652   1.308
 1917SOL     OW 6649   3.471   4.068   4.612
 1917SOL    HW1 6650   3.402   4.000   4.634
 1917SOL    HW2 6651   3.524   4.090   4.694
 1918SOL     OW 6652   5.792   6.426   5.950
 1918SOL    HW1 6653   5.830   6.512   5.984
 1918SOL    HW2 6654   5.817   6.351   6.012
 1919SOL     OW 6655   0.667   6.234   2.549
 1919SOL    HW1 6656   0.744   6.266   2.494
 1919SOL    HW2 6657   0.605   6.310   2.567
 1920SOL     OW 6658   0.384   4.818   3.348
 1920SOL    HW1 6659   0.461   4.845   3.405
 1920SOL    HW2 6660   0.308   4.882   3.359
 1921SOL     OW 6661   1.383   5.997   7.004
 1921SOL    HW1 6662   1.321   5.974   6.930
 1921SOL    HW2 6663   1.397   5.918   0.047
 1922SOL     OW 6664   4.054   3.211   1.279
 1922SOL    HW1 6665   3.957   3.223   1.257
 1922SOL    HW2 6666   4.082   3.118   1.257
 1923SOL     OW 6667   2.305   1.172   0.722
 1923SOL    HW1 6668   2.345   1.261   0.701
 1923SOL    HW2 6669   2.329   1.146   0.816
 1924SOL     OW 6670   6.709   4.407   1.846
 1924SOL    HW1 6671   6.636   4.460   1.802
 1924SOL    HW2 6672   6.669   4.329   1.894
 1925SOL     OW 6673   3.348   3.795   1.914
 1925SOL    HW1 6674   3.251   3.777   1.931
 1925SOL    HW2 6675   3.376   3.878   1.962
 1926SOL     OW 6676   1.417   0.514   4.813
 1926SOL    HW1 6677   1.346   0.585   4.806
 1926SOL    HW2 6678   1.432   0.493   4.909
 1927SOL     OW 6679   4.324   3.331   6.931
 1927SOL    HW1 6680   4.257   3.400   6.906
 1927SOL    HW2 6681   4.370   3.358   0.001
 1928SOL     OW 6682   6.595   3.548   6.126
 1928SOL    HW1 6683   6.687   3.584   6.139
 1928SOL    HW2 6684   6.535   3.622   6.093
 1929SOL     OW 6685   1.447   6.384   1.879
 1929SOL    HW1 6686   1.476   6.423   1.791
 1929SOL    HW2 6687   1.406   6.294   1.864
 1930SOL     OW 6688   6.548   4.372   6.742
 1930SOL    HW1 6689   6.635   4.378   6.694
 1930SOL    HW2 6690   6.495   4.455   6.726
 1931SOL     OW 6691   6.998   3.775   2.873
 1931SOL    HW1 6692   0.075   3.760   2.837
 1931SOL    HW2 6693   6.986   3.722   2.957
 1932SOL     OW 6694   5.169   3.835   2.034
 1932SOL    HW1 6695   5.209   3.798   1.950
 1932SOL    HW2 6696   5.072   3.856   2.019
 1933SOL     OW 6697   2.975   4.370   0.425
 1933SOL    HW1 6698   2.934   4.280   0.414
 1933SOL    HW2 6699   2.944   4.410   0.512
 1934SOL     OW 6700   1.227   0.438   5.783
 1934SOL    HW1 6701   1.317   0.418   5.821
 1934SOL    HW2 6702   1.196   0.361   5.729
 1935SOL     OW 6703   2.354   0.043   4.403
 1935SOL    HW1 6704   2.447   0.077   4.414
 1935SOL    HW2 6705   2.290   0.108   4.445
 1936SOL     OW 6706   5.405   5.890   4.601
 1936SOL    HW1 6707   5.437   5.892   4.696
 1936SOL    HW2 6708   5.389   5.795   4.573
 1937SOL     OW 6709   3.837   6.978   1.535
 1937SOL    HW1 6710   3.835   6.893   1.586
 1937SOL    HW2 6711   3.881   6.963   1.446
 1938SOL     OW 6712   3.654   1.265   3.528
 1938SOL    HW1 6713   3.585   1.225   3.468
 1938SOL    HW2 6714   3.629   1.249   3.623
 1939SOL     OW 6715   1.397   0.947   3.652
 1939SOL    HW1 6716   1.450   1.031   3.649
 1939SOL    HW2 6717   1.321   0.957   3.716
 1940SOL     OW 6718   5.500   5.288   0.122
 1940SOL    HW1 6719   5.437   5.336   0.060
 1940SOL    HW2 6720   5.568   5.239   0.067
 1941SOL     OW 6721   6.178   3.969   3.349
 1941SOL    HW1 6722   6.108   4.018   3.297
 1941SOL    HW2 6723   6.223   3.903   3.289
 1942SOL     OW 6724   6.016   5.441   1.881
 1942SOL    HW1 6725   5.922   5.408   1.891
 1942SOL    HW2 6726   6.079   5.365   1.891
 1943SOL     OW 6727   2.891   5.479   2.927
 1943SOL    HW1 6728   2.833   5.452   3.003
 1943SOL    HW2 6729   2.956   5.406   2.906
 1944SOL     OW 6730   5.510   1.774   6.284
 1944SOL    HW1 6731   5.410   1.767   6.290
 1944SOL    HW2 6732   5.534   1.865   6.250
 1945SOL     OW 6733   4.974   5.694   2.984
 1945SOL    HW1 6734   4.916   5.686   3.065
 1945SOL    HW2 6735   4.917   5.701   2.902
 1946SOL     OW 6736   1.567   0.396   1.049
 1946SOL    HW1 6737   1.540   0.356   0.961
 1946SOL    HW2 6738   1.530   0.489   1.057
 1947SOL     OW 6739   5.714   6.436   4.936
 1947SOL    HW1 6740   5.737   6.402   4.845
 1947SOL    HW2 6741   5.615   6.430   4.949
 1948SOL     OW 6742   6.984   5.143   4.645
 1948SOL    HW1 6743   6.926   5.222   4.664
 1948SOL    HW2 6744   7.011   5.099   4.731
 1949SOL     OW 6745   4.252   4.230   6.074
 1949SOL    HW1 6746   4.310   4.253   5.996
 1949SOL    HW2 6747   4.216   4.314   6.115
 1950SOL     OW 6748   3.716   3.632   6.580
 1950SOL    HW1 6749   3.683   3.551   6.532
 1950SOL    HW2 6750   3.640   3.673   6.630
 1951SOL     OW 6751   5.807   2.257   0.376
 1951SOL    HW1 6752   5.787   2.168   0.336
 1951SOL    HW2 6753   5.874   2.305   0.319
 1952SOL     OW 6754   3.408   2.255   0.552
 1952SOL    HW1 6755   3.424   2.321   0.626
 1952SOL    HW2 6756   3.496   2.213   0.527
 1953SOL     OW 6757   6.869   2.240   6.891
 1953SOL    HW1 6758   6.943   2.208   6.832
 1953SOL    HW2 6759   6.902   2.249   6.985
 1954SOL     OW 6760   5.223   1.739   3.973
 1954SOL    HW1 6761   5.309   1.757   3.925
 1954SOL    HW2 6762   5.159   1.813   3.957
 1955SOL     OW 6763   1.409   0.205   2.015
 1955SOL    HW1 6764   1.446   0.114   2.002
 1955SOL    HW2 6765   1.457   0.270   1.956
 1956SOL     OW 6766   5.004   6.119   2.773
 1956SOL    HW1 6767   4.962   6.187   2.714
 1956SOL    HW2 6768   5.008   6.031   2.725
 1957SOL     OW 6769   6.967   5.671   4.909
 1957SOL    HW1 6770   6.876   5.632   4.921
 1957SOL    HW2 6771   0.016   5.624   4.969
 1958SOL     OW 6772   5.503   3.464   4.507
 1958SOL    HW1 6773   5.566   3.528   4.464
 1958SOL    HW2 6774   5.549   3.376   4.519
 1959SOL     OW 6775   0.566   2.692   5.553
 1959SOL    HW1 6776   0.632   2.648   5.493
 1959SOL    HW2 6777   0.501   2.624   5.588
 1960SOL     OW 6778   6.647   4.753   0.873
 1960SOL    HW1 6779   6.577   4.721   0.937
 1960SOL    HW2 6780   6.708   4.817   0.919
 1961SOL     OW 6781   5.831   4.918   4.484
 1961SOL    HW1 6782   5.875   4.928   4.574
 1961SOL    HW2 6783   5.741   4.877   4.496
 1962SOL     OW 6784   1.368   6.454   3.816
 1962SOL    HW1 6785   1.330   6.529   3.870
 1962SOL    HW2 6786   1.361   6.369   3.869
 1963SOL     OW 6787   0.576   0.824   1.783
 1963SOL    HW1 6788   0.555   0.854   1.689
 1963SOL    HW2 6789   0.655   0.763   1.780
 1964SOL     OW 6790   4.719   2.601   1.381
 1964SOL    HW1 6791   4.655   2.530   1.410
 1964SOL    HW2 6792   4.797   2.603   1.444
 1965SOL     OW 6793   0.905   2.980   2.681
 1965SOL    HW1 6794   0.847   3.000   2.601
 1965SOL    HW2 6795   1.001   2.977   2.653
 1966SOL     OW 6796   0.480   5.080   4.742
 1966SOL    HW1 6797   0.469   5.171   4.701
 1966SOL    HW2 6798   0.546   5.027   4.688
 1967SOL     OW 6799   4.507   2.470   5.916
 1967SOL    HW1 6800   4.549   2.561   5.903
 1967SOL    HW2 6801   4.560   2.418   5.983
 1968SOL     OW 6802   2.933   6.007   6.982
 1968SOL    HW1 6803   2.850   5.962   0.000
 1968SOL    HW2 6804   2.958   6.081   0.029
 1969SOL     OW 6805   6.641   2.203   1.487
 1969SOL    HW1 6806   6.589   2.150   1.421
 1969SOL    HW2 6807   6.598   2.293   1.500
 1970SOL     OW 6808   2.185   0.660   5.768
 1970SOL    HW1 6809   2.266   0.623   5.814
 1970SOL    HW2 6810   2.166   0.752   5.802
 1971SOL     OW 6811   0.122   6.943   6.747
 1971SOL    HW1 6812   0.138   0.014   6.699
 1971SOL    HW2 6813   0.206   6.911   6.790
 1972SOL     OW 6814   0.657   3.208   3.225
 1972SOL    HW1 6815   0.563   3.243   3.226
 1972SOL    HW2 6816   0.675   3.156   3.308
 1973SOL     OW 6817   3.432   2.685   1.755
 1973SOL    HW1 6818   3.344   2.708   1.797
 1973SOL    HW2 6819   3.506   2.727   1.807
 1974SOL     OW 6820   6.091   6.278   3.753
 1974SOL    HW1 6821   6.064   6.365   3.793
 1974SOL    HW2 6822   6.125   6.217   3.825
 1975SOL     OW 6823   2.193   0.614   3.877
 1975SOL    HW1 6824   2.237   0.524   3.884
 1975SOL    HW2 6825   2.211   0.667   3.959
 1976SOL     OW 6826   0.407   6.008   0.394
 1976SOL    HW1 6827   0.453   5.993   0.482
 1976SOL    HW2 6828   0.332   6.073   0.406
 1977SOL     OW 6829   0.622   3.093   3.833
 1977SOL    HW1 6830   0.597   3.030   3.907
 1977SOL    HW2 6831   0.578   3.063   3.748
 1978SOL     OW 6832   1.151   1.487   4.245
 1978SOL    HW1 6833   1.145   1.526   4.336
 1978SOL    HW2 6834   1.205   1.403   4.248
 1979SOL     OW 6835   0.050   4.605   5.203
 1979SOL    HW1 6836   6.966   4.594   5.216
 1979SOL    HW2 6837   0.099   4.552   5.272
 1980SOL     OW 6838   3.215   0.178   0.536
 1980SOL    HW1 6839   3.202   0.101   0.473
 1980SOL    HW2 6840   3.305   0.172   0.578
 1981SOL     OW 6841   5.526   2.393   2.359
 1981SOL    HW1 6842   5.570   2.304   2.368
 1981SOL    HW2 6843   5.431   2.382   2.331
 1982SOL     OW 6844   6.144   4.921   5.255
 1982SOL    HW1 6845   6.213   4.867   5.206
 1982SOL    HW2 6846   6.153   5.017   5.229
 1983SOL     OW 6847   1.041   2.542   3.055
 1983SOL    HW1 6848   1.078   2.461   3.101
 1983SOL    HW2 6849   1.098   2.621   3.075
 1984SOL     OW 6850   4.668   2.131   5.968
 1984SOL    HW1 6851   4.766   2.145   5.978
 1984SOL    HW2 6852   4.650   2.063   5.898
 1985SOL     OW 6853   1.400   1.350   2.355
 1985SOL    HW1 6854   1.476   1.289   2.376
 1985SOL    HW2 6855   1.365   1.391   2.440
 1986SOL     OW 6856   1.543   1.561   0.104
 1986SOL    HW1 6857   1.455   1.514   0.096
 1986SOL    HW2 6858   1.550   1.604   0.194
 1987SOL     OW 6859   2.870   2.879   1.690
 1987SOL    HW1 6860   2.925   2.796   1.695
 1987SOL    HW2 6861   2.891   2.937   1.769
 1988SOL     OW 6862   5.105   4.414   0.327
 1988SOL    HW1 6863   5.194   4.368   0.329
 1988SOL    HW2 6864   5.108   4.495   0.385
 1989SOL     OW 6865   2.165   0.202   4.526
 1989SOL    HW1 6866   2.107   0.171   4.601
 1989SOL    HW2 6867   2.109   0.231   4.449
 1990SOL     OW 6868   3.273   0.424   1.991
 1990SOL    HW1 6869   3.372   0.414   1.995
 1990SOL    HW2 6870   3.241   0.412   1.897
 1991SOL     OW 6871   3.453   5.420   5.516
 1991SOL    HW1 6872   3.437   5.437   5.614
 1991SOL    HW2 6873   3.430   5.325   5.495
 1992SOL     OW 6874   3.120   6.991   5.764
 1992SOL    HW1 6875   3.186   6.927   5.802
 1992SOL    HW2 6876   3.057   0.005   5.835
 1993SOL     OW 6877   3.809   3.736   5.695
 1993SOL    HW1 6878   3.815   3.640   5.725
 1993SOL    HW2 6879   3.887   3.757   5.637
 1994SOL     OW 6880   1.033   2.153   2.011
 1994SOL    HW1 6881   1.023   2.054   1.998
 1994SOL    HW2 6882   1.126   2.180   1.986
 1995SOL     OW 6883   6.413   2.076   2.493
 1995SOL    HW1 6884   6.390   2.116   2.581
 1995SOL    HW2 6885   6.493   2.123   2.455
 1996SOL     OW 6886   3.127   2.732   1.115
 1996SOL    HW1 6887   3.113   2.804   1.182
 1996SOL    HW2 6888   3.165   2.651   1.160
 1997SOL     OW 6889   5.372   0.858   5.566
 1997SOL    HW1 6890   5.364   0.807   5.481
 1997SOL    HW2 6891   5.456   0.833   5.614
 1998SOL     OW 6892   2.955   3.936   6.363
 1998SOL    HW1 6893   3.040   3.955   6.412
 1998SOL    HW2 6894   2.949   3.838   6.342
 1999SOL     OW 6895   2.481   0.553   1.815
 1999SOL    HW1 6896   2.448   0.537   1.722
 1999SOL    HW2 6897   2.573   0.591   1.812
 2000SOL     OW 6898   4.110   1.768   5.157
 2000SOL    HW1 6899   4.083   1.779   5.253
 2000SOL    HW2 6900   4.047   1.819   5.099
 2001SOL     OW 6901   3.473   2.162   1.701
 2001SOL    HW1 6902   3.538   2.184   1.774
 2001SOL    HW2 6903   3.418   2.242   1.680
 2002SOL     OW 6904   1.471   6.218   6.477
 2002SOL    HW1 6905   1.406   6.283   6.519
 2002SOL    HW2 6906   1.564   6.249   6.495
 2003SOL     OW 6907   4.793   0.412   3.782
 2003SOL    HW1 6908   4.735   0.491   3.800
 2003SOL    HW2 6909   4.744   0.328   3.807
 2004SOL     OW 6910   4.950   0.993   4.758
 2004SOL    HW1 6911   4.903   0.936   4.691
 2004SOL    HW2 6912   5.047   1.002   4.732
 2005SOL     OW 6913   1.854   6.022   6.730
 2005SOL    HW1 6914   1.769   6.053   6.772
 2005SOL    HW2 6915   1.861   5.923   6.738
 2006SOL     OW 6916   5.192   4.399   3.694
 2006SOL    HW1 6917   5.116   4.419   3.756
 2006SOL    HW2 6918   5.245   4.482   3.679
 2007SOL     OW 6919   4.894   5.476   0.287
 2007SOL    HW1 6920   4.958   5.401   0.270
 2007SOL    HW2 6921   4.840   5.455   0.370
 2008SOL     OW 6922   0.415   5.885   3.832
 2008SOL    HW1 6923   0.365   5.811   3.877
 2008SOL    HW2 6924   0.411   5.873   3.733
 2009SOL     OW 6925   6.335   0.378   1.817
 2009SOL    HW1 6926   6.274   0.449   1.782
 2009SOL    HW2 6927   6.398   0.418   1.884
 2010SOL     OW 6928   1.906   1.016   1.067
 2010SOL    HW1 6929   1.812   0.998   1.041
 2010SOL    HW2 6930   1.965   0.944   1.031
 2011SOL     OW 6931   6.646   2.370   4.772
 2011SOL    HW1 6932   6.638   2.470   4.775
 2011SOL    HW2 6933   6.555   2.329   4.779
 2012SOL     OW 6934   0.529   3.562   1.279
 2012SOL    HW1 6935   0.495   3.566   1.185
 2012SOL    HW2 6936   0.621   3.601   1.283
 2013SOL     OW 6937   5.295   1.359   2.932
 2013SOL    HW1 6938   5.308   1.350   2.834
 2013SOL    HW2 6939   5.384   1.364   2.978
 2014SOL     OW 6940   1.161   5.511   3.467
 2014SOL    HW1 6941   1.084   5.484   3.524
 2014SOL    HW2 6942   1.153   5.608   3.443
 2015SOL     OW 6943   3.317   1.218   6.634
 2015SOL    HW1 6944   3.220   1.200   6.618
 2015SOL    HW2 6945   3.349   1.287   6.570
 2016SOL     OW 6946   0.462   5.327   4.629
 2016SOL    HW1 6947   0.410   5.385   4.693
 2016SOL    HW2 6948   0.560   5.339   4.645
 2017SOL     OW 6949   3.480   6.616   3.630
 2017SOL    HW1 6950   3.414   6.628   3.556
 2017SOL    HW2 6951   3.567   6.657   3.605
 2018SOL     OW 6952   6.945   5.579   5.687
 2018SOL    HW1 6953   6.995   5.492   5.685
 2018SOL    HW2 6954   6.960   5.627   5.601
 2019SOL     OW 6955   5.146   2.777   1.984
 2019SOL    HW1 6956   5.114   2.840   1.913
 2019SOL    HW2 6957   5.086   2.784   2.063
 2020SOL     OW 6958   1.363   5.246   4.927
 2020SOL    HW1 6959   1.420   5.164   4.922
 2020SOL    HW2 6960   1.267   5.219   4.917
 2021SOL     OW 6961   2.233   0.171   2.790
 2021SOL    HW1 6962   2.265   0.259   2.757
 2021SOL    HW2 6963   2.145   0.184   2.838
 2022SOL     OW 6964   1.816   3.906   1.645
 2022SOL    HW1 6965   1.899   3.942   1.603
 2022SOL    HW2 6966   1.820   3.806   1.645
 2023SOL     OW 6967   0.365   1.884   0.055
 2023SOL    HW1 6968   0.346   1.923   0.146
 2023SOL    HW2 6969   0.320   1.939   7.000
 2024SOL     OW 6970   6.688   0.961   2.707
 2024SOL    HW1 6971   6.626   0.887   2.680
 2024SOL    HW2 6972   6.682   1.035   2.641
 2025SOL     OW 6973   1.626   2.282   2.000
 2025SOL    HW1 6974   1.598   2.298   2.095
 2025SOL    HW2 6975   1.708   2.225   2.000
 2026SOL     OW 6976   1.773   2.297   6.212
 2026SOL    HW1 6977   1.869   2.270   6.224
 2026SOL    HW2 6978   1.714   2.234   6.263
 2027SOL     OW 6979   0.800   0.937   1.132
 2027SOL    HW1 6980   0.773   1.033   1.122
 2027SOL    HW2 6981   0.889   0.923   1.090
 2028SOL     OW 6982   3.587   1.468   0.469
 2028SOL    HW1 6983   3.556   1.488   0.562
 2028SOL    HW2 6984   3.539   1.528   0.405
 2029SOL     OW 6985   0.699   0.427   6.846
 2029SOL    HW1 6986   0.636   0.350   6.855
 2029SOL    HW2 6987   0.687   0.470   6.756
 2030SOL     OW 6988   1.442   2.497   3.375
 2030SOL    HW1 6989   1.455   2.400   3.351
 2030SOL    HW2 6990   1.526   2.533   3.416
 2031SOL     OW 6991   5.418   6.215   2.237
 2031SOL    HW1 6992   5.426   6.286   2.168
 2031SOL    HW2 6993   5.361   6.248   2.313
 2032SOL     OW 6994   5.545   6.403   1.234
 2032SOL    HW1 6995   5.505   6.408   1.142
 2032SOL    HW2 6996   5.574   6.494   1.262
 2033SOL     OW 6997   4.059   4.233   6.480
 2033SOL    HW1 6998   4.048   4.168   6.556
 2033SOL    HW2 6999   3.970   4.270   6.455
 2034SOL     OW 7000   1.632   6.487   3.764
 2034SOL    HW1 7001   1.693   6.425   3.814
 2034SOL    HW2 7002   1.539   6.474   3.798
 2035SOL     OW 7003   6.761   1.890   2.810
 2035SOL    HW1 7004   6.729   1.841   2.891
 2035SOL    HW2 7005   6.814   1.828   2.752
 2036SOL     OW 7006   0.380   5.959   1.795
 2036SOL    HW1 7007   0.336   6.013   1.724
 2036SOL    HW2 7008   0.311   5.908   1.846
 2037SOL     OW 7009   6.596   2.202   5.891
 2037SOL    HW1 7010   6.606   2.182   5.794
 2037SOL    HW2 7011   6.654   2.141   5.944
 2038SOL     OW 7012   0.442   2.047   6.699
 2038SOL    HW1 7013   0.491   1.984   6.638
 2038SOL    HW2 7014   0.358   2.004   6.731
 2039SOL     OW 7015   0.330   5.732   3.153
 2039SOL    HW1 7016   0.347   5.685   3.239
 2039SOL    HW2 7017   0.329   5.665   3.078
 2040SOL     OW 7018   3.332   2.828   4.937
 2040SOL    HW1 7019   3.336   2.728   4.941
 2040SOL    HW2 7020   3.310   2.857   4.843
 2041SOL     OW 7021   6.445   5.647   6.444
 2041SOL    HW1 7022   6.483   5.559   6.415
 2041SOL    HW2 7023   6.476   5.719   6.382
 2042SOL     OW 7024   5.770   5.261   6.994
 2042SOL    HW1 7025   5.735   5.353   6.979
 2042SOL    HW2 7026   5.808   5.224   6.909
 2043SOL     OW 7027   6.614   5.434   2.043
 2043SOL    HW1 7028   6.607   5.392   2.134
 2043SOL    HW2 7029   6.661   5.371   1.981
 2044SOL     OW 7030   4.917   0.318   1.961
 2044SOL    HW1 7031   5.002   0.359   1.994
 2044SOL    HW2 7032   4.846   0.328   2.031
 2045SOL     OW 7033   1.536   4.477   5.020
 2045SOL    HW1 7034   1.445   4.483   5.060
 2045SOL    HW2 7035   1.593   4.415   5.074
 2046SOL     OW 7036   0.022   0.626   4.142
 2046SOL    HW1 7037   0.092   0.560   4.168
 2046SOL    HW2 7038   6.947   0.591   4.166
 2047SOL     OW 7039   4.504   1.705   0.347
 2047SOL    HW1 7040   4.421   1.693   0.402
 2047SOL    HW2 7041   4.531   1.801   0.348
 2048SOL     OW 7042   3.889   6.295   6.843
 2048SOL    HW1 7043   3.934   6.372   6.798
 2048SOL    HW2 7044   3.827   6.329   6.914
 2049SOL     OW 7045   4.584   2.250   6.568
 2049SOL    HW1 7046   4.522   2.324   6.595
 2049SOL    HW2 7047   4.650   2.284   6.501
 2050SOL     OW 7048   6.203   2.731   3.624
 2050SOL    HW1 7049   6.131   2.742   3.692
 2050SOL    HW2 7050   6.260   2.813   3.621
 2051SOL     OW 7051   6.630   4.810   6.772
 2051SOL    HW1 7052   6.628   4.854   6.683
 2051SOL    HW2 7053   6.695   4.734   6.771
 2052SOL     OW 7054   0.153   3.214   6.943
 2052SOL    HW1 7055   0.059   3.224   6.912
 2052SOL    HW2 7056   0.176   3.290   7.004
 2053SOL     OW 7057   6.208   0.694   0.943
 2053SOL    HW1 7058   6.268   0.759   0.896
 2053SOL    HW2 7059   6.195   0.724   1.037
 2054SOL     OW 7060   5.516   3.036   1.559
 2054SOL    HW1 7061   5.476   3.126   1.545
 2054SOL    HW2 7062   5.443   2.968   1.565
 2055SOL     OW 7063   5.516   3.434   3.041
 2055SOL    HW1 7064   5.560   3.367   3.100
 2055SOL    HW2 7065   5.573   3.516   3.033
 2056SOL     OW 7066   2.151   1.528   2.445
 2056SOL    HW1 7067   2.192   1.535   2.354
 2056SOL    HW2 7068   2.125   1.620   2.477
 2057SOL     OW 7069   5.651   2.298   3.879
 2057SOL    HW1 7070   5.619   2.377   3.930
 2057SOL    HW2 7071   5.612   2.300   3.787
 2058SOL     OW 7072   0.961   1.671   2.946
 2058SOL    HW1 7073   0.956   1.636   2.852
 2058SOL    HW2 7074   0.881   1.640   2.997
 2059SOL     OW 7075   2.268   6.504   6.369
 2059SOL    HW1 7076   2.174   6.481   6.343
 2059SOL    HW2 7077   2.289   6.597   6.340
 2060SOL     OW 7078   6.785   4.485   0.852
 2060SOL    HW1 7079   6.764   4.417   0.923
 2060SOL    HW2 7080   6.718   4.559   0.855
 2061SOL     OW 7081   0.591   1.757   2.809
 2061SOL    HW1 7082   0.674   1.750   2.865
 2061SOL    HW2 7083   0.566   1.853   2.799
 2062SOL     OW 7084   5.231   0.573   3.083
 2062SOL    HW1 7085   5.303   0.618   3.136
 2062SOL    HW2 7086   5.191   0.639   3.019
 2063SOL     OW 7087   0.774   1.045   6.862
 2063SOL    HW1 7088   0.827   0.979   6.809
 2063SOL    HW2 7089   0.832   1.084   6.934
 2064SOL     OW 7090   0.644   1.696   5.607
 2064SOL    HW1 7091   0.599   1.610   5.583
 2064SOL    HW2 7092   0.584   1.750   5.665
 2065SOL     OW 7093   5.902   3.678   2.214
 2065SOL    HW1 7094   5.937   3.585   2.203
 2065SOL    HW2 7095   5.964   3.730   2.273
 2066SOL     OW 7096   0.725   5.942   4.319
 2066SOL    HW1 7097   0.793   5.914   4.386
 2066SOL    HW2 7098   0.771   5.992   4.245
 2067SOL     OW 7099   0.482   6.442   0.970
 2067SOL    HW1 7100   0.393   6.406   0.996
 2067SOL    HW2 7101   0.513   6.400   0.885
 2068SOL     OW 7102   1.194   1.447   5.473
 2068SOL    HW1 7103   1.193   1.384   5.396
 2068SOL    HW2 7104   1.184   1.541   5.440
 2069SOL     OW 7105   0.387   2.639   3.320
 2069SOL    HW1 7106   0.443   2.560   3.296
 2069SOL    HW2 7107   0.328   2.663   3.243
 2070SOL     OW 7108   1.945   6.938   2.543
 2070SOL    HW1 7109   1.959   6.877   2.466
 2070SOL    HW2 7110   1.967   0.017   2.516
 2071SOL     OW 7111   0.082   6.101   4.884
 2071SOL    HW1 7112   0.152   6.099   4.813
 2071SOL    HW2 7113   0.124   6.089   4.974
 2072SOL     OW 7114   4.334   6.324   1.564
 2072SOL    HW1 7115   4.375   6.370   1.643
 2072SOL    HW2 7116   4.405   6.274   1.515
 2073SOL     OW 7117   3.661   6.792   4.645
 2073SOL    HW1 7118   3.562   6.785   4.630
 2073SOL    HW2 7119   3.683   6.885   4.674
 2074SOL     OW 7120   0.529   2.630   6.492
 2074SOL    HW1 7121   0.478   2.634   6.406
 2074SOL    HW2 7122   0.625   2.650   6.475
 2075SOL     OW 7123   5.094   2.524   1.219
 2075SOL    HW1 7124   5.023   2.453   1.218
 2075SOL    HW2 7125   5.145   2.521   1.133
 2076SOL     OW 7126   5.261   6.013   6.894
 2076SOL    HW1 7127   5.297   5.975   6.808
 2076SOL    HW2 7128   5.243   6.110   6.882
 2077SOL     OW 7129   4.814   2.606   1.901
 2077SOL    HW1 7130   4.787   2.627   1.995
 2077SOL    HW2 7131   4.774   2.674   1.840
 2078SOL     OW 7132   2.454   5.966   6.580
 2078SOL    HW1 7133   2.512   5.893   6.545
 2078SOL    HW2 7134   2.470   6.049   6.526
 2079SOL     OW 7135   5.829   1.223   3.902
 2079SOL    HW1 7136   5.786   1.311   3.880
 2079SOL    HW2 7137   5.759   1.159   3.934
 2080SOL     OW 7138   1.864   1.544   4.953
 2080SOL    HW1 7139   1.891   1.626   5.003
 2080SOL    HW2 7140   1.803   1.488   5.010
 2081SOL     OW 7141   1.637   5.820   4.874
 2081SOL    HW1 7142   1.588   5.877   4.941
 2081SOL    HW2 7143   1.729   5.857   4.861
 2082SOL     OW 7144   6.222   0.135   2.192
 2082SOL    HW1 7145   6.206   0.226   2.232
 2082SOL    HW2 7146   6.320   0.121   2.182
 2083SOL     OW 7147   3.798   3.848   6.396
 2083SOL    HW1 7148   3.733   3.800   6.454
 2083SOL    HW2 7149   3.858   3.782   6.351
 2084SOL     OW 7150   0.226   4.314   3.688
 2084SOL    HW1 7151   0.193   4.342   3.598
 2084SOL    HW2 7152   0.158   4.257   3.733
 2085SOL     OW 7153   5.349   1.004   6.953
 2085SOL    HW1 7154   5.344   1.072   0.010
 2085SOL    HW2 7155   5.293   0.925   6.977
 2086SOL     OW 7156   3.009   5.687   6.011
 2086SOL    HW1 7157   3.101   5.693   5.973
 2086SOL    HW2 7158   2.952   5.631   5.951
 2087SOL     OW 7159   4.522   6.787   1.979
 2087SOL    HW1 7160   4.457   6.714   2.001
 2087SOL    HW2 7161   4.472   6.872   1.961
 2088SOL     OW 7162   2.857   5.444   0.676
 2088SOL    HW1 7163   2.925   5.433   0.748
 2088SOL    HW2 7164   2.873   5.375   0.605
 2089SOL     OW 7165   4.081   1.388   6.985
 2089SOL    HW1 7166   3.981   1.387   6.983
 2089SOL    HW2 7167   4.115   1.460   6.924
 2090SOL     OW 7168   4.054   3.301   4.588
 2090SOL    HW1 7169   4.107   3.298   4.504
 2090SOL    HW2 7170   4.105   3.349   4.659
 2091SOL     OW 7171   0.271   6.281   0.233
 2091SOL    HW1 7172   0.256   6.229   0.149
 2091SOL    HW2 7173   0.243   6.226   0.311
 2092SOL     OW 7174   5.176   5.688   0.467
 2092SOL    HW1 7175   5.272   5.662   0.455
 2092SOL    HW2 7176   5.147   5.745   0.390
 2093SOL     OW 7177   1.847   2.011   1.596
 2093SOL    HW1 7178   1.829   2.086   1.533
 2093SOL    HW2 7179   1.930   1.962   1.568
 2094SOL     OW 7180   5.751   1.637   1.393
 2094SOL    HW1 7181   5.761   1.696   1.313
 2094SOL    HW2 7182   5.765   1.690   1.476
 2095SOL     OW 7183   5.596   0.017   4.113
 2095SOL    HW1 7184   5.542   0.002   4.196
 2095SOL    HW2 7185   5.693   0.025   4.138
 2096SOL     OW 7186   4.916   3.802   2.649
 2096SOL    HW1 7187   4.991   3.861   2.679
 2096SOL    HW2 7188   4.947   3.747   2.571
 2097SOL     OW 7189   1.246   2.890   6.871
 2097SOL    HW1 7190   1.203   2.805   6.901
 2097SOL    HW2 7191   1.339   2.871   6.839
 2098SOL     OW 7192   4.016   5.464   3.318
 2098SOL    HW1 7193   4.097   5.465   3.377
 2098SOL    HW2 7194   3.986   5.370   3.305
 2099SOL     OW 7195   2.484   2.404   5.142
 2099SOL    HW1 7196   2.499   2.495   5.181
 2099SOL    HW2 7197   2.545   2.338   5.186
 2100SOL     OW 7198   3.802   3.667   6.062
 2100SOL    HW1 7199   3.833   3.603   5.992
 2100SOL    HW2 7200   3.847   3.648   6.148
 2101SOL     OW 7201   1.599   6.517   2.714
 2101SOL    HW1 7202   1.547   6.532   2.630
 2101SOL    HW2 7203   1.577   6.428   2.753
 2102SOL     OW 7204   0.625   5.502   1.730
 2102SOL    HW1 7205   0.569   5.585   1.728
 2102SOL    HW2 7206   0.571   5.425   1.696
 2103SOL     OW 7207   2.953   3.565   6.446
 2103SOL    HW1 7208   2.890   3.611   6.383
 2103SOL    HW2 7209   2.923   3.471   6.461
 2104SOL     OW 7210   1.187   3.486   6.628
 2104SOL    HW1 7211   1.210   3.411   6.566
 2104SOL    HW2 7212   1.220   3.465   6.720
 2105SOL     OW 7213   5.294   5.056   3.892
 2105SOL    HW1 7214   5.380   5.106   3.885
 2105SOL    HW2 7215   5.246   5.060   3.805
 2106SOL     OW 7216   4.500   5.030   0.512
 2106SOL    HW1 7217   4.481   5.038   0.414
 2106SOL    HW2 7218   4.534   5.118   0.546
 2107SOL     OW 7219   4.355   2.613   5.602
 2107SOL    HW1 7220   4.425   2.557   5.556
 2107SOL    HW2 7221   4.291   2.648   5.534
 2108SOL     OW 7222   0.091   6.305   5.666
 2108SOL    HW1 7223   0.002   6.342   5.693
 2108SOL    HW2 7224   0.141   6.275   5.747
 2109SOL     OW 7225   4.823   6.818   3.665
 2109SOL    HW1 7226   4.823   6.883   3.741
 2109SOL    HW2 7227   4.768   6.855   3.589
 2110SOL     OW 7228   3.127   3.161   5.814
 2110SOL    HW1 7229   3.060   3.123   5.877
 2110SOL    HW2 7230   3.098   3.253   5.787
 2111SOL     OW 7231   0.907   1.878   6.265
 2111SOL    HW1 7232   0.995   1.907   6.302
 2111SOL    HW2 7233   0.897   1.779   6.275
 2112SOL     OW 7234   4.217   1.950   1.311
 2112SOL    HW1 7235   4.222   2.049   1.294
 2112SOL    HW2 7236   4.125   1.918   1.293
 2113SOL     OW 7237   1.314   0.551   4.112
 2113SOL    HW1 7238   1.217   0.527   4.114
 2113SOL    HW2 7239   1.324   0.650   4.120
 2114SOL     OW 7240   1.505   2.696   0.125
 2114SOL    HW1 7241   1.566   2.678   0.202
 2114SOL    HW2 7242   1.535   2.644   0.046
 2115SOL     OW 7243   2.189   4.054   2.524
 2115SOL    HW1 7244   2.167   4.069   2.428
 2115SOL    HW2 7245   2.177   4.140   2.575
 2116SOL     OW 7246   0.122   4.897   3.374
 2116SOL    HW1 7247   0.111   4.972   3.439
 2116SOL    HW2 7248   0.115   4.809   3.422
 2117SOL     OW 7249   0.390   4.877   1.081
 2117SOL    HW1 7250   0.475   4.894   1.031
 2117SOL    HW2 7251   0.316   4.860   1.017
 2118SOL     OW 7252   6.980   3.656   2.331
 2118SOL    HW1 7253   6.906   3.682   2.269
 2118SOL    HW2 7254   6.942   3.629   2.419
 2119SOL     OW 7255   2.192   5.866   1.176
 2119SOL    HW1 7256   2.255   5.793   1.199
 2119SOL    HW2 7257   2.103   5.849   1.220
 2120SOL     OW 7258   6.969   4.927   3.868
 2120SOL    HW1 7259   0.002   4.932   3.955
 2120SOL    HW2 7260   6.879   4.887   3.882
 2121SOL     OW 7261   1.137   4.601   5.787
 2121SOL    HW1 7262   1.058   4.607   5.727
 2121SOL    HW2 7263   1.207   4.667   5.759
 2122SOL     OW 7264   6.393   4.011   5.397
 2122SOL    HW1 7265   6.296   4.007   5.372
 2122SOL    HW2 7266   6.413   4.100   5.437
 2123SOL     OW 7267   0.163   4.704   2.178
 2123SOL    HW1 7268   0.071   4.726   2.209
 2123SOL    HW2 7269   0.185   4.609   2.200
 2124SOL     OW 7270   2.495   1.363   1.774
 2124SOL    HW1 7271   2.566   1.341   1.707
 2124SOL    HW2 7272   2.414   1.397   1.726
 2125SOL     OW 7273   1.702   0.314   0.242
 2125SOL    HW1 7274   1.779   0.258   0.273
 2125SOL    HW2 7275   1.647   0.341   0.321
 2126SOL     OW 7276   2.907   0.826   1.211
 2126SOL    HW1 7277   2.946   0.768   1.282
 2126SOL    HW2 7278   2.939   0.795   1.121
 2127SOL     OW 7279   6.166   3.498   4.315
 2127SOL    HW1 7280   6.091   3.559   4.288
 2127SOL    HW2 7281   6.252   3.533   4.278
 2128SOL     OW 7282   6.801   3.793   4.706
 2128SOL    HW1 7283   6.876   3.775   4.643
 2128SOL    HW2 7284   6.715   3.760   4.667
 2129SOL     OW 7285   4.468   3.046   5.445
 2129SOL    HW1 7286   4.407   3.076   5.371
 2129SOL    HW2 7287   4.543   2.992   5.407
 2130SOL     OW 7288   4.500   0.076   2.910
 2130SOL    HW1 7289   4.581   0.019   2.894
 2130SOL    HW2 7290   4.529   0.168   2.936
 2131SOL     OW 7291   6.655   1.007   1.423
 2131SOL    HW1 7292   6.646   1.073   1.498
 2131SOL    HW2 7293   6.742   0.958   1.433
 2132SOL     OW 7294   4.165   2.441   1.467
 2132SOL    HW1 7295   4.133   2.395   1.550
 2132SOL    HW2 7296   4.223   2.519   1.492
 2133SOL     OW 7297   2.423   2.993   5.916
 2133SOL    HW1 7298   2.428   3.076   5.860
 2133SOL    HW2 7299   2.441   2.913   5.859
 2134SOL     OW 7300   0.464   2.564   0.507
 2134SOL    HW1 7301   0.450   2.490   0.441
 2134SOL    HW2 7302   0.452   2.527   0.600
 2135SOL     OW 7303   0.916   4.182   4.583
 2135SOL    HW1 7304   0.925   4.092   4.540
 2135SOL    HW2 7305   1.007   4.218   4.603
 2136SOL     OW 7306   2.433   4.880   2.556
 2136SOL    HW1 7307   2.424   4.976   2.581
 2136SOL    HW2 7308   2.529   4.859   2.537
 2137SOL     OW 7309   2.941   5.070   5.412
 2137SOL    HW1 7310   2.950   5.170   5.417
 2137SOL    HW2 7311   2.858   5.047   5.360
 2138SOL     OW 7312   6.202   6.666   2.724
 2138SOL    HW1 7313   6.188   6.734   2.652
 2138SOL    HW2 7314   6.136   6.592   2.715
 2139SOL     OW 7315   4.138   0.844   4.250
 2139SOL    HW1 7316   4.123   0.943   4.250
 2139SOL    HW2 7317   4.235   0.824   4.239
 2140SOL     OW 7318   2.785   6.345   4.237
 2140SOL    HW1 7319   2.781   6.247   4.257
 2140SOL    HW2 7320   2.704   6.372   4.184
 2141SOL     OW 7321   6.392   2.952   2.272
 2141SOL    HW1 7322   6.433   2.977   2.184
 2141SOL    HW2 7323   6.307   2.903   2.257
 2142SOL     OW 7324   0.586   1.646   3.483
 2142SOL    HW1 7325   0.667   1.598   3.449
 2142SOL    HW2 7326   0.560   1.716   3.417
 2143SOL     OW 7327   2.298   4.890   1.297
 2143SOL    HW1 7328   2.318   4.833   1.376
 2143SOL    HW2 7329   2.257   4.976   1.327
 2144SOL     OW 7330   0.741   5.390   4.691
 2144SOL    HW1 7331   0.771   5.393   4.786
 2144SOL    HW2 7332   0.787   5.462   4.639
 2145SOL     OW 7333   4.070   6.685   4.326
 2145SOL    HW1 7334   4.073   6.774   4.280
 2145SOL    HW2 7335   3.975   6.655   4.333
 2146SOL     OW 7336   2.303   2.001   1.176
 2146SOL    HW1 7337   2.378   1.971   1.234
 2146SOL    HW2 7338   2.311   2.099   1.159
 2147SOL     OW 7339   6.114   1.063   6.712
 2147SOL    HW1 7340   6.162   1.054   6.799
 2147SOL    HW2 7341   6.099   1.160   6.692
 2148SOL     OW 7342   6.286   3.559   6.526
 2148SOL    HW1 7343   6.216   3.493   6.497
 2148SOL    HW2 7344   6.370   3.542   6.475
 2149SOL     OW 7345   1.881   1.356   1.172
 2149SOL    HW1 7346   1.929   1.443   1.181
 2149SOL    HW2 7347   1.944   1.286   1.138
 2150SOL     OW 7348   2.483   2.296   1.722
 2150SOL    HW1 7349   2.561   2.346   1.759
 2150SOL    HW2 7350   2.400   2.350   1.732
 2151SOL     OW 7351   1.217   6.323   6.551
 2151SOL    HW1 7352   1.127   6.366   6.558
 2151SOL    HW2 7353   1.210   6.239   6.497
 2152SOL     OW 7354   4.400   4.529   2.713
 2152SOL    HW1 7355   4.386   4.573   2.801
 2152SOL    HW2 7356   4.482   4.472   2.716
 2153SOL     OW 7357   5.021   1.849   1.922
 2153SOL    HW1 7358   5.095   1.786   1.902
 2153SOL    HW2 7359   4.958   1.808   1.988
 2154SOL     OW 7360   3.148   0.252   4.116
 2154SOL    HW1 7361   3.070   0.306   4.147
 2154SOL    HW2 7362   3.224   0.313   4.093
 2155SOL     OW 7363   4.128   6.969   1.086
 2155SOL    HW1 7364   4.193   6.928   1.151
 2155SOL    HW2 7365   4.098   6.899   1.022
 2156SOL     OW 7366   6.917   0.018   4.821
 2156SOL    HW1 7367   6.927   0.059   4.731
 2156SOL    HW2 7368   7.005   6.994   4.850
 2157SOL     OW 7369   5.439   6.140   3.886
 2157SOL    HW1 7370   5.341   6.157   3.901
 2157SOL    HW2 7371   5.471   6.197   3.810
 2158SOL     OW 7372   4.176   5.770   0.171
 2158SOL    HW1 7373   4.184   5.870   0.166
 2158SOL    HW2 7374   4.079   5.745   0.170
 2159SOL     OW 7375   1.482   0.413   5.064
 2159SOL    HW1 7376   1.426   0.394   5.145
 2159SOL    HW2 7377   1.569   0.454   5.093
 2160SOL     OW 7378   5.185   4.801   6.881
 2160SOL    HW1 7379   5.137   4.739   6.944
 2160SOL    HW2 7380   5.213   4.750   6.800
 2161SOL     OW 7381   6.509   4.184   1.625
 2161SOL    HW1 7382   6.511   4.180   1.725
 2161SOL    HW2 7383   6.595   4.146   1.589
 2162SOL     OW 7384   2.640   0.076   2.685
 2162SOL    HW1 7385   2.673   0.061   2.592
 2162SOL    HW2 7386   2.716   0.070   2.749
 2163SOL     OW 7387   1.238   4.394   0.681
 2163SOL    HW1 7388   1.337   4.403   0.675
 2163SOL    HW2 7389   1.204   4.346   0.600
 2164SOL     OW 7390   2.397   1.940   6.659
 2164SOL    HW1 7391   2.302   1.916   6.676
 2164SOL    HW2 7392   2.448   1.858   6.630
 2165SOL     OW 7393   0.529   2.427   3.839
 2165SOL    HW1 7394   0.586   2.345   3.833
 2165SOL    HW2 7395   0.435   2.404   3.812
 2166SOL     OW 7396   0.372   3.597   4.261
 2166SOL    HW1 7397   0.367   3.553   4.172
 2166SOL    HW2 7398   0.449   3.561   4.313
 2167SOL     OW 7399   0.386   3.451   3.853
 2167SOL    HW1 7400   0.297   3.491   3.877
 2167SOL    HW2 7401   0.413   3.386   3.924
 2168SOL     OW 7402   1.216   1.580   3.038
 2168SOL    HW1 7403   1.172   1.492   3.057
 2168SOL    HW2 7404   1.147   1.648   3.017
 2169SOL     OW 7405   6.779   0.719   1.248
 2169SOL    HW1 7406   6.836   0.680   1.321
 2169SOL    HW2 7407   6.835   0.776   1.188
 2170SOL     OW 7408   6.720   4.159   5.027
 2170SOL    HW1 7409   6.629   4.120   5.041
 2170SOL    HW2 7410   6.788   4.104   5.076
 2171SOL     OW 7411   1.238   5.305   1.563
 2171SOL    HW1 7412   1.236   5.208   1.589
 2171SOL    HW2 7413   1.177   5.319   1.485
 2172SOL     OW 7414   2.441   2.354   5.700
 2172SOL    HW1 7415   2.461   2.420   5.627
 2172SOL    HW2 7416   2.443   2.261   5.663
 2173SOL     OW 7417   4.767   0.551   5.525
 2173SOL    HW1 7418   4.772   0.552   5.425
 2173SOL    HW2 7419   4.695   0.613   5.555
 2174SOL     OW 7420   6.709   6.164   4.930
 2174SOL    HW1 7421   6.630   6.158   4.870
 2174SOL    HW2 7422   6.690   6.112   5.014
 2175SOL     OW 7423   1.677   3.630   4.563
 2175SOL    HW1 7424   1.721   3.625   4.652
 2175SOL    HW2 7425   1.674   3.539   4.522
 2176SOL     OW 7426   5.184   1.717   1.542
 2176SOL    HW1 7427   5.111   1.777   1.576
 2176SOL    HW2 7428   5.264   1.773   1.519
 2177SOL     OW 7429   6.738   0.306   2.253
 2177SOL    HW1 7430   6.669   0.237   2.229
 2177SOL    HW2 7431   6.769   0.353   2.171
 2178SOL     OW 7432   1.488   1.176   1.963
 2178SOL    HW1 7433   1.457   1.095   1.913
 2178SOL    HW2 7434   1.588   1.176   1.966
 2179SOL     OW 7435   2.046   3.584   6.117
 2179SOL    HW1 7436   2.030   3.683   6.119
 2179SOL    HW2 7437   2.101   3.557   6.196
 2180SOL     OW 7438   1.118   2.837   1.969
 2180SOL    HW1 7439   1.116   2.936   1.987
 2180SOL    HW2 7440   1.197   2.797   2.014
 2181SOL     OW 7441   4.561   5.082   3.887
 2181SOL    HW1 7442   4.615   4.999   3.907
 2181SOL    HW2 7443   4.516   5.113   3.971
 2182SOL     OW 7444   0.925   4.963   3.630
 2182SOL    HW1 7445   0.932   4.989   3.533
 2182SOL    HW2 7446   0.952   4.868   3.641
 2183SOL     OW 7447   2.431   3.984   0.340
 2183SOL    HW1 7448   2.359   3.985   0.270
 2183SOL    HW2 7449   2.516   3.949   0.300
 2184SOL     OW 7450   3.948   6.660   6.335
 2184SOL    HW1 7451   3.946   6.624   6.242
 2184SOL    HW2 7452   3.951   6.760   6.333
 2185SOL     OW 7453   1.062   1.357   6.727
 2185SOL    HW1 7454   0.983   1.383   6.783
 2185SOL    HW2 7455   1.033   1.343   6.632
 2186SOL     OW 7456   6.533   5.825   6.648
 2186SOL    HW1 7457   6.525   5.750   6.582
 2186SOL    HW2 7458   6.542   5.787   6.740
 2187SOL     OW 7459   0.141   6.328   2.363
 2187SOL    HW1 7460   0.062   6.271   2.380
 2187SOL    HW2 7461   0.172   6.315   2.269
 2188SOL     OW 7462   1.781   5.628   5.543
 2188SOL    HW1 7463   1.763   5.599   5.449
 2188SOL    HW2 7464   1.813   5.549   5.596
 2189SOL     OW 7465   1.524   6.997   1.465
 2189SOL    HW1 7466   1.457   0.008   1.534
 2189SOL    HW2 7467   1.517   0.043   1.386
 2190SOL     OW 7468   6.301   3.066   1.824
 2190SOL    HW1 7469   6.305   3.078   1.725
 2190SOL    HW2 7470   6.356   2.987   1.851
 2191SOL     OW 7471   2.305   1.756   5.460
 2191SOL    HW1 7472   2.323   1.667   5.501
 2191SOL    HW2 7473   2.245   1.810   5.520
 2192SOL     OW 7474   4.837   0.545   2.913
 2192SOL    HW1 7475   4.757   0.495   2.879
 2192SOL    HW2 7476   4.821   0.573   3.008
 2193SOL     OW 7477   6.667   0.579   6.005
 2193SOL    HW1 7478   6.675   0.553   6.101
 2193SOL    HW2 7479   6.742   0.642   5.981
 2194SOL     OW 7480   1.920   3.960   6.589
 2194SOL    HW1 7481   1.845   3.946   6.654
 2194SOL    HW2 7482   1.902   4.042   6.535
 2195SOL     OW 7483   7.014   6.678   5.641
 2195SOL    HW1 7484   0.034   6.721   5.558
 2195SOL    HW2 7485   6.915   6.669   5.635
 2196SOL     OW 7486   2.855   6.598   4.284
 2196SOL    HW1 7487   2.776   6.644   4.326
 2196SOL    HW2 7488   2.829   6.505   4.257
 2197SOL     OW 7489   3.204   3.436   5.999
 2197SOL    HW1 7490   3.177   3.453   5.904
 2197SOL    HW2 7491   3.126   3.400   6.050
 2198SOL     OW 7492   6.192   0.498   1.436
 2198SOL    HW1 7493   6.181   0.594   1.412
 2198SOL    HW2 7494   6.151   0.481   1.526
 2199SOL     OW 7495   5.030   6.824   4.324
 2199SOL    HW1 7496   5.103   6.809   4.390
 2199SOL    HW2 7497   5.026   6.746   4.261
 2200SOL     OW 7498   2.102   1.571   3.938
 2200SOL    HW1 7499   2.080   1.572   4.036
 2200SOL    HW2 7500   2.019   1.588   3.885
 2201SOL     OW 7501   6.136   2.584   3.012
 2201SOL    HW1 7502   6.088   2.581   2.925
 2201SOL    HW2 7503   6.125   2.674   3.054
 2202SOL     OW 7504   3.910   5.801   1.914
 2202SOL    HW1 7505   3.985   5.813   1.850
 2202SOL    HW2 7506   3.831   5.854   1.884
 2203SOL     OW 7507   2.795   3.239   1.359
 2203SOL    HW1 7508   2.849   3.240   1.443
 2203SOL    HW2 7509   2.806   3.150   1.314
 2204SOL     OW 7510   4.110   2.547   1.040
 2204SOL    HW1 7511   4.057   2.505   1.113
 2204SOL    HW2 7512   4.094   2.497   0.954
 2205SOL     OW 7513   1.487   0.232   0.044
 2205SOL    HW1 7514   1.443   0.144   0.061
 2205SOL    HW2 7515   1.560   0.247   0.110
 2206SOL     OW 7516   2.615   4.191   5.764
 2206SOL    HW1 7517   2.634   4.287   5.743
 2206SOL    HW2 7518   2.521   4.183   5.797
 2207SOL     OW 7519   3.429   4.194   6.864
 2207SOL    HW1 7520   3.398   4.255   6.792
 2207SOL    HW2 7521   3.353   4.139   6.897
 2208SOL     OW 7522   1.009   5.163   2.664
 2208SOL    HW1 7523   1.013   5.063   2.666
 2208SOL    HW2 7524   1.053   5.199   2.745
 2209SOL     OW 7525   2.591   6.758   4.976
 2209SOL    HW1 7526   2.640   6.731   5.059
 2209SOL    HW2 7527   2.519   6.692   4.956
 2210SOL     OW 7528   6.953   4.841   3.159
 2210SOL    HW1 7529   7.013   4.862   3.236
 2210SOL    HW2 7530   6.978   4.753   3.119
 2211SOL     OW 7531   6.547   0.754   0.624
 2211SOL    HW1 7532   6.579   0.800   0.707
 2211SOL    HW2 7533   6.607   0.779   0.547
 2212SOL     OW 7534   2.107   5.822   0.383
 2212SOL    HW1 7535   2.146   5.845   0.294
 2212SOL    HW2 7536   2.058   5.735   0.376
 2213SOL     OW 7537   3.938   2.345   5.844
 2213SOL    HW1 7538   4.029   2.362   5.805
 2213SOL    HW2 7539   3.869   2.358   5.773
 2214SOL     OW 7540   2.975   3.670   4.927
 2214SOL    HW1 7541   2.948   3.759   4.891
 2214SOL    HW2 7542   2.931   3.654   5.015
 2215SOL     OW 7543   5.985   0.732   6.786
 2215SOL    HW1 7544   6.067   0.753   6.733
 2215SOL    HW2 7545   6.009   0.680   6.867
 2216SOL     OW 7546   0.738   0.622   5.922
 2216SOL    HW1 7547   0.837   0.613   5.924
 2216SOL    HW2 7548   0.710   0.654   5.831
 2217SOL     OW 7549   4.381   0.221   2.578
 2217SOL    HW1 7550   4.369   0.147   2.645
 2217SOL    HW2 7551   4.292   0.264   2.560
 2218SOL     OW 7552   0.122   5.150   0.171
 2218SOL    HW1 7553   0.096   5.232   0.222
 2218SOL    HW2 7554   0.068   5.072   0.204
 2219SOL     OW 7555   5.970   1.638   0.664
 2219SOL    HW1 7556   5.931   1.697   0.593
 2219SOL    HW2 7557   5.913   1.643   0.746
 2220SOL     OW 7558   2.244   5.919   5.760
 2220SOL    HW1 7559   2.248   5.878   5.852
 2220SOL    HW2 7560   2.204   6.011   5.767
 2221SOL     OW 7561   6.194   1.392   5.052
 2221SOL    HW1 7562   6.138   1.447   5.115
 2221SOL    HW2 7563   6.259   1.337   5.104
 2222SOL     OW 7564   5.919   0.318   1.008
 2222SOL    HW1 7565   5.959   0.339   0.920
 2222SOL    HW2 7566   5.945   0.225   1.036
 2223SOL     OW 7567   5.980   0.515   6.127
 2223SOL    HW1 7568   5.946   0.531   6.220
 2223SOL    HW2 7569   6.037   0.592   6.098
 2224SOL     OW 7570   6.311   3.711   0.889
 2224SOL    HW1 7571   6.379   3.664   0.945
 2224SOL    HW2 7572   6.356   3.781   0.833
 2225SOL     OW 7573   6.043   0.029   3.966
 2225SOL    HW1 7574   5.966   0.070   3.917
 2225SOL    HW2 7575   6.030   6.945   3.973
 2226SOL     OW 7576   3.694   5.051   1.019
 2226SOL    HW1 7577   3.632   5.022   0.946
 2226SOL    HW2 7578   3.693   4.984   1.093
 2227SOL     OW 7579   5.278   2.439   1.004
 2227SOL    HW1 7580   5.269   2.341   0.985
 2227SOL    HW2 7581   5.375   2.463   1.010
 2228SOL     OW 7582   3.906   5.052   0.603
 2228SOL    HW1 7583   3.813   5.039   0.639
 2228SOL    HW2 7584   3.935   5.146   0.621
 2229SOL     OW 7585   3.885   2.985   5.536
 2229SOL    HW1 7586   3.799   3.032   5.558
 2229SOL    HW2 7587   3.874   2.933   5.452
 2230SOL     OW 7588   5.724   6.556   1.014
 2230SOL    HW1 7589   5.646   6.614   1.036
 2230SOL    HW2 7590   5.794   6.609   0.966
 2231SOL     OW 7591   6.952   0.813   0.758
 2231SOL    HW1 7592   6.853   0.812   0.770
 2231SOL    HW2 7593   6.975   0.774   0.669
 2232SOL     OW 7594   1.297   1.549   4.510
 2232SOL    HW1 7595   1.359   1.489   4.559
 2232SOL    HW2 7596   1.343   1.636   4.490
 2233SOL     OW 7597   2.265   2.789   0.504
 2233SOL    HW1 7598   2.245   2.813   0.599
 2233SOL    HW2 7599   2.188   2.813   0.446
 2234SOL     OW 7600   3.552   1.377   1.195
 2234SOL    HW1 7601   3.639   1.331   1.214
 2234SOL    HW2 7602   3.547   1.461   1.248
 2235SOL     OW 7603   2.569   0.304   1.930
 2235SOL    HW1 7604   2.639   0.260   1.875
 2235SOL    HW2 7605   2.530   0.381   1.880
 2236SOL     OW 7606   1.913   3.637   5.804
 2236SOL    HW1 7607   1.889   3.549   5.763
 2236SOL    HW2 7608   1.848   3.706   5.774
 2237SOL     OW 7609   5.698   4.585   4.173
 2237SOL    HW1 7610   5.709   4.643   4.092
 2237SOL    HW2 7611   5.660   4.497   4.146
 2238SOL     OW 7612   4.717   5.430   2.010
 2238SOL    HW1 7613   4.814   5.405   2.007
 2238SOL    HW2 7614   4.665   5.367   1.952
 2239SOL     OW 7615   4.337   5.664   3.895
 2239SOL    HW1 7616   4.330   5.575   3.941
 2239SOL    HW2 7617   4.416   5.714   3.931
 2240SOL     OW 7618   3.434   5.413   2.439
 2240SOL    HW1 7619   3.522   5.366   2.443
 2240SOL    HW2 7620   3.377   5.384   2.517
 2241SOL     OW 7621   6.868   6.238   2.437
 2241SOL    HW1 7622   6.876   6.139   2.420
 2241SOL    HW2 7623   6.773   6.259   2.462
 2242SOL     OW 7624   4.873   3.019   2.343
 2242SOL    HW1 7625   4.776   3.006   2.323
 2242SOL    HW2 7626   4.898   3.115   2.327
 2243SOL     OW 7627   1.467   6.962   6.531
 2243SOL    HW1 7628   1.371   6.953   6.558
 2243SOL    HW2 7629   1.473   6.969   6.432
 2244SOL     OW 7630   3.269   6.526   1.707
 2244SOL    HW1 7631   3.321   6.586   1.768
 2244SOL    HW2 7632   3.321   6.512   1.622
 2245SOL     OW 7633   0.755   1.549   1.232
 2245SOL    HW1 7634   0.688   1.488   1.273
 2245SOL    HW2 7635   0.844   1.503   1.229
 2246SOL     OW 7636   2.278   0.786   4.423
 2246SOL    HW1 7637   2.284   0.866   4.482
 2246SOL    HW2 7638   2.347   0.791   4.351
 2247SOL     OW 7639   3.153   3.070   2.804
 2247SOL    HW1 7640   3.229   3.032   2.858
 2247SOL    HW2 7641   3.088   3.114   2.865
 2248SOL     OW 7642   6.573   3.877   5.084
 2248SOL    HW1 7643   6.661   3.830   5.077
 2248SOL    HW2 7644   6.531   3.882   4.993
 2249SOL     OW 7645   5.322   6.965   3.815
 2249SOL    HW1 7646   5.313   0.047   3.835
 2249SOL    HW2 7647   5.349   6.953   3.719
 2250SOL     OW 7648   3.518   4.224   5.081
 2250SOL    HW1 7649   3.440   4.273   5.120
 2250SOL    HW2 7650   3.573   4.185   5.155
 2251SOL     OW 7651   5.490   6.887   6.553
 2251SOL    HW1 7652   5.546   6.855   6.476
 2251SOL    HW2 7653   5.528   6.972   6.589
 2252SOL     OW 7654   4.828   1.463   3.388
 2252SOL    HW1 7655   4.810   1.490   3.482
 2252SOL    HW2 7656   4.877   1.536   3.341
 2253SOL     OW 7657   6.642   2.801   6.921
 2253SOL    HW1 7658   6.617   2.842   6.834
 2253SOL    HW2 7659   6.583   2.723   6.939
 2254SOL     OW 7660   3.291   2.998   4.439
 2254SOL    HW1 7661   3.365   3.065   4.442
 2254SOL    HW2 7662   3.285   2.960   4.347
 2255SOL     OW 7663   4.158   3.206   6.141
 2255SOL    HW1 7664   4.184   3.236   6.049
 2255SOL    HW2 7665   4.230   3.228   6.205
 2256SOL     OW 7666   5.117   6.243   2.024
 2256SOL    HW1 7667   5.141   6.329   2.069
 2256SOL    HW2 7668   5.092   6.260   1.929
 2257SOL     OW 7669   0.966   1.882   4.580
 2257SOL    HW1 7670   0.881   1.855   4.626
 2257SOL    HW2 7671   1.042   1.879   4.645
 2258SOL     OW 7672   1.210   5.532   4.621
 2258SOL    HW1 7673   1.194   5.600   4.549
 2258SOL    HW2 7674   1.292   5.557   4.673
 2259SOL     OW 7675   5.655   2.898   5.810
 2259SOL    HW1 7676   5.740   2.942   5.839
 2259SOL    HW2 7677   5.619   2.946   5.730
 2260SOL     OW 7678   0.162   4.305   1.392
 2260SOL    HW1 7679   0.261   4.310   1.383
 2260SOL    HW2 7680   0.120   4.300   1.302
 2261SOL     OW 7681   6.206   5.207   0.555
 2261SOL    HW1 7682   6.135   5.149   0.515
 2261SOL    HW2 7683   6.165   5.293   0.586
 2262SOL     OW 7684   5.922   0.294   3.082
 2262SOL    HW1 7685   5.928   0.261   2.988
 2262SOL    HW2 7686   5.964   0.385   3.088
 2263SOL     OW 7687   3.208   5.659   0.476
 2263SOL    HW1 7688   3.109   5.666   0.477
 2263SOL    HW2 7689   3.236   5.565   0.495
 2264SOL     OW 7690   3.083   5.433   6.669
 2264SOL    HW1 7691   3.028   5.482   6.737
 2264SOL    HW2 7692   3.075   5.335   6.684
 2265SOL     OW 7693   2.154   1.174   4.058
 2265SOL    HW1 7694   2.230   1.109   4.065
 2265SOL    HW2 7695   2.075   1.128   4.018
 2266SOL     OW 7696   4.956   1.248   0.018
 2266SOL    HW1 7697   5.030   1.240   0.085
 2266SOL    HW2 7698   4.883   1.306   0.055
 2267SOL     OW 7699   4.909   3.289   4.838
 2267SOL    HW1 7700   4.859   3.339   4.910
 2267SOL    HW2 7701   4.900   3.191   4.853
 2268SOL     OW 7702   5.730   4.112   6.059
 2268SOL    HW1 7703   5.743   4.201   6.014
 2268SOL    HW2 7704   5.816   4.081   6.097
 2269SOL     OW 7705   0.684   4.502   5.560
 2269SOL    HW1 7706   0.697   4.487   5.658
 2269SOL    HW2 7707   0.587   4.518   5.542
 2270SOL     OW 7708   3.640   2.574   6.418
 2270SOL    HW1 7709   3.731   2.582   6.459
 2270SOL    HW2 7710   3.626   2.649   6.354
 2271SOL     OW 7711   5.846   4.285   0.273
 2271SOL    HW1 7712   5.920   4.221   0.295
 2271SOL    HW2 7713   5.876   4.378   0.289
 2272SOL     OW 7714   5.426   1.814   0.094
 2272SOL    HW1 7715   5.341   1.849   0.134
 2272SOL    HW2 7716   5.405   1.746   0.024
 2273SOL     OW 7717   1.295   1.360   2.088
 2273SOL    HW1 7718   1.352   1.291   2.045
 2273SOL    HW2 7719   1.271   1.331   2.181
 2274SOL     OW 7720   0.813   1.201   6.313
 2274SOL    HW1 7721   0.766   1.182   6.226
 2274SOL    HW2 7722   0.836   1.115   6.358
 2275SOL     OW 7723   6.019   6.754   4.036
 2275SOL    HW1 7724   6.080   6.723   3.963
 2275SOL    HW2 7725   5.963   6.677   4.067
 2276SOL     OW 7726   2.476   5.530   2.189
 2276SOL    HW1 7727   2.437   5.461   2.128
 2276SOL    HW2 7728   2.576   5.526   2.184
 2277SOL     OW 7729   3.716   4.108   3.923
 2277SOL    HW1 7730   3.733   4.127   4.019
 2277SOL    HW2 7731   3.760   4.022   3.897
 2278SOL     OW 7732   5.875   4.046   4.365
 2278SOL    HW1 7733   5.851   4.099   4.283
 2278SOL    HW2 7734   5.792   4.007   4.405
 2279SOL     OW 7735   6.138   0.364   5.606
 2279SOL    HW1 7736   6.092   0.286   5.647
 2279SOL    HW2 7737   6.077   0.407   5.539
 2280SOL     OW 7738   6.637   0.066   4.775
 2280SOL    HW1 7739   6.732   0.036   4.789
 2280SOL    HW2 7740   6.576   7.003   4.785
 2281SOL     OW 7741   3.442   0.658   2.174
 2281SOL    HW1 7742   3.496   0.736   2.207
 2281SOL    HW2 7743   3.408   0.678   2.082
 2282SOL     OW 7744   5.600   0.030   5.476
 2282SOL    HW1 7745   5.589   6.970   5.411
 2282SOL    HW2 7746   5.696   0.036   5.504
 2283SOL     OW 7747   1.624   6.639   1.831
 2283SOL    HW1 7748   1.719   6.632   1.798
 2283SOL    HW2 7749   1.622   6.632   1.930
 2284SOL     OW 7750   1.490   2.858   6.774
 2284SOL    HW1 7751   1.544   2.936   6.807
 2284SOL    HW2 7752   1.549   2.778   6.765
 2285SOL     OW 7753   1.436   2.985   1.030
 2285SOL    HW1 7754   1.526   3.018   1.001
 2285SOL    HW2 7755   1.422   3.008   1.127
 2286SOL     OW 7756   5.873   6.842   3.718
 2286SOL    HW1 7757   5.901   6.747   3.706
 2286SOL    HW2 7758   5.792   6.846   3.777
 2287SOL     OW 7759   2.333   0.358   3.945
 2287SOL    HW1 7760   2.264   0.343   4.015
 2287SOL    HW2 7761   2.424   0.343   3.985
 2288SOL     OW 7762   5.823   5.220   3.566
 2288SOL    HW1 7763   5.838   5.289   3.637
 2288SOL    HW2 7764   5.844   5.130   3.603
 2289SOL     OW 7765   0.416   5.082   0.776
 2289SOL    HW1 7766   0.458   5.126   0.696
 2289SOL    HW2 7767   0.345   5.019   0.745
 2290SOL     OW 7768   0.510   3.479   0.686
 2290SOL    HW1 7769   0.519   3.410   0.614
 2290SOL    HW2 7770   0.414   3.508   0.691
 2291SOL     OW 7771   1.823   2.415   5.251
 2291SOL    HW1 7772   1.758   2.481   5.287
 2291SOL    HW2 7773   1.797   2.323   5.281
 2292SOL     OW 7774   1.129   1.966   4.360
 2292SOL    HW1 7775   1.111   1.928   4.270
 2292SOL    HW2 7776   1.065   1.927   4.426
 2293SOL     OW 7777   5.254   6.343   0.986
 2293SOL    HW1 7778   5.240   6.369   1.082
 2293SOL    HW2 7779   5.178   6.378   0.931
 2294SOL     OW 7780   3.297   0.464   6.853
 2294SOL    HW1 7781   3.244   0.539   6.892
 2294SOL    HW2 7782   3.394   0.478   6.874
 2295SOL     OW 7783   0.853   2.001   2.257
 2295SOL    HW1 7784   0.837   2.067   2.331
 2295SOL    HW2 7785   0.816   1.912   2.283
 2296SOL     OW 7786   4.232   5.211   0.206
 2296SOL    HW1 7787   4.292   5.130   0.210
 2296SOL    HW2 7788   4.137   5.182   0.216
 2297SOL     OW 7789   3.885   3.992   5.143
 2297SOL    HW1 7790   3.853   4.006   5.049
 2297SOL    HW2 7791   3.942   3.909   5.146
 2298SOL     OW 7792   4.133   3.034   1.796
 2298SOL    HW1 7793   4.109   3.109   1.734
 2298SOL    HW2 7794   4.148   2.951   1.743
 2299SOL     OW 7795   4.787   6.341   5.707
 2299SOL    HW1 7796   4.779   6.303   5.615
 2299SOL    HW2 7797   4.882   6.333   5.737
 2300SOL     OW 7798   2.772   5.146   1.953
 2300SOL    HW1 7799   2.859   5.151   1.903
 2300SOL    HW2 7800   2.789   5.126   2.049
 2301SOL     OW 7801   3.002   3.213   2.997
 2301SOL    HW1 7802   2.941   3.290   2.977
 2301SOL    HW2 7803   2.978   3.174   3.086
 2302SOL     OW 7804   3.666   0.024   1.119
 2302SOL    HW1 7805   3.743   0.008   1.058
 2302SOL    HW2 7806   3.580   0.015   1.068
 2303SOL     OW 7807   1.999   3.146   6.111
 2303SOL    HW1 7808   2.015   3.175   6.017
 2303SOL    HW2 7809   1.907   3.174   6.139
 2304SOL     OW 7810   3.824   0.270   3.993
 2304SOL    HW1 7811   3.790   0.181   3.962
 2304SOL    HW2 7812   3.924   0.270   3.993
 2305SOL     OW 7813   2.534   6.562   2.763
 2305SOL    HW1 7814   2.481   6.605   2.837
 2305SOL    HW2 7815   2.483   6.569   2.677
 2306SOL     OW 7816   2.708   4.949   1.670
 2306SOL    HW1 7817   2.729   5.008   1.748
 2306SOL    HW2 7818   2.700   4.855   1.700
 2307SOL     OW 7819   0.734   4.010   3.012
 2307SOL    HW1 7820   0.690   3.921   2.997
 2307SOL    HW2 7821   0.824   3.997   3.053
 2308SOL     OW 7822   1.440   6.511   0.180
 2308SOL    HW1 7823   1.507   6.570   0.224
 2308SOL    HW2 7824   1.366   6.491   0.243
 2309SOL     OW 7825   2.801   6.487   6.487
 2309SOL    HW1 7826   2.769   6.465   6.395
 2309SOL    HW2 7827   2.732   6.543   6.534
 2310SOL     OW 7828   5.595   6.656   1.371
 2310SOL    HW1 7829   5.633   6.748   1.367
 2310SOL    HW2 7830   5.505   6.658   1.415
 2311SOL     OW 7831   2.241   6.022   1.980
 2311SOL    HW1 7832   2.329   6.007   1.936
 2311SOL    HW2 7833   2.234   6.117   2.010
 2312SOL     OW 7834   3.802   6.235   4.109
 2312SOL    HW1 7835   3.719   6.289   4.123
 2312SOL    HW2 7836   3.868   6.290   4.057
 2313SOL     OW 7837   5.476   5.692   1.400
 2313SOL    HW1 7838   5.572   5.673   1.381
 2313SOL    HW2 7839   5.435   5.739   1.322
 2314SOL     OW 7840   5.712   0.476   4.915
 2314SOL    HW1 7841   5.744   0.517   4.829
 2314SOL    HW2 7842   5.785   0.420   4.954
 2315SOL     OW 7843   4.918   3.627   5.501
 2315SOL    HW1 7844   4.974   3.680   5.437
 2315SOL    HW2 7845   4.821   3.644   5.483
 2316SOL     OW 7846   3.055   0.754   4.712
 2316SOL    HW1 7847   3.147   0.788   4.695
 2316SOL    HW2 7848   3.043   0.666   4.664
 2317SOL     OW 7849   6.234   6.226   2.975
 2317SOL    HW1 7850   6.241   6.298   3.043
 2317SOL    HW2 7851   6.224   6.137   3.021
 2318SOL     OW 7852   2.036   2.882   4.404
 2318SOL    HW1 7853   2.102   2.870   4.479
 2318SOL    HW2 7854   2.010   2.978   4.398
 2319SOL     OW 7855   3.122   5.202   4.689
 2319SOL    HW1 7856   3.059   5.222   4.764
 2319SOL    HW2 7857   3.214   5.186   4.725
 2320SOL     OW 7858   0.878   3.196   4.330
 2320SOL    HW1 7859   0.916   3.282   4.365
 2320SOL    HW2 7860   0.823   3.153   4.401
 2321SOL     OW 7861   2.110   5.347   0.397
 2321SOL    HW1 7862   2.061   5.434   0.405
 2321SOL    HW2 7863   2.044   5.272   0.403
 2322SOL     OW 7864   1.934   4.193   3.111
 2322SOL    HW1 7865   1.880   4.115   3.080
 2322SOL    HW2 7866   2.020   4.161   3.150
 2323SOL     OW 7867   3.369   4.674   1.652
 2323SOL    HW1 7868   3.448   4.679   1.713
 2323SOL    HW2 7869   3.392   4.716   1.564
 2324SOL     OW 7870   6.500   5.732   0.510
 2324SOL    HW1 7871   6.559   5.651   0.503
 2324SOL    HW2 7872   6.439   5.736   0.431
 2325SOL     OW 7873   1.215   4.209   1.163
 2325SOL    HW1 7874   1.261   4.210   1.074
 2325SOL    HW2 7875   1.247   4.130   1.216
 2326SOL     OW 7876   3.006   6.019   6.713
 2326SOL    HW1 7877   2.988   6.013   6.812
 2326SOL    HW2 7878   3.003   6.115   6.684
 2327SOL     OW 7879   6.899   1.704   3.871
 2327SOL    HW1 7880   6.814   1.711   3.923
 2327SOL    HW2 7881   6.898   1.772   3.797
 2328SOL     OW 7882   1.324   1.714   2.808
 2328SOL    HW1 7883   1.296   1.684   2.899
 2328SOL    HW2 7884   1.305   1.812   2.798
 2329SOL     OW 7885   1.711   4.644   4.565
 2329SOL    HW1 7886   1.782   4.579   4.537
 2329SOL    HW2 7887   1.651   4.601   4.633
 2330SOL     OW 7888   0.140   3.351   1.533
 2330SOL    HW1 7889   0.212   3.419   1.529
 2330SOL    HW2 7890   0.179   3.260   1.521
 2331SOL     OW 7891   3.986   5.211   6.518
 2331SOL    HW1 7892   4.031   5.167   6.596
 2331SOL    HW2 7893   3.980   5.146   6.442
 2332SOL     OW 7894   5.737   0.858   5.332
 2332SOL    HW1 7895   5.676   0.817   5.264
 2332SOL    HW2 7896   5.832   0.850   5.301
 2333SOL     OW 7897   0.056   4.570   2.579
 2333SOL    HW1 7898   0.049   4.478   2.540
 2333SOL    HW2 7899   7.010   4.577   2.658
 2334SOL     OW 7900   2.097   0.601   6.797
 2334SOL    HW1 7901   2.163   0.547   6.848
 2334SOL    HW2 7902   2.015   0.614   6.852
 2335SOL     OW 7903   6.631   1.113   3.946
 2335SOL    HW1 7904   6.547   1.150   3.986
 2335SOL    HW2 7905   6.692   1.187   3.920
 2336SOL     OW 7906   3.790   1.844   4.535
 2336SOL    HW1 7907   3.694   1.867   4.519
 2336SOL    HW2 7908   3.807   1.837   4.633
 2337SOL     OW 7909   4.271   0.734   1.530
 2337SOL    HW1 7910   4.281   0.818   1.477
 2337SOL    HW2 7911   4.199   0.746   1.598
 2338SOL     OW 7912   0.651   3.200   5.314
 2338SOL    HW1 7913   0.636   3.107   5.348
 2338SOL    HW2 7914   0.699   3.197   5.227
 2339SOL     OW 7915   2.949   3.404   3.797
 2339SOL    HW1 7916   2.994   3.488   3.828
 2339SOL    HW2 7917   2.925   3.348   3.877
 2340SOL     OW 7918   6.471   4.815   7.009
 2340SOL    HW1 7919   6.501   4.878   0.065
 2340SOL    HW2 7920   6.540   4.811   6.937
 2341SOL     OW 7921   3.407   4.903   2.145
 2341SOL    HW1 7922   3.310   4.907   2.118
 2341SOL    HW2 7923   3.453   4.833   2.091
 2342SOL     OW 7924   0.954   6.114   5.492
 2342SOL    HW1 7925   0.884   6.180   5.520
 2342SOL    HW2 7926   0.924   6.022   5.515
 2343SOL     OW 7927   1.873   5.964   3.365
 2343SOL    HW1 7928   1.873   6.035   3.436
 2343SOL    HW2 7929   1.828   5.999   3.283
 2344SOL     OW 7930   1.944   5.708   7.015
 2344SOL    HW1 7931   1.925   5.617   0.036
 2344SOL    HW2 7932   2.013   5.754   0.057
 2345SOL     OW 7933   3.011   5.460   5.108
 2345SOL    HW1 7934   2.946   5.522   5.151
 2345SOL    HW2 7935   3.098   5.464   5.157
 2346SOL     OW 7936   4.150   3.130   5.507
 2346SOL    HW1 7937   4.083   3.055   5.505
 2346SOL    HW2 7938   4.160   3.167   5.415
 2347SOL     OW 7939   3.141   2.151   1.386
 2347SOL    HW1 7940   3.168   2.224   1.448
 2347SOL    HW2 7941   3.043   2.134   1.396
 2348SOL     OW 7942   2.632   6.759   3.806
 2348SOL    HW1 7943   2.712   6.751   3.865
 2348SOL    HW2 7944   2.597   6.853   3.808
 2349SOL     OW 7945   1.085   4.709   6.014
 2349SOL    HW1 7946   1.079   4.690   5.916
 2349SOL    HW2 7947   1.017   4.655   6.063
 2350SOL     OW 7948   5.356   0.299   6.579
 2350SOL    HW1 7949   5.325   0.384   6.622
 2350SOL    HW2 7950   5.319   0.293   6.486
 2351SOL     OW 7951   3.172   4.944   4.255
 2351SOL    HW1 7952   3.240   4.907   4.193
 2351SOL    HW2 7953   3.086   4.961   4.206
 2352SOL     OW 7954   0.512   4.360   2.340
 2352SOL    HW1 7955   0.554   4.277   2.378
 2352SOL    HW2 7956   0.583   4.429   2.325
 2353SOL     OW 7957   3.001   4.818   5.729
 2353SOL    HW1 7958   2.985   4.721   5.741
 2353SOL    HW2 7959   3.079   4.831   5.667
 2354SOL     OW 7960   3.490   1.497   5.557
 2354SOL    HW1 7961   3.451   1.554   5.630
 2354SOL    HW2 7962   3.532   1.556   5.488
 2355SOL     OW 7963   2.368   5.362   0.099
 2355SOL    HW1 7964   2.424   5.281   0.085
 2355SOL    HW2 7965   2.314   5.351   0.183
 2356SOL     OW 7966   1.642   3.194   6.205
 2356SOL    HW1 7967   1.572   3.140   6.159
 2356SOL    HW2 7968   1.611   3.288   6.216
 2357SOL     OW 7969   4.314   0.005   2.739
 2357SOL    HW1 7970   4.364   0.047   2.814
 2357SOL    HW2 7971   4.284   6.928   2.765
 2358SOL     OW 7972   3.964   4.975   5.124
 2358SOL    HW1 7973   3.897   4.973   5.051
 2358SOL    HW2 7974   3.958   4.891   5.178
 2359SOL     OW 7975   6.326   0.503   5.757
 2359SOL    HW1 7976   6.351   0.568   5.685
 2359SOL    HW2 7977   6.251   0.445   5.725
 2360SOL     OW 7978   5.409   4.283   6.852
 2360SOL    HW1 7979   5.507   4.283   6.871
 2360SOL    HW2 7980   5.362   4.343   6.917
 2361SOL     OW 7981   2.647   1.186   5.155
 2361SOL    HW1 7982   2.550   1.204   5.140
 2361SOL    HW2 7983   2.683   1.130   5.081
 2362SOL     OW 7984   2.046   6.917   4.498
 2362SOL    HW1 7985   2.115   6.889   4.431
 2362SOL    HW2 7986   1.984   6.983   4.455
 2363SOL     OW 7987   4.539   2.606   4.993
 2363SOL    HW1 7988   4.625   2.651   4.969
 2363SOL    HW2 7989   4.515   2.541   4.922
 2364SOL     OW 7990   1.348   2.201   3.062
 2364SOL    HW1 7991   1.363   2.272   2.992
 2364SOL    HW2 7992   1.312   2.119   3.018
 2365SOL     OW 7993   6.448   2.733   6.572
 2365SOL    HW1 7994   6.531   2.787   6.587
 2365SOL    HW2 7995   6.436   2.716   6.474
 2366SOL     OW 7996   2.178   5.287   6.680
 2366SOL    HW1 7997   2.248   5.309   6.612
 2366SOL    HW2 7998   2.213   5.218   6.742
 2367SOL     OW 7999   2.542   4.567   0.390
 2367SOL    HW1 8000   2.626   4.575   0.337
 2367SOL    HW2 8001   2.513   4.658   0.420
 2368SOL     OW 8002   4.526   0.505   3.887
 2368SOL    HW1 8003   4.456   0.525   3.955
 2368SOL    HW2 8004   4.588   0.435   3.923
 2369SOL     OW 8005   1.455   2.090   5.625
 2369SOL    HW1 8006   1.400   2.163   5.583
 2369SOL    HW2 8007   1.551   2.102   5.597
 2370SOL     OW 8008   4.886   3.760   0.313
 2370SOL    HW1 8009   4.790   3.766   0.286
 2370SOL    HW2 8010   4.944   3.783   0.235
 2371SOL     OW 8011   0.609   0.067   2.698
 2371SOL    HW1 8012   0.692   0.121   2.688
 2371SOL    HW2 8013   0.591   0.052   2.796
 2372SOL     OW 8014   0.027   3.056   2.402
 2372SOL    HW1 8015   0.028   3.150   2.368
 2372SOL    HW2 8016   0.095   3.002   2.353
 2373SOL     OW 8017   0.637   2.196   6.840
 2373SOL    HW1 8018   0.544   2.160   6.838
 2373SOL    HW2 8019   0.672   2.191   6.933
 2374SOL     OW 8020   6.000   1.181   3.235
 2374SOL    HW1 8021   5.975   1.242   3.310
 2374SOL    HW2 8022   5.932   1.107   3.228
 2375SOL     OW 8023   3.169   6.699   4.689
 2375SOL    HW1 8024   3.168   6.662   4.596
 2375SOL    HW2 8025   3.084   6.673   4.736
 2376SOL     OW 8026   0.043   2.330   4.492
 2376SOL    HW1 8027   6.997   2.386   4.548
 2376SOL    HW2 8028   0.107   2.280   4.551
 2377SOL     OW 8029   3.378   4.146   3.288
 2377SOL    HW1 8030   3.353   4.049   3.285
 2377SOL    HW2 8031   3.298   4.200   3.314
 2378SOL     OW 8032   5.018   1.487   0.590
 2378SOL    HW1 8033   4.965   1.504   0.674
 2378SOL    HW2 8034   5.014   1.568   0.531
 2379SOL     OW 8035   5.776   1.937   6.709
 2379SOL    HW1 8036   5.737   1.861   6.761
 2379SOL    HW2 8037   5.813   2.005   6.773
 2380SOL     OW 8038   0.613   1.148   0.227
 2380SOL    HW1 8039   0.690   1.212   0.220
 2380SOL    HW2 8040   0.561   1.150   0.141
 2381SOL     OW 8041   2.237   3.975   4.743
 2381SOL    HW1 8042   2.203   3.882   4.732
 2381SOL    HW2 8043   2.289   3.982   4.828
 2382SOL     OW 8044   2.431   4.329   3.217
 2382SOL    HW1 8045   2.480   4.416   3.227
 2382SOL    HW2 8046   2.424   4.306   3.119
 2383SOL     OW 8047   5.136   6.573   1.678
 2383SOL    HW1 8048   5.142   6.669   1.707
 2383SOL    HW2 8049   5.183   6.562   1.591
 2384SOL     OW 8050   5.812   0.583   2.808
 2384SOL    HW1 8051   5.754   0.567   2.888
 2384SOL    HW2 8052   5.893   0.634   2.835
 2385SOL     OW 8053   1.000   6.632   1.307
 2385SOL    HW1 8054   1.045   6.681   1.382
 2385SOL    HW2 8055   0.917   6.588   1.341
 2386SOL     OW 8056   6.038   5.599   4.630
 2386SOL    HW1 8057   5.953   5.549   4.647
 2386SOL    HW2 8058   6.037   5.635   4.536
 2387SOL     OW 8059   0.984   1.855   3.421
 2387SOL    HW1 8060   1.006   1.840   3.325
 2387SOL    HW2 8061   1.018   1.944   3.450
 2388SOL     OW 8062   0.602   2.540   4.270
 2388SOL    HW1 8063   0.645   2.601   4.337
 2388SOL    HW2 8064   0.505   2.563   4.262
 2389SOL     OW 8065   4.956   3.679   2.889
 2389SOL    HW1 8066   4.941   3.758   2.949
 2389SOL    HW2 8067   4.925   3.702   2.796
 2390SOL     OW 8068   4.123   3.688   2.957
 2390SOL    HW1 8069   4.130   3.697   3.057
 2390SOL    HW2 8070   4.112   3.592   2.933
 2391SOL     OW 8071   4.805   4.606   5.726
 2391SOL    HW1 8072   4.764   4.663   5.797
 2391SOL    HW2 8073   4.742   4.532   5.702
 2392SOL     OW 8074   4.238   6.770   5.258
 2392SOL    HW1 8075   4.164   6.710   5.289
 2392SOL    HW2 8076   4.257   6.752   5.161
 2393SOL     OW 8077   5.513   3.771   6.098
 2393SOL    HW1 8078   5.518   3.868   6.121
 2393SOL    HW2 8079   5.452   3.725   6.163
 2394SOL     OW 8080   1.391   3.392   4.506
 2394SOL    HW1 8081   1.348   3.330   4.571
 2394SOL    HW2 8082   1.452   3.341   4.446
 2395SOL     OW 8083   5.732   2.514   6.661
 2395SOL    HW1 8084   5.716   2.427   6.707
 2395SOL    HW2 8085   5.748   2.499   6.564
 2396SOL     OW 8086   3.458   4.812   1.433
 2396SOL    HW1 8087   3.455   4.883   1.363
 2396SOL    HW2 8088   3.554   4.791   1.455
 2397SOL     OW 8089   0.125   4.090   6.863
 2397SOL    HW1 8090   0.197   4.156   6.839
 2397SOL    HW2 8091   0.052   4.138   6.911
 2398SOL     OW 8092   2.140   3.198   6.442
 2398SOL    HW1 8093   2.091   3.181   6.527
 2398SOL    HW2 8094   2.138   3.115   6.386
 2399SOL     OW 8095   4.445   1.748   1.775
 2399SOL    HW1 8096   4.484   1.710   1.859
 2399SOL    HW2 8097   4.349   1.770   1.790
 2400SOL     OW 8098   3.286   4.240   0.192
 2400SOL    HW1 8099   3.341   4.157   0.192
 2400SOL    HW2 8100   3.191   4.217   0.171
 2401SOL     OW 8101   3.881   6.092   6.056
 2401SOL    HW1 8102   3.961   6.063   6.107
 2401SOL    HW2 8103   3.873   6.037   5.973
 2402SOL     OW 8104   6.860   1.090   3.516
 2402SOL    HW1 8105   6.863   0.991   3.503
 2402SOL    HW2 8106   6.766   1.118   3.536
 2403SOL     OW 8107   2.091   2.627   6.935
 2403SOL    HW1 8108   2.019   2.619   6.866
 2403SOL    HW2 8109   2.180   2.636   6.889
 2404SOL     OW 8110   3.695   0.798   0.827
 2404SOL    HW1 8111   3.733   0.865   0.890
 2404SOL    HW2 8112   3.625   0.841   0.771
 2405SOL     OW 8113   3.868   3.415   2.715
 2405SOL    HW1 8114   3.824   3.429   2.626
 2405SOL    HW2 8115   3.800   3.428   2.788
 2406SOL     OW 8116   2.927   6.496   2.899
 2406SOL    HW1 8117   2.865   6.482   2.977
 2406SOL    HW2 8118   2.940   6.409   2.851
 2407SOL     OW 8119   5.350   2.150   2.044
 2407SOL    HW1 8120   5.377   2.097   1.964
 2407SOL    HW2 8121   5.250   2.155   2.049
 2408SOL     OW 8122   3.753   5.334   2.959
 2408SOL    HW1 8123   3.813   5.333   2.878
 2408SOL    HW2 8124   3.778   5.412   3.017
 2409SOL     OW 8125   1.702   3.888   1.958
 2409SOL    HW1 8126   1.616   3.899   2.009
 2409SOL    HW2 8127   1.695   3.940   1.872
 2410SOL     OW 8128   4.199   2.684   6.404
 2410SOL    HW1 8129   4.273   2.751   6.410
 2410SOL    HW2 8130   4.181   2.663   6.308
 2411SOL     OW 8131   3.992   5.305   4.943
 2411SOL    HW1 8132   3.948   5.290   4.855
 2411SOL    HW2 8133   4.009   5.217   4.987
 2412SOL     OW 8134   4.638   5.323   1.407
 2412SOL    HW1 8135   4.614   5.281   1.320
 2412SOL    HW2 8136   4.556   5.362   1.449
 2413SOL     OW 8137   6.315   2.248   0.829
 2413SOL    HW1 8138   6.232   2.193   0.827
 2413SOL    HW2 8139   6.314   2.308   0.909
 2414SOL     OW 8140   4.956   4.284   2.739
 2414SOL    HW1 8141   4.893   4.209   2.757
 2414SOL    HW2 8142   5.004   4.268   2.652
 2415SOL     OW 8143   6.918   0.195   2.437
 2415SOL    HW1 8144   6.850   0.203   2.364
 2415SOL    HW2 8145   6.947   0.099   2.446
 2416SOL     OW 8146   4.261   2.297   5.618
 2416SOL    HW1 8147   4.187   2.233   5.639
 2416SOL    HW2 8148   4.224   2.378   5.573
 2417SOL     OW 8149   3.869   2.878   5.854
 2417SOL    HW1 8150   3.927   2.803   5.883
 2417SOL    HW2 8151   3.926   2.955   5.824
 2418SOL     OW 8152   2.955   3.385   4.325
 2418SOL    HW1 8153   2.892   3.456   4.357
 2418SOL    HW2 8154   3.016   3.358   4.399
 2419SOL     OW 8155   0.467   6.714   4.663
 2419SOL    HW1 8156   0.414   6.638   4.625
 2419SOL    HW2 8157   0.530   6.749   4.594
 2420SOL     OW 8158   2.874   1.533   2.238
 2420SOL    HW1 8159   2.808   1.462   2.211
 2420SOL    HW2 8160   2.943   1.492   2.297
 2421SOL     OW 8161   2.794   1.925   4.938
 2421SOL    HW1 8162   2.837   2.007   4.975
 2421SOL    HW2 8163   2.856   1.847   4.947
 2422SOL     OW 8164   5.632   1.291   0.940
 2422SOL    HW1 8165   5.650   1.224   0.868
 2422SOL    HW2 8166   5.621   1.244   1.028
 2423SOL     OW 8167   1.070   6.051   2.696
 2423SOL    HW1 8168   0.989   6.042   2.754
 2423SOL    HW2 8169   1.052   6.118   2.624
 2424SOL     OW 8170   5.919   6.645   6.047
 2424SOL    HW1 8171   5.869   6.730   6.037
 2424SOL    HW2 8172   5.982   6.652   6.125
 2425SOL     OW 8173   5.486   0.749   3.761
 2425SOL    HW1 8174   5.562   0.733   3.699
 2425SOL    HW2 8175   5.400   0.726   3.716
 2426SOL     OW 8176   0.871   6.082   5.087
 2426SOL    HW1 8177   0.867   6.102   4.989
 2426SOL    HW2 8178   0.778   6.088   5.126
 2427SOL     OW 8179   5.605   6.036   5.517
 2427SOL    HW1 8180   5.530   6.081   5.566
 2427SOL    HW2 8181   5.568   5.967   5.456
 2428SOL     OW 8182   6.239   0.071   2.731
 2428SOL    HW1 8183   6.191   0.158   2.725
 2428SOL    HW2 8184   6.235   0.037   2.825
 2429SOL     OW 8185   5.329   5.232   3.464
 2429SOL    HW1 8186   5.330   5.289   3.382
 2429SOL    HW2 8187   5.313   5.289   3.544
 2430SOL     OW 8188   5.905   1.862   1.183
 2430SOL    HW1 8189   5.971   1.932   1.211
 2430SOL    HW2 8190   5.936   1.821   1.097
 2431SOL     OW 8191   4.152   1.209   2.588
 2431SOL    HW1 8192   4.069   1.173   2.630
 2431SOL    HW2 8193   4.192   1.140   2.527
 2432SOL     OW 8194   3.175   6.641   2.900
 2432SOL    HW1 8195   3.201   6.660   2.805
 2432SOL    HW2 8196   3.092   6.585   2.901
 2433SOL     OW 8197   3.476   0.637   1.426
 2433SOL    HW1 8198   3.566   0.646   1.469
 2433SOL    HW2 8199   3.415   0.706   1.464
 2434SOL     OW 8200   4.137   1.129   5.402
 2434SOL    HW1 8201   4.219   1.095   5.449
 2434SOL    HW2 8202   4.157   1.142   5.305
 2435SOL     OW 8203   4.849   4.378   6.874
 2435SOL    HW1 8204   4.766   4.389   6.820
 2435SOL    HW2 8205   4.904   4.304   6.836
 2436SOL     OW 8206   1.503   5.795   1.115
 2436SOL    HW1 8207   1.412   5.803   1.158
 2436SOL    HW2 8208   1.515   5.869   1.049
 2437SOL     OW 8209   5.068   6.701   6.574
 2437SOL    HW1 8210   5.098   6.757   6.497
 2437SOL    HW2 8211   5.045   6.761   6.651
 2438SOL     OW 8212   3.412   0.982   6.635
 2438SOL    HW1 8213   3.505   0.964   6.667
 2438SOL    HW2 8214   3.384   1.074   6.662
 2439SOL     OW 8215   1.365   4.481   6.298
 2439SOL    HW1 8216   1.404   4.423   6.227
 2439SOL    HW2 8217   1.383   4.441   6.388
 2440SOL     OW 8218   4.545   6.033   5.347
 2440SOL    HW1 8219   4.607   6.054   5.423
 2440SOL    HW2 8220   4.533   5.934   5.341
 2441SOL     OW 8221   0.710   1.177   0.555
 2441SOL    HW1 8222   0.752   1.187   0.645
 2441SOL    HW2 8223   0.630   1.118   0.562
 2442SOL     OW 8224   0.839   3.733   5.875
 2442SOL    HW1 8225   0.922   3.679   5.891
 2442SOL    HW2 8226   0.840   3.768   5.782
 2443SOL     OW 8227   4.013   5.276   5.950
 2443SOL    HW1 8228   4.052   5.362   5.918
 2443SOL    HW2 8229   4.065   5.242   6.028
 2444SOL     OW 8230   3.335   3.948   6.070
 2444SOL    HW1 8231   3.235   3.949   6.063
 2444SOL    HW2 8232   3.372   3.868   6.023
 2445SOL     OW 8233   6.873   1.164   1.154
 2445SOL    HW1 8234   6.785   1.201   1.127
 2445SOL    HW2 8235   6.896   1.195   1.246
 2446SOL     OW 8236   6.531   4.762   4.336
 2446SOL    HW1 8237   6.630   4.770   4.330
 2446SOL    HW2 8238   6.507   4.713   4.420
 2447SOL     OW 8239   2.043   2.675   0.681
 2447SOL    HW1 8240   2.079   2.647   0.770
 2447SOL    HW2 8241   2.106   2.646   0.609
 2448SOL     OW 8242   0.295   0.948   4.829
 2448SOL    HW1 8243   0.244   1.015   4.775
 2448SOL    HW2 8244   0.348   0.889   4.769
 2449SOL     OW 8245   6.849   4.733   0.621
 2449SOL    HW1 8246   6.790   4.660   0.654
 2449SOL    HW2 8247   6.944   4.701   0.619
 2450SOL     OW 8248   2.556   4.546   3.324
 2450SOL    HW1 8249   2.505   4.632   3.322
 2450SOL    HW2 8250   2.563   4.513   3.418
 2451SOL     OW 8251   0.775   1.302   3.558
 2451SOL    HW1 8252   0.688   1.276   3.516
 2451SOL    HW2 8253   0.832   1.348   3.490
 2452SOL     OW 8254   1.887   4.093   2.739
 2452SOL    HW1 8255   1.886   3.993   2.735
 2452SOL    HW2 8256   1.968   4.127   2.693
 2453SOL     OW 8257   6.153   4.760   1.312
 2453SOL    HW1 8258   6.218   4.752   1.387
 2453SOL    HW2 8259   6.082   4.689   1.320
 2454SOL     OW 8260   3.159   0.585   1.291
 2454SOL    HW1 8261   3.059   0.587   1.300
 2454SOL    HW2 8262   3.197   0.674   1.317
 2455SOL     OW 8263   5.672   5.849   0.391
 2455SOL    HW1 8264   5.677   5.751   0.412
 2455SOL    HW2 8265   5.711   5.901   0.467
 2456SOL     OW 8266   5.099   6.305   1.745
 2456SOL    HW1 8267   5.125   6.398   1.723
 2456SOL    HW2 8268   5.158   6.241   1.695
 2457SOL     OW 8269   5.886   6.718   0.636
 2457SOL    HW1 8270   5.868   6.645   0.570
 2457SOL    HW2 8271   5.953   6.782   0.597
 2458SOL     OW 8272   2.053   5.751   3.335
 2458SOL    HW1 8273   1.985   5.825   3.328
 2458SOL    HW2 8274   2.100   5.741   3.247
 2459SOL     OW 8275   2.298   6.768   0.603
 2459SOL    HW1 8276   2.274   6.710   0.680
 2459SOL    HW2 8277   2.319   6.860   0.635
 2460SOL     OW 8278   2.038   0.885   1.364
 2460SOL    HW1 8279   2.042   0.985   1.360
 2460SOL    HW2 8280   2.126   0.850   1.396
 2461SOL     OW 8281   5.772   0.950   2.197
 2461SOL    HW1 8282   5.758   0.870   2.139
 2461SOL    HW2 8283   5.812   0.923   2.284
 2462SOL     OW 8284   2.677   5.668   0.338
 2462SOL    HW1 8285   2.583   5.677   0.307
 2462SOL    HW2 8286   2.739   5.668   0.259
 2463SOL     OW 8287   6.160   2.245   4.406
 2463SOL    HW1 8288   6.181   2.161   4.456
 2463SOL    HW2 8289   6.162   2.322   4.469
 2464SOL     OW 8290   0.875   4.716   0.759
 2464SOL    HW1 8291   0.970   4.687   0.749
 2464SOL    HW2 8292   0.824   4.692   0.676
 2465SOL     OW 8293   0.057   5.688   1.513
 2465SOL    HW1 8294   0.063   5.763   1.579
 2465SOL    HW2 8295   0.127   5.620   1.533
 2466SOL     OW 8296   3.773   1.283   2.249
 2466SOL    HW1 8297   3.737   1.225   2.321
 2466SOL    HW2 8298   3.866   1.253   2.225
 2467SOL     OW 8299   6.087   1.068   5.757
 2467SOL    HW1 8300   6.137   1.152   5.737
 2467SOL    HW2 8301   6.034   1.040   5.677
 2468SOL     OW 8302   0.199   6.371   1.895
 2468SOL    HW1 8303   0.215   6.387   1.798
 2468SOL    HW2 8304   0.112   6.411   1.922
 2469SOL     OW 8305   3.400   4.131   5.670
 2469SOL    HW1 8306   3.490   4.102   5.637
 2469SOL    HW2 8307   3.329   4.094   5.610
 2470SOL     OW 8308   2.934   4.236   6.335
 2470SOL    HW1 8309   2.837   4.260   6.322
 2470SOL    HW2 8310   2.948   4.141   6.307
 2471SOL     OW 8311   0.631   6.806   1.390
 2471SOL    HW1 8312   0.562   6.736   1.405
 2471SOL    HW2 8313   0.700   6.801   1.462
 2472SOL     OW 8314   5.616   1.456   5.050
 2472SOL    HW1 8315   5.672   1.447   5.132
 2472SOL    HW2 8316   5.658   1.522   4.988
 2473SOL     OW 8317   1.502   4.998   4.923
 2473SOL    HW1 8318   1.590   5.013   4.969
 2473SOL    HW2 8319   1.440   4.950   4.985
 2474SOL     OW 8320   6.953   4.837   6.640
 2474SOL    HW1 8321   6.946   4.828   6.541
 2474SOL    HW2 8322   0.022   4.793   6.672
 2475SOL     OW 8323   4.265   2.270   0.748
 2475SOL    HW1 8324   4.285   2.215   0.667
 2475SOL    HW2 8325   4.339   2.262   0.814
 2476SOL     OW 8326   1.139   2.311   3.914
 2476SOL    HW1 8327   1.195   2.321   3.996
 2476SOL    HW2 8328   1.044   2.292   3.940
 2477SOL     OW 8329   6.622   6.351   1.866
 2477SOL    HW1 8330   6.688   6.311   1.930
 2477SOL    HW2 8331   6.603   6.285   1.793
 2478SOL     OW 8332   5.912   5.915   2.596
 2478SOL    HW1 8333   5.971   5.980   2.643
 2478SOL    HW2 8334   5.964   5.868   2.525
 2479SOL     OW 8335   6.924   3.427   1.742
 2479SOL    HW1 8336   6.851   3.380   1.692
 2479SOL    HW2 8337   6.997   3.452   1.679
 2480SOL     OW 8338   6.800   2.653   0.847
 2480SOL    HW1 8339   6.822   2.745   0.879
 2480SOL    HW2 8340   6.762   2.599   0.923
 2481SOL     OW 8341   3.833   5.811   0.515
 2481SOL    HW1 8342   3.806   5.884   0.578
 2481SOL    HW2 8343   3.751   5.766   0.480
 2482SOL     OW 8344   4.473   3.435   5.815
 2482SOL    HW1 8345   4.432   3.347   5.791
 2482SOL    HW2 8346   4.412   3.486   5.875
 2483SOL     OW 8347   1.930   0.827   0.704
 2483SOL    HW1 8348   1.970   0.825   0.795
 2483SOL    HW2 8349   1.939   0.918   0.665
 2484SOL     OW 8350   1.684   0.693   0.627
 2484SOL    HW1 8351   1.620   0.691   0.704
 2484SOL    HW2 8352   1.767   0.742   0.654
 2485SOL     OW 8353   5.771   4.839   1.965
 2485SOL    HW1 8354   5.849   4.777   1.972
 2485SOL    HW2 8355   5.793   4.925   2.010
 2486SOL     OW 8356   1.767   5.937   3.901
 2486SOL    HW1 8357   1.858   5.972   3.918
 2486SOL    HW2 8358   1.725   5.987   3.825
 2487SOL     OW 8359   4.218   6.265   6.857
 2487SOL    HW1 8360   4.189   6.188   6.800
 2487SOL    HW2 8361   4.178   6.349   6.820
 2488SOL     OW 8362   2.900   4.115   1.395
 2488SOL    HW1 8363   2.935   4.035   1.346
 2488SOL    HW2 8364   2.804   4.100   1.419
 2489SOL     OW 8365   2.301   6.030   4.972
 2489SOL    HW1 8366   2.358   6.111   4.954
 2489SOL    HW2 8367   2.215   6.059   5.015
 2490SOL     OW 8368   0.160   4.978   0.710
 2490SOL    HW1 8369   0.152   4.950   0.614
 2490SOL    HW2 8370   0.087   5.043   0.732
 2491SOL     OW 8371   2.634   5.760   2.650
 2491SOL    HW1 8372   2.612   5.732   2.743
 2491SOL    HW2 8373   2.692   5.690   2.607
 2492SOL     OW 8374   4.865   3.390   6.387
 2492SOL    HW1 8375   4.854   3.346   6.476
 2492SOL    HW2 8376   4.778   3.386   6.338
 2493SOL     OW 8377   5.382   0.676   2.572
 2493SOL    HW1 8378   5.296   0.658   2.523
 2493SOL    HW2 8379   5.369   0.751   2.636
 2494SOL     OW 8380   4.602   2.650   2.640
 2494SOL    HW1 8381   4.591   2.616   2.734
 2494SOL    HW2 8382   4.670   2.595   2.592
 2495SOL     OW 8383   5.137   1.326   5.463
 2495SOL    HW1 8384   5.060   1.298   5.404
 2495SOL    HW2 8385   5.182   1.405   5.424
 2496SOL     OW 8386   1.307   5.519   0.518
 2496SOL    HW1 8387   1.341   5.442   0.573
 2496SOL    HW2 8388   1.251   5.578   0.575
 2497SOL     OW 8389   6.687   1.436   0.526
 2497SOL    HW1 8390   6.635   1.401   0.448
 2497SOL    HW2 8391   6.704   1.534   0.513
 2498SOL     OW 8392   2.096   3.333   3.274
 2498SOL    HW1 8393   2.169   3.366   3.333
 2498SOL    HW2 8394   2.019   3.397   3.277
 2499SOL     OW 8395   5.499   0.812   4.678
 2499SOL    HW1 8396   5.431   0.878   4.645
 2499SOL    HW2 8397   5.480   0.722   4.639
 2500SOL     OW 8398   5.113   3.288   6.436
 2500SOL    HW1 8399   5.096   3.246   6.524
 2500SOL    HW2 8400   5.032   3.338   6.406
 2501SOL     OW 8401   5.902   4.279   6.781
 2501SOL    HW1 8402   5.897   4.370   6.741
 2501SOL    HW2 8403   5.810   4.246   6.801
 2502SOL     OW 8404   2.315   6.466   3.387
 2502SOL    HW1 8405   2.349   6.535   3.322
 2502SOL    HW2 8406   2.215   6.469   3.390
 2503SOL     OW 8407   3.922   5.728   5.667
 2503SOL    HW1 8408   3.998   5.752   5.607
 2503SOL    HW2 8409   3.845   5.696   5.611
 2504SOL     OW 8410   2.091   4.766   4.932
 2504SOL    HW1 8411   2.093   4.723   4.842
 2504SOL    HW2 8412   2.079   4.696   5.002
 2505SOL     OW 8413   4.042   5.533   4.223
 2505SOL    HW1 8414   4.093   5.474   4.160
 2505SOL    HW2 8415   3.947   5.540   4.192
 2506SOL     OW 8416   6.410   3.461   6.307
 2506SOL    HW1 8417   6.359   3.380   6.278
 2506SOL    HW2 8418   6.466   3.494   6.232
 2507SOL     OW 8419   6.458   5.370   0.213
 2507SOL    HW1 8420   6.507   5.454   0.237
 2507SOL    HW2 8421   6.377   5.392   0.158
 2508SOL     OW 8422   2.882   1.991   2.186
 2508SOL    HW1 8423   2.946   2.012   2.112
 2508SOL    HW2 8424   2.876   2.068   2.248
 2509SOL     OW 8425   5.776   2.508   2.381
 2509SOL    HW1 8426   5.808   2.454   2.459
 2509SOL    HW2 8427   5.681   2.484   2.361
 2510SOL     OW 8428   3.210   4.786   0.780
 2510SOL    HW1 8429   3.256   4.702   0.807
 2510SOL    HW2 8430   3.148   4.815   0.853
 2511SOL     OW 8431   1.269   1.143   4.890
 2511SOL    HW1 8432   1.179   1.105   4.912
 2511SOL    HW2 8433   1.331   1.070   4.863
 2512SOL     OW 8434   5.083   3.936   4.834
 2512SOL    HW1 8435   5.173   3.978   4.823
 2512SOL    HW2 8436   5.087   3.840   4.808
 2513SOL     OW 8437   1.142   1.958   6.384
 2513SOL    HW1 8438   1.160   2.052   6.416
 2513SOL    HW2 8439   1.227   1.905   6.386
 2514SOL     OW 8440   0.788   1.648   4.334
 2514SOL    HW1 8441   0.851   1.617   4.405
 2514SOL    HW2 8442   0.695   1.651   4.371
 2515SOL     OW 8443   1.289   6.679   0.405
 2515SOL    HW1 8444   1.224   6.614   0.366
 2515SOL    HW2 8445   1.246   6.769   0.413
 2516SOL     OW 8446   5.808   6.195   3.634
 2516SOL    HW1 8447   5.848   6.179   3.544
 2516SOL    HW2 8448   5.861   6.265   3.682
 2517SOL     OW 8449   2.637   4.273   6.262
 2517SOL    HW1 8450   2.636   4.366   6.227
 2517SOL    HW2 8451   2.634   4.209   6.185
 2518SOL     OW 8452   2.569   2.579   6.426
 2518SOL    HW1 8453   2.566   2.536   6.336
 2518SOL    HW2 8454   2.480   2.571   6.470
 2519SOL     OW 8455   5.082   5.161   4.718
 2519SOL    HW1 8456   5.058   5.222   4.642
 2519SOL    HW2 8457   5.067   5.066   4.691
 2520SOL     OW 8458   2.521   3.221   1.083
 2520SOL    HW1 8459   2.478   3.254   0.999
 2520SOL    HW2 8460   2.494   3.126   1.099
 2521SOL     OW 8461   0.532   0.377   5.408
 2521SOL    HW1 8462   0.523   0.465   5.455
 2521SOL    HW2 8463   0.591   0.316   5.462
 2522SOL     OW 8464   1.395   2.939   4.561
 2522SOL    HW1 8465   1.296   2.931   4.559
 2522SOL    HW2 8466   1.436   2.849   4.571
 2523SOL     OW 8467   6.668   3.146   0.622
 2523SOL    HW1 8468   6.575   3.182   0.631
 2523SOL    HW2 8469   6.723   3.210   0.569
 2524SOL     OW 8470   1.057   6.857   4.160
 2524SOL    HW1 8471   0.993   6.897   4.094
 2524SOL    HW2 8472   1.149   6.855   4.121
 2525SOL     OW 8473   0.965   3.958   4.403
 2525SOL    HW1 8474   1.040   3.899   4.374
 2525SOL    HW2 8475   0.909   3.910   4.471
 2526SOL     OW 8476   0.574   2.240   4.118
 2526SOL    HW1 8477   0.577   2.338   4.135
 2526SOL    HW2 8478   0.660   2.199   4.151
 2527SOL     OW 8479   6.071   6.217   5.157
 2527SOL    HW1 8480   6.066   6.307   5.201
 2527SOL    HW2 8481   6.033   6.224   5.064
 2528SOL     OW 8482   6.108   5.073   0.068
 2528SOL    HW1 8483   6.112   4.979   0.103
 2528SOL    HW2 8484   6.052   5.129   0.128
 2529SOL     OW 8485   4.776   5.722   5.051
 2529SOL    HW1 8486   4.729   5.811   5.056
 2529SOL    HW2 8487   4.763   5.684   4.959
 2530SOL     OW 8488   1.042   6.264   3.506
 2530SOL    HW1 8489   1.065   6.221   3.593
 2530SOL    HW2 8490   0.957   6.225   3.471
 2531SOL     OW 8491   5.027   0.398   4.993
 2531SOL    HW1 8492   4.993   0.411   4.900
 2531SOL    HW2 8493   5.114   0.447   5.003
 2532SOL     OW 8494   1.212   5.850   0.309
 2532SOL    HW1 8495   1.155   5.900   0.374
 2532SOL    HW2 8496   1.182   5.870   0.216
 2533SOL     OW 8497   5.312   0.084   5.165
 2533SOL    HW1 8498   5.329   0.129   5.077
 2533SOL    HW2 8499   5.312   0.152   5.238
 2534SOL     OW 8500   2.195   0.642   3.601
 2534SOL    HW1 8501   2.110   0.593   3.579
 2534SOL    HW2 8502   2.208   0.643   3.700
 2535SOL     OW 8503   1.657   1.834   4.181
 2535SOL    HW1 8504   1.580   1.817   4.119
 2535SOL    HW2 8505   1.731   1.769   4.161
 2536SOL     OW 8506   6.184   1.285   4.429
 2536SOL    HW1 8507   6.126   1.302   4.349
 2536SOL    HW2 8508   6.204   1.187   4.435
 2537SOL     OW 8509   4.694   6.016   1.083
 2537SOL    HW1 8510   4.677   5.931   1.132
 2537SOL    HW2 8511   4.773   6.005   1.023
 2538SOL     OW 8512   1.829   4.832   4.728
 2538SOL    HW1 8513   1.780   4.782   4.657
 2538SOL    HW2 8514   1.833   4.777   4.811
 2539SOL     OW 8515   4.067   0.051   5.492
 2539SOL    HW1 8516   3.977   0.047   5.536
 2539SOL    HW2 8517   4.135   0.081   5.558
 2540SOL     OW 8518   5.159   1.028   2.318
 2540SOL    HW1 8519   5.103   0.970   2.376
 2540SOL    HW2 8520   5.219   0.971   2.261
 2541SOL     OW 8521   1.095   0.054   5.107
 2541SOL    HW1 8522   1.082   0.107   5.023
 2541SOL    HW2 8523   1.039   0.094   5.180
 2542SOL     OW 8524   3.792   1.902   4.054
 2542SOL    HW1 8525   3.774   1.844   3.975
 2542SOL    HW2 8526   3.828   1.847   4.129
 2543SOL     OW 8527   1.076   0.642   3.075
 2543SOL    HW1 8528   1.061   0.552   3.116
 2543SOL    HW2 8529   0.990   0.676   3.037
 2544SOL     OW 8530   0.125   5.451   1.304
 2544SOL    HW1 8531   0.029   5.427   1.320
 2544SOL    HW2 8532   0.173   5.459   1.392
 2545SOL     OW 8533   2.030   1.878   1.451
 2545SOL    HW1 8534   2.042   1.896   1.353
 2545SOL    HW2 8535   2.016   1.780   1.465
 2546SOL     OW 8536   6.303   3.766   1.700
 2546SOL    HW1 8537   6.305   3.750   1.798
 2546SOL    HW2 8538   6.234   3.835   1.678
 2547SOL     OW 8539   5.685   4.587   0.679
 2547SOL    HW1 8540   5.753   4.611   0.609
 2547SOL    HW2 8541   5.702   4.494   0.711
 2548SOL     OW 8542   1.119   0.373   5.001
 2548SOL    HW1 8543   1.162   0.432   4.933
 2548SOL    HW2 8544   1.143   0.404   5.093
 2549SOL     OW 8545   1.954   2.730   2.425
 2549SOL    HW1 8546   1.920   2.818   2.456
 2549SOL    HW2 8547   1.937   2.720   2.327
 2550SOL     OW 8548   5.590   6.829   0.125
 2550SOL    HW1 8549   5.574   6.910   0.068
 2550SOL    HW2 8550   5.623   6.755   0.067
 2551SOL     OW 8551   3.378   4.846   0.154
 2551SOL    HW1 8552   3.441   4.904   0.206
 2551SOL    HW2 8553   3.426   4.805   0.077
 2552SOL     OW 8554   2.058   4.862   6.838
 2552SOL    HW1 8555   2.092   4.775   6.802
 2552SOL    HW2 8556   2.089   4.874   6.932
 2553SOL     OW 8557   3.680   1.790   6.123
 2553SOL    HW1 8558   3.729   1.850   6.060
 2553SOL    HW2 8559   3.591   1.830   6.144
 2554SOL     OW 8560   1.758   5.985   0.399
 2554SOL    HW1 8561   1.792   6.009   0.490
 2554SOL    HW2 8562   1.718   5.893   0.401
 2555SOL     OW 8563   6.401   5.927   6.008
 2555SOL    HW1 8564   6.424   6.019   6.040
 2555SOL    HW2 8565   6.464   5.900   5.936
 2556SOL     OW 8566   3.511   6.637   1.240
 2556SOL    HW1 8567   3.571   6.617   1.162
 2556SOL    HW2 8568   3.423   6.592   1.226
 2557SOL     OW 8569   3.255   0.326   0.272
 2557SOL    HW1 8570   3.213   0.340   0.362
 2557SOL    HW2 8571   3.278   0.414   0.232
 2558SOL     OW 8572   5.384   4.549   6.481
 2558SOL    HW1 8573   5.357   4.496   6.400
 2558SOL    HW2 8574   5.484   4.553   6.485
 2559SOL     OW 8575   0.332   3.588   3.070
 2559SOL    HW1 8576   0.331   3.555   2.976
 2559SOL    HW2 8577   0.271   3.531   3.126
 2560SOL     OW 8578   5.153   3.353   3.566
 2560SOL    HW1 8579   5.160   3.253   3.558
 2560SOL    HW2 8580   5.060   3.377   3.592
 2561SOL     OW 8581   3.407   1.013   4.230
 2561SOL    HW1 8582   3.470   1.068   4.285
 2561SOL    HW2 8583   3.344   1.073   4.181
 2562SOL     OW 8584   3.527   6.415   2.993
 2562SOL    HW1 8585   3.585   6.340   3.024
 2562SOL    HW2 8586   3.431   6.391   3.007
 2563SOL     OW 8587   2.459   1.229   6.483
 2563SOL    HW1 8588   2.529   1.295   6.509
 2563SOL    HW2 8589   2.398   1.212   6.561
 2564SOL     OW 8590   2.436   0.603   6.969
 2564SOL    HW1 8591   2.381   0.526   6.937
 2564SOL    HW2 8592   2.378   0.683   6.982
 2565SOL     OW 8593   0.565   1.505   6.491
 2565SOL    HW1 8594   0.564   1.576   6.561
 2565SOL    HW2 8595   0.583   1.416   6.534
 2566SOL     OW 8596   2.939   0.574   1.911
 2566SOL    HW1 8597   3.022   0.549   1.960
 2566SOL    HW2 8598   2.859   0.547   1.965
 2567SOL     OW 8599   1.030   0.851   0.386
 2567SOL    HW1 8600   0.986   0.930   0.429
 2567SOL    HW2 8601   1.120   0.878   0.350
 2568SOL     OW 8602   2.821   6.553   1.386
 2568SOL    HW1 8603   2.726   6.535   1.361
 2568SOL    HW2 8604   2.825   6.596   1.476
 2569SOL     OW 8605   2.100   1.180   1.137
 2569SOL    HW1 8606   2.028   1.112   1.129
 2569SOL    HW2 8607   2.129   1.188   1.232
 2570SOL     OW 8608   5.083   5.661   6.777
 2570SOL    HW1 8609   5.064   5.572   6.736
 2570SOL    HW2 8610   5.136   5.648   6.861
 2571SOL     OW 8611   3.678   2.976   4.427
 2571SOL    HW1 8612   3.777   2.985   4.417
 2571SOL    HW2 8613   3.657   2.931   4.514
 2572SOL     OW 8614   2.757   5.455   1.465
 2572SOL    HW1 8615   2.709   5.419   1.545
 2572SOL    HW2 8616   2.728   5.548   1.447
 2573SOL     OW 8617   6.595   1.971   3.989
 2573SOL    HW1 8618   6.685   1.984   4.031
 2573SOL    HW2 8619   6.524   1.973   4.059
 2574SOL     OW 8620   6.662   3.074   0.993
 2574SOL    HW1 8621   6.695   3.152   0.939
 2574SOL    HW2 8622   6.595   3.107   1.060
 2575SOL     OW 8623   4.923   3.993   0.457
 2575SOL    HW1 8624   4.832   4.032   0.452
 2575SOL    HW2 8625   4.923   3.902   0.415
 2576SOL     OW 8626   2.723   0.154   4.127
 2576SOL    HW1 8627   2.798   0.111   4.077
 2576SOL    HW2 8628   2.736   0.142   4.225
 2577SOL     OW 8629   3.797   0.794   3.549
 2577SOL    HW1 8630   3.701   0.798   3.577
 2577SOL    HW2 8631   3.830   0.887   3.531
 2578SOL     OW 8632   4.640   2.632   4.381
 2578SOL    HW1 8633   4.612   2.579   4.301
 2578SOL    HW2 8634   4.636   2.574   4.462
 2579SOL     OW 8635   0.472   1.577   5.916
 2579SOL    HW1 8636   0.498   1.671   5.935
 2579SOL    HW2 8637   0.524   1.515   5.976
 2580SOL     OW 8638   1.443   2.407   5.692
 2580SOL    HW1 8639   1.394   2.370   5.771
 2580SOL    HW2 8640   1.527   2.452   5.723
 2581SOL     OW 8641   5.408   5.638   1.853
 2581SOL    HW1 8642   5.457   5.570   1.799
 2581SOL    HW2 8643   5.420   5.728   1.813
 2582SOL     OW 8644   1.443   5.412   2.921
 2582SOL    HW1 8645   1.422   5.509   2.927
 2582SOL    HW2 8646   1.359   5.358   2.932
 2583SOL     OW 8647   0.943   0.810   0.805
 2583SOL    HW1 8648   0.945   0.750   0.725
 2583SOL    HW2 8649   0.851   0.850   0.814
 2584SOL     OW 8650   3.543   6.465   0.779
 2584SOL    HW1 8651   3.445   6.447   0.778
 2584SOL    HW2 8652   3.578   6.455   0.873
 2585SOL     OW 8653   2.834   6.980   1.133
 2585SOL    HW1 8654   2.790   6.911   1.075
 2585SOL    HW2 8655   2.901   6.937   1.192
 2586SOL     OW 8656   6.079   1.063   4.779
 2586SOL    HW1 8657   6.157   1.030   4.833
 2586SOL    HW2 8658   6.096   1.157   4.750
 2587SOL     OW 8659   6.661   0.366   4.805
 2587SOL    HW1 8660   6.578   0.420   4.791
 2587SOL    HW2 8661   6.648   0.275   4.767
 2588SOL     OW 8662   5.053   0.108   1.041
 2588SOL    HW1 8663   5.107   0.187   1.015
 2588SOL    HW2 8664   4.991   0.132   1.116
 2589SOL     OW 8665   6.761   0.338   5.535
 2589SOL    HW1 8666   6.740   0.382   5.448
 2589SOL    HW2 8667   6.693   0.268   5.555
 2590SOL     OW 8668   3.465   0.214   2.985
 2590SOL    HW1 8669   3.539   0.280   2.977
 2590SOL    HW2 8670   3.489   0.146   3.055
 2591SOL     OW 8671   4.941   6.273   1.097
 2591SOL    HW1 8672   4.910   6.353   1.044
 2591SOL    HW2 8673   5.015   6.300   1.158
 2592SOL     OW 8674   2.996   5.690   1.452
 2592SOL    HW1 8675   2.918   5.710   1.393
 2592SOL    HW2 8676   3.078   5.678   1.397
 2593SOL     OW 8677   3.257   0.082   2.846
 2593SOL    HW1 8678   3.335   0.129   2.888
 2593SOL    HW2 8679   3.262   0.092   2.746
 2594SOL     OW 8680   0.394   0.390   6.648
 2594SOL    HW1 8681   0.384   0.490   6.651
 2594SOL    HW2 8682   0.390   0.360   6.553
 2595SOL     OW 8683   6.501   2.978   5.153
 2595SOL    HW1 8684   6.573   3.046   5.141
 2595SOL    HW2 8685   6.535   2.902   5.208
 2596SOL     OW 8686   3.894   2.111   1.785
 2596SOL    HW1 8687   3.820   2.171   1.817
 2596SOL    HW2 8688   3.875   2.017   1.813
 2597SOL     OW 8689   2.542   2.729   0.833
 2597SOL    HW1 8690   2.519   2.826   0.821
 2597SOL    HW2 8691   2.619   2.720   0.896
 2598SOL     OW 8692   6.849   2.745   4.386
 2598SOL    HW1 8693   6.754   2.768   4.407
 2598SOL    HW2 8694   6.910   2.809   4.432
 2599SOL     OW 8695   3.294   5.900   5.546
 2599SOL    HW1 8696   3.358   5.823   5.551
 2599SOL    HW2 8697   3.200   5.864   5.540
 2600SOL     OW 8698   4.879   3.986   3.692
 2600SOL    HW1 8699   4.828   3.905   3.662
 2600SOL    HW2 8700   4.903   3.976   3.789
 2601SOL     OW 8701   3.037   2.011   6.361
 2601SOL    HW1 8702   3.085   1.931   6.396
 2601SOL    HW2 8703   3.023   2.077   6.436
 2602SOL     OW 8704   6.974   4.516   4.752
 2602SOL    HW1 8705   6.983   4.519   4.653
 2602SOL    HW2 8706   6.914   4.440   4.778
 2603SOL     OW 8707   2.282   2.585   1.897
 2603SOL    HW1 8708   2.350   2.565   1.968
 2603SOL    HW2 8709   2.320   2.651   1.832
 2604SOL     OW 8710   5.413   0.102   0.966
 2604SOL    HW1 8711   5.412   0.008   0.930
 2604SOL    HW2 8712   5.493   0.113   1.025
 2605SOL     OW 8713   4.245   4.657   3.346
 2605SOL    HW1 8714   4.191   4.577   3.321
 2605SOL    HW2 8715   4.214   4.692   3.435
 2606SOL     OW 8716   6.766   3.841   0.605
 2606SOL    HW1 8717   6.711   3.829   0.688
 2606SOL    HW2 8718   6.730   3.781   0.533
 2607SOL     OW 8719   1.830   1.886   4.681
 2607SOL    HW1 8720   1.798   1.891   4.775
 2607SOL    HW2 8721   1.825   1.977   4.640
 2608SOL     OW 8722   4.919   0.417   2.375
 2608SOL    HW1 8723   4.992   0.348   2.371
 2608SOL    HW2 8724   4.851   0.397   2.305
 2609SOL     OW 8725   0.749   2.198   1.868
 2609SOL    HW1 8726   0.833   2.230   1.912
 2609SOL    HW2 8727   0.739   2.100   1.886
 2610SOL     OW 8728   6.873   5.806   4.137
 2610SOL    HW1 8729   6.828   5.727   4.096
 2610SOL    HW2 8730   6.825   5.832   4.221
 2611SOL     OW 8731   5.897   6.323   0.951
 2611SOL    HW1 8732   5.988   6.345   0.987
 2611SOL    HW2 8733   5.835   6.399   0.970
 2612SOL     OW 8734   6.104   6.060   4.453
 2612SOL    HW1 8735   6.144   6.047   4.544
 2612SOL    HW2 8736   6.006   6.040   4.458
 2613SOL     OW 8737   3.458   6.564   2.079
 2613SOL    HW1 8738   3.505   6.566   2.168
 2613SOL    HW2 8739   3.433   6.470   2.057
 2614SOL     OW 8740   6.263   6.852   5.629
 2614SOL    HW1 8741   6.178   6.818   5.668
 2614SOL    HW2 8742   6.296   6.929   5.683
 2615SOL     OW 8743   5.449   5.669   3.809
 2615SOL    HW1 8744   5.440   5.650   3.907
 2615SOL    HW2 8745   5.515   5.606   3.769
 2616SOL     OW 8746   4.020   3.325   3.996
 2616SOL    HW1 8747   4.033   3.332   3.897
 2616SOL    HW2 8748   3.970   3.404   4.029
 2617SOL     OW 8749   3.265   5.053   1.059
 2617SOL    HW1 8750   3.254   5.099   0.971
 2617SOL    HW2 8751   3.176   5.039   1.102
 2618SOL     OW 8752   0.053   6.779   3.169
 2618SOL    HW1 8753   0.008   6.774   3.079
 2618SOL    HW2 8754   0.080   6.688   3.198
 2619SOL     OW 8755   4.486   1.596   2.144
 2619SOL    HW1 8756   4.436   1.544   2.214
 2619SOL    HW2 8757   4.509   1.535   2.068
 2620SOL     OW 8758   1.615   5.410   3.669
 2620SOL    HW1 8759   1.515   5.408   3.674
 2620SOL    HW2 8760   1.653   5.383   3.758
 2621SOL     OW 8761   0.828   5.397   3.355
 2621SOL    HW1 8762   0.804   5.486   3.394
 2621SOL    HW2 8763   0.875   5.342   3.423
 2622SOL     OW 8764   1.646   2.860   5.998
 2622SOL    HW1 8765   1.590   2.781   5.972
 2622SOL    HW2 8766   1.709   2.882   5.924
 2623SOL     OW 8767   4.100   1.093   4.453
 2623SOL    HW1 8768   4.169   1.163   4.470
 2623SOL    HW2 8769   4.068   1.099   4.359
 2624SOL     OW 8770   6.505   2.951   3.378
 2624SOL    HW1 8771   6.510   3.034   3.323
 2624SOL    HW2 8772   6.433   2.962   3.447
 2625SOL     OW 8773   1.596   2.903   5.350
 2625SOL    HW1 8774   1.610   2.949   5.437
 2625SOL    HW2 8775   1.673   2.921   5.289
 2626SOL     OW 8776   0.599   6.599   3.833
 2626SOL    HW1 8777   0.514   6.650   3.852
 2626SOL    HW2 8778   0.601   6.517   3.890
 2627SOL     OW 8779   0.078   0.831   4.984
 2627SOL    HW1 8780   0.012   0.795   4.917
 2627SOL    HW2 8781   0.150   0.881   4.936
 2628SOL     OW 8782   3.554   6.226   6.457
 2628SOL    HW1 8783   3.648   6.248   6.485
 2628SOL    HW2 8784   3.555   6.146   6.398
 2629SOL     OW 8785   3.810   3.711   1.820
 2629SOL    HW1 8786   3.866   3.629   1.828
 2629SOL    HW2 8787   3.868   3.788   1.792
 2630SOL     OW 8788   3.593   2.061   2.292
 2630SOL    HW1 8789   3.670   1.998   2.305
 2630SOL    HW2 8790   3.616   2.126   2.219
 2631SOL     OW 8791   4.470   6.917   4.167
 2631SOL    HW1 8792   4.566   6.896   4.148
 2631SOL    HW2 8793   4.418   6.917   4.081
 2632SOL     OW 8794   3.655   2.213   7.010
 2632SOL    HW1 8795   3.648   2.271   6.929
 2632SOL    HW2 8796   3.623   2.121   6.988
 2633SOL     OW 8797   6.005   2.605   6.711
 2633SOL    HW1 8798   6.055   2.628   6.627
 2633SOL    HW2 8799   5.917   2.564   6.686
 2634SOL     OW 8800   1.885   4.015   2.435
 2634SOL    HW1 8801   1.856   3.920   2.449
 2634SOL    HW2 8802   1.978   4.026   2.469
 2635SOL     OW 8803   5.585   6.082   4.514
 2635SOL    HW1 8804   5.537   6.165   4.484
 2635SOL    HW2 8805   5.519   6.009   4.530
 2636SOL     OW 8806   5.913   0.296   6.908
 2636SOL    HW1 8807   5.905   0.358   6.986
 2636SOL    HW2 8808   5.835   0.307   6.847
 2637SOL     OW 8809   6.486   0.917   3.222
 2637SOL    HW1 8810   6.525   1.009   3.211
 2637SOL    HW2 8811   6.540   0.851   3.171
 2638SOL     OW 8812   5.553   0.073   1.756
 2638SOL    HW1 8813   5.584   0.023   1.837
 2638SOL    HW2 8814   5.559   0.171   1.773
 2639SOL     OW 8815   5.876   6.699   2.430
 2639SOL    HW1 8816   5.969   6.710   2.395
 2639SOL    HW2 8817   5.818   6.658   2.360
 2640SOL     OW 8818   6.982   6.343   5.419
 2640SOL    HW1 8819   6.913   6.284   5.377
 2640SOL    HW2 8820   7.008   6.306   5.508
 2641SOL     OW 8821   5.893   3.480   0.685
 2641SOL    HW1 8822   5.903   3.507   0.781
 2641SOL    HW2 8823   5.803   3.506   0.652
 2642SOL     OW 8824   5.732   0.850   4.506
 2642SOL    HW1 8825   5.682   0.935   4.490
 2642SOL    HW2 8826   5.683   0.794   4.573
 2643SOL     OW 8827   6.992   5.420   3.185
 2643SOL    HW1 8828   6.929   5.389   3.114
 2643SOL    HW2 8829   0.060   5.364   3.183
 2644SOL     OW 8830   0.934   4.651   5.586
 2644SOL    HW1 8831   0.852   4.595   5.595
 2644SOL    HW2 8832   0.979   4.630   5.499
 2645SOL     OW 8833   4.480   7.011   4.944
 2645SOL    HW1 8834   4.396   0.018   4.895
 2645SOL    HW2 8835   4.458   6.986   5.038
 2646SOL     OW 8836   6.047   6.955   6.095
 2646SOL    HW1 8837   6.140   6.924   6.115
 2646SOL    HW2 8838   5.986   6.926   6.169
 2647SOL     OW 8839   5.052   0.486   1.100
 2647SOL    HW1 8840   5.034   0.484   1.001
 2647SOL    HW2 8841   5.130   0.427   1.121
 2648SOL     OW 8842   6.180   7.014   2.992
 2648SOL    HW1 8843   6.170   0.050   3.078
 2648SOL    HW2 8844   6.090   6.988   2.959
 2649SOL     OW 8845   4.208   1.506   5.930
 2649SOL    HW1 8846   4.243   1.482   6.021
 2649SOL    HW2 8847   4.117   1.545   5.939
 2650SOL     OW 8848   0.646   5.239   3.961
 2650SOL    HW1 8849   0.740   5.222   3.930
 2650SOL    HW2 8850   0.621   5.334   3.942
 2651SOL     OW 8851   0.773   1.194   1.096
 2651SOL    HW1 8852   0.675   1.211   1.104
 2651SOL    HW2 8853   0.819   1.276   1.063
 2652SOL     OW 8854   3.139   3.027   3.924
 2652SOL    HW1 8855   3.194   3.038   3.841
 2652SOL    HW2 8856   3.070   3.100   3.928
 2653SOL     OW 8857   5.175   6.933   5.547
 2653SOL    HW1 8858   5.102   6.977   5.493
 2653SOL    HW2 8859   5.145   6.924   5.642
 2654SOL     OW 8860   5.222   3.085   6.992
 2654SOL    HW1 8861   5.220   3.163   0.040
 2654SOL    HW2 8862   5.304   3.092   6.934
 2655SOL     OW 8863   3.737   4.902   4.256
 2655SOL    HW1 8864   3.642   4.913   4.227
 2655SOL    HW2 8865   3.740   4.877   4.353
 2656SOL     OW 8866   5.336   4.790   3.951
 2656SOL    HW1 8867   5.275   4.766   4.026
 2656SOL    HW2 8868   5.342   4.890   3.944
 2657SOL     OW 8869   2.487   4.168   6.473
 2657SOL    HW1 8870   2.423   4.233   6.515
 2657SOL    HW2 8871   2.541   4.215   6.403
 2658SOL     OW 8872   6.381   4.807   6.502
 2658SOL    HW1 8873   6.337   4.782   6.415
 2658SOL    HW2 8874   6.369   4.732   6.567
 2659SOL     OW 8875   6.827   2.000   4.117
 2659SOL    HW1 8876   6.822   1.998   4.217
 2659SOL    HW2 8877   6.839   2.095   4.086
 2660SOL     OW 8878   0.382   2.155   1.040
 2660SOL    HW1 8879   0.406   2.191   1.130
 2660SOL    HW2 8880   0.368   2.057   1.046
 2661SOL     OW 8881   2.750   6.816   1.835
 2661SOL    HW1 8882   2.838   6.817   1.788
 2661SOL    HW2 8883   2.684   6.871   1.783
 2662SOL     OW 8884   4.429   6.609   4.791
 2662SOL    HW1 8885   4.519   6.586   4.756
 2662SOL    HW2 8886   4.366   6.534   4.773
 2663SOL     OW 8887   2.143   4.449   1.397
 2663SOL    HW1 8888   2.049   4.427   1.424
 2663SOL    HW2 8889   2.151   4.445   1.298
 2664SOL     OW 8890   3.551   4.152   3.698
 2664SOL    HW1 8891   3.594   4.151   3.788
 2664SOL    HW2 8892   3.570   4.065   3.651
 2665SOL     OW 8893   3.531   2.075   5.029
 2665SOL    HW1 8894   3.447   2.129   5.040
 2665SOL    HW2 8895   3.535   2.040   4.935
 2666SOL     OW 8896   4.541   4.240   1.253
 2666SOL    HW1 8897   4.613   4.281   1.310
 2666SOL    HW2 8898   4.498   4.164   1.303
 2667SOL     OW 8899   1.232   6.219   4.731
 2667SOL    HW1 8900   1.210   6.122   4.728
 2667SOL    HW2 8901   1.202   6.263   4.646
 2668SOL     OW 8902   6.505   3.582   4.020
 2668SOL    HW1 8903   6.592   3.589   3.971
 2668SOL    HW2 8904   6.438   3.534   3.963
 2669SOL     OW 8905   3.364   4.843   5.657
 2669SOL    HW1 8906   3.437   4.910   5.643
 2669SOL    HW2 8907   3.294   4.856   5.586
 2670SOL     OW 8908   6.689   1.070   6.407
 2670SOL    HW1 8909   6.605   1.067   6.460
 2670SOL    HW2 8910   6.752   1.138   6.447
 2671SOL     OW 8911   2.674   3.722   0.421
 2671SOL    HW1 8912   2.590   3.696   0.470
 2671SOL    HW2 8913   2.736   3.767   0.485
 2672SOL     OW 8914   1.661   5.818   0.057
 2672SOL    HW1 8915   1.664   5.917   0.042
 2672SOL    HW2 8916   1.744   5.776   0.022
 2673SOL     OW 8917   5.321   2.626   3.843
 2673SOL    HW1 8918   5.404   2.646   3.791
 2673SOL    HW2 8919   5.244   2.677   3.803
 2674SOL     OW 8920   1.863   4.390   4.200
 2674SOL    HW1 8921   1.936   4.453   4.226
 2674SOL    HW2 8922   1.811   4.430   4.124
 2675SOL     OW 8923   1.381   4.435   5.418
 2675SOL    HW1 8924   1.311   4.398   5.479
 2675SOL    HW2 8925   1.428   4.359   5.371
 2676SOL     OW 8926   4.337   1.394   2.708
 2676SOL    HW1 8927   4.417   1.404   2.650
 2676SOL    HW2 8928   4.267   1.340   2.661
 2677SOL     OW 8929   2.794   4.857   1.222
 2677SOL    HW1 8930   2.734   4.887   1.296
 2677SOL    HW2 8931   2.870   4.921   1.213
 2678SOL     OW 8932   0.999   4.953   0.355
 2678SOL    HW1 8933   1.029   4.977   0.447
 2678SOL    HW2 8934   1.013   4.855   0.339
 2679SOL     OW 8935   3.853   5.235   1.094
 2679SOL    HW1 8936   3.800   5.160   1.053
 2679SOL    HW2 8937   3.935   5.197   1.137
 2680SOL     OW 8938   1.818   1.706   0.394
 2680SOL    HW1 8939   1.761   1.784   0.419
 2680SOL    HW2 8940   1.821   1.641   0.471
 2681SOL     OW 8941   1.828   3.595   4.079
 2681SOL    HW1 8942   1.745   3.544   4.102
 2681SOL    HW2 8943   1.840   3.597   3.980
 2682SOL     OW 8944   5.697   3.097   2.401
 2682SOL    HW1 8945   5.641   3.099   2.318
 2682SOL    HW2 8946   5.793   3.085   2.377
 2683SOL     OW 8947   1.296   4.451   1.230
 2683SOL    HW1 8948   1.388   4.434   1.193
 2683SOL    HW2 8949   1.238   4.371   1.215
 2684SOL     OW 8950   3.786   5.583   2.277
 2684SOL    HW1 8951   3.748   5.566   2.368
 2684SOL    HW2 8952   3.883   5.557   2.277
 2685SOL     OW 8953   6.172   6.761   4.698
 2685SOL    HW1 8954   6.140   6.778   4.791
 2685SOL    HW2 8955   6.094   6.751   4.637
 2686SOL     OW 8956   1.277   2.540   4.230
 2686SOL    HW1 8957   1.264   2.451   4.186
 2686SOL    HW2 8958   1.374   2.565   4.228
 2687SOL     OW 8959   4.064   4.780   2.484
 2687SOL    HW1 8960   4.153   4.734   2.481
 2687SOL    HW2 8961   4.030   4.781   2.577
 2688SOL     OW 8962   4.181   5.599   5.678
 2688SOL    HW1 8963   4.254   5.660   5.649
 2688SOL    HW2 8964   4.193   5.576   5.775
 2689SOL     OW 8965   1.805   1.866   3.843
 2689SOL    HW1 8966   1.708   1.873   3.819
 2689SOL    HW2 8967   1.853   1.948   3.814
 2690SOL     OW 8968   3.854   3.047   3.745
 2690SOL    HW1 8969   3.780   2.986   3.776
 2690SOL    HW2 8970   3.919   3.062   3.819
 2691SOL     OW 8971   1.986   5.556   2.036
 2691SOL    HW1 8972   1.995   5.611   2.118
 2691SOL    HW2 8973   1.980   5.459   2.061
 2692SOL     OW 8974   6.259   5.921   4.257
 2692SOL    HW1 8975   6.223   5.936   4.165
 2692SOL    HW2 8976   6.199   5.966   4.323
 2693SOL     OW 8977   2.402   4.703   3.038
 2693SOL    HW1 8978   2.319   4.698   3.094
 2693SOL    HW2 8979   2.377   4.691   2.941
 2694SOL     OW 8980   3.339   0.987   2.946
 2694SOL    HW1 8981   3.261   0.967   2.886
 2694SOL    HW2 8982   3.348   1.086   2.957
 2695SOL     OW 8983   4.948   1.964   2.524
 2695SOL    HW1 8984   4.996   2.052   2.520
 2695SOL    HW2 8985   4.901   1.956   2.612
 2696SOL     OW 8986   3.775   2.320   5.561
 2696SOL    HW1 8987   3.702   2.290   5.499
 2696SOL    HW2 8988   3.755   2.412   5.594
 2697SOL     OW 8989   4.319   2.241   3.925
 2697SOL    HW1 8990   4.372   2.325   3.913
 2697SOL    HW2 8991   4.242   2.240   3.862
 2698SOL     OW 8992   1.558   4.842   0.494
 2698SOL    HW1 8993   1.513   4.923   0.457
 2698SOL    HW2 8994   1.495   4.764   0.487
 2699SOL     OW 8995   3.696   5.591   6.785
 2699SOL    HW1 8996   3.618   5.533   6.812
 2699SOL    HW2 8997   3.747   5.546   6.713
 2700SOL     OW 8998   2.023   3.741   2.319
 2700SOL    HW1 8999   2.013   3.644   2.296
 2700SOL    HW2 9000   1.960   3.764   2.394
 2701SOL     OW 9001   3.701   7.014   6.250
 2701SOL    HW1 9002   3.793   0.039   6.255
 2701SOL    HW2 9003   3.637   0.067   6.215
 2702SOL     OW 9004   6.761   2.054   3.014
 2702SOL    HW1 9005   6.794   2.001   2.936
 2702SOL    HW2 9006   6.716   1.993   3.079
 2703SOL     OW 9007   2.799   0.875   3.135
 2703SOL    HW1 9008   2.732   0.844   3.067
 2703SOL    HW2 9009   2.753   0.892   3.222
 2704SOL     OW 9010   1.548   5.576   1.785
 2704SOL    HW1 9011   1.565   5.605   1.691
 2704SOL    HW2 9012   1.611   5.625   1.846
 2705SOL     OW 9013   0.191   5.104   4.423
 2705SOL    HW1 9014   0.097   5.134   4.440
 2705SOL    HW2 9015   0.202   5.085   4.325
 2706SOL     OW 9016   0.076   1.043   1.719
 2706SOL    HW1 9017   0.148   1.097   1.676
 2706SOL    HW2 9018   7.008   1.049   1.664
 2707SOL     OW 9019   2.060   0.291   5.936
 2707SOL    HW1 9020   2.142   0.241   5.961
 2707SOL    HW2 9021   2.058   0.306   5.838
 2708SOL     OW 9022   2.750   2.568   1.580
 2708SOL    HW1 9023   2.760   2.480   1.533
 2708SOL    HW2 9024   2.711   2.554   1.671
 2709SOL     OW 9025   4.826   6.496   0.972
 2709SOL    HW1 9026   4.782   6.585   0.979
 2709SOL    HW2 9027   4.759   6.427   0.946
 2710SOL     OW 9028   6.874   4.184   2.829
 2710SOL    HW1 9029   6.811   4.225   2.763
 2710SOL    HW2 9030   6.948   4.137   2.781
 2711SOL     OW 9031   2.248   0.701   2.796
 2711SOL    HW1 9032   2.277   0.794   2.819
 2711SOL    HW2 9033   2.184   0.668   2.865
 2712SOL     OW 9034   3.295   5.156   7.006
 2712SOL    HW1 9035   3.377   5.175   0.044
 2712SOL    HW2 9036   3.316   5.163   6.908
 2713SOL     OW 9037   2.031   2.790   4.947
 2713SOL    HW1 9038   2.123   2.750   4.950
 2713SOL    HW2 9039   1.967   2.731   4.996
 2714SOL     OW 9040   5.186   1.443   6.962
 2714SOL    HW1 9041   5.176   1.366   0.010
 2714SOL    HW2 9042   5.168   1.528   7.011
 2715SOL     OW 9043   6.229   0.638   0.478
 2715SOL    HW1 9044   6.326   0.615   0.487
 2715SOL    HW2 9045   6.220   0.720   0.422
 2716SOL     OW 9046   0.116   5.375   1.587
 2716SOL    HW1 9047   0.196   5.400   1.641
 2716SOL    HW2 9048   0.033   5.392   1.639
 2717SOL     OW 9049   0.781   5.610   2.157
 2717SOL    HW1 9050   0.850   5.681   2.148
 2717SOL    HW2 9051   0.744   5.587   2.067
 2718SOL     OW 9052   2.275   4.223   4.298
 2718SOL    HW1 9053   2.258   4.161   4.221
 2718SOL    HW2 9054   2.361   4.273   4.282
 2719SOL     OW 9055   4.622   5.041   2.077
 2719SOL    HW1 9056   4.669   5.101   2.142
 2719SOL    HW2 9057   4.620   4.948   2.114
 2720SOL     OW 9058   1.723   6.210   3.451
 2720SOL    HW1 9059   1.686   6.302   3.462
 2720SOL    HW2 9060   1.709   6.179   3.358
 2721SOL     OW 9061   2.499   0.377   5.042
 2721SOL    HW1 9062   2.504   0.310   5.115
 2721SOL    HW2 9063   2.403   0.395   5.019
 2722SOL     OW 9064   6.606   5.207   3.253
 2722SOL    HW1 9065   6.625   5.215   3.155
 2722SOL    HW2 9066   6.668   5.140   3.294
 2723SOL     OW 9067   1.715   1.117   5.589
 2723SOL    HW1 9068   1.679   1.102   5.497
 2723SOL    HW2 9069   1.659   1.067   5.655
 2724SOL     OW 9070   3.009   6.000   5.313
 2724SOL    HW1 9071   2.933   5.970   5.255
 2724SOL    HW2 9072   3.005   5.953   5.401
 2725SOL     OW 9073   6.065   4.559   3.287
 2725SOL    HW1 9074   6.011   4.488   3.332
 2725SOL    HW2 9075   6.135   4.592   3.351
 2726SOL     OW 9076   4.591   4.811   1.544
 2726SOL    HW1 9077   4.640   4.875   1.603
 2726SOL    HW2 9078   4.544   4.743   1.600
 2727SOL     OW 9079   0.923   4.502   2.993
 2727SOL    HW1 9080   0.861   4.432   2.958
 2727SOL    HW2 9081   0.879   4.592   2.986
 2728SOL     OW 9082   2.997   0.517   4.608
 2728SOL    HW1 9083   3.010   0.456   4.686
 2728SOL    HW2 9084   2.941   0.472   4.539
 2729SOL     OW 9085   6.989   6.042   2.077
 2729SOL    HW1 9086   6.924   6.101   2.029
 2729SOL    HW2 9087   6.967   6.042   2.175
 2730SOL     OW 9088   1.864   6.764   1.084
 2730SOL    HW1 9089   1.860   6.674   1.129
 2730SOL    HW2 9090   1.772   6.790   1.055
 2731SOL     OW 9091   2.829   3.655   1.439
 2731SOL    HW1 9092   2.756   3.597   1.476
 2731SOL    HW2 9093   2.875   3.702   1.513
 2732SOL     OW 9094   6.104   3.016   2.574
 2732SOL    HW1 9095   6.162   3.084   2.620
 2732SOL    HW2 9096   6.127   2.925   2.609
 2733SOL     OW 9097   0.686   6.778   5.332
 2733SOL    HW1 9098   0.644   6.689   5.343
 2733SOL    HW2 9099   0.620   6.843   5.293
 2734SOL     OW 9100   1.578   5.304   3.381
 2734SOL    HW1 9101   1.593   5.366   3.458
 2734SOL    HW2 9102   1.519   5.348   3.314
 2735SOL     OW 9103   0.285   3.408   2.351
 2735SOL    HW1 9104   0.301   3.492   2.300
 2735SOL    HW2 9105   0.189   3.379   2.340
 2736SOL     OW 9106   4.846   0.570   4.762
 2736SOL    HW1 9107   4.943   0.590   4.768
 2736SOL    HW2 9108   4.795   0.637   4.817
 2737SOL     OW 9109   3.188   3.199   6.500
 2737SOL    HW1 9110   3.145   3.124   6.450
 2737SOL    HW2 9111   3.229   3.263   6.435
 2738SOL     OW 9112   4.891   5.477   4.335
 2738SOL    HW1 9113   4.968   5.496   4.273
 2738SOL    HW2 9114   4.891   5.545   4.409
 2739SOL     OW 9115   5.898   4.182   0.840
 2739SOL    HW1 9116   5.963   4.106   0.832
 2739SOL    HW2 9117   5.931   4.246   0.909
 2740SOL     OW 9118   5.782   2.080   2.246
 2740SOL    HW1 9119   5.783   2.143   2.168
 2740SOL    HW2 9120   5.705   2.101   2.305
 2741SOL     OW 9121   6.931   1.621   5.751
 2741SOL    HW1 9122   6.907   1.598   5.656
 2741SOL    HW2 9123   6.873   1.568   5.813
 2742SOL     OW 9124   1.751   6.235   6.378
 2742SOL    HW1 9125   1.797   6.154   6.414
 2742SOL    HW2 9126   1.699   6.210   6.296
 2743SOL     OW 9127   6.256   6.053   1.435
 2743SOL    HW1 9128   6.302   6.038   1.348
 2743SOL    HW2 9129   6.190   6.128   1.425
 2744SOL     OW 9130   4.633   2.048   6.756
 2744SOL    HW1 9131   4.640   2.108   6.676
 2744SOL    HW2 9132   4.552   2.071   6.809
 2745SOL     OW 9133   2.251   6.311   0.433
 2745SOL    HW1 9134   2.211   6.221   0.413
 2745SOL    HW2 9135   2.337   6.300   0.481
 2746SOL     OW 9136   1.846   3.456   4.750
 2746SOL    HW1 9137   1.855   3.533   4.813
 2746SOL    HW2 9138   1.936   3.412   4.740
 2747SOL     OW 9139   5.537   4.593   5.411
 2747SOL    HW1 9140   5.493   4.674   5.372
 2747SOL    HW2 9141   5.607   4.622   5.477
 2748SOL     OW 9142   3.340   1.433   2.761
 2748SOL    HW1 9143   3.380   1.379   2.835
 2748SOL    HW2 9144   3.405   1.503   2.731
 2749SOL     OW 9145   5.209   4.742   4.191
 2749SOL    HW1 9146   5.258   4.809   4.246
 2749SOL    HW2 9147   5.223   4.651   4.229
 2750SOL     OW 9148   1.069   5.086   1.644
 2750SOL    HW1 9149   1.004   5.134   1.585
 2750SOL    HW2 9150   1.039   5.093   1.739
 2751SOL     OW 9151   1.961   0.066   0.493
 2751SOL    HW1 9152   2.054   0.032   0.484
 2751SOL    HW2 9153   1.939   0.127   0.417
 2752SOL     OW 9154   4.833   5.547   5.226
 2752SOL    HW1 9155   4.766   5.477   5.248
 2752SOL    HW2 9156   4.809   5.590   5.139
 2753SOL     OW 9157   2.950   5.823   6.525
 2753SOL    HW1 9158   3.032   5.779   6.489
 2753SOL    HW2 9159   2.975   5.889   6.596
 2754SOL     OW 9160   6.733   0.091   4.163
 2754SOL    HW1 9161   6.660   0.125   4.104
 2754SOL    HW2 9162   6.738   0.148   4.245
 2755SOL     OW 9163   2.840   6.669   3.512
 2755SOL    HW1 9164   2.929   6.625   3.505
 2755SOL    HW2 9165   2.848   6.765   3.484
 2756SOL     OW 9166   6.199   4.566   4.155
 2756SOL    HW1 9167   6.221   4.482   4.205
 2756SOL    HW2 9168   6.283   4.617   4.136
 2757SOL     OW 9169   3.610   1.722   6.453
 2757SOL    HW1 9170   3.662   1.791   6.504
 2757SOL    HW2 9171   3.658   1.701   6.368
 2758SOL     OW 9172   5.261   6.009   3.539
 2758SOL    HW1 9173   5.240   6.076   3.610
 2758SOL    HW2 9174   5.261   5.917   3.578
 2759SOL     OW 9175   3.282   4.603   5.726
 2759SOL    HW1 9176   3.329   4.543   5.661
 2759SOL    HW2 9177   3.319   4.695   5.719
 2760SOL     OW 9178   6.088   5.803   2.413
 2760SOL    HW1 9179   6.073   5.734   2.343
 2760SOL    HW2 9180   6.168   5.778   2.467
 2761SOL     OW 9181   1.337   4.342   3.140
 2761SOL    HW1 9182   1.294   4.401   3.072
 2761SOL    HW2 9183   1.424   4.308   3.105
 2762SOL     OW 9184   1.149   2.235   6.468
 2762SOL    HW1 9185   1.076   2.187   6.515
 2762SOL    HW2 9186   1.146   2.333   6.491
 2763SOL     OW 9187   5.013   1.640   5.785
 2763SOL    HW1 9188   5.015   1.726   5.835
 2763SOL    HW2 9189   5.097   1.588   5.804
 2764SOL     OW 9190   0.688   4.344   2.714
 2764SOL    HW1 9191   0.613   4.292   2.673
 2764SOL    HW2 9192   0.696   4.320   2.811
 2765SOL     OW 9193   6.538   6.987   0.617
 2765SOL    HW1 9194   6.602   6.928   0.568
 2765SOL    HW2 9195   6.444   6.964   0.591
 2766SOL     OW 9196   4.064   0.882   6.706
 2766SOL    HW1 9197   4.076   0.903   6.609
 2766SOL    HW2 9198   4.090   0.962   6.761
 2767SOL     OW 9199   5.787   5.837   6.302
 2767SOL    HW1 9200   5.843   5.833   6.219
 2767SOL    HW2 9201   5.820   5.910   6.361
 2768SOL     OW 9202   3.474   0.248   0.625
 2768SOL    HW1 9203   3.413   0.325   0.606
 2768SOL    HW2 9204   3.546   0.277   0.688
 2769SOL     OW 9205   1.751   4.038   6.040
 2769SOL    HW1 9206   1.703   3.962   5.998
 2769SOL    HW2 9207   1.844   4.044   6.003
 2770SOL     OW 9208   3.694   6.373   5.807
 2770SOL    HW1 9209   3.602   6.368   5.844
 2770SOL    HW2 9210   3.703   6.310   5.730
 2771SOL     OW 9211   5.383   6.477   3.937
 2771SOL    HW1 9212   5.440   6.521   3.868
 2771SOL    HW2 9213   5.298   6.528   3.949
 2772SOL     OW 9214   3.616   0.888   2.199
 2772SOL    HW1 9215   3.713   0.864   2.198
 2772SOL    HW2 9216   3.602   0.974   2.150
 2773SOL     OW 9217   0.017   3.022   4.180
 2773SOL    HW1 9218   6.967   3.074   4.236
 2773SOL    HW2 9219   6.990   2.936   4.152
 2774SOL     OW 9220   5.075   2.128   2.749
 2774SOL    HW1 9221   5.069   2.050   2.812
 2774SOL    HW2 9222   5.078   2.213   2.802
 2775SOL     OW 9223   0.245   3.659   3.678
 2775SOL    HW1 9224   0.284   3.697   3.761
 2775SOL    HW2 9225   0.161   3.609   3.700
 2776SOL     OW 9226   5.599   5.532   0.218
 2776SOL    HW1 9227   5.567   5.437   0.219
 2776SOL    HW2 9228   5.540   5.587   0.158
 2777SOL     OW 9229   2.596   1.866   5.771
 2777SOL    HW1 9230   2.545   1.851   5.856
 2777SOL    HW2 9231   2.620   1.777   5.731
 2778SOL     OW 9232   2.658   5.768   6.581
 2778SOL    HW1 9233   2.742   5.783   6.530
 2778SOL    HW2 9234   2.681   5.738   6.674
 2779SOL     OW 9235   5.568   6.392   1.703
 2779SOL    HW1 9236   5.534   6.482   1.677
 2779SOL    HW2 9237   5.646   6.401   1.765
 2780SOL     OW 9238   0.320   0.633   6.655
 2780SOL    HW1 9239   0.288   0.681   6.574
 2780SOL    HW2 9240   0.241   0.595   6.705
 2781SOL     OW 9241   6.499   0.810   2.508
 2781SOL    HW1 9242   6.494   0.883   2.440
 2781SOL    HW2 9243   6.414   0.809   2.562
 2782SOL     OW 9244   4.571   0.706   5.621
 2782SOL    HW1 9245   4.506   0.679   5.692
 2782SOL    HW2 9246   4.563   0.805   5.604
 2783SOL     OW 9247   6.190   3.511   1.191
 2783SOL    HW1 9248   6.142   3.439   1.240
 2783SOL    HW2 9249   6.145   3.528   1.103
 2784SOL     OW 9250   2.946   1.700   2.044
 2784SOL    HW1 9251   3.015   1.767   2.071
 2784SOL    HW2 9252   2.930   1.636   2.119
 2785SOL     OW 9253   5.088   2.716   1.457
 2785SOL    HW1 9254   5.112   2.656   1.382
 2785SOL    HW2 9255   5.036   2.665   1.526
 2786SOL     OW 9256   6.591   5.900   1.162
 2786SOL    HW1 9257   6.683   5.861   1.156
 2786SOL    HW2 9258   6.591   5.977   1.226
 2787SOL     OW 9259   6.241   6.192   5.774
 2787SOL    HW1 9260   6.318   6.190   5.838
 2787SOL    HW2 9261   6.197   6.103   5.771
 2788SOL     OW 9262   3.474   6.375   5.978
 2788SOL    HW1 9263   3.553   6.363   6.038
 2788SOL    HW2 9264   3.408   6.302   5.993
 2789SOL     OW 9265   0.846   2.546   3.762
 2789SOL    HW1 9266   0.830   2.644   3.779
 2789SOL    HW2 9267   0.834   2.495   3.847
 2790SOL     OW 9268   2.602   5.425   0.485
 2790SOL    HW1 9269   2.614   5.509   0.433
 2790SOL    HW2 9270   2.678   5.362   0.466
 2791SOL     OW 9271   0.260   4.209   2.429
 2791SOL    HW1 9272   0.177   4.263   2.441
 2791SOL    HW2 9273   0.293   4.219   2.335
 2792SOL     OW 9274   2.953   0.576   4.949
 2792SOL    HW1 9275   2.994   0.493   4.912
 2792SOL    HW2 9276   2.966   0.652   4.885
 2793SOL     OW 9277   4.241   4.026   1.127
 2793SOL    HW1 9278   4.256   3.994   1.034
 2793SOL    HW2 9279   4.194   3.955   1.180
 2794SOL     OW 9280   6.794   1.022   6.676
 2794SOL    HW1 9281   6.840   0.998   6.591
 2794SOL    HW2 9282   6.695   1.025   6.661
 2795SOL     OW 9283   0.605   4.942   0.911
 2795SOL    HW1 9284   0.699   4.950   0.879
 2795SOL    HW2 9285   0.548   5.011   0.866
 2796SOL     OW 9286   0.891   5.574   5.437
 2796SOL    HW1 9287   0.829   5.496   5.443
 2796SOL    HW2 9288   0.839   5.658   5.425
 2797SOL     OW 9289   5.900   5.781   5.046
 2797SOL    HW1 9290   5.970   5.818   4.984
 2797SOL    HW2 9291   5.869   5.692   5.013
 2798SOL     OW 9292   6.460   6.177   2.349
 2798SOL    HW1 9293   6.529   6.202   2.417
 2798SOL    HW2 9294   6.376   6.151   2.395
 2799SOL     OW 9295   4.882   5.315   5.394
 2799SOL    HW1 9296   4.888   5.405   5.436
 2799SOL    HW2 9297   4.787   5.282   5.399
 2800SOL     OW 9298   5.621   0.505   0.087
 2800SOL    HW1 9299   5.538   0.554   0.115
 2800SOL    HW2 9300   5.634   0.516   7.004
 2801SOL     OW 9301   0.680   5.465   5.827
 2801SOL    HW1 9302   0.704   5.387   5.771
 2801SOL    HW2 9303   0.763   5.512   5.857
 2802SOL     OW 9304   6.073   6.719   5.818
 2802SOL    HW1 9305   6.022   6.680   5.895
 2802SOL    HW2 9306   6.009   6.760   5.753
 2803SOL     OW 9307   3.430   3.271   6.170
 2803SOL    HW1 9308   3.366   3.330   6.219
 2803SOL    HW2 9309   3.388   3.243   6.083
 2804SOL     OW 9310   0.272   2.765   3.716
 2804SOL    HW1 9311   0.286   2.755   3.815
 2804SOL    HW2 9312   0.351   2.727   3.668
 2805SOL     OW 9313   4.912   3.643   2.089
 2805SOL    HW1 9314   4.936   3.580   2.163
 2805SOL    HW2 9315   4.874   3.727   2.126
 2806SOL     OW 9316   2.320   3.718   6.070
 2806SOL    HW1 9317   2.339   3.766   5.985
 2806SOL    HW2 9318   2.231   3.747   6.106
 2807SOL     OW 9319   3.053   0.602   2.919
 2807SOL    HW1 9320   3.119   0.653   2.975
 2807SOL    HW2 9321   3.099   0.565   2.839
 2808SOL     OW 9322   6.732   5.546   0.779
 2808SOL    HW1 9323   6.730   5.644   0.795
 2808SOL    HW2 9324   6.687   5.498   0.855
 2809SOL     OW 9325   5.263   4.183   2.124
 2809SOL    HW1 9326   5.350   4.137   2.137
 2809SOL    HW2 9327   5.239   4.185   2.027
 2810SOL     OW 9328   2.239   6.085   3.561
 2810SOL    HW1 9329   2.162   6.134   3.519
 2810SOL    HW2 9330   2.221   5.987   3.558
 2811SOL     OW 9331   0.836   0.602   2.490
 2811SOL    HW1 9332   0.742   0.635   2.483
 2811SOL    HW2 9333   0.895   0.678   2.517
 2812SOL     OW 9334   0.463   3.048   0.309
 2812SOL    HW1 9335   0.413   2.977   0.260
 2812SOL    HW2 9336   0.549   3.011   0.344
 2813SOL     OW 9337   1.018   1.751   1.092
 2813SOL    HW1 9338   0.983   1.738   0.999
 2813SOL    HW2 9339   0.982   1.836   1.130
 2814SOL     OW 9340   2.820   4.129   6.900
 2814SOL    HW1 9341   2.845   4.042   6.858
 2814SOL    HW2 9342   2.852   4.204   6.842
 2815SOL     OW 9343   0.306   5.832   5.048
 2815SOL    HW1 9344   0.357   5.794   4.970
 2815SOL    HW2 9345   0.265   5.757   5.100
 2816SOL     OW 9346   6.672   6.011   5.167
 2816SOL    HW1 9347   6.744   5.951   5.132
 2816SOL    HW2 9348   6.604   5.956   5.216
 2817SOL     OW 9349   3.893   0.584   1.988
 2817SOL    HW1 9350   3.968   0.632   2.033
 2817SOL    HW2 9351   3.830   0.548   2.056
 2818SOL     OW 9352   1.377   0.631   1.084
 2818SOL    HW1 9353   1.318   0.619   1.163
 2818SOL    HW2 9354   1.324   0.671   1.009
 2819SOL     OW 9355   0.873   0.299   0.846
 2819SOL    HW1 9356   0.968   0.318   0.819
 2819SOL    HW2 9357   0.870   0.272   0.942
 2820SOL     OW 9358   0.982   2.414   2.089
 2820SOL    HW1 9359   0.955   2.426   2.185
 2820SOL    HW2 9360   0.997   2.317   2.071
 2821SOL     OW 9361   3.629   5.071   6.682
 2821SOL    HW1 9362   3.716   5.057   6.730
 2821SOL    HW2 9363   3.593   4.982   6.653
 2822SOL     OW 9364   3.462   3.187   1.129
 2822SOL    HW1 9365   3.512   3.245   1.194
 2822SOL    HW2 9366   3.495   3.205   1.036
 2823SOL     OW 9367   4.897   0.984   0.707
 2823SOL    HW1 9368   4.933   1.068   0.665
 2823SOL    HW2 9369   4.871   0.920   0.635
 2824SOL     OW 9370   1.153   3.780   5.872
 2824SOL    HW1 9371   1.235   3.732   5.903
 2824SOL    HW2 9372   1.127   3.746   5.782
 2825SOL     OW 9373   5.048   0.637   6.798
 2825SOL    HW1 9374   4.986   0.582   6.853
 2825SOL    HW2 9375   4.999   0.676   6.720
 2826SOL     OW 9376   1.460   3.041   6.082
 2826SOL    HW1 9377   1.376   3.018   6.034
 2826SOL    HW2 9378   1.531   2.974   6.061
 2827SOL     OW 9379   0.089   0.546   6.786
 2827SOL    HW1 9380   0.018   0.480   6.811
 2827SOL    HW2 9381   0.049   0.618   6.729
 2828SOL     OW 9382   1.451   3.563   1.448
 2828SOL    HW1 9383   1.400   3.645   1.424
 2828SOL    HW2 9384   1.490   3.522   1.366
 2829SOL     OW 9385   3.177   4.060   3.454
 2829SOL    HW1 9386   3.167   4.120   3.533
 2829SOL    HW2 9387   3.092   4.008   3.440
 2830SOL     OW 9388   4.493   5.211   5.473
 2830SOL    HW1 9389   4.529   5.153   5.546
 2830SOL    HW2 9390   4.436   5.156   5.412
 2831SOL     OW 9391   6.485   2.537   1.667
 2831SOL    HW1 9392   6.486   2.499   1.760
 2831SOL    HW2 9393   6.579   2.554   1.637
 2832SOL     OW 9394   0.891   3.051   1.129
 2832SOL    HW1 9395   0.888   3.128   1.065
 2832SOL    HW2 9396   0.984   3.037   1.160
 2833SOL     OW 9397   2.237   0.831   2.237
 2833SOL    HW1 9398   2.217   0.737   2.211
 2833SOL    HW2 9399   2.278   0.879   2.159
 2834SOL     OW 9400   4.449   6.275   4.921
 2834SOL    HW1 9401   4.408   6.293   4.832
 2834SOL    HW2 9402   4.513   6.348   4.944
 2835SOL     OW 9403   1.156   6.592   0.860
 2835SOL    HW1 9404   1.236   6.615   0.915
 2835SOL    HW2 9405   1.089   6.544   0.916
 2836SOL     OW 9406   3.389   6.765   3.382
 2836SOL    HW1 9407   3.369   6.731   3.290
 2836SOL    HW2 9408   3.318   6.830   3.409
 2837SOL     OW 9409   5.654   4.267   2.401
 2837SOL    HW1 9410   5.650   4.351   2.346
 2837SOL    HW2 9411   5.668   4.291   2.497
 2838SOL     OW 9412   4.742   3.841   6.566
 2838SOL    HW1 9413   4.782   3.928   6.535
 2838SOL    HW2 9414   4.713   3.789   6.486
 2839SOL     OW 9415   6.158   3.222   4.220
 2839SOL    HW1 9416   6.241   3.207   4.273
 2839SOL    HW2 9417   6.096   3.282   4.270
 2840SOL     OW 9418   0.610   5.520   3.052
 2840SOL    HW1 9419   0.514   5.526   3.025
 2840SOL    HW2 9420   0.646   5.612   3.068
 2841SOL     OW 9421   6.042   2.404   0.905
 2841SOL    HW1 9422   6.056   2.321   0.958
 2841SOL    HW2 9423   6.119   2.466   0.919
 2842SOL     OW 9424   1.433   6.297   4.363
 2842SOL    HW1 9425   1.530   6.304   4.342
 2842SOL    HW2 9426   1.411   6.353   4.443
 2843SOL     OW 9427   2.115   3.441   2.861
 2843SOL    HW1 9428   2.156   3.473   2.775
 2843SOL    HW2 9429   2.144   3.347   2.879
 2844SOL     OW 9430   5.075   4.831   0.818
 2844SOL    HW1 9431   5.053   4.734   0.811
 2844SOL    HW2 9432   5.000   4.879   0.863
 2845SOL     OW 9433   4.843   3.036   3.468
 2845SOL    HW1 9434   4.825   3.120   3.416
 2845SOL    HW2 9435   4.841   3.055   3.566
 2846SOL     OW 9436   4.872   0.296   0.300
 2846SOL    HW1 9437   4.947   0.334   0.245
 2846SOL    HW2 9438   4.785   0.313   0.253
 2847SOL     OW 9439   4.682   4.285   2.236
 2847SOL    HW1 9440   4.778   4.259   2.229
 2847SOL    HW2 9441   4.643   4.291   2.144
 2848SOL     OW 9442   0.552   3.270   4.946
 2848SOL    HW1 9443   0.467   3.220   4.957
 2848SOL    HW2 9444   0.628   3.216   4.983
 2849SOL     OW 9445   3.641   0.903   2.482
 2849SOL    HW1 9446   3.673   0.879   2.390
 2849SOL    HW2 9447   3.710   0.877   2.550
 2850SOL     OW 9448   2.482   6.638   3.210
 2850SOL    HW1 9449   2.565   6.651   3.156
 2850SOL    HW2 9450   2.473   6.713   3.275
 2851SOL     OW 9451   4.506   3.655   0.545
 2851SOL    HW1 9452   4.446   3.590   0.593
 2851SOL    HW2 9453   4.459   3.690   0.464
 2852SOL     OW 9454   6.573   4.217   6.272
 2852SOL    HW1 9455   6.541   4.152   6.341
 2852SOL    HW2 9456   6.577   4.309   6.313
 2853SOL     OW 9457   0.184   3.478   0.165
 2853SOL    HW1 9458   0.102   3.518   0.124
 2853SOL    HW2 9459   0.253   3.549   0.178
 2854SOL     OW 9460   2.978   0.936   6.639
 2854SOL    HW1 9461   3.060   0.884   6.664
 2854SOL    HW2 9462   2.903   0.872   6.619
 2855SOL     OW 9463   1.443   2.129   4.480
 2855SOL    HW1 9464   1.480   2.159   4.392
 2855SOL    HW2 9465   1.517   2.097   4.539
 2856SOL     OW 9466   1.544   4.084   3.049
 2856SOL    HW1 9467   1.582   4.130   3.130
 2856SOL    HW2 9468   1.557   4.143   2.969
 2857SOL     OW 9469   0.475   3.297   0.164
 2857SOL    HW1 9470   0.472   3.198   0.181
 2857SOL    HW2 9471   0.387   3.338   0.188
 2858SOL     OW 9472   5.144   5.997   3.132
 2858SOL    HW1 9473   5.146   5.979   3.230
 2858SOL    HW2 9474   5.051   5.985   3.098
 2859SOL     OW 9475   5.266   6.079   0.919
 2859SOL    HW1 9476   5.261   6.174   0.950
 2859SOL    HW2 9477   5.359   6.059   0.890
 2860SOL     OW 9478   1.463   5.951   1.799
 2860SOL    HW1 9479   1.532   5.970   1.868
 2860SOL    HW2 9480   1.446   6.033   1.745
 2861SOL     OW 9481   3.429   5.084   6.327
 2861SOL    HW1 9482   3.382   4.996   6.316
 2861SOL    HW2 9483   3.522   5.077   6.292
 2862SOL     OW 9484   4.416   3.051   1.150
 2862SOL    HW1 9485   4.417   2.951   1.141
 2862SOL    HW2 9486   4.480   3.091   1.084
 2863SOL     OW 9487   5.323   0.272   5.878
 2863SOL    HW1 9488   5.278   0.342   5.933
 2863SOL    HW2 9489   5.276   0.263   5.790
 2864SOL     OW 9490   4.005   3.219   1.597
 2864SOL    HW1 9491   3.969   3.138   1.552
 2864SOL    HW2 9492   4.069   3.266   1.535
 2865SOL     OW 9493   4.860   6.087   4.311
 2865SOL    HW1 9494   4.916   6.044   4.240
 2865SOL    HW2 9495   4.796   6.152   4.270
 2866SOL     OW 9496   5.308   4.602   6.766
 2866SOL    HW1 9497   5.268   4.561   6.684
 2866SOL    HW2 9498   5.402   4.570   6.777
 2867SOL     OW 9499   6.341   6.536   2.155
 2867SOL    HW1 9500   6.260   6.479   2.148
 2867SOL    HW2 9501   6.370   6.565   2.064
 2868SOL     OW 9502   1.636   1.431   5.711
 2868SOL    HW1 9503   1.667   1.349   5.759
 2868SOL    HW2 9504   1.559   1.408   5.652
 2869SOL     OW 9505   5.506   6.282   4.321
 2869SOL    HW1 9506   5.569   6.251   4.250
 2869SOL    HW2 9507   5.500   6.382   4.319
 2870SOL     OW 9508   1.142   1.384   1.018
 2870SOL    HW1 9509   1.091   1.338   0.946
 2870SOL    HW2 9510   1.172   1.474   0.987
 2871SOL     OW 9511   6.548   1.280   1.969
 2871SOL    HW1 9512   6.448   1.287   1.976
 2871SOL    HW2 9513   6.575   1.184   1.976
 2872SOL     OW 9514   2.239   1.904   2.772
 2872SOL    HW1 9515   2.287   1.867   2.692
 2872SOL    HW2 9516   2.305   1.942   2.836
 2873SOL     OW 9517   0.707   5.776   1.530
 2873SOL    HW1 9518   0.741   5.773   1.624
 2873SOL    HW2 9519   0.681   5.870   1.508
 2874SOL     OW 9520   3.035   0.276   3.089
 2874SOL    HW1 9521   2.957   0.275   3.026
 2874SOL    HW2 9522   3.102   0.343   3.057
 2875SOL     OW 9523   2.869   7.006   2.845
 2875SOL    HW1 9524   2.959   6.989   2.884
 2875SOL    HW2 9525   2.827   6.919   2.820
 2876SOL     OW 9526   1.863   5.884   2.249
 2876SOL    HW1 9527   1.889   5.899   2.154
 2876SOL    HW2 9528   1.784   5.940   2.271
 2877SOL     OW 9529   1.718   1.619   5.884
 2877SOL    HW1 9530   1.649   1.681   5.920
 2877SOL    HW2 9531   1.675   1.545   5.832
 2878SOL     OW 9532   3.573   2.943   5.236
 2878SOL    HW1 9533   3.507   3.007   5.196
 2878SOL    HW2 9534   3.532   2.899   5.316
 2879SOL     OW 9535   4.442   4.758   5.943
 2879SOL    HW1 9536   4.531   4.802   5.955
 2879SOL    HW2 9537   4.370   4.827   5.945
 2880SOL     OW 9538   0.801   2.109   4.196
 2880SOL    HW1 9539   0.847   2.023   4.175
 2880SOL    HW2 9540   0.868   2.176   4.227
 2881SOL     OW 9541   3.626   5.793   6.648
 2881SOL    HW1 9542   3.671   5.730   6.712
 2881SOL    HW2 9543   3.694   5.829   6.584
 2882SOL     OW 9544   5.351   6.133   0.516
 2882SOL    HW1 9545   5.406   6.050   0.524
 2882SOL    HW2 9546   5.377   6.197   0.589
 2883SOL     OW 9547   5.934   6.221   3.163
 2883SOL    HW1 9548   5.950   6.303   3.108
 2883SOL    HW2 9549   5.904   6.146   3.104
 2884SOL     OW 9550   6.851   5.259   3.001
 2884SOL    HW1 9551   6.917   5.185   2.986
 2884SOL    HW2 9552   6.759   5.225   2.984
 2885SOL     OW 9553   1.506   3.748   3.135
 2885SOL    HW1 9554   1.559   3.687   3.193
 2885SOL    HW2 9555   1.546   3.840   3.138
 2886SOL     OW 9556   2.530   4.507   6.663
 2886SOL    HW1 9557   2.535   4.598   6.704
 2886SOL    HW2 9558   2.593   4.502   6.585
 2887SOL     OW 9559   0.248   6.023   4.671
 2887SOL    HW1 9560   0.223   6.089   4.600
 2887SOL    HW2 9561   0.347   6.009   4.669
 2888SOL     OW 9562   6.950   5.957   0.466
 2888SOL    HW1 9563   6.938   5.939   0.369
 2888SOL    HW2 9564   0.010   5.901   0.501
 2889SOL     OW 9565   2.742   6.724   3.144
 2889SOL    HW1 9566   2.749   6.736   3.045
 2889SOL    HW2 9567   2.811   6.779   3.190
 2890SOL     OW 9568   1.914   6.226   1.242
 2890SOL    HW1 9569   2.004   6.193   1.273
 2890SOL    HW2 9570   1.857   6.247   1.322
 2891SOL     OW 9571   0.552   3.410   2.648
 2891SOL    HW1 9572   0.541   3.364   2.560
 2891SOL    HW2 9573   0.611   3.355   2.707
 2892SOL     OW 9574   6.292   4.202   0.902
 2892SOL    HW1 9575   6.387   4.216   0.874
 2892SOL    HW2 9576   6.252   4.291   0.925
 2893SOL     OW 9577   0.534   5.888   4.679
 2893SOL    HW1 9578   0.589   5.955   4.629
 2893SOL    HW2 9579   0.454   5.863   4.624
 2894SOL     OW 9580   1.265   4.292   1.994
 2894SOL    HW1 9581   1.365   4.294   1.995
 2894SOL    HW2 9582   1.230   4.386   1.994
 2895SOL     OW 9583   3.524   0.226   6.149
 2895SOL    HW1 9584   3.468   0.265   6.223
 2895SOL    HW2 9585   3.467   0.216   6.068
 2896SOL     OW 9586   5.897   6.858   5.661
 2896SOL    HW1 9587   5.821   6.801   5.633
 2896SOL    HW2 9588   5.917   6.925   5.590
 2897SOL     OW 9589   3.326   5.315   2.874
 2897SOL    HW1 9590   3.414   5.286   2.911
 2897SOL    HW2 9591   3.257   5.310   2.946
 2898SOL     OW 9592   6.038   3.799   3.151
 2898SOL    HW1 9593   6.041   3.760   3.059
 2898SOL    HW2 9594   5.974   3.876   3.152
 2899SOL     OW 9595   0.034   2.040   1.113
 2899SOL    HW1 9596   0.128   2.007   1.109
 2899SOL    HW2 9597   0.024   2.105   1.188
 2900SOL     OW 9598   3.064   3.361   6.969
 2900SOL    HW1 9599   3.150   3.406   6.992
 2900SOL    HW2 9600   3.031   3.310   0.034
 2901SOL     OW 9601   1.875   4.499   3.208
 2901SOL    HW1 9602   1.839   4.568   3.145
 2901SOL    HW2 9603   1.852   4.524   3.302
 2902SOL     OW 9604   0.327   6.087   3.990
 2902SOL    HW1 9605   0.241   6.047   4.023
 2902SOL    HW2 9606   0.376   6.019   3.934
 2903SOL     OW 9607   4.665   5.905   0.686
 2903SOL    HW1 9608   4.683   6.003   0.671
 2903SOL    HW2 9609   4.740   5.866   0.740
 2904SOL     OW 9610   2.624   4.719   5.024
 2904SOL    HW1 9611   2.721   4.694   5.032
 2904SOL    HW2 9612   2.569   4.638   5.007
 2905SOL     OW 9613   1.215   4.830   2.529
 2905SOL    HW1 9614   1.173   4.752   2.485
 2905SOL    HW2 9615   1.178   4.841   2.621
 2906SOL     OW 9616   5.365   6.100   2.787
 2906SOL    HW1 9617   5.268   6.091   2.764
 2906SOL    HW2 9618   5.374   6.131   2.882
 2907SOL     OW 9619   0.877   0.841   3.811
 2907SOL    HW1 9620   0.781   0.818   3.792
 2907SOL    HW2 9621   0.911   0.784   3.886
 2908SOL     OW 9622   5.008   0.538   3.250
 2908SOL    HW1 9623   5.093   0.557   3.201
 2908SOL    HW2 9624   5.017   0.570   3.344
 2909SOL     OW 9625   1.332   5.654   2.938
 2909SOL    HW1 9626   1.288   5.665   2.848
 2909SOL    HW2 9627   1.262   5.652   3.009
 2910SOL     OW 9628   6.574   0.910   4.143
 2910SOL    HW1 9629   6.583   0.935   4.239
 2910SOL    HW2 9630   6.600   0.987   4.085
 2911SOL     OW 9631   0.180   4.785   4.008
 2911SOL    HW1 9632   0.140   4.770   3.918
 2911SOL    HW2 9633   0.277   4.761   4.007
 2912SOL     OW 9634   0.066   6.399   0.637
 2912SOL    HW1 9635   0.003   6.460   0.589
 2912SOL    HW2 9636   0.014   6.338   0.697
 2913SOL     OW 9637   1.622   4.700   1.997
 2913SOL    HW1 9638   1.720   4.693   2.014
 2913SOL    HW2 9639   1.605   4.696   1.898
 2914SOL     OW 9640   5.514   4.667   0.396
 2914SOL    HW1 9641   5.463   4.691   0.313
 2914SOL    HW2 9642   5.521   4.747   0.455
 2915SOL     OW 9643   3.205   2.126   2.781
 2915SOL    HW1 9644   3.282   2.187   2.798
 2915SOL    HW2 9645   3.174   2.137   2.687
 2916SOL     OW 9646   2.289   5.124   0.269
 2916SOL    HW1 9647   2.358   5.127   0.198
 2916SOL    HW2 9648   2.326   5.162   0.354
 2917SOL     OW 9649   2.568   0.371   3.667
 2917SOL    HW1 9650   2.545   0.292   3.610
 2917SOL    HW2 9651   2.606   0.340   3.754
 2918SOL     OW 9652   5.988   4.104   1.277
 2918SOL    HW1 9653   6.071   4.059   1.311
 2918SOL    HW2 9654   5.908   4.063   1.320
 2919SOL     OW 9655   0.273   6.178   4.440
 2919SOL    HW1 9656   0.324   6.257   4.404
 2919SOL    HW2 9657   0.270   6.106   4.371
 2920SOL     OW 9658   1.762   0.591   2.092
 2920SOL    HW1 9659   1.804   0.682   2.104
 2920SOL    HW2 9660   1.834   0.522   2.084
 2921SOL     OW 9661   0.208   6.938   5.920
 2921SOL    HW1 9662   0.121   6.893   5.905
 2921SOL    HW2 9663   0.215   6.965   6.017
 2922SOL     OW 9664   4.383   0.493   2.944
 2922SOL    HW1 9665   4.470   0.445   2.942
 2922SOL    HW2 9666   4.399   0.591   2.944
 2923SOL     OW 9667   6.397   4.427   4.889
 2923SOL    HW1 9668   6.450   4.344   4.872
 2923SOL    HW2 9669   6.456   4.507   4.878
 2924SOL     OW 9670   6.883   1.973   5.254
 2924SOL    HW1 9671   6.902   1.875   5.258
 2924SOL    HW2 9672   6.967   2.024   5.269
 2925SOL     OW 9673   5.547   0.805   6.158
 2925SOL    HW1 9674   5.642   0.794   6.129
 2925SOL    HW2 9675   5.487   0.750   6.099
 2926SOL     OW 9676   0.086   1.990   4.929
 2926SOL    HW1 9677   0.155   1.925   4.898
 2926SOL    HW2 9678   0.035   1.951   5.006
 2927SOL     OW 9679   2.108   3.144   1.399
 2927SOL    HW1 9680   2.194   3.195   1.403
 2927SOL    HW2 9681   2.097   3.105   1.307
 2928SOL     OW 9682   6.546   1.918   0.013
 2928SOL    HW1 9683   6.561   2.015   7.008
 2928SOL    HW2 9684   6.615   1.886   0.078
 2929SOL     OW 9685   0.983   2.707   4.723
 2929SOL    HW1 9686   0.926   2.649   4.664
 2929SOL    HW2 9687   1.046   2.760   4.666
 2930SOL     OW 9688   6.166   5.514   4.984
 2930SOL    HW1 9689   6.197   5.421   5.003
 2930SOL    HW2 9690   6.173   5.570   5.067
 2931SOL     OW 9691   4.067   4.458   6.671
 2931SOL    HW1 9692   4.008   4.378   6.681
 2931SOL    HW2 9693   4.052   4.520   6.747
 2932SOL     OW 9694   0.025   6.472   1.391
 2932SOL    HW1 9695   7.000   6.455   1.481
 2932SOL    HW2 9696   0.044   6.385   1.346
 2933SOL     OW 9697   0.454   0.355   1.801
 2933SOL    HW1 9698   0.409   0.397   1.722
 2933SOL    HW2 9699   0.428   0.404   1.884
 2934SOL     OW 9700   3.873   3.208   0.972
 2934SOL    HW1 9701   3.968   3.178   0.978
 2934SOL    HW2 9702   3.846   3.252   1.057
 2935SOL     OW 9703   0.568   2.505   6.212
 2935SOL    HW1 9704   0.624   2.529   6.133
 2935SOL    HW2 9705   0.597   2.416   6.248
 2936SOL     OW 9706   4.385   0.238   0.544
 2936SOL    HW1 9707   4.421   0.266   0.632
 2936SOL    HW2 9708   4.456   0.191   0.492
 2937SOL     OW 9709   4.273   5.660   1.624
 2937SOL    HW1 9710   4.312   5.641   1.534
 2937SOL    HW2 9711   4.345   5.654   1.693
 2938SOL     OW 9712   6.169   6.081   6.422
 2938SOL    HW1 9713   6.141   6.174   6.447
 2938SOL    HW2 9714   6.251   6.086   6.364
 2939SOL     OW 9715   0.578   5.893   1.980
 2939SOL    HW1 9716   0.526   5.951   1.918
 2939SOL    HW2 9717   0.519   5.819   2.014
 2940SOL     OW 9718   5.967   6.109   4.189
 2940SOL    HW1 9719   5.908   6.046   4.239
 2940SOL    HW2 9720   5.911   6.164   4.126
 2941SOL     OW 9721   1.870   3.306   3.462
 2941SOL    HW1 9722   1.906   3.225   3.508
 2941SOL    HW2 9723   1.934   3.337   3.392
 2942SOL     OW 9724   2.397   1.537   6.590
 2942SOL    HW1 9725   2.327   1.546   6.661
 2942SOL    HW2 9726   2.487   1.528   6.632
 2943SOL     OW 9727   6.304   4.292   3.482
 2943SOL    HW1 9728   6.298   4.391   3.472
 2943SOL    HW2 9729   6.400   4.263   3.475
 2944SOL     OW 9730   2.406   6.219   3.944
 2944SOL    HW1 9731   2.413   6.175   4.034
 2944SOL    HW2 9732   2.429   6.153   3.873
 2945SOL     OW 9733   5.216   4.332   1.449
 2945SOL    HW1 9734   5.304   4.378   1.460
 2945SOL    HW2 9735   5.210   4.294   1.357
 2946SOL     OW 9736   3.002   3.895   5.846
 2946SOL    HW1 9737   2.911   3.880   5.808
 2946SOL    HW2 9738   3.070   3.852   5.787
 2947SOL     OW 9739   6.698   6.011   0.904
 2947SOL    HW1 9740   6.678   5.969   0.993
 2947SOL    HW2 9741   6.732   5.941   0.842
 2948SOL     OW 9742   5.999   4.900   2.882
 2948SOL    HW1 9743   5.987   4.836   2.958
 2948SOL    HW2 9744   6.060   4.859   2.813
 2949SOL     OW 9745   0.845   6.533   0.909
 2949SOL    HW1 9746   0.919   6.497   0.965
 2949SOL    HW2 9747   0.797   6.605   0.960
 2950SOL     OW 9748   4.862   4.589   2.403
 2950SOL    HW1 9749   4.938   4.525   2.411
 2950SOL    HW2 9750   4.776   4.540   2.413
 2951SOL     OW 9751   5.631   0.321   1.829
 2951SOL    HW1 9752   5.720   0.336   1.787
 2951SOL    HW2 9753   5.589   0.409   1.852
 2952SOL     OW 9754   6.159   0.761   4.217
 2952SOL    HW1 9755   6.196   0.848   4.249
 2952SOL    HW2 9756   6.176   0.751   4.119
 2953SOL     OW 9757   0.030   5.795   3.083
 2953SOL    HW1 9758   7.012   5.774   3.175
 2953SOL    HW2 9759   0.128   5.777   3.078
 2954SOL     OW 9760   1.022   4.704   6.333
 2954SOL    HW1 9761   0.960   4.636   6.294
 2954SOL    HW2 9762   0.980   4.795   6.329
 2955SOL     OW 9763   1.149   4.250   6.837
 2955SOL    HW1 9764   1.065   4.286   6.879
 2955SOL    HW2 9765   1.128   4.163   6.791
 2956SOL     OW 9766   6.774   4.584   4.126
 2956SOL    HW1 9767   6.774   4.666   4.184
 2956SOL    HW2 9768   6.855   4.529   4.146
 2957SOL     OW 9769   2.831   5.062   1.418
 2957SOL    HW1 9770   2.873   5.146   1.452
 2957SOL    HW2 9771   2.778   5.019   1.491
 2958SOL     OW 9772   1.841   4.947   2.854
 2958SOL    HW1 9773   1.813   4.904   2.768
 2958SOL    HW2 9774   1.940   4.945   2.861
 2959SOL     OW 9775   5.371   2.762   3.195
 2959SOL    HW1 9776   5.324   2.734   3.279
 2959SOL    HW2 9777   5.312   2.823   3.142
 2960SOL     OW 9778   3.930   0.891   0.180
 2960SOL    HW1 9779   4.025   0.885   0.149
 2960SOL    HW2 9780   3.886   0.802   0.167
 2961SOL     OW 9781   5.368   4.429   2.815
 2961SOL    HW1 9782   5.356   4.520   2.855
 2961SOL    HW2 9783   5.463   4.401   2.823
 2962SOL     OW 9784   5.616   6.410   2.801
 2962SOL    HW1 9785   5.562   6.488   2.833
 2962SOL    HW2 9786   5.570   6.368   2.723
 2963SOL     OW 9787   1.030   0.832   5.944
 2963SOL    HW1 9788   0.993   0.917   5.906
 2963SOL    HW2 9789   1.016   0.758   5.879
 2964SOL     OW 9790   0.487   2.897   6.927
 2964SOL    HW1 9791   0.446   2.864   6.841
 2964SOL    HW2 9792   0.544   2.825   6.966
 2965SOL     OW 9793   0.538   0.404   4.583
 2965SOL    HW1 9794   0.526   0.420   4.681
 2965SOL    HW2 9795   0.456   0.359   4.547
 2966SOL     OW 9796   4.647   5.511   3.511
 2966SOL    HW1 9797   4.682   5.463   3.591
 2966SOL    HW2 9798   4.570   5.570   3.537
 2967SOL     OW 9799   6.992   0.562   5.587
 2967SOL    HW1 9800   6.934   0.485   5.615
 2967SOL    HW2 9801   6.994   0.567   5.487
 2968SOL     OW 9802   1.944   2.884   0.961
 2968SOL    HW1 9803   1.885   2.918   1.035
 2968SOL    HW2 9804   1.904   2.801   0.923
 2969SOL     OW 9805   4.939   3.867   4.302
 2969SOL    HW1 9806   4.866   3.874   4.371
 2969SOL    HW2 9807   5.017   3.819   4.341
 2970SOL     OW 9808   2.686   2.803   5.567
 2970SOL    HW1 9809   2.777   2.778   5.533
 2970SOL    HW2 9810   2.645   2.726   5.614
 2971SOL     OW 9811   5.696   4.077   0.111
 2971SOL    HW1 9812   5.736   4.164   0.139
 2971SOL    HW2 9813   5.619   4.055   0.172
 2972SOL     OW 9814   6.039   4.949   6.627
 2972SOL    HW1 9815   6.138   4.938   6.623
 2972SOL    HW2 9816   6.016   5.030   6.681
 2973SOL     OW 9817   4.768   6.596   2.285
 2973SOL    HW1 9818   4.722   6.526   2.231
 2973SOL    HW2 9819   4.742   6.586   2.381
 2974SOL     OW 9820   6.319   4.697   3.136
 2974SOL    HW1 9821   6.240   4.752   3.162
 2974SOL    HW2 9822   6.331   4.699   3.037
 2975SOL     OW 9823   4.502   4.545   3.979
 2975SOL    HW1 9824   4.577   4.500   4.027
 2975SOL    HW2 9825   4.485   4.498   3.892
 2976SOL     OW 9826   4.650   1.982   3.307
 2976SOL    HW1 9827   4.667   1.930   3.224
 2976SOL    HW2 9828   4.697   1.939   3.384
 2977SOL     OW 9829   0.708   0.581   2.086
 2977SOL    HW1 9830   0.796   0.625   2.104
 2977SOL    HW2 9831   0.691   0.580   1.987
 2978SOL     OW 9832   4.355   4.151   6.378
 2978SOL    HW1 9833   4.263   4.126   6.348
 2978SOL    HW2 9834   4.353   4.243   6.419
 2979SOL     OW 9835   3.377   1.646   4.718
 2979SOL    HW1 9836   3.282   1.617   4.732
 2979SOL    HW2 9837   3.383   1.700   4.634
 2980SOL     OW 9838   3.800   4.304   6.339
 2980SOL    HW1 9839   3.798   4.292   6.240
 2980SOL    HW2 9840   3.840   4.392   6.362
 2981SOL     OW 9841   2.059   1.502   0.374
 2981SOL    HW1 9842   2.092   1.420   0.420
 2981SOL    HW2 9843   1.978   1.480   0.320
 2982SOL     OW 9844   1.497   6.557   2.431
 2982SOL    HW1 9845   1.538   6.523   2.346
 2982SOL    HW2 9846   1.476   6.655   2.421
 2983SOL     OW 9847   6.978   2.367   6.487
 2983SOL    HW1 9848   0.017   2.438   6.442
 2983SOL    HW2 9849   6.908   2.334   6.424
 2984SOL     OW 9850   6.392   5.062   0.129
 2984SOL    HW1 9851   6.382   5.160   0.111
 2984SOL    HW2 9852   6.303   5.023   0.151
 2985SOL     OW 9853   0.506   6.992   4.494
 2985SOL    HW1 9854   0.604   7.002   4.511
 2985SOL    HW2 9855   0.491   6.956   4.402
 2986SOL     OW 9856   3.301   4.013   2.659
 2986SOL    HW1 9857   3.360   4.010   2.741
 2986SOL    HW2 9858   3.255   3.925   2.648
 2987SOL     OW 9859   0.952   2.362   4.217
 2987SOL    HW1 9860   1.025   2.322   4.272
 2987SOL    HW2 9861   0.947   2.460   4.232
 2988SOL     OW 9862   1.037   1.033   1.345
 2988SOL    HW1 9863   1.069   0.969   1.274
 2988SOL    HW2 9864   1.000   1.115   1.301
 2989SOL     OW 9865   5.318   3.472   5.231
 2989SOL    HW1 9866   5.283   3.544   5.171
 2989SOL    HW2 9867   5.289   3.491   5.325
 2990SOL     OW 9868   5.225   1.949   4.440
 2990SOL    HW1 9869   5.232   1.968   4.537
 2990SOL    HW2 9870   5.256   1.856   4.422
 2991SOL     OW 9871   5.906   3.502   0.966
 2991SOL    HW1 9872   5.872   3.446   1.042
 2991SOL    HW2 9873   5.840   3.574   0.945
 2992SOL     OW 9874   0.664   3.633   4.591
 2992SOL    HW1 9875   0.635   3.560   4.653
 2992SOL    HW2 9876   0.593   3.703   4.585
 2993SOL     OW 9877   0.853   4.669   0.049
 2993SOL    HW1 9878   0.921   4.670   6.990
 2993SOL    HW2 9879   0.765   4.699   0.013
 2994SOL     OW 9880   4.773   5.994   6.564
 2994SOL    HW1 9881   4.860   5.953   6.593
 2994SOL    HW2 9882   4.781   6.026   6.470
 2995SOL     OW 9883   4.401   0.438   0.798
 2995SOL    HW1 9884   4.353   0.522   0.770
 2995SOL    HW2 9885   4.468   0.460   0.869
 2996SOL     OW 9886   1.547   2.158   4.789
 2996SOL    HW1 9887   1.548   2.247   4.834
 2996SOL    HW2 9888   1.640   2.135   4.758
 2997SOL     OW 9889   4.680   0.693   3.610
 2997SOL    HW1 9890   4.608   0.673   3.543
 2997SOL    HW2 9891   4.638   0.716   3.698
 2998SOL     OW 9892   3.082   0.417   3.798
 2998SOL    HW1 9893   3.178   0.436   3.780
 2998SOL    HW2 9894   3.065   0.421   3.897
 2999SOL     OW 9895   3.128   4.540   6.740
 2999SOL    HW1 9896   3.192   4.469   6.710
 2999SOL    HW2 9897   3.065   4.503   6.808
 3000SOL     OW 9898   2.865   3.496   5.582
 3000SOL    HW1 9899   2.776   3.477   5.540
 3000SOL    HW2 9900   2.865   3.588   5.621
 3001SOL     OW 9901   5.822   0.944   6.749
 3001SOL    HW1 9902   5.883   0.866   6.758
 3001SOL    HW2 9903   5.800   0.980   6.839
 3002SOL     OW 9904   2.892   1.244   1.283
 3002SOL    HW1 9905   2.894   1.343   1.297
 3002SOL    HW2 9906   2.925   1.223   1.190
 3003SOL     OW 9907   0.959   6.231   0.863
 3003SOL    HW1 9908   0.894   6.168   0.905
 3003SOL    HW2 9909   0.937   6.325   0.889
 3004SOL     OW 9910   2.437   4.432   4.228
 3004SOL    HW1 9911   2.418   4.527   4.250
 3004SOL    HW2 9912   2.466   4.425   4.133
 3005SOL     OW 9913   1.073   3.054   5.601
 3005SOL    HW1 9914   0.987   3.061   5.652
 3005SOL    HW2 9915   1.089   3.139   5.550
 3006SOL     OW 9916   5.649   1.942   5.824
 3006SOL    HW1 9917   5.561   1.899   5.846
 3006SOL    HW2 9918   5.691   1.976   5.908
 3007SOL     OW 9919   5.206   5.447   0.224
 3007SOL    HW1 9920   5.218   5.424   0.127
 3007SOL    HW2 9921   5.156   5.533   0.231
 3008SOL     OW 9922   4.357   1.767   5.932
 3008SOL    HW1 9923   4.332   1.810   5.845
 3008SOL    HW2 9924   4.312   1.679   5.940
 3009SOL     OW 9925   0.032   2.847   2.965
 3009SOL    HW1 9926   6.963   2.813   3.007
 3009SOL    HW2 9927   0.014   2.871   2.870
 3010SOL     OW 9928   4.534   5.471   6.052
 3010SOL    HW1 9929   4.623   5.466   6.097
 3010SOL    HW2 9930   4.471   5.407   6.095
 3011SOL     OW 9931   6.349   6.895   1.655
 3011SOL    HW1 9932   6.341   6.964   1.727
 3011SOL    HW2 9933   6.372   6.939   1.569
 3012SOL     OW 9934   2.738   3.367   6.473
 3012SOL    HW1 9935   2.661   3.420   6.509
 3012SOL    HW2 9936   2.713   3.327   6.384
 3013SOL     OW 9937   6.947   6.212   3.306
 3013SOL    HW1 9938   6.857   6.173   3.322
 3013SOL    HW2 9939   6.962   6.289   3.369
 3014SOL     OW 9940   5.224   0.476   6.016
 3014SOL    HW1 9941   5.226   0.572   6.042
 3014SOL    HW2 9942   5.145   0.432   6.058
 3015SOL     OW 9943   1.935   1.177   0.132
 3015SOL    HW1 9944   1.949   1.118   0.212
 3015SOL    HW2 9945   1.902   1.267   0.162
 3016SOL     OW 9946   3.476   0.267   4.625
 3016SOL    HW1 9947   3.476   0.267   4.725
 3016SOL    HW2 9948   3.405   0.329   4.592
 3017SOL     OW 9949   6.572   5.820   1.778
 3017SOL    HW1 9950   6.526   5.896   1.823
 3017SOL    HW2 9951   6.533   5.733   1.810
 3018SOL     OW 9952   3.824   6.823   0.417
 3018SOL    HW1 9953   3.745   6.781   0.461
 3018SOL    HW2 9954   3.794   6.880   0.341
 3019SOL     OW 9955   1.482   6.731   6.845
 3019SOL    HW1 9956   1.401   6.673   6.856
 3019SOL    HW2 9957   1.544   6.717   6.922
 3020SOL     OW 9958   5.480   3.087   6.928
 3020SOL    HW1 9959   5.506   3.053   0.003
 3020SOL    HW2 9960   5.510   3.022   6.858
 3021SOL     OW 9961   3.464   6.357   4.623
 3021SOL    HW1 9962   3.385   6.332   4.567
 3021SOL    HW2 9963   3.538   6.389   4.563
 3022SOL     OW 9964   4.022   5.986   3.206
 3022SOL    HW1 9965   4.078   5.904   3.220
 3022SOL    HW2 9966   3.959   5.996   3.283
 3023SOL     OW 9967   3.871   6.591   2.664
 3023SOL    HW1 9968   3.796   6.583   2.729
 3023SOL    HW2 9969   3.952   6.628   2.710
 3024SOL     OW 9970   6.743   6.241   5.294
 3024SOL    HW1 9971   6.712   6.323   5.245
 3024SOL    HW2 9972   6.711   6.160   5.245
 3025SOL     OW 9973   4.526   5.599   0.260
 3025SOL    HW1 9974   4.534   5.642   0.350
 3025SOL    HW2 9975   4.526   5.669   0.189
 3026SOL     OW 9976   5.676   0.910   1.041
 3026SOL    HW1 9977   5.728   0.995   1.035
 3026SOL    HW2 9978   5.706   0.847   0.969
 3027SOL     OW 9979   4.787   1.756   1.704
 3027SOL    HW1 9980   4.694   1.786   1.681
 3027SOL    HW2 9981   4.794   1.744   1.803
 3028SOL     OW 9982   2.189   3.866   6.613
 3028SOL    HW1 9983   2.189   3.775   6.654
 3028SOL    HW2 9984   2.101   3.881   6.567
 3029SOL     OW 9985   0.546   2.881   3.993
 3029SOL    HW1 9986   0.450   2.852   3.983
 3029SOL    HW2 9987   0.606   2.802   3.985
 3030SOL     OW 9988   1.417   4.444   1.488
 3030SOL    HW1 9989   1.449   4.384   1.415
 3030SOL    HW2 9990   1.355   4.513   1.450
 3031SOL     OW 9991   1.496   5.376   1.408
 3031SOL    HW1 9992   1.506   5.294   1.464
 3031SOL    HW2 9993   1.445   5.353   1.324
 3032SOL     OW 9994   2.008   0.015   3.290
 3032SOL    HW1 9995   2.031   0.076   3.365
 3032SOL    HW2 9996   2.090   6.978   3.264
 3033SOL     OW 9997   6.184   2.915   4.085
 3033SOL    HW1 9998   6.210   2.845   4.152
 3033SOL    HW2 9999   6.128   2.985   4.130
 3034SOL     OW10000   0.794   6.220   3.723
 3034SOL    HW110001   0.791   6.121   3.736
 3034SOL    HW210002   0.709   6.250   3.678
 3035SOL     OW10003   1.302   2.535   6.064
 3035SOL    HW110004   1.283   2.480   5.983
 3035SOL    HW210005   1.227   2.524   6.130
 3036SOL     OW10006   1.584   1.998   6.110
 3036SOL    HW110007   1.683   1.986   6.114
 3036SOL    HW210008   1.541   1.911   6.086
 3037SOL     OW10009   0.718   4.810   5.756
 3037SOL    HW110010   0.629   4.834   5.718
 3037SOL    HW210011   0.786   4.877   5.727
 3038SOL     OW10012   5.028   5.187   5.921
 3038SOL    HW110013   5.032   5.151   6.014
 3038SOL    HW210014   5.117   5.224   5.895
 3039SOL     OW10015   6.147   3.283   0.582
 3039SOL    HW110016   6.103   3.370   0.558
 3039SOL    HW210017   6.120   3.213   0.516
 3040SOL     OW10018   3.651   4.206   5.878
 3040SOL    HW110019   3.718   4.141   5.916
 3040SOL    HW210020   3.569   4.156   5.849
 3041SOL     OW10021   1.541   3.988   4.744
 3041SOL    HW110022   1.514   4.046   4.821
 3041SOL    HW210023   1.640   3.994   4.732
 3042SOL     OW10024   0.536   4.664   3.002
 3042SOL    HW110025   0.566   4.754   3.034
 3042SOL    HW210026   0.563   4.652   2.907
 3043SOL     OW10027   2.443   3.102   0.605
 3043SOL    HW110028   2.414   3.195   0.625
 3043SOL    HW210029   2.541   3.093   0.623
 3044SOL     OW10030   3.446   3.582   5.372
 3044SOL    HW110031   3.494   3.609   5.289
 3044SOL    HW210032   3.396   3.661   5.409
 3045SOL     OW10033   5.034   1.275   3.476
 3045SOL    HW110034   4.970   1.333   3.424
 3045SOL    HW210035   4.991   1.186   3.491
 3046SOL     OW10036   5.534   5.509   0.640
 3046SOL    HW110037   5.530   5.409   0.632
 3046SOL    HW210038   5.497   5.537   0.729
 3047SOL     OW10039   6.087   6.824   0.485
 3047SOL    HW110040   6.068   6.878   0.403
 3047SOL    HW210041   6.158   6.869   0.539
 3048SOL     OW10042   4.386   3.222   0.835
 3048SOL    HW110043   4.476   3.189   0.862
 3048SOL    HW210044   4.363   3.186   0.745
 3049SOL     OW10045   1.068   0.983   4.537
 3049SOL    HW110046   1.071   1.079   4.508
 3049SOL    HW210047   0.975   0.949   4.528
 3050SOL     OW10048   2.387   2.274   1.357
 3050SOL    HW110049   2.450   2.208   1.399
 3050SOL    HW210050   2.437   2.356   1.330
 3051SOL     OW10051   3.328   6.855   5.892
 3051SOL    HW110052   3.412   6.837   5.842
 3051SOL    HW210053   3.348   6.861   5.990
 3052SOL     OW10054   5.501   6.286   2.600
 3052SOL    HW110055   5.431   6.318   2.536
 3052SOL    HW210056   5.500   6.186   2.602
 3053SOL     OW10057   1.760   4.293   0.211
 3053SOL    HW110058   1.795   4.368   0.155
 3053SOL    HW210059   1.826   4.218   0.211
 3054SOL     OW10060   5.446   1.148   3.260
 3054SOL    HW110061   5.448   1.233   3.206
 3054SOL    HW210062   5.480   1.073   3.204
 3055SOL     OW10063   6.374   6.152   6.255
 3055SOL    HW110064   6.385   6.221   6.184
 3055SOL    HW210065   6.457   6.149   6.311
 3056SOL     OW10066   5.511   2.015   6.166
 3056SOL    HW110067   5.466   1.961   6.095
 3056SOL    HW210068   5.467   2.105   6.172
 3057SOL     OW10069   5.339   6.357   3.493
 3057SOL    HW110070   5.271   6.285   3.481
 3057SOL    HW210071   5.423   6.333   3.445
 3058SOL     OW10072   6.004   4.466   0.721
 3058SOL    HW110073   5.921   4.428   0.681
 3058SOL    HW210074   5.996   4.467   0.821
 3059SOL     OW10075   2.342   2.581   4.286
 3059SOL    HW110076   2.348   2.680   4.303
 3059SOL    HW210077   2.369   2.563   4.191
 3060SOL     OW10078   2.853   4.545   5.899
 3060SOL    HW110079   2.780   4.484   5.868
 3060SOL    HW210080   2.894   4.508   5.982
 3061SOL     OW10081   5.640   4.787   5.878
 3061SOL    HW110082   5.591   4.794   5.965
 3061SOL    HW210083   5.574   4.784   5.803
 3062SOL     OW10084   4.078   4.499   1.237
 3062SOL    HW110085   4.076   4.427   1.168
 3062SOL    HW210086   4.172   4.516   1.266
 3063SOL     OW10087   0.720   4.127   0.707
 3063SOL    HW110088   0.659   4.144   0.784
 3063SOL    HW210089   0.815   4.145   0.735
 3064SOL     OW10090   4.336   2.775   0.141
 3064SOL    HW110091   4.433   2.796   0.134
 3064SOL    HW210092   4.284   2.844   0.090
 3065SOL     OW10093   1.185   0.964   6.659
 3065SOL    HW110094   1.274   0.985   6.619
 3065SOL    HW210095   1.173   1.016   6.744
 3066SOL     OW10096   5.106   5.189   5.450
 3066SOL    HW110097   5.182   5.209   5.387
 3066SOL    HW210098   5.028   5.247   5.427
 3067SOL     OW10099   2.679   1.489   6.550
 3067SOL    HW110100   2.695   1.572   6.495
 3067SOL    HW210101   2.708   1.506   6.644
 3068SOL     OW10102   0.833   1.376   1.640
 3068SOL    HW110103   0.821   1.309   1.713
 3068SOL    HW210104   0.750   1.381   1.585
 3069SOL     OW10105   5.593   0.337   3.531
 3069SOL    HW110106   5.692   0.345   3.529
 3069SOL    HW210107   5.565   0.248   3.495
 3070SOL     OW10108   3.028   1.456   6.692
 3070SOL    HW110109   2.974   1.454   6.776
 3070SOL    HW210110   3.012   1.373   6.640
 3071SOL     OW10111   0.072   3.974   3.574
 3071SOL    HW110112   0.025   4.047   3.524
 3071SOL    HW210113   0.153   3.946   3.523
 3072SOL     OW10114   1.984   6.106   6.954
 3072SOL    HW110115   1.948   6.126   6.862
 3072SOL    HW210116   1.908   6.092   0.002
 3073SOL     OW10117   6.553   4.870   0.399
 3073SOL    HW110118   6.558   4.970   0.408
 3073SOL    HW210119   6.567   4.828   0.489
 3074SOL     OW10120   1.209   3.735   0.603
 3074SOL    HW110121   1.181   3.655   0.655
 3074SOL    HW210122   1.186   3.818   0.654
 3075SOL     OW10123   2.747   5.225   4.004
 3075SOL    HW110124   2.793   5.269   4.081
 3075SOL    HW210125   2.658   5.267   3.990
 3076SOL     OW10126   0.251   1.245   4.976
 3076SOL    HW110127   0.249   1.186   4.895
 3076SOL    HW210128   0.317   1.208   5.042
 3077SOL     OW10129   6.115   3.437   1.633
 3077SOL    HW110130   6.052   3.482   1.696
 3077SOL    HW210131   6.175   3.506   1.590
 3078SOL     OW10132   6.178   3.278   2.000
 3078SOL    HW110133   6.237   3.272   1.918
 3078SOL    HW210134   6.222   3.230   2.076
 3079SOL     OW10135   2.198   2.646   5.188
 3079SOL    HW110136   2.241   2.667   5.100
 3079SOL    HW210137   2.112   2.598   5.173
 3080SOL     OW10138   4.251   4.904   1.294
 3080SOL    HW110139   4.261   5.003   1.310
 3080SOL    HW210140   4.185   4.866   1.359
 3081SOL     OW10141   1.004   4.014   0.381
 3081SOL    HW110142   0.906   4.029   0.375
 3081SOL    HW210143   1.028   3.931   0.331
 3082SOL     OW10144   3.570   5.217   4.340
 3082SOL    HW110145   3.660   5.186   4.373
 3082SOL    HW210146   3.568   5.317   4.338
 3083SOL     OW10147   2.682   5.369   2.782
 3083SOL    HW110148   2.768   5.420   2.788
 3083SOL    HW210149   2.649   5.372   2.688
 3084SOL     OW10150   0.597   3.749   2.964
 3084SOL    HW110151   0.570   3.765   2.869
 3084SOL    HW210152   0.676   3.688   2.966
 3085SOL     OW10153   4.706   5.054   0.916
 3085SOL    HW110154   4.768   5.028   0.991
 3085SOL    HW210155   4.682   5.151   0.925
 3086SOL     OW10156   5.914   1.260   6.980
 3086SOL    HW110157   5.860   1.180   6.958
 3086SOL    HW210158   5.911   1.277   0.063
 3087SOL     OW10159   2.474   6.169   2.226
 3087SOL    HW110160   2.439   6.094   2.281
 3087SOL    HW210161   2.400   6.235   2.209
 3088SOL     OW10162   0.234   3.163   5.328
 3088SOL    HW110163   0.284   3.077   5.328
 3088SOL    HW210164   0.246   3.209   5.416
 3089SOL     OW10165   4.784   0.801   4.577
 3089SOL    HW110166   4.710   0.766   4.520
 3089SOL    HW210167   4.833   0.724   4.619
 3090SOL     OW10168   1.051   1.559   1.589
 3090SOL    HW110169   0.973   1.509   1.624
 3090SOL    HW210170   1.119   1.495   1.552
 3091SOL     OW10171   1.088   1.523   0.462
 3091SOL    HW110172   1.011   1.560   0.411
 3091SOL    HW210173   1.062   1.509   0.557
 3092SOL     OW10174   5.150   6.804   2.652
 3092SOL    HW110175   5.084   6.840   2.585
 3092SOL    HW210176   5.147   6.861   2.735
 3093SOL     OW10177   5.822   5.325   6.309
 3093SOL    HW110178   5.778   5.274   6.236
 3093SOL    HW210179   5.921   5.328   6.293
 3094SOL     OW10180   2.503   0.878   4.932
 3094SOL    HW110181   2.480   0.869   5.029
 3094SOL    HW210182   2.602   0.884   4.922
 3095SOL     OW10183   2.659   3.167   5.360
 3095SOL    HW110184   2.756   3.146   5.354
 3095SOL    HW210185   2.607   3.103   5.303
 3096SOL     OW10186   0.492   3.437   5.308
 3096SOL    HW110187   0.405   3.450   5.355
 3096SOL    HW210188   0.526   3.345   5.327
 3097SOL     OW10189   6.303   2.239   6.578
 3097SOL    HW110190   6.315   2.326   6.628
 3097SOL    HW210191   6.213   2.201   6.598
 3098SOL     OW10192   2.146   2.054   2.527
 3098SOL    HW110193   2.205   2.097   2.595
 3098SOL    HW210194   2.123   1.962   2.557
 3099SOL     OW10195   0.571   6.303   3.604
 3099SOL    HW110196   0.556   6.401   3.595
 3099SOL    HW210197   0.598   6.264   3.516
 3100SOL     OW10198   5.949   6.444   3.015
 3100SOL    HW110199   5.994   6.534   3.013
 3100SOL    HW210200   5.912   6.423   2.925
 3101SOL     OW10201   4.708   6.813   6.095
 3101SOL    HW110202   4.656   6.732   6.122
 3101SOL    HW210203   4.662   6.860   6.020
 3102SOL     OW10204   0.675   5.438   0.373
 3102SOL    HW110205   0.579   5.412   0.363
 3102SOL    HW210206   0.731   5.386   0.309
 3103SOL     OW10207   3.658   0.206   0.845
 3103SOL    HW110208   3.602   0.262   0.906
 3103SOL    HW210209   3.744   0.184   0.891
 3104SOL     OW10210   4.610   0.143   6.258
 3104SOL    HW110211   4.552   0.079   6.207
 3104SOL    HW210212   4.640   0.216   6.197
 3105SOL     OW10213   5.222   3.427   0.784
 3105SOL    HW110214   5.153   3.368   0.742
 3105SOL    HW210215   5.313   3.390   0.764
 3106SOL     OW10216   5.664   0.769   5.088
 3106SOL    HW110217   5.586   0.714   5.058
 3106SOL    HW210218   5.655   0.862   5.054
 3107SOL     OW10219   4.690   1.994   4.591
 3107SOL    HW110220   4.637   2.018   4.510
 3107SOL    HW210221   4.680   2.065   4.660
 3108SOL     OW10222   2.389   4.470   4.615
 3108SOL    HW110223   2.358   4.382   4.579
 3108SOL    HW210224   2.466   4.503   4.560
 3109SOL     OW10225   6.326   0.140   4.761
 3109SOL    HW110226   6.276   0.162   4.676
 3109SOL    HW210227   6.415   0.103   4.738
 3110SOL     OW10228   2.358   4.705   3.818
 3110SOL    HW110229   2.268   4.733   3.851
 3110SOL    HW210230   2.417   4.785   3.808
 3111SOL     OW10231   6.566   4.623   4.821
 3111SOL    HW110232   6.643   4.620   4.885
 3111SOL    HW210233   6.562   4.713   4.777
 3112SOL     OW10234   4.082   2.723   0.305
 3112SOL    HW110235   4.045   2.662   0.236
 3112SOL    HW210236   4.173   2.754   0.278
 3113SOL     OW10237   2.797   5.612   2.531
 3113SOL    HW110238   2.847   5.685   2.485
 3113SOL    HW210239   2.859   5.536   2.549
 3114SOL     OW10240   3.695   1.396   0.078
 3114SOL    HW110241   3.632   1.403   0.001
 3114SOL    HW210242   3.717   1.300   0.095
 3115SOL     OW10243   4.186   4.130   5.574
 3115SOL    HW110244   4.125   4.098   5.502
 3115SOL    HW210245   4.155   4.219   5.608
 3116SOL     OW10246   0.627   2.237   0.791
 3116SOL    HW110247   0.538   2.195   0.774
 3116SOL    HW210248   0.689   2.169   0.831
 3117SOL     OW10249   4.926   2.414   5.711
 3117SOL    HW110250   4.875   2.348   5.767
 3117SOL    HW210251   4.984   2.365   5.647
 3118SOL     OW10252   1.322   0.376   3.067
 3118SOL    HW110253   1.337   0.473   3.052
 3118SOL    HW210254   1.410   0.329   3.074
 3119SOL     OW10255   3.728   2.607   5.590
 3119SOL    HW110256   3.679   2.669   5.651
 3119SOL    HW210257   3.708   2.629   5.495
 3120SOL     OW10258   2.854   0.321   5.090
 3120SOL    HW110259   2.832   0.405   5.141
 3120SOL    HW210260   2.952   0.320   5.068
 3121SOL     OW10261   4.971   1.948   4.330
 3121SOL    HW110262   5.066   1.979   4.341
 3121SOL    HW210263   4.965   1.851   4.352
 3122SOL     OW10264   4.406   4.661   4.198
 3122SOL    HW110265   4.414   4.609   4.113
 3122SOL    HW210266   4.362   4.604   4.268
 3123SOL     OW10267   2.263   1.107   3.412
 3123SOL    HW110268   2.229   1.019   3.447
 3123SOL    HW210269   2.259   1.175   3.484
 3124SOL     OW10270   5.392   6.220   4.723
 3124SOL    HW110271   5.348   6.226   4.813
 3124SOL    HW210272   5.374   6.131   4.682
 3125SOL     OW10273   0.788   3.147   5.073
 3125SOL    HW110274   0.779   3.047   5.074
 3125SOL    HW210275   0.885   3.172   5.075
 3126SOL     OW10276   5.801   5.468   4.718
 3126SOL    HW110277   5.752   5.546   4.758
 3126SOL    HW210278   5.735   5.404   4.679
 3127SOL     OW10279   0.932   2.512   4.535
 3127SOL    HW110280   0.997   2.552   4.470
 3127SOL    HW210281   0.856   2.472   4.484
 3128SOL     OW10282   3.575   0.365   0.320
 3128SOL    HW110283   3.526   0.451   0.332
 3128SOL    HW210284   3.572   0.313   0.405
 3129SOL     OW10285   4.843   3.450   1.248
 3129SOL    HW110286   4.785   3.438   1.168
 3129SOL    HW210287   4.904   3.372   1.258
 3130SOL     OW10288   1.554   4.263   1.277
 3130SOL    HW110289   1.573   4.288   1.182
 3130SOL    HW210290   1.638   4.232   1.321
 3131SOL     OW10291   0.113   3.996   1.889
 3131SOL    HW110292   0.201   3.969   1.849
 3131SOL    HW210293   0.093   4.090   1.865
 3132SOL     OW10294   3.833   4.323   0.479
 3132SOL    HW110295   3.842   4.414   0.438
 3132SOL    HW210296   3.921   4.294   0.516
 3133SOL     OW10297   3.583   0.455   3.316
 3133SOL    HW110298   3.579   0.537   3.260
 3133SOL    HW210299   3.654   0.394   3.281
 3134SOL     OW10300   3.268   4.887   1.887
 3134SOL    HW110301   3.336   4.855   1.821
 3134SOL    HW210302   3.199   4.816   1.900
 3135SOL     OW10303   5.532   6.452   6.097
 3135SOL    HW110304   5.587   6.403   6.029
 3135SOL    HW210305   5.515   6.545   6.066
 3136SOL     OW10306   5.968   1.172   2.288
 3136SOL    HW110307   5.943   1.212   2.200
 3136SOL    HW210308   5.891   1.117   2.322
 3137SOL     OW10309   6.300   0.250   0.784
 3137SOL    HW110310   6.397   0.232   0.766
 3137SOL    HW210311   6.277   0.342   0.753
 3138SOL     OW10312   5.686   5.532   4.060
 3138SOL    HW110313   5.767   5.584   4.034
 3138SOL    HW210314   5.706   5.434   4.058
 3139SOL     OW10315   2.396   4.702   1.475
 3139SOL    HW110316   2.447   4.643   1.412
 3139SOL    HW210317   2.327   4.648   1.522
 3140SOL     OW10318   5.912   6.389   5.710
 3140SOL    HW110319   6.003   6.429   5.716
 3140SOL    HW210320   5.869   6.388   5.800
 3141SOL     OW10321   0.556   2.496   0.237
 3141SOL    HW110322   0.464   2.504   0.198
 3141SOL    HW210323   0.595   2.407   0.213
 3142SOL     OW10324   4.393   0.844   2.594
 3142SOL    HW110325   4.480   0.832   2.545
 3142SOL    HW210326   4.317   0.832   2.531
 3143SOL     OW10327   5.839   1.932   0.303
 3143SOL    HW110328   5.836   1.926   0.203
 3143SOL    HW210329   5.929   1.964   0.332
 3144SOL     OW10330   4.511   3.703   6.939
 3144SOL    HW110331   4.599   3.661   6.962
 3144SOL    HW210332   4.526   3.789   6.891
 3145SOL     OW10333   2.631   6.562   1.909
 3145SOL    HW110334   2.679   6.649   1.908
 3145SOL    HW210335   2.661   6.506   1.832
 3146SOL     OW10336   0.405   0.560   4.905
 3146SOL    HW110337   0.473   0.487   4.902
 3146SOL    HW210338   0.432   0.634   4.843
 3147SOL     OW10339   3.583   5.286   6.503
 3147SOL    HW110340   3.566   5.268   6.406
 3147SOL    HW210341   3.592   5.200   6.552
 3148SOL     OW10342   0.542   6.621   2.905
 3148SOL    HW110343   0.514   6.527   2.926
 3148SOL    HW210344   0.588   6.660   2.985
 3149SOL     OW10345   3.197   1.450   0.021
 3149SOL    HW110346   3.221   1.534   6.988
 3149SOL    HW210347   3.100   1.453   0.047
 3150SOL     OW10348   6.499   5.820   4.967
 3150SOL    HW110349   6.511   5.721   4.963
 3150SOL    HW210350   6.561   5.864   4.902
 3151SOL     OW10351   6.492   1.525   5.981
 3151SOL    HW110352   6.457   1.533   5.888
 3151SOL    HW210353   6.543   1.607   6.005
 3152SOL     OW10354   1.329   3.931   6.580
 3152SOL    HW110355   1.391   3.990   6.529
 3152SOL    HW210356   1.283   3.868   6.517
 3153SOL     OW10357   6.494   5.138   0.569
 3153SOL    HW110358   6.420   5.197   0.538
 3153SOL    HW210359   6.569   5.140   0.503
 3154SOL     OW10360   6.055   1.461   1.738
 3154SOL    HW110361   6.137   1.477   1.792
 3154SOL    HW210362   5.980   1.435   1.798
 3155SOL     OW10363   6.509   4.733   0.641
 3155SOL    HW110364   6.576   4.734   0.716
 3155SOL    HW210365   6.425   4.689   0.673
 3156SOL     OW10366   3.521   4.093   2.246
 3156SOL    HW110367   3.609   4.079   2.291
 3156SOL    HW210368   3.535   4.110   2.148
 3157SOL     OW10369   0.979   2.260   5.077
 3157SOL    HW110370   0.983   2.192   5.004
 3157SOL    HW210371   1.037   2.338   5.052
 3158SOL     OW10372   2.860   1.897   5.900
 3158SOL    HW110373   2.778   1.858   5.859
 3158SOL    HW210374   2.845   1.995   5.917
 3159SOL     OW10375   4.490   6.565   0.741
 3159SOL    HW110376   4.587   6.562   0.720
 3159SOL    HW210377   4.437   6.552   0.657
 3160SOL     OW10378   1.752   6.753   5.390
 3160SOL    HW110379   1.779   6.708   5.305
 3160SOL    HW210380   1.770   6.693   5.467
 3161SOL     OW10381   1.697   2.922   2.672
 3161SOL    HW110382   1.759   2.888   2.742
 3161SOL    HW210383   1.749   2.967   2.599
 3162SOL     OW10384   2.186   5.502   6.978
 3162SOL    HW110385   2.257   5.474   0.027
 3162SOL    HW210386   2.227   5.519   6.888
 3163SOL     OW10387   4.331   3.669   0.314
 3163SOL    HW110388   4.294   3.576   0.319
 3163SOL    HW210389   4.307   3.710   0.225
 3164SOL     OW10390   3.325   5.855   2.392
 3164SOL    HW110391   3.236   5.835   2.435
 3164SOL    HW210392   3.318   5.940   2.341
 3165SOL     OW10393   0.828   5.320   0.188
 3165SOL    HW110394   0.908   5.300   0.245
 3165SOL    HW210395   0.858   5.353   0.099
 3166SOL     OW10396   4.258   1.309   4.514
 3166SOL    HW110397   4.350   1.300   4.476
 3166SOL    HW210398   4.265   1.331   4.611
 3167SOL     OW10399   5.343   4.274   0.306
 3167SOL    HW110400   5.431   4.314   0.331
 3167SOL    HW210401   5.307   4.221   0.382
 3168SOL     OW10402   4.969   2.904   1.307
 3168SOL    HW110403   5.016   2.870   1.388
 3168SOL    HW210404   5.013   2.867   1.225
 3169SOL     OW10405   1.754   4.918   2.339
 3169SOL    HW110406   1.675   4.894   2.283
 3169SOL    HW210407   1.730   4.909   2.436
 3170SOL     OW10408   4.089   6.035   2.304
 3170SOL    HW110409   4.039   5.975   2.367
 3170SOL    HW210410   4.057   6.129   2.315
 3171SOL     OW10411   5.550   2.590   2.118
 3171SOL    HW110412   5.557   2.601   2.217
 3171SOL    HW210413   5.520   2.497   2.097
 3172SOL     OW10414   0.351   4.872   6.920
 3172SOL    HW110415   0.339   4.802   6.990
 3172SOL    HW210416   0.324   4.836   6.831
 3173SOL     OW10417   2.649   2.030   6.429
 3173SOL    HW110418   2.621   2.088   6.505
 3173SOL    HW210419   2.710   2.081   6.368
 3174SOL     OW10420   2.425   2.724   5.798
 3174SOL    HW110421   2.373   2.672   5.865
 3174SOL    HW210422   2.377   2.723   5.710
 3175SOL     OW10423   6.363   1.213   3.032
 3175SOL    HW110424   6.275   1.170   3.055
 3175SOL    HW210425   6.432   1.143   3.016
 3176SOL     OW10426   0.050   3.703   4.573
 3176SOL    HW110427   0.108   3.783   4.589
 3176SOL    HW210428   0.106   3.628   4.539
 3177SOL     OW10429   5.379   4.024   3.486
 3177SOL    HW110430   5.332   3.949   3.533
 3177SOL    HW210431   5.478   4.009   3.491
 3178SOL     OW10432   5.643   2.005   0.002
 3178SOL    HW110433   5.584   1.945   0.057
 3178SOL    HW210434   5.730   1.959   7.000
 3179SOL     OW10435   1.087   1.525   1.971
 3179SOL    HW110436   1.124   1.618   1.982
 3179SOL    HW210437   1.142   1.461   2.025
 3180SOL     OW10438   5.975   6.483   6.984
 3180SOL    HW110439   6.065   6.458   0.005
 3180SOL    HW210440   5.914   6.403   6.986
 3181SOL     OW10441   0.287   1.260   3.932
 3181SOL    HW110442   0.194   1.289   3.956
 3181SOL    HW210443   0.308   1.176   3.982
 3182SOL     OW10444   3.118   0.621   0.513
 3182SOL    HW110445   3.051   0.548   0.504
 3182SOL    HW210446   3.123   0.650   0.609
 3183SOL     OW10447   4.665   4.806   2.206
 3183SOL    HW110448   4.738   4.743   2.232
 3183SOL    HW210449   4.586   4.754   2.174
 3184SOL     OW10450   0.354   2.004   3.363
 3184SOL    HW110451   0.372   1.958   3.276
 3184SOL    HW210452   0.431   1.988   3.426
 3185SOL     OW10453   6.384   6.615   5.619
 3185SOL    HW110454   6.440   6.593   5.539
 3185SOL    HW210455   6.333   6.699   5.602
 3186SOL     OW10456   1.856   1.018   6.946
 3186SOL    HW110457   1.894   1.050   0.017
 3186SOL    HW210458   1.864   1.090   6.877
 3187SOL     OW10459   3.307   5.147   2.058
 3187SOL    HW110460   3.356   5.084   2.119
 3187SOL    HW210461   3.209   5.130   2.063
 3188SOL     OW10462   2.034   5.367   4.784
 3188SOL    HW110463   2.006   5.275   4.757
 3188SOL    HW210464   1.965   5.433   4.754
 3189SOL     OW10465   2.156   1.080   0.336
 3189SOL    HW110466   2.164   1.155   0.402
 3189SOL    HW210467   2.184   1.111   0.246
 3190SOL     OW10468   6.521   5.418   6.100
 3190SOL    HW110469   6.587   5.381   6.034
 3190SOL    HW210470   6.431   5.422   6.057
 3191SOL     OW10471   4.552   5.495   2.212
 3191SOL    HW110472   4.618   5.487   2.137
 3191SOL    HW210473   4.570   5.425   2.280
 3192SOL     OW10474   6.842   2.876   0.979
 3192SOL    HW110475   6.772   2.945   0.999
 3192SOL    HW210476   6.878   2.839   1.064
 3193SOL     OW10477   4.057   1.305   5.129
 3193SOL    HW110478   4.003   1.359   5.194
 3193SOL    HW210479   4.134   1.361   5.096
 3194SOL     OW10480   0.798   1.447   5.780
 3194SOL    HW110481   0.749   1.394   5.711
 3194SOL    HW210482   0.890   1.468   5.746
 3195SOL     OW10483   0.847   1.577   1.831
 3195SOL    HW110484   0.927   1.537   1.876
 3195SOL    HW210485   0.812   1.512   1.763
 3196SOL     OW10486   0.017   0.765   6.619
 3196SOL    HW110487   0.015   0.822   6.537
 3196SOL    HW210488   0.098   0.788   6.673
 3197SOL     OW10489   2.651   6.465   5.794
 3197SOL    HW110490   2.583   6.509   5.853
 3197SOL    HW210491   2.605   6.428   5.712
 3198SOL     OW10492   6.303   2.290   4.167
 3198SOL    HW110493   6.263   2.274   4.257
 3198SOL    HW210494   6.401   2.271   4.170
 3199SOL     OW10495   5.537   4.860   2.980
 3199SOL    HW110496   5.587   4.914   2.913
 3199SOL    HW210497   5.538   4.906   3.068
 3200SOL     OW10498   6.421   3.276   2.991
 3200SOL    HW110499   6.493   3.263   3.059
 3200SOL    HW210500   6.455   3.249   2.901
 3201SOL     OW10501   6.025   4.777   3.120
 3201SOL    HW110502   5.999   4.698   3.175
 3201SOL    HW210503   6.068   4.846   3.178
 3202SOL     OW10504   1.077   5.173   1.075
 3202SOL    HW110505   1.056   5.269   1.090
 3202SOL    HW210506   1.012   5.116   1.125
 3203SOL     OW10507   4.702   0.729   1.477
 3203SOL    HW110508   4.801   0.729   1.465
 3203SOL    HW210509   4.679   0.694   1.568
 3204SOL     OW10510   3.054   1.577   3.180
 3204SOL    HW110511   3.127   1.522   3.221
 3204SOL    HW210512   2.965   1.543   3.212
 3205SOL     OW10513   5.213   2.959   6.095
 3205SOL    HW110514   5.114   2.970   6.092
 3205SOL    HW210515   5.243   2.959   6.191
 3206SOL     OW10516   2.962   3.157   1.591
 3206SOL    HW110517   2.945   3.059   1.605
 3206SOL    HW210518   3.048   3.182   1.633
 3207SOL     OW10519   1.114   0.964   6.166
 3207SOL    HW110520   1.084   0.949   6.072
 3207SOL    HW210521   1.045   0.929   6.229
 3208SOL     OW10522   5.644   5.611   6.283
 3208SOL    HW110523   5.690   5.700   6.275
 3208SOL    HW210524   5.712   5.538   6.273
 3209SOL     OW10525   3.668   5.679   4.749
 3209SOL    HW110526   3.646   5.757   4.808
 3209SOL    HW210527   3.676   5.710   4.654
 3210SOL     OW10528   0.423   4.986   1.557
 3210SOL    HW110529   0.460   5.073   1.588
 3210SOL    HW210530   0.383   4.996   1.466
 3211SOL     OW10531   1.706   4.672   0.816
 3211SOL    HW110532   1.610   4.657   0.841
 3211SOL    HW210533   1.723   4.633   0.726
 3212SOL     OW10534   3.241   0.082   2.554
 3212SOL    HW110535   3.267   0.173   2.523
 3212SOL    HW210536   3.206   0.029   2.476
 3213SOL     OW10537   1.751   0.522   6.102
 3213SOL    HW110538   1.708   0.604   6.141
 3213SOL    HW210539   1.850   0.533   6.101
 3214SOL     OW10540   4.818   0.064   3.273
 3214SOL    HW110541   4.853   0.035   3.184
 3214SOL    HW210542   4.794   0.161   3.269
 3215SOL     OW10543   0.962   3.430   0.201
 3215SOL    HW110544   0.900   3.507   0.218
 3215SOL    HW210545   0.996   3.434   0.107
 3216SOL     OW10546   5.679   5.112   1.312
 3216SOL    HW110547   5.762   5.103   1.256
 3216SOL    HW210548   5.669   5.207   1.341
 3217SOL     OW10549   0.270   5.092   2.351
 3217SOL    HW110550   0.253   5.153   2.429
 3217SOL    HW210551   0.185   5.047   2.325
 3218SOL     OW10552   5.709   2.511   3.542
 3218SOL    HW110553   5.726   2.418   3.578
 3218SOL    HW210554   5.719   2.510   3.443
 3219SOL     OW10555   6.673   1.117   4.918
 3219SOL    HW110556   6.730   1.078   4.990
 3219SOL    HW210557   6.684   1.217   4.916
 3220SOL     OW10558   1.128   5.936   6.615
 3220SOL    HW110559   1.188   5.989   6.556
 3220SOL    HW210560   1.064   5.883   6.559
 3221SOL     OW10561   4.117   0.279   2.506
 3221SOL    HW110562   4.058   0.227   2.444
 3221SOL    HW210563   4.080   0.370   2.519
 3222SOL     OW10564   2.669   1.137   2.598
 3222SOL    HW110565   2.635   1.221   2.555
 3222SOL    HW210566   2.663   1.062   2.533
 3223SOL     OW10567   2.240   6.594   0.404
 3223SOL    HW110568   2.272   6.645   0.483
 3223SOL    HW210569   2.223   6.499   0.431
 3224SOL     OW10570   5.037   2.243   5.193
 3224SOL    HW110571   5.091   2.159   5.192
 3224SOL    HW210572   5.048   2.289   5.281
 3225SOL     OW10573   4.323   1.349   5.050
 3225SOL    HW110574   4.373   1.263   5.038
 3225SOL    HW210575   4.348   1.389   5.139
 3226SOL     OW10576   1.548   0.340   1.822
 3226SOL    HW110577   1.607   0.267   1.787
 3226SOL    HW210578   1.603   0.421   1.841
 3227SOL     OW10579   3.330   2.366   6.481
 3227SOL    HW110580   3.418   2.318   6.476
 3227SOL    HW210581   3.339   2.446   6.540
 3228SOL     OW10582   0.140   4.015   0.187
 3228SOL    HW110583   0.138   3.961   0.103
 3228SOL    HW210584   0.192   4.099   0.171
 3229SOL     OW10585   3.318   0.737   5.526
 3229SOL    HW110586   3.219   0.743   5.533
 3229SOL    HW210587   3.342   0.690   5.441
 3230SOL     OW10588   2.103   5.595   6.092
 3230SOL    HW110589   2.164   5.559   6.162
 3230SOL    HW210590   2.107   5.536   6.011
 3231SOL     OW10591   2.750   0.993   2.807
 3231SOL    HW110592   2.711   1.049   2.735
 3231SOL    HW210593   2.677   0.949   2.859
 3232SOL     OW10594   4.026   5.696   3.820
 3232SOL    HW110595   4.102   5.694   3.884
 3232SOL    HW210596   3.941   5.721   3.867
 3233SOL     OW10597   6.771   2.893   0.579
 3233SOL    HW110598   6.729   2.982   0.598
 3233SOL    HW210599   6.865   2.906   0.549
 3234SOL     OW10600   1.747   2.495   0.048
 3234SOL    HW110601   1.660   2.445   0.050
 3234SOL    HW210602   1.787   2.494   0.140
 3235SOL     OW10603   6.247   5.945   1.920
 3235SOL    HW110604   6.237   5.845   1.926
 3235SOL    HW210605   6.253   5.983   2.012
 3236SOL     OW10606   1.589   4.013   1.025
 3236SOL    HW110607   1.639   4.096   1.050
 3236SOL    HW210608   1.654   3.940   1.005
 3237SOL     OW10609   6.338   2.013   4.109
 3237SOL    HW110610   6.289   2.098   4.096
 3237SOL    HW210611   6.366   2.004   4.205
 3238SOL     OW10612   5.911   5.286   6.752
 3238SOL    HW110613   5.861   5.322   6.673
 3238SOL    HW210614   6.001   5.256   6.722
 3239SOL     OW10615   6.860   0.437   3.592
 3239SOL    HW110616   6.763   0.456   3.602
 3239SOL    HW210617   6.894   0.483   3.510
 3240SOL     OW10618   6.965   0.646   5.996
 3240SOL    HW110619   6.941   0.688   5.909
 3240SOL    HW210620   6.984   0.549   5.982
 3241SOL     OW10621   4.850   1.407   6.278
 3241SOL    HW110622   4.789   1.329   6.259
 3241SOL    HW210623   4.833   1.439   6.371
 3242SOL     OW10624   4.696   3.626   6.170
 3242SOL    HW110625   4.659   3.650   6.260
 3242SOL    HW210626   4.690   3.527   6.157
 3243SOL     OW10627   4.872   4.945   0.180
 3243SOL    HW110628   4.887   4.857   0.136
 3243SOL    HW210629   4.891   4.938   0.278
 3244SOL     OW10630   5.491   6.342   6.858
 3244SOL    HW110631   5.467   6.350   6.954
 3244SOL    HW210632   5.452   6.418   6.807
 3245SOL     OW10633   4.679   2.437   4.160
 3245SOL    HW110634   4.779   2.443   4.156
 3245SOL    HW210635   4.653   2.365   4.225
 3246SOL     OW10636   6.551   0.399   2.952
 3246SOL    HW110637   6.545   0.361   2.860
 3246SOL    HW210638   6.552   0.324   3.019
 3247SOL     OW10639   6.753   4.836   2.314
 3247SOL    HW110640   6.799   4.889   2.242
 3247SOL    HW210641   6.798   4.747   2.323
 3248SOL     OW10642   5.908   2.460   2.150
 3248SOL    HW110643   5.872   2.372   2.120
 3248SOL    HW210644   5.858   2.491   2.230
 3249SOL     OW10645   4.055   3.630   4.173
 3249SOL    HW110646   4.044   3.545   4.226
 3249SOL    HW210647   4.055   3.708   4.235
 3250SOL     OW10648   5.056   6.659   3.693
 3250SOL    HW110649   5.035   6.570   3.732
 3250SOL    HW210650   4.972   6.698   3.654
 3251SOL     OW10651   2.552   1.238   4.636
 3251SOL    HW110652   2.636   1.286   4.612
 3251SOL    HW210653   2.527   1.258   4.731
 3252SOL     OW10654   3.020   1.139   2.672
 3252SOL    HW110655   2.954   1.123   2.599
 3252SOL    HW210656   3.012   1.066   2.740
 3253SOL     OW10657   4.474   3.792   1.358
 3253SOL    HW110658   4.395   3.746   1.398
 3253SOL    HW210659   4.458   3.891   1.359
 3254SOL     OW10660   4.921   6.685   5.969
 3254SOL    HW110661   4.844   6.730   6.014
 3254SOL    HW210662   5.006   6.728   5.996
 3255SOL     OW10663   5.785   6.252   1.274
 3255SOL    HW110664   5.698   6.300   1.262
 3255SOL    HW210665   5.855   6.295   1.216
 3256SOL     OW10666   4.334   2.278   1.339
 3256SOL    HW110667   4.302   2.355   1.395
 3256SOL    HW210668   4.278   2.270   1.257
 3257SOL     OW10669   3.007   2.106   1.955
 3257SOL    HW110670   3.095   2.138   1.920
 3257SOL    HW210671   2.950   2.184   1.981
 3258SOL     OW10672   3.585   4.961   3.139
 3258SOL    HW110673   3.652   4.893   3.169
 3258SOL    HW210674   3.534   4.925   3.061
 3259SOL     OW10675   5.301   5.301   4.141
 3259SOL    HW110676   5.322   5.265   4.232
 3259SOL    HW210677   5.287   5.226   4.077
 3260SOL     OW10678   1.817   3.742   2.472
 3260SOL    HW110679   1.802   3.643   2.474
 3260SOL    HW210680   1.738   3.789   2.511
 3261SOL     OW10681   4.792   0.599   2.540
 3261SOL    HW110682   4.841   0.541   2.476
 3261SOL    HW210683   4.730   0.543   2.596
 3262SOL     OW10684   4.003   2.235   2.678
 3262SOL    HW110685   3.918   2.259   2.723
 3262SOL    HW210686   4.040   2.150   2.717
 3263SOL     OW10687   3.542   1.280   3.782
 3263SOL    HW110688   3.547   1.239   3.873
 3263SOL    HW210689   3.477   1.356   3.782
 3264SOL     OW10690   1.977   4.880   0.728
 3264SOL    HW110691   1.934   4.885   0.638
 3264SOL    HW210692   1.973   4.787   0.762
 3265SOL     OW10693   6.023   5.995   5.855
 3265SOL    HW110694   6.048   6.053   5.933
 3265SOL    HW210695   5.941   6.030   5.811
 3266SOL     OW10696   2.935   4.456   6.897
 3266SOL    HW110697   2.836   4.469   6.900
 3266SOL    HW210698   2.968   4.430   6.988
 3267SOL     OW10699   3.572   0.455   1.888
 3267SOL    HW110700   3.527   0.430   1.802
 3267SOL    HW210701   3.638   0.384   1.913
 3268SOL     OW10702   1.163   4.677   1.244
 3268SOL    HW110703   1.088   4.684   1.310
 3268SOL    HW210704   1.210   4.590   1.255
 3269SOL     OW10705   0.412   5.289   2.153
 3269SOL    HW110706   0.364   5.234   2.221
 3269SOL    HW210707   0.346   5.339   2.098
 3270SOL     OW10708   1.669   2.792   6.290
 3270SOL    HW110709   1.710   2.713   6.244
 3270SOL    HW210710   1.674   2.871   6.230
 3271SOL     OW10711   6.607   3.552   1.761
 3271SOL    HW110712   6.656   3.465   1.769
 3271SOL    HW210713   6.509   3.535   1.757
 3272SOL     OW10714   3.217   4.786   6.909
 3272SOL    HW110715   3.251   4.810   7.000
 3272SOL    HW210716   3.219   4.687   6.898
 3273SOL     OW10717   5.566   4.367   6.203
 3273SOL    HW110718   5.474   4.405   6.209
 3273SOL    HW210719   5.620   4.397   6.281
 3274SOL     OW10720   6.028   0.160   0.795
 3274SOL    HW110721   5.981   0.185   0.710
 3274SOL    HW210722   6.122   0.196   0.793
 3275SOL     OW10723   4.814   1.108   0.280
 3275SOL    HW110724   4.905   1.078   0.308
 3275SOL    HW210725   4.763   1.138   0.360
 3276SOL     OW10726   4.502   6.346   0.268
 3276SOL    HW110727   4.472   6.308   0.181
 3276SOL    HW210728   4.486   6.445   0.268
 3277SOL     OW10729   3.030   1.202   1.059
 3277SOL    HW110730   3.064   1.296   1.058
 3277SOL    HW210731   2.980   1.184   0.973
 3278SOL     OW10732   0.264   0.380   5.679
 3278SOL    HW110733   0.198   0.361   5.607
 3278SOL    HW210734   0.345   0.323   5.667
 3279SOL     OW10735   4.720   6.750   1.019
 3279SOL    HW110736   4.812   6.788   1.029
 3279SOL    HW210737   4.672   6.756   1.106
 3280SOL     OW10738   4.755   4.540   4.148
 3280SOL    HW110739   4.830   4.604   4.131
 3280SOL    HW210740   4.741   4.530   4.246
 3281SOL     OW10741   0.455   4.492   1.455
 3281SOL    HW110742   0.409   4.561   1.399
 3281SOL    HW210743   0.486   4.417   1.397
 3282SOL     OW10744   0.155   3.913   4.826
 3282SOL    HW110745   0.087   3.982   4.851
 3282SOL    HW210746   0.244   3.939   4.863
 3283SOL     OW10747   3.929   1.220   0.983
 3283SOL    HW110748   3.972   1.217   0.892
 3283SOL    HW210749   3.844   1.167   0.981
 3284SOL     OW10750   1.019   5.559   4.997
 3284SOL    HW110751   1.033   5.642   5.051
 3284SOL    HW210752   1.097   5.545   4.936
 3285SOL     OW10753   5.900   1.960   4.843
 3285SOL    HW110754   5.807   1.940   4.875
 3285SOL    HW210755   5.967   1.919   4.905
 3286SOL     OW10756   3.314   2.331   1.573
 3286SOL    HW110757   3.380   2.349   1.500
 3286SOL    HW210758   3.234   2.391   1.562
 3287SOL     OW10759   0.678   0.482   0.209
 3287SOL    HW110760   0.756   0.446   0.157
 3287SOL    HW210761   0.596   0.479   0.153
 3288SOL     OW10762   1.821   6.887   0.746
 3288SOL    HW110763   1.907   6.860   0.790
 3288SOL    HW210764   1.815   6.987   0.745
 3289SOL     OW10765   2.462   1.629   6.161
 3289SOL    HW110766   2.558   1.599   6.158
 3289SOL    HW210767   2.409   1.567   6.218
 3290SOL     OW10768   0.100   5.631   1.091
 3290SOL    HW110769   0.106   5.582   1.178
 3290SOL    HW210770   0.101   5.566   1.016
 3291SOL     OW10771   2.922   0.626   5.842
 3291SOL    HW110772   2.893   0.581   5.927
 3291SOL    HW210773   3.014   0.595   5.818
 3292SOL     OW10774   6.927   1.238   0.799
 3292SOL    HW110775   7.007   1.188   0.833
 3292SOL    HW210776   6.917   1.323   0.850
 3293SOL     OW10777   6.866   4.845   1.523
 3293SOL    HW110778   6.831   4.769   1.469
 3293SOL    HW210779   6.961   4.864   1.497
 3294SOL     OW10780   5.379   1.928   5.945
 3294SOL    HW110781   5.329   2.014   5.930
 3294SOL    HW210782   5.313   1.853   5.950
 3295SOL     OW10783   1.949   3.635   0.784
 3295SOL    HW110784   1.883   3.702   0.751
 3295SOL    HW210785   1.951   3.556   0.723
 3296SOL     OW10786   6.957   0.197   4.610
 3296SOL    HW110787   6.864   0.183   4.575
 3296SOL    HW210788   6.981   0.294   4.604
 3297SOL     OW10789   3.627   1.821   5.148
 3297SOL    HW110790   3.583   1.910   5.138
 3297SOL    HW210791   3.606   1.783   5.238
 3298SOL     OW10792   6.572   2.684   5.562
 3298SOL    HW110793   6.562   2.778   5.593
 3298SOL    HW210794   6.486   2.635   5.576
 3299SOL     OW10795   4.215   6.152   2.755
 3299SOL    HW110796   4.145   6.216   2.786
 3299SOL    HW210797   4.268   6.194   2.681
 3300SOL     OW10798   1.541   0.606   5.850
 3300SOL    HW110799   1.492   0.533   5.802
 3300SOL    HW210800   1.572   0.572   5.939
 3301SOL     OW10801   1.549   3.985   3.496
 3301SOL    HW110802   1.487   4.041   3.441
 3301SOL    HW210803   1.626   4.041   3.527
 3302SOL     OW10804   1.468   4.456   6.860
 3302SOL    HW110805   1.470   4.360   6.888
 3302SOL    HW210806   1.426   4.512   6.932
 3303SOL     OW10807   3.242   2.924   0.562
 3303SOL    HW110808   3.171   2.895   0.498
 3303SOL    HW210809   3.201   2.942   0.652
 3304SOL     OW10810   2.096   4.949   5.978
 3304SOL    HW110811   2.071   5.016   6.048
 3304SOL    HW210812   2.043   4.967   5.895
 3305SOL     OW10813   3.016   0.779   1.630
 3305SOL    HW110814   2.939   0.832   1.667
 3305SOL    HW210815   3.036   0.810   1.537
 3306SOL     OW10816   1.282   6.044   5.653
 3306SOL    HW110817   1.296   6.075   5.747
 3306SOL    HW210818   1.353   5.978   5.629
 3307SOL     OW10819   1.100   0.184   5.677
 3307SOL    HW110820   1.165   0.119   5.639
 3307SOL    HW210821   1.027   0.135   5.724
 3308SOL     OW10822   3.330   5.429   0.789
 3308SOL    HW110823   3.397   5.389   0.851
 3308SOL    HW210824   3.361   5.520   0.760
 3309SOL     OW10825   6.177   4.573   3.536
 3309SOL    HW110826   6.257   4.621   3.572
 3309SOL    HW210827   6.161   4.491   3.591
 3310SOL     OW10828   0.454   4.137   4.401
 3310SOL    HW110829   0.525   4.067   4.390
 3310SOL    HW210830   0.485   4.205   4.468
 3311SOL     OW10831   3.020   3.161   0.979
 3311SOL    HW110832   2.976   3.209   0.903
 3311SOL    HW210833   2.950   3.134   1.045
 3312SOL     OW10834   4.184   2.813   5.765
 3312SOL    HW110835   4.122   2.768   5.702
 3312SOL    HW210836   4.278   2.803   5.733
 3313SOL     OW10837   0.608   0.396   3.087
 3313SOL    HW110838   0.520   0.382   3.041
 3313SOL    HW210839   0.678   0.418   3.019
 3314SOL     OW10840   3.057   0.529   2.452
 3314SOL    HW110841   2.994   0.593   2.494
 3314SOL    HW210842   3.115   0.577   2.386
 3315SOL     OW10843   0.747   4.960   5.380
 3315SOL    HW110844   0.694   4.910   5.311
 3315SOL    HW210845   0.748   5.058   5.357
 3316SOL     OW10846   3.850   1.094   5.130
 3316SOL    HW110847   3.787   1.126   5.201
 3316SOL    HW210848   3.942   1.129   5.150
 3317SOL     OW10849   5.454   1.962   2.244
 3317SOL    HW110850   5.492   1.883   2.196
 3317SOL    HW210851   5.432   2.034   2.179
 3318SOL     OW10852   2.142   0.813   6.630
 3318SOL    HW110853   2.216   0.801   6.563
 3318SOL    HW210854   2.140   0.734   6.692
 3319SOL     OW10855   6.185   0.056   3.276
 3319SOL    HW110856   6.129   0.105   3.343
 3319SOL    HW210857   6.282   0.073   3.296
 3320SOL     OW10858   6.461   0.638   0.211
 3320SOL    HW110859   6.369   0.678   0.211
 3320SOL    HW210860   6.485   0.610   0.304
 3321SOL     OW10861   5.922   1.262   1.014
 3321SOL    HW110862   5.855   1.331   0.990
 3321SOL    HW210863   6.005   1.306   1.049
 3322SOL     OW10864   0.265   2.883   1.072
 3322SOL    HW110865   0.204   2.909   0.997
 3322SOL    HW210866   0.303   2.792   1.054
 3323SOL     OW10867   2.488   1.712   1.188
 3323SOL    HW110868   2.459   1.728   1.093
 3323SOL    HW210869   2.553   1.636   1.190
 3324SOL     OW10870   4.834   4.985   5.267
 3324SOL    HW110871   4.821   4.998   5.366
 3324SOL    HW210872   4.825   5.073   5.220
 3325SOL     OW10873   0.299   3.199   6.223
 3325SOL    HW110874   0.361   3.171   6.150
 3325SOL    HW210875   0.316   3.295   6.246
 3326SOL     OW10876   4.912   1.424   1.866
 3326SOL    HW110877   4.863   1.343   1.835
 3326SOL    HW210878   4.973   1.399   1.941
 3327SOL     OW10879   2.341   5.798   1.555
 3327SOL    HW110880   2.350   5.744   1.638
 3327SOL    HW210881   2.250   5.840   1.552
 3328SOL     OW10882   3.580   1.890   1.330
 3328SOL    HW110883   3.503   1.953   1.325
 3328SOL    HW210884   3.621   1.895   1.421
 3329SOL     OW10885   6.665   6.907   5.411
 3329SOL    HW110886   6.690   6.980   5.347
 3329SOL    HW210887   6.569   6.882   5.397
 3330SOL     OW10888   6.006   3.862   1.978
 3330SOL    HW110889   6.068   3.935   1.950
 3330SOL    HW210890   6.013   3.848   2.076
 3331SOL     OW10891   2.445   2.517   1.254
 3331SOL    HW110892   2.357   2.478   1.278
 3331SOL    HW210893   2.454   2.608   1.294
 3332SOL     OW10894   5.888   5.613   0.123
 3332SOL    HW110895   5.856   5.602   0.218
 3332SOL    HW210896   5.923   5.706   0.110
 3333SOL     OW10897   4.165   5.492   6.323
 3333SOL    HW110898   4.232   5.432   6.278
 3333SOL    HW210899   4.209   5.578   6.349
 3334SOL     OW10900   3.155   3.609   1.516
 3334SOL    HW110901   3.123   3.531   1.463
 3334SOL    HW210902   3.249   3.594   1.546
 3335SOL     OW10903   4.498   5.776   5.393
 3335SOL    HW110904   4.592   5.751   5.370
 3335SOL    HW210905   4.435   5.709   5.354
 3336SOL     OW10906   3.273   5.223   5.227
 3336SOL    HW110907   3.298   5.190   5.319
 3336SOL    HW210908   3.227   5.149   5.177
 3337SOL     OW10909   3.064   2.423   1.501
 3337SOL    HW110910   2.997   2.378   1.561
 3337SOL    HW210911   3.026   2.433   1.410
 3338SOL     OW10912   6.218   3.208   1.520
 3338SOL    HW110913   6.162   3.280   1.561
 3338SOL    HW210914   6.170   3.170   1.440
 3339SOL     OW10915   0.112   6.583   6.975
 3339SOL    HW110916   0.146   6.578   0.053
 3339SOL    HW210917   0.187   6.562   6.911
 3340SOL     OW10918   3.853   0.102   1.787
 3340SOL    HW110919   3.800   0.051   1.855
 3340SOL    HW210920   3.855   0.051   1.701
 3341SOL     OW10921   1.528   0.148   4.068
 3341SOL    HW110922   1.579   0.096   4.000
 3341SOL    HW210923   1.571   0.238   4.081
 3342SOL     OW10924   2.183   0.109   3.880
 3342SOL    HW110925   2.236   0.194   3.876
 3342SOL    HW210926   2.221   0.050   3.952
 3343SOL     OW10927   4.852   3.185   0.353
 3343SOL    HW110928   4.917   3.126   0.401
 3343SOL    HW210929   4.879   3.191   0.256
 3344SOL     OW10930   5.450   4.173   5.058
 3344SOL    HW110931   5.442   4.088   5.110
 3344SOL    HW210932   5.437   4.154   4.960
 3345SOL     OW10933   2.690   3.844   5.986
 3345SOL    HW110934   2.680   3.940   6.010
 3345SOL    HW210935   2.763   3.803   6.042
 3346SOL     OW10936   1.063   0.889   1.761
 3346SOL    HW110937   1.040   0.818   1.827
 3346SOL    HW210938   1.091   0.972   1.810
 3347SOL     OW10939   0.581   4.967   3.478
 3347SOL    HW110940   0.594   4.992   3.574
 3347SOL    HW210941   0.662   4.991   3.426
 3348SOL     OW10942   3.065   3.140   3.579
 3348SOL    HW110943   3.144   3.134   3.640
 3348SOL    HW210944   3.013   3.223   3.599
 3349SOL     OW10945   0.533   4.323   4.618
 3349SOL    HW110946   0.587   4.396   4.659
 3349SOL    HW210947   0.437   4.349   4.618
 3350SOL     OW10948   1.383   1.803   6.450
 3350SOL    HW110949   1.483   1.811   6.452
 3350SOL    HW210950   1.358   1.712   6.416
 3351SOL     OW10951   5.118   0.354   2.143
 3351SOL    HW110952   5.184   0.383   2.212
 3351SOL    HW210953   5.165   0.301   2.072
 3352SOL     OW10954   0.044   3.277   0.334
 3352SOL    HW110955   0.060   3.188   0.290
 3352SOL    HW210956   0.093   3.348   0.282
 3353SOL     OW10957   1.588   7.000   2.037
 3353SOL    HW110958   1.522   6.927   2.017
 3353SOL    HW210959   1.642   6.975   2.118
 3354SOL     OW10960   6.579   2.840   4.010
 3354SOL    HW110961   6.677   2.837   4.030
 3354SOL    HW210962   6.538   2.750   4.027
 3355SOL     OW10963   0.847   1.457   6.882
 3355SOL    HW110964   0.828   1.503   6.796
 3355SOL    HW210965   0.891   1.521   6.945
 3356SOL     OW10966   2.472   2.442   0.266
 3356SOL    HW110967   2.393   2.468   0.321
 3356SOL    HW210968   2.477   2.500   0.184
 3357SOL     OW10969   2.449   4.865   1.861
 3357SOL    HW110970   2.374   4.831   1.918
 3357SOL    HW210971   2.517   4.793   1.849
 3358SOL     OW10972   4.642   6.104   1.602
 3358SOL    HW110973   4.578   6.048   1.654
 3358SOL    HW210974   4.723   6.123   1.657
 3359SOL     OW10975   0.203   0.653   3.753
 3359SOL    HW110976   0.219   0.721   3.682
 3359SOL    HW210977   0.104   0.641   3.766
 3360SOL     OW10978   0.162   1.165   0.957
 3360SOL    HW110979   0.171   1.155   1.056
 3360SOL    HW210980   0.181   1.077   0.913
 3361SOL     OW10981   6.705   4.763   2.610
 3361SOL    HW110982   6.753   4.790   2.526
 3361SOL    HW210983   6.621   4.816   2.619
 3362SOL     OW10984   3.413   1.252   4.705
 3362SOL    HW110985   3.451   1.182   4.646
 3362SOL    HW210986   3.476   1.330   4.709
 3363SOL     OW10987   0.203   0.313   6.328
 3363SOL    HW110988   0.247   0.401   6.317
 3363SOL    HW210989   0.259   0.253   6.385
 3364SOL     OW10990   1.058   5.099   5.234
 3364SOL    HW110991   1.059   5.175   5.300
 3364SOL    HW210992   0.980   5.109   5.173
 3365SOL     OW10993   0.284   2.817   4.443
 3365SOL    HW110994   0.273   2.842   4.347
 3365SOL    HW210995   0.353   2.875   4.485
 3366SOL     OW10996   5.987   0.700   4.669
 3366SOL    HW110997   6.043   0.617   4.668
 3366SOL    HW210998   6.034   0.772   4.619
 3367SOL     OW10999   2.197   2.826   2.060
 3367SOL    HW111000   2.261   2.844   1.986
 3367SOL    HW211001   2.197   2.728   2.081
 3368SOL     OW11002   0.349   5.686   6.708
 3368SOL    HW111003   0.319   5.647   6.795
 3368SOL    HW211004   0.449   5.692   6.707
 3369SOL     OW11005   3.594   2.249   6.601
 3369SOL    HW111006   3.555   2.279   6.688
 3369SOL    HW211007   3.684   2.209   6.617
 3370SOL     OW11008   6.523   6.526   5.401
 3370SOL    HW111009   6.576   6.533   5.316
 3370SOL    HW211010   6.505   6.429   5.421
 3371SOL     OW11011   1.111   4.208   2.489
 3371SOL    HW111012   1.142   4.264   2.412
 3371SOL    HW211013   1.114   4.111   2.464
 3372SOL     OW11014   1.334   1.469   2.592
 3372SOL    HW111015   1.301   1.388   2.639
 3372SOL    HW211016   1.295   1.551   2.634
 3373SOL     OW11017   6.811   1.304   3.903
 3373SOL    HW111018   6.845   1.338   3.815
 3373SOL    HW211019   6.885   1.306   3.970
 3374SOL     OW11020   3.242   5.636   4.661
 3374SOL    HW111021   3.301   5.555   4.654
 3374SOL    HW211022   3.192   5.634   4.748
 3375SOL     OW11023   4.031   4.898   4.680
 3375SOL    HW111024   4.044   4.826   4.747
 3375SOL    HW211025   4.081   4.876   4.596
 3376SOL     OW11026   4.080   3.423   2.887
 3376SOL    HW111027   4.064   3.348   2.951
 3376SOL    HW211028   4.010   3.421   2.816
 3377SOL     OW11029   0.477   6.495   4.474
 3377SOL    HW111030   0.572   6.476   4.500
 3377SOL    HW211031   0.416   6.437   4.527
 3378SOL     OW11032   6.597   0.486   1.859
 3378SOL    HW111033   6.673   0.423   1.843
 3378SOL    HW211034   6.598   0.558   1.790
 3379SOL     OW11035   0.288   4.914   5.972
 3379SOL    HW111036   0.287   4.968   5.888
 3379SOL    HW211037   0.265   4.972   6.050
 3380SOL     OW11038   6.267   5.438   6.025
 3380SOL    HW111039   6.262   5.401   5.932
 3380SOL    HW211040   6.189   5.405   6.078
 3381SOL     OW11041   1.882   2.182   0.384
 3381SOL    HW111042   1.974   2.152   0.360
 3381SOL    HW211043   1.816   2.137   0.324
 3382SOL     OW11044   0.761   1.445   0.511
 3382SOL    HW111045   0.736   1.351   0.537
 3382SOL    HW211046   0.763   1.452   0.412
 3383SOL     OW11047   5.658   4.812   2.262
 3383SOL    HW111048   5.668   4.859   2.350
 3383SOL    HW211049   5.580   4.849   2.212
 3384SOL     OW11050   2.891   3.314   4.852
 3384SOL    HW111051   2.799   3.303   4.888
 3384SOL    HW211052   2.891   3.384   4.780
 3385SOL     OW11053   0.453   3.956   3.753
 3385SOL    HW111054   0.387   3.915   3.816
 3385SOL    HW211055   0.542   3.961   3.796
 3386SOL     OW11056   6.213   3.308   5.740
 3386SOL    HW111057   6.227   3.314   5.839
 3386SOL    HW211058   6.302   3.297   5.694
 3387SOL     OW11059   2.115   1.283   2.904
 3387SOL    HW111060   2.079   1.309   2.993
 3387SOL    HW211061   2.213   1.266   2.910
 3388SOL     OW11062   5.823   3.716   1.250
 3388SOL    HW111063   5.895   3.736   1.184
 3388SOL    HW211064   5.859   3.656   1.322
 3389SOL     OW11065   4.427   5.113   4.548
 3389SOL    HW111066   4.387   5.136   4.637
 3389SOL    HW211067   4.396   5.021   4.521
 3390SOL     OW11068   4.721   3.719   5.901
 3390SOL    HW111069   4.818   3.694   5.896
 3390SOL    HW211070   4.684   3.693   5.990
 3391SOL     OW11071   5.295   2.352   4.655
 3391SOL    HW111072   5.250   2.364   4.566
 3391SOL    HW211073   5.228   2.367   4.728
 3392SOL     OW11074   3.055   1.094   3.649
 3392SOL    HW111075   3.108   1.159   3.703
 3392SOL    HW211076   2.957   1.107   3.668
 3393SOL     OW11077   6.776   6.735   0.851
 3393SOL    HW111078   6.719   6.708   0.774
 3393SOL    HW211079   6.769   6.834   0.865
 3394SOL     OW11080   5.851   3.379   1.190
 3394SOL    HW111081   5.870   3.283   1.212
 3394SOL    HW211082   5.886   3.437   1.263
 3395SOL     OW11083   6.835   3.292   4.071
 3395SOL    HW111084   6.761   3.235   4.034
 3395SOL    HW211085   6.861   3.361   4.003
 3396SOL     OW11086   0.148   3.003   3.759
 3396SOL    HW111087   0.054   2.990   3.790
 3396SOL    HW211088   0.193   2.914   3.751
 3397SOL     OW11089   2.964   1.066   5.384
 3397SOL    HW111090   2.868   1.094   5.385
 3397SOL    HW211091   2.986   1.024   5.296
 3398SOL     OW11092   1.264   0.012   4.373
 3398SOL    HW111093   1.299   6.990   4.287
 3398SOL    HW211094   1.179   0.062   4.356
 3399SOL     OW11095   5.001   4.505   3.892
 3399SOL    HW111096   4.988   4.599   3.924
 3399SOL    HW211097   4.919   4.451   3.913
 3400SOL     OW11098   4.288   1.503   5.579
 3400SOL    HW111099   4.242   1.428   5.627
 3400SOL    HW211100   4.343   1.555   5.644
 3401SOL     OW11101   0.101   3.731   0.758
 3401SOL    HW111102   0.066   3.806   0.701
 3401SOL    HW211103   0.200   3.736   0.763
 3402SOL     OW11104   5.100   5.838   0.661
 3402SOL    HW111105   5.120   5.933   0.639
 3402SOL    HW211106   5.150   5.778   0.598
 3403SOL     OW11107   3.554   0.716   4.573
 3403SOL    HW111108   3.609   0.662   4.509
 3403SOL    HW211109   3.554   0.672   4.663
 3404SOL     OW11110   3.860   1.502   0.698
 3404SOL    HW111111   3.955   1.535   0.700
 3404SOL    HW211112   3.803   1.561   0.755
 3405SOL     OW11113   6.425   3.381   4.593
 3405SOL    HW111114   6.524   3.390   4.583
 3405SOL    HW211115   6.405   3.310   4.660
 3406SOL     OW11116   1.525   4.341   2.010
 3406SOL    HW111117   1.602   4.327   2.072
 3406SOL    HW211118   1.556   4.333   1.915
 3407SOL     OW11119   1.836   4.751   1.125
 3407SOL    HW111120   1.748   4.789   1.095
 3407SOL    HW211121   1.849   4.661   1.085
 3408SOL     OW11122   4.870   4.313   4.342
 3408SOL    HW111123   4.826   4.399   4.366
 3408SOL    HW211124   4.958   4.306   4.388
 3409SOL     OW11125   3.632   6.660   5.692
 3409SOL    HW111126   3.556   6.609   5.732
 3409SOL    HW211127   3.716   6.642   5.744
 3410SOL     OW11128   6.031   5.603   6.651
 3410SOL    HW111129   5.944   5.627   6.695
 3410SOL    HW211130   6.024   5.619   6.552
 3411SOL     OW11131   0.092   3.004   1.958
 3411SOL    HW111132   0.071   2.911   1.927
 3411SOL    HW211133   0.120   3.060   1.880
 3412SOL     OW11134   4.522   2.801   6.947
 3412SOL    HW111135   4.463   2.802   6.866
 3412SOL    HW211136   4.545   2.895   6.972
 3413SOL     OW11137   4.498   1.126   2.524
 3413SOL    HW111138   4.435   1.134   2.446
 3413SOL    HW211139   4.509   1.030   2.549
 3414SOL     OW11140   2.175   0.985   5.166
 3414SOL    HW111141   2.152   1.009   5.260
 3414SOL    HW211142   2.243   1.050   5.131
 3415SOL     OW11143   1.782   4.376   4.530
 3415SOL    HW111144   1.766   4.281   4.505
 3415SOL    HW211145   1.697   4.418   4.562
 3416SOL     OW11146   6.676   4.840   6.485
 3416SOL    HW111147   6.719   4.765   6.435
 3416SOL    HW211148   6.577   4.832   6.480
 3417SOL     OW11149   6.444   5.747   2.800
 3417SOL    HW111150   6.431   5.687   2.878
 3417SOL    HW211151   6.541   5.773   2.793
 3418SOL     OW11152   4.086   0.266   4.782
 3418SOL    HW111153   4.070   0.231   4.874
 3418SOL    HW211154   4.035   0.351   4.770
 3419SOL     OW11155   3.208   5.570   5.634
 3419SOL    HW111156   3.238   5.590   5.541
 3419SOL    HW211157   3.109   5.558   5.635
 3420SOL     OW11158   5.292   2.388   3.466
 3420SOL    HW111159   5.351   2.466   3.445
 3420SOL    HW211160   5.257   2.397   3.559
 3421SOL     OW11161   6.759   0.202   6.275
 3421SOL    HW111162   6.666   0.224   6.305
 3421SOL    HW211163   6.800   0.283   6.233
 3422SOL     OW11164   2.582   6.817   1.270
 3422SOL    HW111165   2.520   6.861   1.205
 3422SOL    HW211166   2.529   6.784   1.348
 3423SOL     OW11167   2.208   0.212   0.800
 3423SOL    HW111168   2.154   0.198   0.883
 3423SOL    HW211169   2.178   0.297   0.755
 3424SOL     OW11170   3.183   0.251   2.170
 3424SOL    HW111171   3.214   0.318   2.103
 3424SOL    HW211172   3.211   0.159   2.141
 3425SOL     OW11173   4.661   4.421   2.464
 3425SOL    HW111174   4.630   4.356   2.533
 3425SOL    HW211175   4.653   4.380   2.373
 3426SOL     OW11176   3.743   2.880   6.919
 3426SOL    HW111177   3.726   2.979   6.924
 3426SOL    HW211178   3.655   2.832   6.909
 3427SOL     OW11179   6.918   6.398   0.009
 3427SOL    HW111180   6.961   6.332   0.071
 3427SOL    HW211181   6.989   6.457   6.985
 3428SOL     OW11182   3.720   4.778   1.487
 3428SOL    HW111183   3.775   4.748   1.565
 3428SOL    HW211184   3.765   4.856   1.443
 3429SOL     OW11185   0.440   1.653   6.947
 3429SOL    HW111186   0.477   1.587   7.012
 3429SOL    HW211187   0.415   1.737   6.996
 3430SOL     OW11188   0.570   0.189   6.083
 3430SOL    HW111189   0.558   0.288   6.084
 3430SOL    HW211190   0.662   0.166   6.115
 3431SOL     OW11191   1.978   6.928   1.259
 3431SOL    HW111192   1.944   6.876   1.180
 3431SOL    HW211193   1.902   6.980   1.299
 3432SOL     OW11194   2.823   2.172   5.896
 3432SOL    HW111195   2.733   2.215   5.911
 3432SOL    HW211196   2.881   2.236   5.845
 3433SOL     OW11197   1.270   0.027   6.233
 3433SOL    HW111198   1.208   6.983   6.283
 3433SOL    HW211199   1.355   6.993   6.213
 3434SOL     OW11200   3.558   2.835   0.886
 3434SOL    HW111201   3.586   2.761   0.825
 3434SOL    HW211202   3.465   2.818   0.919
 3435SOL     OW11203   0.483   2.145   1.775
 3435SOL    HW111204   0.582   2.144   1.782
 3435SOL    HW211205   0.445   2.063   1.817
 3436SOL     OW11206   4.024   6.645   5.368
 3436SOL    HW111207   3.987   6.553   5.351
 3436SOL    HW211208   3.959   6.697   5.423
 3437SOL     OW11209   4.687   0.559   6.468
 3437SOL    HW111210   4.655   0.616   6.393
 3437SOL    HW211211   4.627   0.571   6.547
 3438SOL     OW11212   1.123   2.520   6.541
 3438SOL    HW111213   1.074   2.583   6.601
 3438SOL    HW211214   1.221   2.521   6.563
 3439SOL     OW11215   2.508   0.184   5.775
 3439SOL    HW111216   2.467   0.096   5.748
 3439SOL    HW211217   2.605   0.170   5.797
 3440SOL     OW11218   4.762   3.821   1.454
 3440SOL    HW111219   4.672   3.789   1.426
 3440SOL    HW211220   4.809   3.748   1.503
 3441SOL     OW11221   5.395   0.518   3.457
 3441SOL    HW111222   5.303   0.483   3.474
 3441SOL    HW211223   5.463   0.455   3.495
 3442SOL     OW11224   2.747   5.066   2.781
 3442SOL    HW111225   2.694   5.036   2.861
 3442SOL    HW211226   2.748   5.166   2.778
 3443SOL     OW11227   6.061   0.642   2.404
 3443SOL    HW111228   6.136   0.606   2.458
 3443SOL    HW211229   5.976   0.594   2.428
 3444SOL     OW11230   5.352   4.656   0.085
 3444SOL    HW111231   5.280   4.693   0.144
 3444SOL    HW211232   5.340   4.690   7.007
 3445SOL     OW11233   6.012   4.617   3.947
 3445SOL    HW111234   6.068   4.609   4.030
 3445SOL    HW211235   6.071   4.606   3.867
 3446SOL     OW11236   6.280   0.946   3.387
 3446SOL    HW111237   6.369   0.945   3.343
 3446SOL    HW211238   6.258   1.039   3.417
 3447SOL     OW11239   4.927   4.566   0.822
 3447SOL    HW111240   4.912   4.470   0.849
 3447SOL    HW211241   4.839   4.607   0.796
 3448SOL     OW11242   3.073   7.002   0.895
 3448SOL    HW111243   2.983   6.981   0.858
 3448SOL    HW211244   3.066   0.061   0.962
 3449SOL     OW11245   5.341   6.599   3.351
 3449SOL    HW111246   5.317   6.593   3.254
 3449SOL    HW211247   5.320   6.512   3.396
 3450SOL     OW11248   1.077   2.560   0.531
 3450SOL    HW111249   1.098   2.574   0.628
 3450SOL    HW211250   1.146   2.500   0.490
 3451SOL     OW11251   0.358   5.395   3.605
 3451SOL    HW111252   0.277   5.431   3.651
 3451SOL    HW211253   0.362   5.296   3.616
 3452SOL     OW11254   5.657   1.651   0.106
 3452SOL    HW111255   5.590   1.720   0.133
 3452SOL    HW211256   5.741   1.664   0.159
 3453SOL     OW11257   6.469   5.732   5.476
 3453SOL    HW111258   6.453   5.774   5.386
 3453SOL    HW211259   6.381   5.714   5.520
 3454SOL     OW11260   2.211   0.426   5.587
 3454SOL    HW111261   2.132   0.424   5.525
 3454SOL    HW211262   2.201   0.503   5.650
 3455SOL     OW11263   1.718   3.096   4.354
 3455SOL    HW111264   1.774   3.097   4.437
 3455SOL    HW211265   1.759   3.034   4.287
 3456SOL     OW11266   5.358   6.414   2.045
 3456SOL    HW111267   5.323   6.415   1.951
 3456SOL    HW211268   5.339   6.502   2.088
 3457SOL     OW11269   2.516   5.414   3.991
 3457SOL    HW111270   2.438   5.379   4.044
 3457SOL    HW211271   2.578   5.463   4.052
 3458SOL     OW11272   5.010   6.785   6.857
 3458SOL    HW111273   5.041   6.875   6.827
 3458SOL    HW211274   5.064   6.756   6.936
 3459SOL     OW11275   6.848   4.425   3.368
 3459SOL    HW111276   6.761   4.463   3.337
 3459SOL    HW211277   6.914   4.427   3.293
 3460SOL     OW11278   3.014   3.587   0.343
 3460SOL    HW111279   2.981   3.505   0.388
 3460SOL    HW211280   3.114   3.588   0.341
 3461SOL     OW11281   4.574   5.790   3.973
 3461SOL    HW111282   4.655   5.738   4.000
 3461SOL    HW211283   4.575   5.879   4.018
 3462SOL     OW11284   6.284   3.713   2.259
 3462SOL    HW111285   6.222   3.670   2.325
 3462SOL    HW211286   6.379   3.697   2.286
 3463SOL     OW11287   1.156   2.976   2.291
 3463SOL    HW111288   1.156   2.894   2.234
 3463SOL    HW211289   1.109   3.050   2.243
 3464SOL     OW11290   6.177   2.397   6.884
 3464SOL    HW111291   6.106   2.327   6.887
 3464SOL    HW211292   6.138   2.483   6.851
 3465SOL     OW11293   1.369   3.146   1.910
 3465SOL    HW111294   1.321   3.138   1.997
 3465SOL    HW211295   1.389   3.242   1.891
 3466SOL     OW11296   6.697   5.358   5.869
 3466SOL    HW111297   6.716   5.397   5.779
 3466SOL    HW211298   6.783   5.329   5.912
 3467SOL     OW11299   1.591   1.751   0.657
 3467SOL    HW111300   1.679   1.782   0.693
 3467SOL    HW211301   1.541   1.704   0.729
 3468SOL     OW11302   5.428   1.746   3.358
 3468SOL    HW111303   5.400   1.656   3.393
 3468SOL    HW211304   5.350   1.809   3.364
 3469SOL     OW11305   4.903   0.290   4.757
 3469SOL    HW111306   4.865   0.231   4.828
 3469SOL    HW211307   4.833   0.355   4.726
 3470SOL     OW11308   0.083   2.749   1.819
 3470SOL    HW111309   0.114   2.671   1.874
 3470SOL    HW211310   0.159   2.783   1.764
 3471SOL     OW11311   4.170   4.783   3.578
 3471SOL    HW111312   4.098   4.747   3.637
 3471SOL    HW211313   4.229   4.844   3.631
 3472SOL     OW11314   3.202   1.153   1.682
 3472SOL    HW111315   3.208   1.205   1.597
 3472SOL    HW211316   3.106   1.136   1.705
 3473SOL     OW11317   5.852   3.055   2.760
 3473SOL    HW111318   5.902   3.034   2.677
 3473SOL    HW211319   5.758   3.022   2.753
 3474SOL     OW11320   7.010   4.255   2.210
 3474SOL    HW111321   0.088   4.221   2.196
 3474SOL    HW211322   7.000   4.290   2.303
 3475SOL     OW11323   1.024   4.732   5.051
 3475SOL    HW111324   1.120   4.760   5.041
 3475SOL    HW211325   0.996   4.740   5.146
 3476SOL     OW11326   2.154   2.317   2.444
 3476SOL    HW111327   2.143   2.221   2.472
 3476SOL    HW211328   2.228   2.324   2.377
 3477SOL     OW11329   0.939   4.333   0.958
 3477SOL    HW111330   0.956   4.247   0.909
 3477SOL    HW211331   0.937   4.314   1.057
 3478SOL     OW11332   3.018   6.209   0.103
 3478SOL    HW111333   3.020   6.278   0.030
 3478SOL    HW211334   3.102   6.217   0.157
 3479SOL     OW11335   0.539   1.031   2.885
 3479SOL    HW111336   0.626   0.990   2.858
 3479SOL    HW211337   0.480   0.961   2.927
 3480SOL     OW11338   0.456   6.282   5.245
 3480SOL    HW111339   0.373   6.263   5.298
 3480SOL    HW211340   0.436   6.351   5.176
 3481SOL     OW11341   5.114   0.644   0.373
 3481SOL    HW111342   5.060   0.598   0.445
 3481SOL    HW211343   5.210   0.619   0.383
 3482SOL     OW11344   6.001   1.461   2.157
 3482SOL    HW111345   5.955   1.473   2.245
 3482SOL    HW211346   6.100   1.459   2.172
 3483SOL     OW11347   5.334   1.727   2.611
 3483SOL    HW111348   5.415   1.669   2.606
 3483SOL    HW211349   5.310   1.759   2.520
 3484SOL     OW11350   1.277   3.104   0.063
 3484SOL    HW111351   1.247   3.031   0.124
 3484SOL    HW211352   1.254   3.080   6.983
 3485SOL     OW11353   1.475   2.103   4.110
 3485SOL    HW111354   1.573   2.106   4.128
 3485SOL    HW211355   1.447   2.009   4.091
 3486SOL     OW11356   1.751   0.223   3.400
 3486SOL    HW111357   1.761   0.172   3.485
 3486SOL    HW211358   1.835   0.217   3.346
 3487SOL     OW11359   6.414   1.758   0.263
 3487SOL    HW111360   6.364   1.712   0.337
 3487SOL    HW211361   6.359   1.757   0.180
 3488SOL     OW11362   5.380   1.126   5.432
 3488SOL    HW111363   5.293   1.173   5.445
 3488SOL    HW211364   5.386   1.048   5.494
 3489SOL     OW11365   3.834   0.212   2.290
 3489SOL    HW111366   3.817   0.114   2.282
 3489SOL    HW211367   3.865   0.248   2.202
 3490SOL     OW11368   3.790   4.520   1.315
 3490SOL    HW111369   3.882   4.534   1.277
 3490SOL    HW211370   3.765   4.599   1.371
 3491SOL     OW11371   4.096   2.594   6.169
 3491SOL    HW111372   4.137   2.508   6.139
 3491SOL    HW211373   4.001   2.598   6.137
 3492SOL     OW11374   6.254   4.609   0.735
 3492SOL    HW111375   6.256   4.600   0.834
 3492SOL    HW211376   6.164   4.583   0.701
 3493SOL     OW11377   5.531   4.053   3.915
 3493SOL    HW111378   5.590   4.048   3.996
 3493SOL    HW211379   5.587   4.051   3.832
 3494SOL     OW11380   2.450   0.949   2.020
 3494SOL    HW111381   2.434   1.029   2.077
 3494SOL    HW211382   2.548   0.927   2.020
 3495SOL     OW11383   0.133   4.436   1.980
 3495SOL    HW111384   0.059   4.485   2.025
 3495SOL    HW211385   0.201   4.501   1.947
 3496SOL     OW11386   5.975   5.413   0.945
 3496SOL    HW111387   5.882   5.381   0.931
 3496SOL    HW211388   5.980   5.511   0.928
 3497SOL     OW11389   2.453   1.466   4.085
 3497SOL    HW111390   2.531   1.504   4.036
 3497SOL    HW211391   2.368   1.494   4.040
 3498SOL     OW11392   2.930   1.179   1.820
 3498SOL    HW111393   2.875   1.260   1.802
 3498SOL    HW211394   2.907   1.142   1.910
 3499SOL     OW11395   5.942   4.637   4.355
 3499SOL    HW111396   6.009   4.653   4.283
 3499SOL    HW211397   5.860   4.692   4.338
 3500SOL     OW11398   1.502   3.111   3.138
 3500SOL    HW111399   1.515   3.209   3.155
 3500SOL    HW211400   1.452   3.071   3.215
 3501SOL     OW11401   3.383   6.590   5.804
 3501SOL    HW111402   3.334   6.657   5.861
 3501SOL    HW211403   3.408   6.511   5.859
 3502SOL     OW11404   0.076   2.478   1.582
 3502SOL    HW111405   0.162   2.434   1.609
 3502SOL    HW211406   0.002   2.443   1.639
 3503SOL     OW11407   6.325   6.124   5.228
 3503SOL    HW111408   6.364   6.192   5.290
 3503SOL    HW211409   6.230   6.149   5.208
 3504SOL     OW11410   2.310   0.732   1.929
 3504SOL    HW111411   2.357   0.819   1.941
 3504SOL    HW211412   2.375   0.661   1.902
 3505SOL     OW11413   5.185   4.088   5.529
 3505SOL    HW111414   5.150   4.130   5.613
 3505SOL    HW211415   5.163   4.146   5.450
 3506SOL     OW11416   5.300   4.405   5.047
 3506SOL    HW111417   5.369   4.333   5.050
 3506SOL    HW211418   5.211   4.365   5.030
 3507SOL     OW11419   2.854   0.825   0.808
 3507SOL    HW111420   2.833   0.746   0.751
 3507SOL    HW211421   2.935   0.806   0.864
 3508SOL     OW11422   1.866   1.310   5.963
 3508SOL    HW111423   1.876   1.302   5.864
 3508SOL    HW211424   1.776   1.348   5.985
 3509SOL     OW11425   5.925   0.024   0.020
 3509SOL    HW111426   5.902   0.114   6.998
 3509SOL    HW211427   5.876   6.969   6.983
 3510SOL     OW11428   1.334   0.896   2.223
 3510SOL    HW111429   1.247   0.929   2.186
 3510SOL    HW211430   1.362   0.813   2.174
 3511SOL     OW11431   1.988   4.120   1.592
 3511SOL    HW111432   2.039   4.047   1.546
 3511SOL    HW211433   2.043   4.156   1.668
 3512SOL     OW11434   0.283   4.188   0.493
 3512SOL    HW111435   0.207   4.221   0.550
 3512SOL    HW211436   0.351   4.260   0.483
 3513SOL     OW11437   5.705   2.102   0.591
 3513SOL    HW111438   5.728   2.198   0.581
 3513SOL    HW211439   5.785   2.046   0.571
 3514SOL     OW11440   0.032   0.974   1.992
 3514SOL    HW111441   0.034   0.990   1.894
 3514SOL    HW211442   0.059   0.879   2.011
 3515SOL     OW11443   4.473   5.894   3.100
 3515SOL    HW111444   4.441   5.985   3.073
 3515SOL    HW211445   4.534   5.902   3.179
 3516SOL     OW11446   4.216   6.396   0.837
 3516SOL    HW111447   4.200   6.336   0.915
 3516SOL    HW211448   4.217   6.491   0.868
 3517SOL     OW11449   6.617   0.913   1.791
 3517SOL    HW111450   6.682   0.881   1.722
 3517SOL    HW211451   6.666   0.952   1.869
 3518SOL     OW11452   5.274   2.970   5.302
 3518SOL    HW111453   5.327   3.046   5.340
 3518SOL    HW211454   5.313   2.942   5.215
 3519SOL     OW11455   1.554   6.534   5.801
 3519SOL    HW111456   1.482   6.601   5.784
 3519SOL    HW211457   1.539   6.453   5.743
 3520SOL     OW11458   3.478   6.021   7.011
 3520SOL    HW111459   3.469   6.054   6.917
 3520SOL    HW211460   3.473   5.921   7.012
 3521SOL     OW11461   4.688   2.635   0.099
 3521SOL    HW111462   4.777   2.679   0.108
 3521SOL    HW211463   4.636   2.679   0.026
 3522SOL     OW11464   0.206   5.624   0.295
 3522SOL    HW111465   0.241   5.542   0.342
 3522SOL    HW211466   0.141   5.596   0.224
 3523SOL     OW11467   1.298   4.781   5.016
 3523SOL    HW111468   1.345   4.711   5.069
 3523SOL    HW211469   1.302   4.868   5.065
 3524SOL     OW11470   4.766   1.673   1.978
 3524SOL    HW111471   4.684   1.689   2.032
 3524SOL    HW211472   4.830   1.615   2.030
 3525SOL     OW11473   6.831   3.487   3.893
 3525SOL    HW111474   6.858   3.487   3.797
 3525SOL    HW211475   6.817   3.581   3.924
 3526SOL     OW11476   1.910   6.822   3.993
 3526SOL    HW111477   1.881   6.754   3.925
 3526SOL    HW211478   1.931   6.908   3.946
 3527SOL     OW11479   5.865   3.570   6.438
 3527SOL    HW111480   5.921   3.506   6.490
 3527SOL    HW211481   5.822   3.635   6.500
 3528SOL     OW11482   1.615   6.491   5.204
 3528SOL    HW111483   1.660   6.421   5.261
 3528SOL    HW211484   1.680   6.565   5.186
 3529SOL     OW11485   3.942   0.227   0.916
 3529SOL    HW111486   4.011   0.267   0.856
 3529SOL    HW211487   3.964   0.131   0.933
 3530SOL     OW11488   6.526   5.763   0.924
 3530SOL    HW111489   6.551   5.813   1.007
 3530SOL    HW211490   6.468   5.822   0.867
 3531SOL     OW11491   5.154   2.143   0.496
 3531SOL    HW111492   5.174   2.118   0.591
 3531SOL    HW211493   5.059   2.122   0.474
 3532SOL     OW11494   2.542   7.008   1.911
 3532SOL    HW111495   2.609   6.951   1.960
 3532SOL    HW211496   2.564   0.089   1.925
 3533SOL     OW11497   0.507   1.446   2.720
 3533SOL    HW111498   0.451   1.384   2.664
 3533SOL    HW211499   0.575   1.393   2.771
 3534SOL     OW11500   0.711   1.740   0.584
 3534SOL    HW111501   0.749   1.648   0.594
 3534SOL    HW211502   0.697   1.760   0.487
 3535SOL     OW11503   2.009   5.156   6.176
 3535SOL    HW111504   1.962   5.089   6.233
 3535SOL    HW211505   1.944   5.225   6.145
 3536SOL     OW11506   3.601   1.519   3.006
 3536SOL    HW111507   3.575   1.553   2.916
 3536SOL    HW211508   3.599   1.594   3.072
 3537SOL     OW11509   2.404   5.532   2.771
 3537SOL    HW111510   2.319   5.561   2.728
 3537SOL    HW211511   2.475   5.523   2.702
 3538SOL     OW11512   2.020   6.459   5.261
 3538SOL    HW111513   1.955   6.383   5.260
 3538SOL    HW211514   1.970   6.545   5.271
 3539SOL     OW11515   3.648   3.202   5.569
 3539SOL    HW111516   3.727   3.242   5.615
 3539SOL    HW211517   3.637   3.244   5.479
 3540SOL     OW11518   1.948   3.040   4.916
 3540SOL    HW111519   2.016   3.086   4.859
 3540SOL    HW211520   1.959   2.941   4.909
 3541SOL     OW11521   2.266   2.629   6.051
 3541SOL    HW111522   2.167   2.631   6.041
 3541SOL    HW211523   2.299   2.722   6.071
 3542SOL     OW11524   1.329   5.424   3.676
 3542SOL    HW111525   1.314   5.329   3.702
 3542SOL    HW211526   1.280   5.444   3.591
 3543SOL     OW11527   0.331   2.604   4.796
 3543SOL    HW111528   0.403   2.544   4.761
 3543SOL    HW211529   0.340   2.695   4.755
 3544SOL     OW11530   1.775   4.101   5.698
 3544SOL    HW111531   1.709   4.158   5.745
 3544SOL    HW211532   1.868   4.135   5.716
 3545SOL     OW11533   4.252   5.432   6.591
 3545SOL    HW111534   4.352   5.437   6.600
 3545SOL    HW211535   4.227   5.423   6.495
 3546SOL     OW11536   1.672   4.483   4.002
 3546SOL    HW111537   1.599   4.426   3.967
 3546SOL    HW211538   1.672   4.571   3.954
 3547SOL     OW11539   6.316   4.724   3.802
 3547SOL    HW111540   6.370   4.651   3.759
 3547SOL    HW211541   6.358   4.749   3.889
 3548SOL     OW11542   6.102   1.907   6.085
 3548SOL    HW111543   6.159   1.988   6.072
 3548SOL    HW211544   6.067   1.877   5.996
 3549SOL     OW11545   6.389   4.434   5.797
 3549SOL    HW111546   6.467   4.468   5.743
 3549SOL    HW211547   6.423   4.371   5.867
 3550SOL     OW11548   5.296   2.261   2.597
 3550SOL    HW111549   5.386   2.252   2.554
 3550SOL    HW211550   5.274   2.177   2.647
 3551SOL     OW11551   3.841   6.907   2.810
 3551SOL    HW111552   3.916   6.973   2.807
 3551SOL    HW211553   3.758   6.949   2.772
 3552SOL     OW11554   5.009   6.259   1.411
 3552SOL    HW111555   4.928   6.200   1.412
 3552SOL    HW211556   5.088   6.209   1.447
 3553SOL     OW11557   5.567   3.865   1.595
 3553SOL    HW111558   5.659   3.833   1.616
 3553SOL    HW211559   5.512   3.788   1.562
 3554SOL     OW11560   3.773   2.499   1.017
 3554SOL    HW111561   3.769   2.546   0.928
 3554SOL    HW211562   3.681   2.471   1.044
 3555SOL     OW11563   1.329   4.153   3.340
 3555SOL    HW111564   1.311   4.072   3.284
 3555SOL    HW211565   1.326   4.235   3.282
 3556SOL     OW11566   4.567   0.677   4.449
 3556SOL    HW111567   4.518   0.590   4.461
 3556SOL    HW211568   4.505   0.745   4.410
 3557SOL     OW11569   0.872   0.392   3.848
 3557SOL    HW111570   0.926   0.308   3.843
 3557SOL    HW211571   0.855   0.427   3.756
 3558SOL     OW11572   1.240   5.592   0.798
 3558SOL    HW111573   1.188   5.515   0.834
 3558SOL    HW211574   1.212   5.676   0.845
 3559SOL     OW11575   0.811   7.013   4.544
 3559SOL    HW111576   0.891   0.056   4.560
 3559SOL    HW211577   0.837   6.934   4.489
 3560SOL     OW11578   1.385   5.794   1.525
 3560SOL    HW111579   1.417   5.853   1.599
 3560SOL    HW211580   1.456   5.727   1.503
 3561SOL     OW11581   3.783   4.958   5.490
 3561SOL    HW111582   3.835   4.898   5.430
 3561SOL    HW211583   3.844   5.026   5.530
 3562SOL     OW11584   5.342   0.819   4.435
 3562SOL    HW111585   5.243   0.824   4.452
 3562SOL    HW211586   5.359   0.830   4.337
 3563SOL     OW11587   5.273   0.761   1.495
 3563SOL    HW111588   5.362   0.718   1.508
 3563SOL    HW211589   5.202   0.691   1.493
 3564SOL     OW11590   1.399   4.690   4.213
 3564SOL    HW111591   1.374   4.593   4.224
 3564SOL    HW211592   1.468   4.714   4.281
 3565SOL     OW11593   3.761   6.508   5.053
 3565SOL    HW111594   3.683   6.541   5.001
 3565SOL    HW211595   3.841   6.564   5.031
 3566SOL     OW11596   6.604   3.516   6.670
 3566SOL    HW111597   6.531   3.556   6.725
 3566SOL    HW211598   6.687   3.508   6.726
 3567SOL     OW11599   0.953   3.030   0.030
 3567SOL    HW111600   0.985   2.940   0.057
 3567SOL    HW211601   0.911   3.025   6.955
 3568SOL     OW11602   5.034   6.060   3.869
 3568SOL    HW111603   5.101   6.092   3.802
 3568SOL    HW211604   4.955   6.020   3.822
 3569SOL     OW11605   2.851   2.575   6.117
 3569SOL    HW111606   2.796   2.626   6.051
 3569SOL    HW211607   2.936   2.544   6.074
 3570SOL     OW11608   5.464   0.590   4.525
 3570SOL    HW111609   5.542   0.550   4.477
 3570SOL    HW211610   5.410   0.645   4.460
 3571SOL     OW11611   2.281   0.750   4.819
 3571SOL    HW111612   2.358   0.805   4.853
 3571SOL    HW211613   2.238   0.703   4.896
 3572SOL     OW11614   5.646   3.665   3.027
 3572SOL    HW111615   5.739   3.672   2.990
 3572SOL    HW211616   5.592   3.745   2.998
 3573SOL     OW11617   5.804   3.875   2.609
 3573SOL    HW111618   5.810   3.901   2.705
 3573SOL    HW211619   5.752   3.790   2.600
 3574SOL     OW11620   1.473   3.557   0.339
 3574SOL    HW111621   1.379   3.527   0.322
 3574SOL    HW211622   1.472   3.653   0.365
 3575SOL     OW11623   4.932   5.911   1.848
 3575SOL    HW111624   4.851   5.867   1.811
 3575SOL    HW211625   4.971   5.855   1.921
 3576SOL     OW11626   0.635   1.995   0.430
 3576SOL    HW111627   0.582   2.010   0.513
 3576SOL    HW211628   0.725   2.038   0.440
 3577SOL     OW11629   2.052   2.736   6.533
 3577SOL    HW111630   2.053   2.792   6.450
 3577SOL    HW211631   1.958   2.719   6.561
 3578SOL     OW11632   4.945   1.770   1.127
 3578SOL    HW111633   4.876   1.716   1.078
 3578SOL    HW211634   4.910   1.795   1.217
 3579SOL     OW11635   6.744   3.047   2.636
 3579SOL    HW111636   6.830   3.004   2.665
 3579SOL    HW211637   6.704   2.995   2.561
 3580SOL     OW11638   6.433   3.073   6.953
 3580SOL    HW111639   6.527   3.108   6.948
 3580SOL    HW211640   6.419   3.007   6.879
 3581SOL     OW11641   0.577   6.162   2.811
 3581SOL    HW111642   0.611   6.197   2.724
 3581SOL    HW211643   0.605   6.067   2.823
 3582SOL     OW11644   2.027   4.946   5.511
 3582SOL    HW111645   2.010   4.910   5.602
 3582SOL    HW211646   1.977   5.032   5.499
 3583SOL     OW11647   1.409   4.609   0.408
 3583SOL    HW111648   1.353   4.527   0.410
 3583SOL    HW211649   1.472   4.605   0.331
 3584SOL     OW11650   5.496   4.499   5.693
 3584SOL    HW111651   5.461   4.420   5.644
 3584SOL    HW211652   5.594   4.509   5.677
 3585SOL     OW11653   3.230   1.874   4.934
 3585SOL    HW111654   3.259   1.934   5.010
 3585SOL    HW211655   3.311   1.837   4.889
 3586SOL     OW11656   0.106   2.441   5.145
 3586SOL    HW111657   0.141   2.480   5.230
 3586SOL    HW211658   0.175   2.382   5.104
 3587SOL     OW11659   2.837   5.438   6.266
 3587SOL    HW111660   2.911   5.496   6.302
 3587SOL    HW211661   2.847   5.429   6.167
 3588SOL     OW11662   6.675   3.430   4.959
 3588SOL    HW111663   6.592   3.486   4.962
 3588SOL    HW211664   6.755   3.490   4.954
 3589SOL     OW11665   6.335   6.823   6.695
 3589SOL    HW111666   6.346   6.903   6.755
 3589SOL    HW211667   6.303   6.746   6.749
 3590SOL     OW11668   0.342   3.818   0.179
 3590SOL    HW111669   0.419   3.773   0.224
 3590SOL    HW211670   0.279   3.853   0.247
 3591SOL     OW11671   5.525   3.562   1.017
 3591SOL    HW111672   5.584   3.534   0.941
 3591SOL    HW211673   5.496   3.481   1.068
 3592SOL     OW11674   0.362   6.893   2.860
 3592SOL    HW111675   0.377   6.897   2.958
 3592SOL    HW211676   0.424   6.825   2.820
 3593SOL     OW11677   1.040   4.394   5.970
 3593SOL    HW111678   1.063   4.370   6.064
 3593SOL    HW211679   1.114   4.448   5.930
 3594SOL     OW11680   5.470   0.494   3.903
 3594SOL    HW111681   5.371   0.506   3.892
 3594SOL    HW211682   5.514   0.584   3.900
 3595SOL     OW11683   5.653   5.130   6.694
 3595SOL    HW111684   5.705   5.084   6.622
 3595SOL    HW211685   5.705   5.208   6.728
 3596SOL     OW11686   4.574   2.607   3.463
 3596SOL    HW111687   4.535   2.516   3.449
 3596SOL    HW211688   4.573   2.630   3.560
 3597SOL     OW11689   1.881   3.083   5.452
 3597SOL    HW111690   1.962   3.064   5.507
 3597SOL    HW211691   1.804   3.106   5.513
 3598SOL     OW11692   1.932   6.306   5.006
 3598SOL    HW111693   1.860   6.360   4.963
 3598SOL    HW211694   2.014   6.362   5.017
 3599SOL     OW11695   4.415   2.191   6.951
 3599SOL    HW111696   4.472   2.191   0.018
 3599SOL    HW211697   4.425   2.278   6.904
 3600SOL     OW11698   1.188   3.514   1.316
 3600SOL    HW111699   1.280   3.475   1.317
 3600SOL    HW211700   1.189   3.603   1.362
 3601SOL     OW11701   5.476   2.430   6.040
 3601SOL    HW111702   5.461   2.510   6.099
 3601SOL    HW211703   5.518   2.357   6.093
 3602SOL     OW11704   1.631   3.137   0.536
 3602SOL    HW111705   1.660   3.225   0.498
 3602SOL    HW211706   1.540   3.147   0.576
 3603SOL     OW11707   3.678   1.145   5.335
 3603SOL    HW111708   3.757   1.169   5.391
 3603SOL    HW211709   3.598   1.130   5.394
 3604SOL     OW11710   6.207   0.763   3.785
 3604SOL    HW111711   6.255   0.850   3.796
 3604SOL    HW211712   6.250   0.710   3.711
 3605SOL     OW11713   0.977   5.330   4.318
 3605SOL    HW111714   0.887   5.344   4.359
 3605SOL    HW211715   1.046   5.321   4.389
 3606SOL     OW11716   1.563   6.768   2.819
 3606SOL    HW111717   1.465   6.788   2.828
 3606SOL    HW211718   1.575   6.672   2.792
 3607SOL     OW11719   5.619   3.097   2.135
 3607SOL    HW111720   5.691   3.034   2.106
 3607SOL    HW211721   5.534   3.074   2.088
 3608SOL     OW11722   5.251   1.539   4.170
 3608SOL    HW111723   5.258   1.582   4.080
 3608SOL    HW211724   5.249   1.610   4.241
 3609SOL     OW11725   2.197   0.305   4.175
 3609SOL    HW111726   2.271   0.331   4.237
 3609SOL    HW211727   2.123   0.371   4.182
 3610SOL     OW11728   1.477   0.332   5.816
 3610SOL    HW111729   1.521   0.344   5.727
 3610SOL    HW211730   1.485   0.236   5.844
 3611SOL     OW11731   4.082   4.746   4.164
 3611SOL    HW111732   4.003   4.776   4.111
 3611SOL    HW211733   4.142   4.692   4.105
 3612SOL     OW11734   6.503   0.985   6.642
 3612SOL    HW111735   6.411   1.007   6.609
 3612SOL    HW211736   6.515   0.886   6.646
 3613SOL     OW11737   3.983   5.307   1.781
 3613SOL    HW111738   3.952   5.251   1.858
 3613SOL    HW211739   3.924   5.388   1.772
 3614SOL     OW11740   2.685   3.390   6.815
 3614SOL    HW111741   2.745   3.464   6.846
 3614SOL    HW211742   2.649   3.340   6.894
 3615SOL     OW11743   6.039   2.904   6.480
 3615SOL    HW111744   6.026   2.937   6.387
 3615SOL    HW211745   6.055   2.805   6.479
 3616SOL     OW11746   1.405   0.812   6.363
 3616SOL    HW111747   1.461   0.742   6.319
 3616SOL    HW211748   1.374   0.780   6.452
 3617SOL     OW11749   4.091   0.601   5.952
 3617SOL    HW111750   4.019   0.531   5.945
 3617SOL    HW211751   4.180   0.556   5.963
 3618SOL     OW11752   2.654   3.433   5.389
 3618SOL    HW111753   2.556   3.454   5.389
 3618SOL    HW211754   2.667   3.334   5.383
 3619SOL     OW11755   5.600   3.235   0.418
 3619SOL    HW111756   5.565   3.324   0.389
 3619SOL    HW211757   5.699   3.240   0.431
 3620SOL     OW11758   6.220   5.334   5.346
 3620SOL    HW111759   6.304   5.383   5.324
 3620SOL    HW211760   6.169   5.386   5.415
 3621SOL     OW11761   3.119   3.385   4.574
 3621SOL    HW111762   3.093   3.291   4.595
 3621SOL    HW211763   3.055   3.448   4.618
 3622SOL     OW11764   1.411   0.435   0.638
 3622SOL    HW111765   1.320   0.474   0.624
 3622SOL    HW211766   1.469   0.457   0.559
 3623SOL     OW11767   0.266   5.544   5.317
 3623SOL    HW111768   0.331   5.485   5.271
 3623SOL    HW211769   0.193   5.570   5.253
 3624SOL     OW11770   1.393   0.055   2.601
 3624SOL    HW111771   1.331   0.127   2.570
 3624SOL    HW211772   1.487   0.078   2.573
 3625SOL     OW11773   0.098   3.495   6.625
 3625SOL    HW111774   0.170   3.564   6.627
 3625SOL    HW211775   0.130   3.415   6.574
 3626SOL     OW11776   0.761   3.413   4.066
 3626SOL    HW111777   0.730   3.447   3.977
 3626SOL    HW211778   0.701   3.448   4.138
 3627SOL     OW11779   4.751   3.340   1.709
 3627SOL    HW111780   4.739   3.389   1.622
 3627SOL    HW211781   4.736   3.243   1.695
 3628SOL     OW11782   1.503   1.171   2.569
 3628SOL    HW111783   1.526   1.257   2.615
 3628SOL    HW211784   1.584   1.113   2.563
 3629SOL     OW11785   1.044   0.753   4.033
 3629SOL    HW111786   1.087   0.699   3.960
 3629SOL    HW211787   1.114   0.807   4.080
 3630SOL     OW11788   6.356   3.014   3.895
 3630SOL    HW111789   6.288   2.969   3.954
 3630SOL    HW211790   6.445   2.970   3.907
 3631SOL     OW11791   1.507   6.721   3.642
 3631SOL    HW111792   1.545   6.639   3.687
 3631SOL    HW211793   1.572   6.796   3.649
 3632SOL     OW11794   4.577   4.324   0.662
 3632SOL    HW111795   4.584   4.293   0.756
 3632SOL    HW211796   4.605   4.251   0.600
 3633SOL     OW11797   4.237   2.402   5.900
 3633SOL    HW111798   4.307   2.467   5.929
 3633SOL    HW211799   4.264   2.360   5.813
 3634SOL     OW11800   1.884   6.708   6.237
 3634SOL    HW111801   1.928   6.621   6.258
 3634SOL    HW211802   1.833   6.699   6.151
 3635SOL     OW11803   1.799   1.326   0.804
 3635SOL    HW111804   1.761   1.361   0.891
 3635SOL    HW211805   1.899   1.330   0.808
 3636SOL     OW11806   0.298   6.270   1.282
 3636SOL    HW111807   0.217   6.222   1.315
 3636SOL    HW211808   0.302   6.264   1.182
 3637SOL     OW11809   0.878   2.775   1.003
 3637SOL    HW111810   0.884   2.874   1.019
 3637SOL    HW211811   0.806   2.737   1.060
 3638SOL     OW11812   6.761   3.991   2.214
 3638SOL    HW111813   6.795   4.048   2.139
 3638SOL    HW211814   6.718   3.909   2.176
 3639SOL     OW11815   3.550   4.652   5.918
 3639SOL    HW111816   3.470   4.663   5.977
 3639SOL    HW211817   3.579   4.556   5.920
 3640SOL     OW11818   5.206   2.171   1.012
 3640SOL    HW111819   5.216   2.089   1.068
 3640SOL    HW211820   5.110   2.182   0.986
 3641SOL     OW11821   5.036   4.538   1.302
 3641SOL    HW111822   5.019   4.441   1.318
 3641SOL    HW211823   5.057   4.583   1.389
 3642SOL     OW11824   5.524   1.968   6.519
 3642SOL    HW111825   5.526   1.884   6.465
 3642SOL    HW211826   5.430   2.003   6.522
 3643SOL     OW11827   3.958   6.579   6.060
 3643SOL    HW111828   4.048   6.622   6.054
 3643SOL    HW211829   3.954   6.503   5.996
 3644SOL     OW11830   2.885   0.617   1.391
 3644SOL    HW111831   2.934   0.591   1.474
 3644SOL    HW211832   2.792   0.580   1.396
 3645SOL     OW11833   1.467   3.821   4.406
 3645SOL    HW111834   1.482   3.748   4.473
 3645SOL    HW211835   1.463   3.782   4.314
 3646SOL     OW11836   2.355   5.011   4.381
 3646SOL    HW111837   2.443   4.972   4.354
 3646SOL    HW211838   2.285   4.939   4.379
 3647SOL     OW11839   2.695   6.506   6.809
 3647SOL    HW111840   2.726   6.418   6.844
 3647SOL    HW211841   2.601   6.497   6.775
 3648SOL     OW11842   4.755   6.114   2.939
 3648SOL    HW111843   4.763   6.040   3.006
 3648SOL    HW211844   4.840   6.121   2.888
 3649SOL     OW11845   5.959   4.067   0.428
 3649SOL    HW111846   5.982   3.970   0.422
 3649SOL    HW211847   6.026   4.114   0.484
 3650SOL     OW11848   5.743   4.413   1.085
 3650SOL    HW111849   5.669   4.347   1.102
 3650SOL    HW211850   5.727   4.495   1.139
 3651SOL     OW11851   2.036   2.034   4.928
 3651SOL    HW111852   2.129   2.004   4.948
 3651SOL    HW211853   2.034   2.133   4.913
 3652SOL     OW11854   5.831   0.486   2.393
 3652SOL    HW111855   5.761   0.482   2.464
 3652SOL    HW211856   5.807   0.422   2.320
 3653SOL     OW11857   1.070   0.989   2.811
 3653SOL    HW111858   1.124   1.057   2.761
 3653SOL    HW211859   1.084   1.001   2.909
 3654SOL     OW11860   4.979   6.183   0.691
 3654SOL    HW111861   5.028   6.128   0.624
 3654SOL    HW211862   4.964   6.128   0.774
 3655SOL     OW11863   3.102   1.098   4.269
 3655SOL    HW111864   3.047   1.175   4.301
 3655SOL    HW211865   3.117   1.033   4.343
 3656SOL     OW11866   0.954   4.956   1.227
 3656SOL    HW111867   0.978   5.032   1.288
 3656SOL    HW211868   0.939   4.874   1.282
 3657SOL     OW11869   4.772   5.687   5.424
 3657SOL    HW111870   4.826   5.640   5.493
 3657SOL    HW211871   4.800   5.658   5.333
 3658SOL     OW11872   2.112   4.808   6.373
 3658SOL    HW111873   2.151   4.846   6.457
 3658SOL    HW211874   2.082   4.714   6.390
 3659SOL     OW11875   0.506   1.511   6.222
 3659SOL    HW111876   0.549   1.464   6.144
 3659SOL    HW211877   0.555   1.489   6.306
 3660SOL     OW11878   6.101   6.413   5.347
 3660SOL    HW111879   6.014   6.445   5.384
 3660SOL    HW211880   6.165   6.395   5.421
 3661SOL     OW11881   0.076   0.477   4.450
 3661SOL    HW111882   0.049   0.565   4.410
 3661SOL    HW211883   0.133   0.427   4.385
 3662SOL     OW11884   3.737   1.064   4.889
 3662SOL    HW111885   3.782   1.078   4.977
 3662SOL    HW211886   3.805   1.053   4.817
 3663SOL     OW11887   2.573   2.276   6.579
 3663SOL    HW111888   2.618   2.354   6.623
 3663SOL    HW211889   2.490   2.308   6.533
 3664SOL     OW11890   3.656   1.500   2.048
 3664SOL    HW111891   3.700   1.429   2.103
 3664SOL    HW211892   3.557   1.491   2.054
 3665SOL     OW11893   0.490   6.119   5.622
 3665SOL    HW111894   0.454   6.090   5.533
 3665SOL    HW211895   0.455   6.209   5.645
 3666SOL     OW11896   0.961   3.003   3.148
 3666SOL    HW111897   0.931   2.942   3.221
 3666SOL    HW211898   1.027   3.068   3.184
 3667SOL     OW11899   0.734   1.556   3.901
 3667SOL    HW111900   0.657   1.496   3.878
 3667SOL    HW211901   0.760   1.542   3.997
 3668SOL     OW11902   1.121   0.638   1.412
 3668SOL    HW111903   1.169   0.553   1.393
 3668SOL    HW211904   1.025   0.619   1.429
 3669SOL     OW11905   5.868   1.899   4.576
 3669SOL    HW111906   5.892   1.802   4.570
 3669SOL    HW211907   5.859   1.925   4.672
 3670SOL     OW11908   3.011   5.025   1.159
 3670SOL    HW111909   3.070   5.006   1.239
 3670SOL    HW211910   2.978   5.119   1.164
 3671SOL     OW11911   6.568   1.341   2.832
 3671SOL    HW111912   6.547   1.252   2.872
 3671SOL    HW211913   6.485   1.378   2.789
 3672SOL     OW11914   5.429   1.274   2.369
 3672SOL    HW111915   5.343   1.323   2.350
 3672SOL    HW211916   5.435   1.194   2.309
 3673SOL     OW11917   4.125   5.318   6.799
 3673SOL    HW111918   4.036   5.353   6.830
 3673SOL    HW211919   4.153   5.366   6.716
 3674SOL     OW11920   1.572   5.870   5.910
 3674SOL    HW111921   1.612   5.819   5.833
 3674SOL    HW211922   1.626   5.855   5.992
 3675SOL     OW11923   6.753   2.702   3.522
 3675SOL    HW111924   6.686   2.738   3.587
 3675SOL    HW211925   6.844   2.705   3.562
 3676SOL     OW11926   5.493   3.022   2.923
 3676SOL    HW111927   5.448   3.100   2.880
 3676SOL    HW211928   5.484   3.029   3.023
 3677SOL     OW11929   2.147   0.711   5.058
 3677SOL    HW111930   2.068   0.754   5.014
 3677SOL    HW211931   2.197   0.780   5.111
 3678SOL     OW11932   1.401   1.811   4.485
 3678SOL    HW111933   1.494   1.845   4.471
 3678SOL    HW211934   1.342   1.843   4.411
 3679SOL     OW11935   5.832   0.222   3.501
 3679SOL    HW111936   5.795   0.137   3.538
 3679SOL    HW211937   5.932   0.220   3.505
 3680SOL     OW11938   4.991   2.174   3.569
 3680SOL    HW111939   4.898   2.140   3.556
 3680SOL    HW211940   4.998   2.267   3.535
 3681SOL     OW11941   0.455   0.482   6.354
 3681SOL    HW111942   0.406   0.569   6.355
 3681SOL    HW211943   0.495   0.468   6.263
 3682SOL     OW11944   4.953   2.274   0.976
 3682SOL    HW111945   4.885   2.251   1.045
 3682SOL    HW211946   4.946   2.372   0.953
 3683SOL     OW11947   0.156   0.686   4.603
 3683SOL    HW111948   0.138   0.694   4.701
 3683SOL    HW211949   0.135   0.593   4.573
 3684SOL     OW11950   1.952   6.411   6.747
 3684SOL    HW111951   1.907   6.437   6.662
 3684SOL    HW211952   2.050   6.397   6.730
 3685SOL     OW11953   2.816   5.933   5.126
 3685SOL    HW111954   2.730   5.969   5.164
 3685SOL    HW211955   2.800   5.901   5.033
 3686SOL     OW11956   6.509   4.470   4.118
 3686SOL    HW111957   6.603   4.504   4.117
 3686SOL    HW211958   6.472   4.473   4.025
 3687SOL     OW11959   5.334   6.871   3.300
 3687SOL    HW111960   5.239   6.901   3.315
 3687SOL    HW211961   5.342   6.774   3.322
 3688SOL     OW11962   6.022   3.451   0.337
 3688SOL    HW111963   5.956   3.524   0.351
 3688SOL    HW211964   6.073   3.467   0.252
 3689SOL     OW11965   2.221   1.905   5.693
 3689SOL    HW111966   2.313   1.940   5.676
 3689SOL    HW211967   2.211   1.885   5.791
 3690SOL     OW11968   4.934   5.652   0.804
 3690SOL    HW111969   4.996   5.642   0.882
 3690SOL    HW211970   4.974   5.715   0.738
 3691SOL     OW11971   2.542   2.096   6.088
 3691SOL    HW111972   2.622   2.089   6.148
 3691SOL    HW211973   2.555   2.169   6.022
 3692SOL     OW11974   6.769   4.494   6.020
 3692SOL    HW111975   6.776   4.404   6.063
 3692SOL    HW211976   6.672   4.522   6.015
 3693SOL     OW11977   1.364   1.967   2.747
 3693SOL    HW111978   1.330   2.014   2.666
 3693SOL    HW211979   1.437   1.903   2.720
 3694SOL     OW11980   0.951   0.295   1.676
 3694SOL    HW111981   0.950   0.283   1.577
 3694SOL    HW211982   1.011   0.372   1.700
 3695SOL     OW11983   6.111   2.178   2.068
 3695SOL    HW111984   6.102   2.228   1.982
 3695SOL    HW211985   6.171   2.228   2.130
 3696SOL     OW11986   5.388   0.692   5.350
 3696SOL    HW111987   5.398   0.775   5.295
 3696SOL    HW211988   5.476   0.643   5.353
 3697SOL     OW11989   6.189   5.959   3.180
 3697SOL    HW111990   6.169   5.905   3.098
 3697SOL    HW211991   6.105   6.002   3.212
 3698SOL     OW11992   2.452   0.985   3.835
 3698SOL    HW111993   2.436   1.036   3.920
 3698SOL    HW211994   2.478   1.048   3.762
 3699SOL     OW11995   2.302   2.214   3.500
 3699SOL    HW111996   2.375   2.169   3.450
 3699SOL    HW211997   2.219   2.158   3.497
 3700SOL     OW11998   1.526   5.640   5.232
 3700SOL    HW111999   1.497   5.612   5.323
 3700SOL    HW212000   1.465   5.712   5.198
 3701SOL     OW12001   0.681   6.251   2.140
 3701SOL    HW112002   0.712   6.166   2.182
 3701SOL    HW212003   0.760   6.305   2.110
 3702SOL     OW12004   5.013   6.417   3.788
 3702SOL    HW112005   5.031   6.402   3.885
 3702SOL    HW212006   4.918   6.393   3.767
 3703SOL     OW12007   0.634   0.999   6.487
 3703SOL    HW112008   0.602   0.916   6.532
 3703SOL    HW212009   0.733   0.993   6.472
 3704SOL     OW12010   5.278   3.727   1.053
 3704SOL    HW112011   5.354   3.662   1.051
 3704SOL    HW212012   5.208   3.694   1.116
 3705SOL     OW12013   4.933   4.914   3.493
 3705SOL    HW112014   4.940   4.870   3.582
 3705SOL    HW212015   4.873   4.860   3.434
 3706SOL     OW12016   0.600   3.987   6.797
 3706SOL    HW112017   0.560   3.967   6.708
 3706SOL    HW212018   0.645   4.076   6.795
 3707SOL     OW12019   3.803   5.118   3.932
 3707SOL    HW112020   3.852   5.155   3.853
 3707SOL    HW212021   3.708   5.147   3.930
 3708SOL     OW12022   4.292   0.131   1.438
 3708SOL    HW112023   4.254   0.220   1.413
 3708SOL    HW212024   4.269   0.110   1.533
 3709SOL     OW12025   2.399   6.991   1.682
 3709SOL    HW112026   2.450   7.009   1.766
 3709SOL    HW212027   2.366   0.063   1.644
 3710SOL     OW12028   0.607   5.400   5.488
 3710SOL    HW112029   0.630   5.411   5.585
 3710SOL    HW212030   0.510   5.421   5.474
 3711SOL     OW12031   1.405   6.490   5.008
 3711SOL    HW112032   1.480   6.471   5.072
 3711SOL    HW212033   1.433   6.462   4.916
 3712SOL     OW12034   2.387   5.331   6.512
 3712SOL    HW112035   2.346   5.298   6.427
 3712SOL    HW212036   2.412   5.427   6.501
 3713SOL     OW12037   0.102   6.582   5.153
 3713SOL    HW112038   0.019   6.625   5.118
 3713SOL    HW212039   0.091   6.567   5.252
 3714SOL     OW12040   0.844   4.940   6.687
 3714SOL    HW112041   0.791   5.006   6.741
 3714SOL    HW212042   0.782   4.871   6.650
 3715SOL     OW12043   0.418   5.252   2.932
 3715SOL    HW112044   0.438   5.210   3.020
 3715SOL    HW212045   0.386   5.182   2.868
 3716SOL     OW12046   5.807   5.409   4.350
 3716SOL    HW112047   5.817   5.346   4.428
 3716SOL    HW212048   5.894   5.413   4.300
 3717SOL     OW12049   5.314   1.500   0.338
 3717SOL    HW112050   5.392   1.451   0.377
 3717SOL    HW212051   5.266   1.549   0.411
 3718SOL     OW12052   0.931   0.440   0.026
 3718SOL    HW112053   0.958   0.355   6.996
 3718SOL    HW212054   0.870   0.492   6.981
 3719SOL     OW12055   4.462   2.876   6.488
 3719SOL    HW112056   4.526   2.829   6.428
 3719SOL    HW212057   4.426   2.957   6.442
 3720SOL     OW12058   5.382   3.895   0.829
 3720SOL    HW112059   5.379   3.982   0.879
 3720SOL    HW212060   5.336   3.824   0.882
 3721SOL     OW12061   6.687   5.408   6.920
 3721SOL    HW112062   6.591   5.381   6.922
 3721SOL    HW212063   6.741   5.342   6.972
 3722SOL     OW12064   4.851   0.191   1.227
 3722SOL    HW112065   4.929   0.184   1.290
 3722SOL    HW212066   4.789   0.114   1.243
 3723SOL     OW12067   4.460   5.065   0.220
 3723SOL    HW112068   4.541   5.122   0.232
 3723SOL    HW212069   4.487   4.976   0.184
 3724SOL     OW12070   1.743   5.027   5.300
 3724SOL    HW112071   1.729   4.950   5.363
 3724SOL    HW212072   1.701   5.110   5.339
 3725SOL     OW12073   0.430   6.062   6.938
 3725SOL    HW112074   0.460   6.144   6.987
 3725SOL    HW212075   0.347   6.026   6.980
 3726SOL     OW12076   4.946   4.030   5.245
 3726SOL    HW112077   5.002   4.112   5.258
 3726SOL    HW212078   4.926   4.018   5.148
 3727SOL     OW12079   6.758   3.249   4.747
 3727SOL    HW112080   6.724   3.296   4.828
 3727SOL    HW212081   6.749   3.309   4.667
 3728SOL     OW12082   2.786   3.641   0.180
 3728SOL    HW112083   2.879   3.634   0.216
 3728SOL    HW212084   2.724   3.666   0.254
 3729SOL     OW12085   0.732   0.438   4.297
 3729SOL    HW112086   0.743   0.433   4.397
 3729SOL    HW212087   0.748   0.347   4.258
 3730SOL     OW12088   4.173   6.177   5.845
 3730SOL    HW112089   4.192   6.109   5.916
 3730SOL    HW212090   4.099   6.237   5.875
 3731SOL     OW12091   0.653   1.671   0.307
 3731SOL    HW112092   0.598   1.609   0.251
 3731SOL    HW212093   0.667   1.757   0.259
 3732SOL     OW12094   1.487   1.618   0.853
 3732SOL    HW112095   1.474   1.680   0.930
 3732SOL    HW212096   1.547   1.543   0.881
 3733SOL     OW12097   1.788   2.936   3.625
 3733SOL    HW112098   1.736   2.894   3.699
 3733SOL    HW212099   1.736   2.927   3.539
 3734SOL     OW12100   3.878   0.915   1.618
 3734SOL    HW112101   3.927   0.910   1.705
 3734SOL    HW212102   3.780   0.922   1.636
 3735SOL     OW12103   3.973   0.509   2.512
 3735SOL    HW112104   3.878   0.492   2.538
 3735SOL    HW212105   4.029   0.521   2.594
 3736SOL     OW12106   6.543   0.843   1.171
 3736SOL    HW112107   6.624   0.795   1.203
 3736SOL    HW212108   6.474   0.843   1.244
 3737SOL     OW12109   5.963   2.364   3.916
 3737SOL    HW112110   5.972   2.294   3.986
 3737SOL    HW212111   5.927   2.323   3.832
 3738SOL     OW12112   6.390   5.892   0.699
 3738SOL    HW112113   6.297   5.866   0.672
 3738SOL    HW212114   6.454   5.865   0.627
 3739SOL     OW12115   2.964   4.493   1.571
 3739SOL    HW112116   2.877   4.508   1.523
 3739SOL    HW212117   2.947   4.445   1.657
 3740SOL     OW12118   5.957   5.880   0.179
 3740SOL    HW112119   5.952   5.903   0.081
 3740SOL    HW212120   5.865   5.871   0.216
 3741SOL     OW12121   4.799   3.388   6.900
 3741SOL    HW112122   4.859   3.322   6.945
 3741SOL    HW212123   4.776   3.461   6.965
 3742SOL     OW12124   4.896   5.739   0.337
 3742SOL    HW112125   4.844   5.758   0.420
 3742SOL    HW212126   4.903   5.640   0.323
 3743SOL     OW12127   4.717   4.408   1.459
 3743SOL    HW112128   4.661   4.371   1.533
 3743SOL    HW212129   4.672   4.489   1.421
 3744SOL     OW12130   0.856   6.382   2.408
 3744SOL    HW112131   0.862   6.430   2.320
 3744SOL    HW212132   0.858   6.447   2.483
 3745SOL     OW12133   4.826   3.842   2.321
 3745SOL    HW112134   4.782   3.887   2.400
 3745SOL    HW212135   4.827   3.906   2.244
 3746SOL     OW12136   6.946   0.554   3.357
 3746SOL    HW112137   6.913   0.617   3.287
 3746SOL    HW212138   0.016   0.512   3.327
 3747SOL     OW12139   5.197   6.321   5.718
 3747SOL    HW112140   5.123   6.268   5.759
 3747SOL    HW212141   5.217   6.400   5.776
 3748SOL     OW12142   5.926   0.516   2.062
 3748SOL    HW112143   6.015   0.543   2.097
 3748SOL    HW212144   5.911   0.418   2.078
 3749SOL     OW12145   1.691   5.132   3.014
 3749SOL    HW112146   1.762   5.066   2.988
 3749SOL    HW212147   1.712   5.169   3.105
 3750SOL     OW12148   5.630   4.713   0.958
 3750SOL    HW112149   5.552   4.656   0.985
 3750SOL    HW212150   5.669   4.678   0.873
 3751SOL     OW12151   0.254   2.330   0.866
 3751SOL    HW112152   0.300   2.258   0.918
 3751SOL    HW212153   0.160   2.339   0.899
 3752SOL     OW12154   0.447   6.889   0.144
 3752SOL    HW112155   0.402   6.875   0.232
 3752SOL    HW212156   0.534   6.840   0.142
 3753SOL     OW12157   0.399   6.492   5.025
 3753SOL    HW112158   0.433   6.584   5.007
 3753SOL    HW212159   0.300   6.489   5.013
 3754SOL     OW12160   5.232   6.628   1.378
 3754SOL    HW112161   5.244   6.707   1.317
 3754SOL    HW212162   5.136   6.620   1.403
 3755SOL     OW12163   5.430   5.353   4.582
 3755SOL    HW112164   5.390   5.287   4.646
 3755SOL    HW212165   5.502   5.309   4.529
 3756SOL     OW12166   2.023   0.507   6.102
 3756SOL    HW112167   2.072   0.454   6.034
 3756SOL    HW212168   2.061   0.488   6.193
 3757SOL     OW12169   3.231   5.718   5.865
 3757SOL    HW112170   3.220   5.806   5.820
 3757SOL    HW212171   3.238   5.646   5.797
 3758SOL     OW12172   1.699   1.550   4.721
 3758SOL    HW112173   1.623   1.491   4.748
 3758SOL    HW212174   1.769   1.549   4.792
 3759SOL     OW12175   4.632   5.144   5.709
 3759SOL    HW112176   4.647   5.237   5.675
 3759SOL    HW212177   4.695   5.081   5.665
 3760SOL     OW12178   1.510   4.043   3.857
 3760SOL    HW112179   1.608   4.046   3.876
 3760SOL    HW212180   1.487   4.116   3.793
 3761SOL     OW12181   0.763   6.757   4.888
 3761SOL    HW112182   0.759   6.834   4.825
 3761SOL    HW212183   0.677   6.706   4.885
 3762SOL     OW12184   0.961   4.694   6.822
 3762SOL    HW112185   1.025   4.640   6.767
 3762SOL    HW212186   0.978   4.792   6.808
 3763SOL     OW12187   0.072   4.664   0.146
 3763SOL    HW112188   0.020   4.721   0.082
 3763SOL    HW212189   0.009   4.611   0.202
 3764SOL     OW12190   1.763   0.954   4.754
 3764SOL    HW112191   1.735   0.926   4.663
 3764SOL    HW212192   1.821   1.035   4.747
 3765SOL     OW12193   4.945   0.902   2.022
 3765SOL    HW112194   4.997   0.933   1.943
 3765SOL    HW212195   5.008   0.867   2.092
 3766SOL     OW12196   0.634   0.654   4.500
 3766SOL    HW112197   0.618   0.669   4.402
 3766SOL    HW212198   0.627   0.556   4.520
 3767SOL     OW12199   2.403   4.829   0.235
 3767SOL    HW112200   2.455   4.767   0.176
 3767SOL    HW212201   2.461   4.856   0.313
 3768SOL     OW12202   3.272   5.921   6.143
 3768SOL    HW112203   3.283   5.823   6.162
 3768SOL    HW212204   3.176   5.940   6.122
 3769SOL     OW12205   5.657   5.905   5.160
 3769SOL    HW112206   5.656   6.003   5.180
 3769SOL    HW212207   5.750   5.874   5.144
 3770SOL     OW12208   1.894   0.129   6.788
 3770SOL    HW112209   1.933   0.050   6.741
 3770SOL    HW212210   1.799   0.142   6.758
 3771SOL     OW12211   5.216   1.700   0.516
 3771SOL    HW112212   5.254   1.620   0.561
 3771SOL    HW212213   5.220   1.778   0.578
 3772SOL     OW12214   6.199   1.498   0.792
 3772SOL    HW112215   6.121   1.543   0.749
 3772SOL    HW212216   6.213   1.535   0.884
 3773SOL     OW12217   5.475   2.916   6.087
 3773SOL    HW112218   5.504   2.952   5.998
 3773SOL    HW212219   5.376   2.923   6.096
 3774SOL     OW12220   1.144   6.800   6.882
 3774SOL    HW112221   1.214   6.864   6.848
 3774SOL    HW212222   1.185   6.711   6.899
 3775SOL     OW12223   5.411   3.827   2.167
 3775SOL    HW112224   5.473   3.905   2.166
 3775SOL    HW212225   5.324   3.853   2.125
 3776SOL     OW12226   3.118   1.271   1.434
 3776SOL    HW112227   3.051   1.262   1.361
 3776SOL    HW212228   3.144   1.368   1.443
 3777SOL     OW12229   2.614   4.723   4.530
 3777SOL    HW112230   2.589   4.760   4.619
 3777SOL    HW212231   2.713   4.707   4.527
 3778SOL     OW12232   2.245   6.043   2.859
 3778SOL    HW112233   2.270   6.022   2.764
 3778SOL    HW212234   2.157   6.002   2.880
 3779SOL     OW12235   2.876   5.011   6.968
 3779SOL    HW112236   2.866   4.920   7.008
 3779SOL    HW212237   2.790   5.039   6.926
 3780SOL     OW12238   3.634   5.192   5.014
 3780SOL    HW112239   3.655   5.098   4.985
 3780SOL    HW212240   3.634   5.196   5.114
 3781SOL     OW12241   1.736   6.834   4.221
 3781SOL    HW112242   1.690   6.749   4.247
 3781SOL    HW212243   1.803   6.815   4.149
 3782SOL     OW12244   2.608   2.220   4.271
 3782SOL    HW112245   2.670   2.159   4.320
 3782SOL    HW212246   2.661   2.279   4.210
 3783SOL     OW12247   6.507   6.481   4.951
 3783SOL    HW112248   6.593   6.501   4.904
 3783SOL    HW212249   6.474   6.390   4.926
 3784SOL     OW12250   4.584   1.584   3.138
 3784SOL    HW112251   4.623   1.497   3.107
 3784SOL    HW212252   4.486   1.586   3.117
 3785SOL     OW12253   2.354   1.229   6.737
 3785SOL    HW112254   2.278   1.169   6.763
 3785SOL    HW212255   2.334   1.323   6.764
 3786SOL     OW12256   2.974   5.866   3.353
 3786SOL    HW112257   3.028   5.863   3.268
 3786SOL    HW212258   2.896   5.926   3.340
 3787SOL     OW12259   5.554   6.289   3.674
 3787SOL    HW112260   5.502   6.268   3.592
 3787SOL    HW212261   5.634   6.229   3.680
 3788SOL     OW12262   6.844   3.097   3.451
 3788SOL    HW112263   6.810   3.074   3.542
 3788SOL    HW212264   6.822   3.023   3.388
 3789SOL     OW12265   1.805   4.263   3.773
 3789SOL    HW112266   1.902   4.280   3.753
 3789SOL    HW212267   1.773   4.328   3.842
 3790SOL     OW12268   1.773   3.701   5.095
 3790SOL    HW112269   1.710   3.626   5.116
 3790SOL    HW212270   1.721   3.786   5.085
 3791SOL     OW12271   6.032   0.057   1.062
 3791SOL    HW112272   5.989   6.982   1.071
 3791SOL    HW212273   6.058   0.073   0.967
 3792SOL     OW12274   6.718   0.624   4.664
 3792SOL    HW112275   6.641   0.634   4.600
 3792SOL    HW212276   6.722   0.530   4.697
 3793SOL     OW12277   2.436   0.346   2.987
 3793SOL    HW112278   2.378   0.393   3.054
 3793SOL    HW212279   2.395   0.354   2.896
 3794SOL     OW12280   3.671   5.166   1.676
 3794SOL    HW112281   3.701   5.119   1.594
 3794SOL    HW212282   3.618   5.104   1.733
 3795SOL     OW12283   4.134   6.522   6.861
 3795SOL    HW112284   4.050   6.576   6.856
 3795SOL    HW212285   4.162   6.513   6.957
 3796SOL     OW12286   1.967   2.366   1.638
 3796SOL    HW112287   1.896   2.432   1.662
 3796SOL    HW212288   2.020   2.343   1.720
 3797SOL     OW12289   6.727   5.302   2.689
 3797SOL    HW112290   6.741   5.396   2.720
 3797SOL    HW212291   6.807   5.247   2.712
 3798SOL     OW12292   2.614   5.053   3.573
 3798SOL    HW112293   2.655   5.007   3.494
 3798SOL    HW212294   2.624   5.152   3.562
 3799SOL     OW12295   0.684   2.367   4.468
 3799SOL    HW112296   0.693   2.273   4.434
 3799SOL    HW212297   0.627   2.420   4.405
 3800SOL     OW12298   5.104   2.346   4.912
 3800SOL    HW112299   5.093   2.342   5.011
 3800SOL    HW212300   5.043   2.279   4.869
 3801SOL     OW12301   6.888   5.919   5.014
 3801SOL    HW112302   6.896   6.002   4.958
 3801SOL    HW212303   6.910   5.839   4.959
 3802SOL     OW12304   0.749   1.600   4.670
 3802SOL    HW112305   0.774   1.695   4.686
 3802SOL    HW212306   0.652   1.594   4.648
 3803SOL     OW12307   3.426   1.494   1.900
 3803SOL    HW112308   3.474   1.481   1.813
 3803SOL    HW212309   3.349   1.430   1.906
 3804SOL     OW12310   5.148   2.405   4.400
 3804SOL    HW112311   5.068   2.356   4.367
 3804SOL    HW212312   5.148   2.498   4.363
 3805SOL     OW12313   2.874   3.847   1.691
 3805SOL    HW112314   2.918   3.929   1.726
 3805SOL    HW212315   2.919   3.766   1.727
 3806SOL     OW12316   2.459   2.835   6.912
 3806SOL    HW112317   2.557   2.821   6.905
 3806SOL    HW212318   2.436   2.872   7.002
 3807SOL     OW12319   2.305   1.669   4.764
 3807SOL    HW112320   2.388   1.612   4.765
 3807SOL    HW212321   2.256   1.654   4.678
 3808SOL     OW12322   3.000   0.874   1.935
 3808SOL    HW112323   3.017   0.790   1.884
 3808SOL    HW212324   3.086   0.919   1.957
 3809SOL     OW12325   5.892   1.892   6.989
 3809SOL    HW112326   5.986   1.915   7.014
 3809SOL    HW212327   5.893   1.819   6.920
 3810SOL     OW12328   3.968   2.718   5.581
 3810SOL    HW112329   3.952   2.817   5.589
 3810SOL    HW212330   3.881   2.669   5.588
 3811SOL     OW12331   1.177   4.260   4.559
 3811SOL    HW112332   1.277   4.256   4.569
 3811SOL    HW212333   1.154   4.253   4.462
 3812SOL     OW12334   5.589   1.772   5.604
 3812SOL    HW112335   5.593   1.762   5.704
 3812SOL    HW212336   5.629   1.692   5.561
 3813SOL     OW12337   4.377   4.484   1.257
 3813SOL    HW112338   4.447   4.552   1.280
 3813SOL    HW212339   4.416   4.392   1.264
 3814SOL     OW12340   0.263   6.275   1.011
 3814SOL    HW112341   0.217   6.363   0.995
 3814SOL    HW212342   0.288   6.234   0.923
 3815SOL     OW12343   4.443   1.998   0.715
 3815SOL    HW112344   4.523   2.057   0.727
 3815SOL    HW212345   4.389   2.031   0.638
 3816SOL     OW12346   0.301   6.781   1.448
 3816SOL    HW112347   0.202   6.791   1.441
 3816SOL    HW212348   0.331   6.809   1.539
 3817SOL     OW12349   4.733   2.887   3.940
 3817SOL    HW112350   4.828   2.859   3.929
 3817SOL    HW212351   4.718   2.973   3.891
 3818SOL     OW12352   4.704   6.651   1.505
 3818SOL    HW112353   4.702   6.685   1.600
 3818SOL    HW212354   4.666   6.558   1.503
 3819SOL     OW12355   5.349   4.652   0.925
 3819SOL    HW112356   5.304   4.585   0.984
 3819SOL    HW212357   5.353   4.617   0.832
 3820SOL     OW12358   6.150   6.688   3.791
 3820SOL    HW112359   6.145   6.745   3.709
 3820SOL    HW212360   6.221   6.618   3.779
 3821SOL     OW12361   1.712   3.296   2.065
 3821SOL    HW112362   1.697   3.307   1.967
 3821SOL    HW212363   1.636   3.243   2.105
 3822SOL     OW12364   1.106   5.504   2.146
 3822SOL    HW112365   1.074   5.552   2.065
 3822SOL    HW212366   1.165   5.428   2.119
 3823SOL     OW12367   4.013   2.196   5.160
 3823SOL    HW112368   4.095   2.247   5.135
 3823SOL    HW212369   4.024   2.157   5.252
 3824SOL     OW12370   5.995   1.752   5.663
 3824SOL    HW112371   5.937   1.687   5.713
 3824SOL    HW212372   5.945   1.837   5.650
 3825SOL     OW12373   0.225   0.290   0.171
 3825SOL    HW112374   0.146   0.248   0.216
 3825SOL    HW212375   0.200   0.379   0.134
 3826SOL     OW12376   0.353   3.687   6.917
 3826SOL    HW112377   0.360   3.600   6.868
 3826SOL    HW212378   0.424   3.693   6.987
 3827SOL     OW12379   3.618   3.706   1.120
 3827SOL    HW112380   3.611   3.674   1.025
 3827SOL    HW212381   3.562   3.648   1.179
 3828SOL     OW12382   4.570   2.525   1.038
 3828SOL    HW112383   4.527   2.616   1.040
 3828SOL    HW212384   4.667   2.534   1.061
 3829SOL     OW12385   2.235   4.943   4.049
 3829SOL    HW112386   2.230   5.017   3.982
 3829SOL    HW212387   2.330   4.914   4.060
 3830SOL     OW12388   0.930   0.150   5.311
 3830SOL    HW112389   0.992   0.197   5.374
 3830SOL    HW212390   0.854   0.211   5.287
 3831SOL     OW12391   4.644   1.807   2.455
 3831SOL    HW112392   4.697   1.726   2.431
 3831SOL    HW212393   4.658   1.877   2.385
 3832SOL     OW12394   6.472   0.495   2.328
 3832SOL    HW112395   6.462   0.532   2.420
 3832SOL    HW212396   6.475   0.570   2.261
 3833SOL     OW12397   1.023   5.503   6.628
 3833SOL    HW112398   1.022   5.435   6.554
 3833SOL    HW212399   1.117   5.535   6.642
 3834SOL     OW12400   3.097   2.190   0.027
 3834SOL    HW112401   3.020   2.165   0.085
 3834SOL    HW212402   3.092   2.140   6.956
 3835SOL     OW12403   3.329   5.173   5.497
 3835SOL    HW112404   3.402   5.106   5.512
 3835SOL    HW212405   3.269   5.175   5.578
 3836SOL     OW12406   2.037   3.227   5.176
 3836SOL    HW112407   1.964   3.235   5.107
 3836SOL    HW212408   2.081   3.138   5.167
 3837SOL     OW12409   4.751   3.525   0.532
 3837SOL    HW112410   4.662   3.571   0.521
 3837SOL    HW212411   4.808   3.578   0.595
 3838SOL     OW12412   5.451   3.556   4.758
 3838SOL    HW112413   5.449   3.520   4.665
 3838SOL    HW212414   5.456   3.480   4.823
 3839SOL     OW12415   4.746   0.136   4.912
 3839SOL    HW112416   4.790   0.156   4.999
 3839SOL    HW212417   4.660   0.087   4.928
 3840SOL     OW12418   0.896   0.727   5.487
 3840SOL    HW112419   0.850   0.798   5.434
 3840SOL    HW212420   0.891   0.640   5.438
 3841SOL     OW12421   0.226   3.979   5.172
 3841SOL    HW112422   0.273   3.946   5.090
 3841SOL    HW212423   0.254   3.923   5.250
 3842SOL     OW12424   1.119   5.571   0.250
 3842SOL    HW112425   1.036   5.610   0.289
 3842SOL    HW212426   1.110   5.471   0.247
 3843SOL     OW12427   0.052   3.280   0.936
 3843SOL    HW112428   0.013   3.259   0.847
 3843SOL    HW212429   7.001   3.258   1.008
 3844SOL     OW12430   1.220   5.235   5.656
 3844SOL    HW112431   1.157   5.259   5.730
 3844SOL    HW212432   1.313   5.229   5.692
 3845SOL     OW12433   3.310   2.875   2.613
 3845SOL    HW112434   3.255   2.907   2.689
 3845SOL    HW212435   3.264   2.897   2.527
 3846SOL     OW12436   0.194   5.052   4.172
 3846SOL    HW112437   0.245   5.098   4.100
 3846SOL    HW212438   0.173   4.958   4.143
 3847SOL     OW12439   6.106   0.767   6.289
 3847SOL    HW112440   6.160   0.743   6.370
 3847SOL    HW212441   6.146   0.724   6.208
 3848SOL     OW12442   1.973   5.644   3.026
 3848SOL    HW112443   1.999   5.581   2.953
 3848SOL    HW212444   1.919   5.595   3.095
 3849SOL     OW12445   0.459   1.480   5.659
 3849SOL    HW112446   0.365   1.492   5.627
 3849SOL    HW212447   0.467   1.517   5.752
 3850SOL     OW12448   2.629   3.410   1.781
 3850SOL    HW112449   2.640   3.436   1.685
 3850SOL    HW212450   2.535   3.428   1.809
 3851SOL     OW12451   2.120   4.246   2.708
 3851SOL    HW112452   2.210   4.264   2.747
 3851SOL    HW212453   2.054   4.312   2.744
 3852SOL     OW12454   4.243   6.714   5.004
 3852SOL    HW112455   4.321   6.710   4.941
 3852SOL    HW212456   4.158   6.699   4.953
 3853SOL     OW12457   0.929   3.283   2.396
 3853SOL    HW112458   0.889   3.192   2.391
 3853SOL    HW212459   0.949   3.307   2.491
 3854SOL     OW12460   1.132   3.197   3.237
 3854SOL    HW112461   1.172   3.214   3.147
 3854SOL    HW212462   1.192   3.234   3.307
 3855SOL     OW12463   6.042   4.624   6.402
 3855SOL    HW112464   6.126   4.632   6.350
 3855SOL    HW212465   5.969   4.675   6.356
 3856SOL     OW12466   0.038   0.392   5.901
 3856SOL    HW112467   0.134   0.421   5.895
 3856SOL    HW212468   0.016   0.336   5.821
 3857SOL     OW12469   1.524   6.950   5.042
 3857SOL    HW112470   1.623   6.958   5.054
 3857SOL    HW212471   1.479   0.012   5.087
 3858SOL     OW12472   1.152   6.069   6.074
 3858SOL    HW112473   1.245   6.040   6.094
 3858SOL    HW212474   1.137   6.070   5.975
 3859SOL     OW12475   6.738   2.499   3.937
 3859SOL    HW112476   6.679   2.444   3.877
 3859SOL    HW212477   6.683   2.537   4.011
 3860SOL     OW12478   2.561   5.894   4.540
 3860SOL    HW112479   2.621   5.954   4.594
 3860SOL    HW212480   2.471   5.890   4.582
 3861SOL     OW12481   5.648   4.852   1.382
 3861SOL    HW112482   5.675   4.945   1.355
 3861SOL    HW212483   5.583   4.858   1.458
 3862SOL     OW12484   6.962   0.209   6.507
 3862SOL    HW112485   0.030   0.158   6.530
 3862SOL    HW212486   6.968   0.240   6.412
 3863SOL     OW12487   3.326   3.508   7.012
 3863SOL    HW112488   3.405   3.561   0.029
 3863SOL    HW212489   3.275   3.562   6.946
 3864SOL     OW12490   4.479   1.891   6.388
 3864SOL    HW112491   4.421   1.825   6.341
 3864SOL    HW212492   4.496   1.860   6.481
 3865SOL     OW12493   3.697   0.508   2.165
 3865SOL    HW112494   3.599   0.513   2.148
 3865SOL    HW212495   3.716   0.435   2.231
 3866SOL     OW12496   4.158   0.646   0.390
 3866SOL    HW112497   4.164   0.683   0.483
 3866SOL    HW212498   4.183   0.549   0.391
 3867SOL     OW12499   2.048   3.787   3.481
 3867SOL    HW112500   2.088   3.700   3.509
 3867SOL    HW212501   2.025   3.784   3.383
 3868SOL     OW12502   2.083   6.064   1.755
 3868SOL    HW112503   2.115   6.064   1.850
 3868SOL    HW212504   1.984   6.078   1.754
 3869SOL     OW12505   0.037   2.426   3.800
 3869SOL    HW112506   7.003   2.512   3.789
 3869SOL    HW212507   0.105   2.416   3.727
 3870SOL     OW12508   3.139   5.137   6.494
 3870SOL    HW112509   3.163   5.042   6.473
 3870SOL    HW212510   3.068   5.168   6.430
 3871SOL     OW12511   3.118   6.889   3.008
 3871SOL    HW112512   3.178   6.968   2.997
 3871SOL    HW212513   3.162   6.808   2.969
 3872SOL     OW12514   3.524   3.415   1.284
 3872SOL    HW112515   3.527   3.462   1.372
 3872SOL    HW212516   3.447   3.450   1.230
 3873SOL     OW12517   5.176   5.252   1.282
 3873SOL    HW112518   5.096   5.307   1.307
 3873SOL    HW212519   5.157   5.202   1.198
 3874SOL     OW12520   4.502   6.465   6.994
 3874SOL    HW112521   4.595   6.489   0.007
 3874SOL    HW212522   4.499   6.369   6.966
 3875SOL     OW12523   1.565   3.858   2.519
 3875SOL    HW112524   1.539   3.934   2.579
 3875SOL    HW212525   1.497   3.847   2.447
 3876SOL     OW12526   5.717   4.712   5.606
 3876SOL    HW112527   5.758   4.621   5.616
 3876SOL    HW212528   5.789   4.778   5.583
 3877SOL     OW12529   5.711   1.042   1.511
 3877SOL    HW112530   5.648   1.119   1.504
 3877SOL    HW212531   5.662   0.957   1.490
 3878SOL     OW12532   3.638   6.756   6.290
 3878SOL    HW112533   3.631   6.856   6.282
 3878SOL    HW212534   3.724   6.732   6.336
 3879SOL     OW12535   4.538   5.219   1.199
 3879SOL    HW112536   4.534   5.120   1.185
 3879SOL    HW212537   4.554   5.265   1.111
 3880SOL     OW12538   6.009   3.883   2.425
 3880SOL    HW112539   5.930   3.880   2.487
 3880SOL    HW212540   6.069   3.806   2.444
 3881SOL     OW12541   1.667   5.021   0.836
 3881SOL    HW112542   1.732   4.946   0.821
 3881SOL    HW212543   1.713   5.095   0.887
 3882SOL     OW12544   6.283   1.192   6.149
 3882SOL    HW112545   6.377   1.191   6.114
 3882SOL    HW212546   6.231   1.118   6.105
 3883SOL     OW12547   4.797   1.275   3.711
 3883SOL    HW112548   4.795   1.367   3.671
 3883SOL    HW212549   4.705   1.236   3.708
 3884SOL     OW12550   1.658   6.160   5.087
 3884SOL    HW112551   1.651   6.205   4.998
 3884SOL    HW212552   1.749   6.175   5.125
 3885SOL     OW12553   0.161   1.066   4.106
 3885SOL    HW112554   0.087   1.132   4.120
 3885SOL    HW212555   0.128   0.989   4.051
 3886SOL     OW12556   0.113   0.369   5.441
 3886SOL    HW112557   0.099   0.448   5.380
 3886SOL    HW212558   0.077   0.287   5.398
 3887SOL     OW12559   3.819   1.867   5.363
 3887SOL    HW112560   3.777   1.781   5.392
 3887SOL    HW212561   3.748   1.932   5.337
 3888SOL     OW12562   6.445   1.690   0.734
 3888SOL    HW112563   6.411   1.654   0.647
 3888SOL    HW212564   6.369   1.695   0.800
 3889SOL     OW12565   0.792   5.524   6.328
 3889SOL    HW112566   0.806   5.455   6.257
 3889SOL    HW212567   0.701   5.512   6.368
 3890SOL     OW12568   5.344   5.404   3.199
 3890SOL    HW112569   5.288   5.357   3.130
 3890SOL    HW212570   5.408   5.466   3.153
 3891SOL     OW12571   4.952   5.977   4.700
 3891SOL    HW112572   4.898   6.060   4.710
 3891SOL    HW212573   5.008   5.963   4.781
 3892SOL     OW12574   6.031   6.692   2.966
 3892SOL    HW112575   6.088   6.678   2.885
 3892SOL    HW212576   5.945   6.736   2.938
 3893SOL     OW12577   3.284   5.603   3.921
 3893SOL    HW112578   3.302   5.582   4.017
 3893SOL    HW212579   3.236   5.690   3.913
 3894SOL     OW12580   4.634   3.279   0.527
 3894SOL    HW112581   4.708   3.233   0.478
 3894SOL    HW212582   4.660   3.375   0.544
 3895SOL     OW12583   1.182   0.747   5.592
 3895SOL    HW112584   1.210   0.823   5.650
 3895SOL    HW212585   1.083   0.733   5.602
 3896SOL     OW12586   6.976   2.486   5.466
 3896SOL    HW112587   6.923   2.533   5.536
 3896SOL    HW212588   6.978   2.388   5.486
 3897SOL     OW12589   3.186   6.634   2.219
 3897SOL    HW112590   3.150   6.645   2.127
 3897SOL    HW212591   3.276   6.590   2.214
 3898SOL     OW12592   4.141   3.315   4.297
 3898SOL    HW112593   4.166   3.318   4.200
 3898SOL    HW212594   4.127   3.220   4.324
 3899SOL     OW12595   4.806   1.231   5.767
 3899SOL    HW112596   4.862   1.275   5.837
 3899SOL    HW212597   4.712   1.221   5.800
 3900SOL     OW12598   6.557   2.193   3.328
 3900SOL    HW112599   6.651   2.219   3.309
 3900SOL    HW212600   6.500   2.275   3.335
 3901SOL     OW12601   1.145   6.400   4.960
 3901SOL    HW112602   1.232   6.444   4.985
 3901SOL    HW212603   1.159   6.342   4.880
 3902SOL     OW12604   5.003   5.089   1.548
 3902SOL    HW112605   5.087   5.049   1.511
 3902SOL    HW212606   5.026   5.170   1.602
 3903SOL     OW12607   4.485   2.876   0.481
 3903SOL    HW112608   4.580   2.847   0.494
 3903SOL    HW212609   4.429   2.840   0.555
 3904SOL     OW12610   1.016   6.861   0.731
 3904SOL    HW112611   0.950   6.915   0.785
 3904SOL    HW212612   1.048   6.784   0.786
 3905SOL     OW12613   6.787   0.097   5.826
 3905SOL    HW112614   6.739   0.018   5.787
 3905SOL    HW212615   6.770   0.101   5.925
 3906SOL     OW12616   1.874   5.118   4.218
 3906SOL    HW112617   1.910   5.205   4.185
 3906SOL    HW212618   1.865   5.120   4.318
 3907SOL     OW12619   0.132   1.361   4.435
 3907SOL    HW112620   0.214   1.363   4.378
 3907SOL    HW212621   0.054   1.393   4.383
 3908SOL     OW12622   0.973   0.757   4.946
 3908SOL    HW112623   0.972   0.726   5.041
 3908SOL    HW212624   0.885   0.734   4.903
 3909SOL     OW12625   5.301   3.053   5.832
 3909SOL    HW112626   5.271   3.135   5.785
 3909SOL    HW212627   5.239   3.033   5.908
 3910SOL     OW12628   3.246   2.517   0.699
 3910SOL    HW112629   3.200   2.523   0.610
 3910SOL    HW212630   3.228   2.600   0.752
 3911SOL     OW12631   6.038   1.536   1.474
 3911SOL    HW112632   5.950   1.513   1.433
 3911SOL    HW212633   6.037   1.514   1.571
 3912SOL     OW12634   4.167   2.036   0.208
 3912SOL    HW112635   4.229   1.959   0.195
 3912SOL    HW212636   4.218   2.122   0.204
 3913SOL     OW12637   4.558   5.702   0.542
 3913SOL    HW112638   4.604   5.777   0.591
 3913SOL    HW212639   4.465   5.729   0.520
 3914SOL     OW12640   5.729   0.505   0.724
 3914SOL    HW112641   5.653   0.488   0.661
 3914SOL    HW212642   5.815   0.504   0.672
 3915SOL     OW12643   5.031   5.183   0.116
 3915SOL    HW112644   5.000   5.088   0.117
 3915SOL    HW212645   5.045   5.214   0.210
 3916SOL     OW12646   1.938   0.749   2.733
 3916SOL    HW112647   1.971   0.792   2.649
 3916SOL    HW212648   1.846   0.782   2.754
 3917SOL     OW12649   2.944   4.786   0.483
 3917SOL    HW112650   2.902   4.705   0.523
 3917SOL    HW212651   3.040   4.767   0.463
 3918SOL     OW12652   5.422   6.987   0.591
 3918SOL    HW112653   5.370   0.037   0.647
 3918SOL    HW212654   5.465   6.919   0.651
 3919SOL     OW12655   3.850   0.521   1.289
 3919SOL    HW112656   3.899   0.597   1.330
 3919SOL    HW212657   3.758   0.550   1.263
 3920SOL     OW12658   3.322   0.863   5.761
 3920SOL    HW112659   3.414   0.901   5.774
 3920SOL    HW212660   3.311   0.833   5.667
 3921SOL     OW12661   0.740   2.560   6.040
 3921SOL    HW112662   0.757   2.655   6.064
 3921SOL    HW212663   0.745   2.550   5.940
 3922SOL     OW12664   4.078   5.125   2.143
 3922SOL    HW112665   4.170   5.150   2.114
 3922SOL    HW212666   4.015   5.134   2.067
 3923SOL     OW12667   4.827   0.735   1.826
 3923SOL    HW112668   4.829   0.784   1.740
 3923SOL    HW212669   4.850   0.797   1.901
 3924SOL     OW12670   6.215   4.470   4.626
 3924SOL    HW112671   6.266   4.556   4.628
 3924SOL    HW212672   6.117   4.490   4.625
 3925SOL     OW12673   4.528   3.798   0.820
 3925SOL    HW112674   4.546   3.754   0.908
 3925SOL    HW212675   4.507   3.728   0.751
 3926SOL     OW12676   0.344   0.235   5.298
 3926SOL    HW112677   0.424   0.295   5.308
 3926SOL    HW212678   0.266   0.276   5.345
 3927SOL     OW12679   6.771   2.534   5.067
 3927SOL    HW112680   6.824   2.601   5.118
 3927SOL    HW212681   6.735   2.576   4.983
 3928SOL     OW12682   2.239   6.344   2.844
 3928SOL    HW112683   2.232   6.245   2.855
 3928SOL    HW212684   2.277   6.385   2.926
 3929SOL     OW12685   0.360   1.843   4.944
 3929SOL    HW112686   0.389   1.800   4.858
 3929SOL    HW212687   0.431   1.907   4.974
 3930SOL     OW12688   1.399   3.363   3.745
 3930SOL    HW112689   1.307   3.338   3.775
 3930SOL    HW212690   1.396   3.449   3.694
 3931SOL     OW12691   1.273   2.458   1.586
 3931SOL    HW112692   1.257   2.556   1.578
 3931SOL    HW212693   1.218   2.420   1.660
 3932SOL     OW12694   1.284   5.833   4.265
 3932SOL    HW112695   1.295   5.763   4.195
 3932SOL    HW212696   1.360   5.898   4.260
 3933SOL     OW12697   1.851   5.160   0.559
 3933SOL    HW112698   1.835   5.068   0.526
 3933SOL    HW212699   1.921   5.159   0.630
 3934SOL     OW12700   0.692   1.689   2.003
 3934SOL    HW112701   0.727   1.624   1.936
 3934SOL    HW212702   0.672   1.642   2.089
 3935SOL     OW12703   6.374   3.343   7.004
 3935SOL    HW112704   6.336   3.366   6.914
 3935SOL    HW212705   6.384   3.244   7.011
 3936SOL     OW12706   0.288   5.158   5.443
 3936SOL    HW112707   0.282   5.231   5.375
 3936SOL    HW212708   0.319   5.074   5.399
 3937SOL     OW12709   7.000   6.934   2.453
 3937SOL    HW112710   6.941   6.860   2.487
 3937SOL    HW212711   0.062   6.946   2.516
 3938SOL     OW12712   0.019   4.037   2.989
 3938SOL    HW112713   7.003   3.949   2.952
 3938SOL    HW212714   6.977   4.110   2.953
 3939SOL     OW12715   0.578   1.168   2.458
 3939SOL    HW112716   0.555   1.182   2.362
 3939SOL    HW212717   0.666   1.211   2.478
 3940SOL     OW12718   3.332   4.638   1.225
 3940SOL    HW112719   3.335   4.674   1.318
 3940SOL    HW212720   3.381   4.551   1.220
 3941SOL     OW12721   6.020   6.330   4.344
 3941SOL    HW112722   5.962   6.323   4.426
 3941SOL    HW212723   6.033   6.240   4.304
 3942SOL     OW12724   0.715   5.922   6.557
 3942SOL    HW112725   0.773   5.877   6.489
 3942SOL    HW212726   0.709   5.866   6.639
 3943SOL     OW12727   1.363   3.122   0.639
 3943SOL    HW112728   1.268   3.109   0.610
 3943SOL    HW212729   1.368   3.119   0.739
 3944SOL     OW12730   6.358   1.717   6.418
 3944SOL    HW112731   6.293   1.643   6.403
 3944SOL    HW212732   6.332   1.769   6.499
 3945SOL     OW12733   6.973   1.164   2.927
 3945SOL    HW112734   0.021   1.203   2.859
 3945SOL    HW212735   6.902   1.231   2.948
 3946SOL     OW12736   1.164   3.068   0.430
 3946SOL    HW112737   1.098   2.993   0.427
 3946SOL    HW212738   1.231   3.056   0.357
 3947SOL     OW12739   6.147   5.401   1.166
 3947SOL    HW112740   6.084   5.400   1.088
 3947SOL    HW212741   6.197   5.314   1.169
 3948SOL     OW12742   1.708   2.495   5.710
 3948SOL    HW112743   1.778   2.493   5.639
 3948SOL    HW212744   1.737   2.437   5.787
 3949SOL     OW12745   6.181   6.170   2.426
 3949SOL    HW112746   6.170   6.266   2.402
 3949SOL    HW212747   6.152   6.155   2.521
 3950SOL     OW12748   3.282   4.261   1.233
 3950SOL    HW112749   3.198   4.298   1.274
 3950SOL    HW212750   3.362   4.303   1.276
 3951SOL     OW12751   0.554   1.559   5.178
 3951SOL    HW112752   0.629   1.615   5.141
 3951SOL    HW212753   0.507   1.610   5.250
 3952SOL     OW12754   6.713   3.715   5.735
 3952SOL    HW112755   6.703   3.748   5.641
 3952SOL    HW212756   6.639   3.751   5.792
 3953SOL     OW12757   3.479   4.383   5.989
 3953SOL    HW112758   3.391   4.394   5.943
 3953SOL    HW212759   3.540   4.327   5.933
 3954SOL     OW12760   1.085   3.937   5.426
 3954SOL    HW112761   1.091   4.031   5.392
 3954SOL    HW212762   1.026   3.883   5.366
 3955SOL     OW12763   5.492   4.925   0.216
 3955SOL    HW112764   5.556   5.002   0.218
 3955SOL    HW212765   5.415   4.947   0.157
 3956SOL     OW12766   0.438   3.145   5.977
 3956SOL    HW112767   0.491   3.160   5.894
 3956SOL    HW212768   0.478   3.070   6.029
 3957SOL     OW12769   1.882   0.163   3.946
 3957SOL    HW112770   1.979   0.146   3.930
 3957SOL    HW212771   1.860   0.258   3.921
 3958SOL     OW12772   5.871   6.485   5.472
 3958SOL    HW112773   5.783   6.445   5.449
 3958SOL    HW212774   5.901   6.452   5.562
 3959SOL     OW12775   3.105   4.977   0.132
 3959SOL    HW112776   3.038   4.979   0.058
 3959SOL    HW212777   3.187   5.027   0.104
 3960SOL     OW12778   3.836   3.199   0.178
 3960SOL    HW112779   3.934   3.216   0.183
 3960SOL    HW212780   3.816   3.109   0.216
 3961SOL     OW12781   4.621   0.446   1.249
 3961SOL    HW112782   4.578   0.379   1.309
 3961SOL    HW212783   4.716   0.461   1.279
 3962SOL     OW12784   0.670   0.228   6.561
 3962SOL    HW112785   0.618   0.174   6.627
 3962SOL    HW212786   0.662   0.325   6.584
 3963SOL     OW12787   4.436   5.617   3.638
 3963SOL    HW112788   4.467   5.561   3.715
 3963SOL    HW212789   4.344   5.653   3.658
 3964SOL     OW12790   4.988   5.876   5.406
 3964SOL    HW112791   4.997   5.870   5.307
 3964SOL    HW212792   4.907   5.825   5.436
 3965SOL     OW12793   3.003   3.270   0.251
 3965SOL    HW112794   3.079   3.206   0.239
 3965SOL    HW212795   2.993   3.292   0.348
 3966SOL     OW12796   6.210   4.161   5.028
 3966SOL    HW112797   6.167   4.232   4.972
 3966SOL    HW212798   6.308   4.179   5.035
 3967SOL     OW12799   0.515   5.902   6.069
 3967SOL    HW112800   0.467   5.876   6.152
 3967SOL    HW212801   0.456   5.887   5.990
 3968SOL     OW12802   5.790   1.149   1.927
 3968SOL    HW112803   5.820   1.057   1.903
 3968SOL    HW212804   5.701   1.166   1.886
 3969SOL     OW12805   0.545   5.190   2.530
 3969SOL    HW112806   0.486   5.254   2.480
 3969SOL    HW212807   0.640   5.219   2.522
 3970SOL     OW12808   5.212   4.612   2.636
 3970SOL    HW112809   5.281   4.651   2.698
 3970SOL    HW212810   5.122   4.645   2.662
 3971SOL     OW12811   1.329   5.923   2.985
 3971SOL    HW112812   1.350   5.832   2.948
 3971SOL    HW212813   1.321   5.988   2.910
 3972SOL     OW12814   0.453   7.004   0.458
 3972SOL    HW112815   0.536   6.960   0.426
 3972SOL    HW212816   0.437   0.072   0.406
 3973SOL     OW12817   3.109   3.908   4.569
 3973SOL    HW112818   3.108   3.990   4.512
 3973SOL    HW212819   3.203   3.885   4.593
 3974SOL     OW12820   5.970   1.182   6.341
 3974SOL    HW112821   5.950   1.180   6.440
 3974SOL    HW212822   5.921   1.259   6.299
 3975SOL     OW12823   6.736   0.925   5.901
 3975SOL    HW112824   6.648   0.879   5.888
 3975SOL    HW212825   6.804   0.887   5.838
 3976SOL     OW12826   1.212   3.412   0.366
 3976SOL    HW112827   1.195   3.375   0.457
 3976SOL    HW212828   1.125   3.440   0.325
 3977SOL     OW12829   3.274   6.229   6.370
 3977SOL    HW112830   3.372   6.224   6.388
 3977SOL    HW212831   3.231   6.142   6.397
 3978SOL     OW12832   6.349   2.702   6.285
 3978SOL    HW112833   6.319   2.772   6.221
 3978SOL    HW212834   6.439   2.668   6.257
 3979SOL     OW12835   0.695   6.759   2.373
 3979SOL    HW112836   0.626   6.763   2.301
 3979SOL    HW212837   0.656   6.792   2.459
 3980SOL     OW12838   5.166   2.980   4.531
 3980SOL    HW112839   5.084   2.957   4.478
 3980SOL    HW212840   5.187   3.077   4.518
 3981SOL     OW12841   0.165   2.162   6.993
 3981SOL    HW112842   0.207   2.219   0.047
 3981SOL    HW212843   0.226   2.155   6.914
 3982SOL     OW12844   2.296   1.862   3.595
 3982SOL    HW112845   2.229   1.931   3.568
 3982SOL    HW212846   2.358   1.900   3.664
 3983SOL     OW12847   2.815   6.077   4.207
 3983SOL    HW112848   2.807   6.051   4.111
 3983SOL    HW212849   2.876   6.012   4.254
 3984SOL     OW12850   1.772   6.352   1.716
 3984SOL    HW112851   1.841   6.407   1.763
 3984SOL    HW212852   1.776   6.258   1.750
 3985SOL     OW12853   2.402   2.979   1.111
 3985SOL    HW112854   2.314   3.019   1.136
 3985SOL    HW212855   2.398   2.946   1.016
 3986SOL     OW12856   0.178   1.943   2.009
 3986SOL    HW112857   0.103   1.900   1.958
 3986SOL    HW212858   0.151   2.037   2.033
 3987SOL     OW12859   2.672   4.863   6.682
 3987SOL    HW112860   2.739   4.813   6.737
 3987SOL    HW212861   2.718   4.909   6.606
 3988SOL     OW12862   4.163   2.923   0.744
 3988SOL    HW112863   4.106   2.911   0.663
 3988SOL    HW212864   4.109   2.908   0.826
 3989SOL     OW12865   5.642   6.621   6.979
 3989SOL    HW112866   5.625   6.618   6.881
 3989SOL    HW212867   5.617   6.534   0.006
 3990SOL     OW12868   1.054   3.630   3.384
 3990SOL    HW112869   0.959   3.623   3.353
 3990SOL    HW212870   1.061   3.588   3.475
 3991SOL     OW12871   0.330   2.225   3.803
 3991SOL    HW112872   0.233   2.201   3.803
 3991SOL    HW212873   0.385   2.143   3.818
 3992SOL     OW12874   4.595   3.671   6.409
 3992SOL    HW112875   4.527   3.741   6.384
 3992SOL    HW212876   4.566   3.625   6.493
 3993SOL     OW12877   2.883   2.279   2.958
 3993SOL    HW112878   2.802   2.283   2.900
 3993SOL    HW212879   2.962   2.317   2.909
 3994SOL     OW12880   2.334   2.847   3.538
 3994SOL    HW112881   2.383   2.760   3.535
 3994SOL    HW212882   2.317   2.880   3.445
 3995SOL     OW12883   2.124   4.045   3.220
 3995SOL    HW112884   2.141   4.065   3.317
 3995SOL    HW212885   2.082   3.955   3.211
 3996SOL     OW12886   0.291   1.520   3.353
 3996SOL    HW112887   0.390   1.526   3.352
 3996SOL    HW212888   0.252   1.575   3.279
 3997SOL     OW12889   5.660   3.804   3.282
 3997SOL    HW112890   5.674   3.776   3.187
 3997SOL    HW212891   5.732   3.765   3.339
 3998SOL     OW12892   6.399   1.978   3.264
 3998SOL    HW112893   6.377   1.922   3.344
 3998SOL    HW212894   6.451   2.058   3.292
 3999SOL     OW12895   5.631   3.666   2.610
 3999SOL    HW112896   5.588   3.633   2.525
 3999SOL    HW212897   5.619   3.598   2.682
 4000SOL     OW12898   2.556   5.470   2.536
 4000SOL    HW112899   2.536   5.378   2.501
 4000SOL    HW212900   2.637   5.506   2.491
 4001SOL     OW12901   2.545   3.885   5.301
 4001SOL    HW112902   2.500   3.903   5.388
 4001SOL    HW212903   2.478   3.894   5.227
 4002SOL     OW12904   3.344   2.899   4.686
 4002SOL    HW112905   3.298   2.916   4.599
 4002SOL    HW212906   3.441   2.920   4.678
 4003SOL     OW12907   2.004   1.038   5.627
 4003SOL    HW112908   2.033   0.976   5.700
 4003SOL    HW212909   1.909   1.019   5.604
 4004SOL     OW12910   0.253   3.783   2.784
 4004SOL    HW112911   0.229   3.830   2.699
 4004SOL    HW212912   0.273   3.851   2.855
 4005SOL     OW12913   4.506   3.519   1.671
 4005SOL    HW112914   4.604   3.506   1.653
 4005SOL    HW212915   4.473   3.441   1.725
 4006SOL     OW12916   5.088   5.467   2.515
 4006SOL    HW112917   4.995   5.493   2.539
 4006SOL    HW212918   5.107   5.376   2.552
 4007SOL     OW12919   0.856   1.940   2.969
 4007SOL    HW112920   0.922   1.870   2.995
 4007SOL    HW212921   0.768   1.920   3.013
 4008SOL     OW12922   2.195   0.206   1.146
 4008SOL    HW112923   2.111   0.175   1.102
 4008SOL    HW212924   2.260   0.129   1.151
 4009SOL     OW12925   4.446   1.827   1.200
 4009SOL    HW112926   4.478   1.764   1.272
 4009SOL    HW212927   4.362   1.870   1.230
 4010SOL     OW12928   3.493   4.420   1.331
 4010SOL    HW112929   3.493   4.391   1.427
 4010SOL    HW212930   3.584   4.451   1.305
 4011SOL     OW12931   6.650   6.060   0.376
 4011SOL    HW112932   6.551   6.063   0.391
 4011SOL    HW212933   6.695   6.122   0.440
 4012SOL     OW12934   4.322   6.757   1.643
 4012SOL    HW112935   4.381   6.832   1.671
 4012SOL    HW212936   4.359   6.671   1.678
 4013SOL     OW12937   1.549   0.732   0.849
 4013SOL    HW112938   1.460   0.718   0.892
 4013SOL    HW212939   1.591   0.815   0.885
 4014SOL     OW12940   2.919   5.664   3.511
 4014SOL    HW112941   2.914   5.738   3.444
 4014SOL    HW212942   3.010   5.661   3.551
 4015SOL     OW12943   4.515   5.161   6.349
 4015SOL    HW112944   4.501   5.063   6.363
 4015SOL    HW212945   4.521   5.206   6.438
 4016SOL     OW12946   3.098   5.500   6.403
 4016SOL    HW112947   3.098   5.463   6.496
 4016SOL    HW212948   3.189   5.487   6.363
 4017SOL     OW12949   1.035   5.311   5.829
 4017SOL    HW112950   1.010   5.407   5.817
 4017SOL    HW212951   0.954   5.259   5.857
 4018SOL     OW12952   3.595   6.405   1.682
 4018SOL    HW112953   3.661   6.338   1.715
 4018SOL    HW212954   3.511   6.399   1.735
 4019SOL     OW12955   5.637   2.972   2.621
 4019SOL    HW112956   5.537   2.964   2.614
 4019SOL    HW212957   5.672   3.016   2.539
 4020SOL     OW12958   0.065   4.159   4.150
 4020SOL    HW112959   0.160   4.130   4.143
 4020SOL    HW212960   0.007   4.079   4.166
 4021SOL     OW12961   3.192   3.754   5.738
 4021SOL    HW112962   3.197   3.664   5.780
 4021SOL    HW212963   3.268   3.766   5.673
 4022SOL     OW12964   3.646   6.804   0.809
 4022SOL    HW112965   3.548   6.783   0.818
 4022SOL    HW212966   3.675   6.860   0.887
 4023SOL     OW12967   0.208   1.515   5.541
 4023SOL    HW112968   0.167   1.589   5.489
 4023SOL    HW212969   0.219   1.434   5.483
 4024SOL     OW12970   1.648   4.801   4.087
 4024SOL    HW112971   1.638   4.811   4.186
 4024SOL    HW212972   1.740   4.830   4.060
 4025SOL     OW12973   0.970   5.979   4.141
 4025SOL    HW112974   0.985   5.885   4.110
 4025SOL    HW212975   1.045   6.037   4.110
 4026SOL     OW12976   6.631   6.044   4.036
 4026SOL    HW112977   6.613   6.130   4.083
 4026SOL    HW212978   6.722   6.012   4.060
 4027SOL     OW12979   2.677   2.128   6.769
 4027SOL    HW112980   2.627   2.063   6.826
 4027SOL    HW212981   2.625   2.146   6.686
 4028SOL     OW12982   4.465   1.678   3.356
 4028SOL    HW112983   4.453   1.590   3.402
 4028SOL    HW212984   4.534   1.670   3.285
 4029SOL     OW12985   2.916   4.021   6.093
 4029SOL    HW112986   2.966   3.989   6.013
 4029SOL    HW212987   2.947   3.972   6.174
 4030SOL     OW12988   6.720   0.788   2.112
 4030SOL    HW112989   6.670   0.702   2.109
 4030SOL    HW212990   6.775   0.792   2.195
 4031SOL     OW12991   5.609   0.253   2.473
 4031SOL    HW112992   5.523   0.293   2.505
 4031SOL    HW212993   5.636   0.295   2.387
 4032SOL     OW12994   6.416   6.601   1.894
 4032SOL    HW112995   6.369   6.634   1.813
 4032SOL    HW212996   6.503   6.559   1.868
 4033SOL     OW12997   2.720   2.038   2.835
 4033SOL    HW112998   2.794   2.021   2.772
 4033SOL    HW212999   2.691   2.134   2.828
 4034SOL     OW13000   6.151   2.495   5.333
 4034SOL    HW113001   6.141   2.415   5.274
 4034SOL    HW213002   6.202   2.566   5.284
 4035SOL     OW13003   6.403   1.832   1.510
 4035SOL    HW113004   6.381   1.735   1.504
 4035SOL    HW213005   6.378   1.866   1.601
 4036SOL     OW13006   3.753   4.892   2.439
 4036SOL    HW113007   3.809   4.889   2.356
 4036SOL    HW213008   3.741   4.800   2.474
 4037SOL     OW13009   2.857   0.902   5.863
 4037SOL    HW113010   2.769   0.893   5.909
 4037SOL    HW213011   2.889   0.812   5.833
 4038SOL     OW13012   4.741   3.475   0.275
 4038SOL    HW113013   4.739   3.378   0.254
 4038SOL    HW213014   4.753   3.487   0.374
 4039SOL     OW13015   5.167   5.994   1.749
 4039SOL    HW113016   5.243   6.049   1.785
 4039SOL    HW213017   5.117   5.953   1.825
 4040SOL     OW13018   3.307   5.881   4.541
 4040SOL    HW113019   3.295   5.958   4.604
 4040SOL    HW213020   3.270   5.798   4.583
 4041SOL     OW13021   1.552   6.507   1.604
 4041SOL    HW113022   1.585   6.567   1.676
 4041SOL    HW213023   1.611   6.426   1.598
 4042SOL     OW13024   5.618   6.370   3.094
 4042SOL    HW113025   5.714   6.354   3.118
 4042SOL    HW213026   5.612   6.391   2.996
 4043SOL     OW13027   6.789   2.044   6.556
 4043SOL    HW113028   6.876   2.081   6.587
 4043SOL    HW213029   6.722   2.118   6.548
 4044SOL     OW13030   5.354   4.862   2.362
 4044SOL    HW113031   5.376   4.887   2.456
 4044SOL    HW213032   5.288   4.787   2.363
 4045SOL     OW13033   3.698   6.599   5.998
 4045SOL    HW113034   3.785   6.625   6.040
 4045SOL    HW213035   3.715   6.533   5.925
 4046SOL     OW13036   0.965   1.729   2.490
 4046SOL    HW113037   0.940   1.668   2.415
 4046SOL    HW213038   1.055   1.768   2.472
 4047SOL     OW13039   2.049   2.136   6.828
 4047SOL    HW113040   1.991   2.206   6.785
 4047SOL    HW213041   2.011   2.046   6.809
 4048SOL     OW13042   5.538   1.209   1.849
 4048SOL    HW113043   5.524   1.305   1.827
 4048SOL    HW213044   5.453   1.170   1.885
 4049SOL     OW13045   4.378   6.401   6.353
 4049SOL    HW113046   4.350   6.485   6.399
 4049SOL    HW213047   4.353   6.404   6.257
 4050SOL     OW13048   0.859   6.517   2.141
 4050SOL    HW113049   0.929   6.468   2.089
 4050SOL    HW213050   0.902   6.586   2.199
 4051SOL     OW13051   4.687   1.443   6.531
 4051SOL    HW113052   4.706   1.354   6.571
 4051SOL    HW213053   4.734   1.514   6.583
 4052SOL     OW13054   6.021   2.156   3.466
 4052SOL    HW113055   6.027   2.186   3.371
 4052SOL    HW213056   6.108   2.114   3.494
 4053SOL     OW13057   1.678   6.166   4.701
 4053SOL    HW113058   1.662   6.077   4.658
 4053SOL    HW213059   1.748   6.216   4.650
 4054SOL     OW13060   4.680   4.580   0.959
 4054SOL    HW113061   4.723   4.493   0.983
 4054SOL    HW213062   4.705   4.650   1.026
 4055SOL     OW13063   1.374   4.013   1.261
 4055SOL    HW113064   1.398   3.949   1.188
 4055SOL    HW213065   1.455   4.066   1.287
 4056SOL     OW13066   5.042   3.651   1.213
 4056SOL    HW113067   5.045   3.736   1.265
 4056SOL    HW213068   4.966   3.594   1.247
 4057SOL     OW13069   6.686   3.255   0.019
 4057SOL    HW113070   6.674   3.350   0.050
 4057SOL    HW213071   6.657   3.192   0.091
 4058SOL     OW13072   2.962   6.585   4.829
 4058SOL    HW113073   2.959   6.598   4.928
 4058SOL    HW213074   2.921   6.497   4.806
 4059SOL     OW13075   0.173   2.645   3.122
 4059SOL    HW113076   0.112   2.565   3.125
 4059SOL    HW213077   0.125   2.721   3.077
 4060SOL     OW13078   5.907   4.712   5.829
 4060SOL    HW113079   5.817   4.743   5.797
 4060SOL    HW213080   5.894   4.636   5.893
 4061SOL     OW13081   2.605   4.605   2.089
 4061SOL    HW113082   2.677   4.555   2.041
 4061SOL    HW213083   2.639   4.695   2.116
 4062SOL     OW13084   2.739   0.478   2.070
 4062SOL    HW113085   2.670   0.420   2.027
 4062SOL    HW213086   2.759   0.443   2.162
 4063SOL     OW13087   6.176   6.870   0.935
 4063SOL    HW113088   6.251   6.884   1.000
 4063SOL    HW213089   6.101   6.822   0.981
 4064SOL     OW13090   2.820   2.182   4.722
 4064SOL    HW113091   2.880   2.249   4.678
 4064SOL    HW213092   2.848   2.170   4.817
 4065SOL     OW13093   0.343   0.395   1.553
 4065SOL    HW113094   0.261   0.373   1.499
 4065SOL    HW213095   0.423   0.353   1.510
 4066SOL     OW13096   6.694   4.173   3.063
 4066SOL    HW113097   6.639   4.091   3.076
 4066SOL    HW213098   6.739   4.170   2.974
 4067SOL     OW13099   5.360   3.886   3.806
 4067SOL    HW113100   5.420   3.953   3.850
 4067SOL    HW213101   5.414   3.828   3.745
 4068SOL     OW13102   2.178   2.349   4.298
 4068SOL    HW113103   2.213   2.443   4.306
 4068SOL    HW213104   2.246   2.285   4.333
 4069SOL     OW13105   3.047   5.286   0.106
 4069SOL    HW113106   2.971   5.268   0.044
 4069SOL    HW213107   3.130   5.241   0.071
 4070SOL     OW13108   0.698   2.840   2.840
 4070SOL    HW113109   0.774   2.874   2.785
 4070SOL    HW213110   0.686   2.898   2.921
 4071SOL     OW13111   1.335   1.294   4.680
 4071SOL    HW113112   1.314   1.255   4.770
 4071SOL    HW213113   1.299   1.233   4.609
 4072SOL     OW13114   0.489   5.333   4.983
 4072SOL    HW113115   0.562   5.393   5.015
 4072SOL    HW213116   0.526   5.242   4.967
 4073SOL     OW13117   2.774   5.385   5.977
 4073SOL    HW113118   2.704   5.406   5.908
 4073SOL    HW213119   2.732   5.334   6.052
 4074SOL     OW13120   0.424   4.732   1.331
 4074SOL    HW113121   0.485   4.787   1.389
 4074SOL    HW213122   0.405   4.781   1.247
 4075SOL     OW13123   4.833   2.107   1.186
 4075SOL    HW113124   4.867   2.179   1.247
 4075SOL    HW213125   4.840   2.019   1.232
 4076SOL     OW13126   2.729   3.412   5.889
 4076SOL    HW113127   2.698   3.434   5.981
 4076SOL    HW213128   2.675   3.464   5.823
 4077SOL     OW13129   3.949   1.737   1.138
 4077SOL    HW113130   3.984   1.753   1.231
 4077SOL    HW213131   3.860   1.781   1.128
 4078SOL     OW13132   2.296   5.107   2.297
 4078SOL    HW113133   2.199   5.125   2.283
 4078SOL    HW213134   2.322   5.025   2.247
 4079SOL     OW13135   2.642   1.311   2.856
 4079SOL    HW113136   2.681   1.285   2.767
 4079SOL    HW213137   2.695   1.268   2.929
 4080SOL     OW13138   4.810   2.650   5.996
 4080SOL    HW113139   4.758   2.715   6.051
 4080SOL    HW213140   4.858   2.699   5.923
 4081SOL     OW13141   1.171   2.720   3.828
 4081SOL    HW113142   1.243   2.660   3.864
 4081SOL    HW213143   1.086   2.668   3.819
 4082SOL     OW13144   0.468   3.975   0.450
 4082SOL    HW113145   0.479   3.914   0.529
 4082SOL    HW213146   0.404   4.048   0.473
 4083SOL     OW13147   6.204   3.117   3.010
 4083SOL    HW113148   6.147   3.148   2.934
 4083SOL    HW213149   6.288   3.171   3.014
 4084SOL     OW13150   5.913   1.973   3.750
 4084SOL    HW113151   6.006   2.001   3.771
 4084SOL    HW213152   5.915   1.899   3.682
 4085SOL     OW13153   3.781   5.501   0.431
 4085SOL    HW113154   3.718   5.509   0.508
 4085SOL    HW213155   3.869   5.541   0.454
 4086SOL     OW13156   2.529   6.394   1.592
 4086SOL    HW113157   2.530   6.445   1.507
 4086SOL    HW213158   2.544   6.297   1.573
 4087SOL     OW13159   3.029   2.027   3.460
 4087SOL    HW113160   2.966   2.068   3.526
 4087SOL    HW213161   3.024   2.077   3.373
 4088SOL     OW13162   0.112   1.681   0.929
 4088SOL    HW113163   0.035   1.699   0.868
 4088SOL    HW213164   0.129   1.582   0.933
 4089SOL     OW13165   6.540   6.461   3.478
 4089SOL    HW113166   6.592   6.472   3.562
 4089SOL    HW213167   6.451   6.420   3.499
 4090SOL     OW13168   2.470   3.972   5.578
 4090SOL    HW113169   2.532   4.048   5.597
 4090SOL    HW213170   2.378   3.995   5.608
 4091SOL     OW13171   6.563   6.311   0.508
 4091SOL    HW113172   6.510   6.245   0.455
 4091SOL    HW213173   6.582   6.273   0.599
 4092SOL     OW13174   6.267   3.153   5.050
 4092SOL    HW113175   6.343   3.091   5.070
 4092SOL    HW213176   6.243   3.205   5.132
 4093SOL     OW13177   4.310   0.486   3.668
 4093SOL    HW113178   4.238   0.532   3.719
 4093SOL    HW213179   4.388   0.468   3.728
 4094SOL     OW13180   2.324   5.937   4.663
 4094SOL    HW113181   2.294   5.841   4.669
 4094SOL    HW213182   2.331   5.975   4.755
 4095SOL     OW13183   0.857   3.696   6.604
 4095SOL    HW113184   0.837   3.697   6.702
 4095SOL    HW213185   0.851   3.789   6.568
 4096SOL     OW13186   4.247   5.116   1.005
 4096SOL    HW113187   4.247   5.182   0.929
 4096SOL    HW213188   4.320   5.050   0.991
 4097SOL     OW13189   3.914   4.035   6.179
 4097SOL    HW113190   3.874   3.999   6.095
 4097SOL    HW213191   3.884   3.979   6.256
 4098SOL     OW13192   7.014   3.256   2.049
 4098SOL    HW113193   0.070   3.325   2.058
 4098SOL    HW213194   0.040   3.165   2.042
 4099SOL     OW13195   2.758   4.566   1.402
 4099SOL    HW113196   2.790   4.647   1.353
 4099SOL    HW213197   2.671   4.536   1.362
 4100SOL     OW13198   6.402   5.870   5.242
 4100SOL    HW113199   6.372   5.965   5.242
 4100SOL    HW213200   6.420   5.841   5.148
 4101SOL     OW13201   5.644   0.753   0.505
 4101SOL    HW113202   5.685   0.842   0.484
 4101SOL    HW213203   5.545   0.760   0.506
 4102SOL     OW13204   6.430   0.635   2.053
 4102SOL    HW113205   6.502   0.585   2.004
 4102SOL    HW213206   6.398   0.711   1.997
 4103SOL     OW13207   0.636   1.111   1.493
 4103SOL    HW113208   0.598   1.037   1.437
 4103SOL    HW213209   0.728   1.086   1.522
 4104SOL     OW13210   0.955   4.559   2.194
 4104SOL    HW113211   0.918   4.512   2.115
 4104SOL    HW213212   0.922   4.515   2.278
 4105SOL     OW13213   4.113   5.539   1.128
 4105SOL    HW113214   4.105   5.532   1.228
 4105SOL    HW213215   4.068   5.462   1.085
 4106SOL     OW13216   0.584   2.004   5.025
 4106SOL    HW113217   0.598   1.960   5.114
 4106SOL    HW213218   0.656   2.071   5.008
 4107SOL     OW13219   1.370   6.180   0.783
 4107SOL    HW113220   1.330   6.216   0.699
 4107SOL    HW213221   1.388   6.256   0.846
 4108SOL     OW13222   0.261   5.116   5.819
 4108SOL    HW113223   0.196   5.168   5.764
 4108SOL    HW213224   0.338   5.176   5.845
 4109SOL     OW13225   4.577   6.285   5.209
 4109SOL    HW113226   4.564   6.221   5.285
 4109SOL    HW213227   4.496   6.283   5.150
 4110SOL     OW13228   4.764   3.288   6.624
 4110SOL    HW113229   4.664   3.288   6.625
 4110SOL    HW213230   4.799   3.317   6.713
 4111SOL     OW13231   4.067   2.896   6.594
 4111SOL    HW113232   4.145   2.958   6.582
 4111SOL    HW213233   4.045   2.889   6.691
 4112SOL     OW13234   5.100   0.943   5.538
 4112SOL    HW113235   5.092   0.863   5.479
 4112SOL    HW213236   5.197   0.966   5.551
 4113SOL     OW13237   4.674   6.472   4.701
 4113SOL    HW113238   4.763   6.495   4.662
 4113SOL    HW213239   4.686   6.434   4.792
 4114SOL     OW13240   4.012   2.212   3.478
 4114SOL    HW113241   4.048   2.260   3.398
 4114SOL    HW213242   3.972   2.125   3.449
 4115SOL     OW13243   4.625   5.769   2.061
 4115SOL    HW113244   4.598   5.863   2.081
 4115SOL    HW213245   4.627   5.716   2.146
 4116SOL     OW13246   4.242   2.184   1.595
 4116SOL    HW113247   4.244   2.227   1.505
 4116SOL    HW213248   4.169   2.225   1.650
 4117SOL     OW13249   0.768   5.154   1.699
 4117SOL    HW113250   0.777   5.056   1.718
 4117SOL    HW213251   0.693   5.192   1.754
 4118SOL     OW13252   2.071   6.291   0.647
 4118SOL    HW113253   2.133   6.311   0.572
 4118SOL    HW213254   2.121   6.246   0.721
 4119SOL     OW13255   4.178   1.676   3.292
 4119SOL    HW113256   4.271   1.675   3.330
 4119SOL    HW213257   4.181   1.640   3.199
 4120SOL     OW13258   4.487   0.716   0.672
 4120SOL    HW113259   4.519   0.788   0.611
 4120SOL    HW213260   4.390   0.697   0.653
 4121SOL     OW13261   5.887   1.223   5.032
 4121SOL    HW113262   5.853   1.304   5.080
 4121SOL    HW213263   5.895   1.242   4.935
 4122SOL     OW13264   0.975   6.549   5.503
 4122SOL    HW113265   0.945   6.547   5.408
 4122SOL    HW213266   1.041   6.475   5.518
 4123SOL     OW13267   4.931   4.720   5.488
 4123SOL    HW113268   4.853   4.743   5.429
 4123SOL    HW213269   4.898   4.680   5.573
 4124SOL     OW13270   6.169   5.129   5.943
 4124SOL    HW113271   6.228   5.162   5.870
 4124SOL    HW213272   6.079   5.171   5.935
 4125SOL     OW13273   4.508   1.164   1.906
 4125SOL    HW113274   4.568   1.233   1.865
 4125SOL    HW213275   4.446   1.127   1.837
 4126SOL     OW13276   1.296   4.726   3.930
 4126SOL    HW113277   1.362   4.716   4.004
 4126SOL    HW213278   1.213   4.769   3.965
 4127SOL     OW13279   4.676   4.406   4.678
 4127SOL    HW113280   4.690   4.310   4.700
 4127SOL    HW213281   4.628   4.451   4.753
 4128SOL     OW13282   1.674   3.647   1.814
 4128SOL    HW113283   1.611   3.591   1.868
 4128SOL    HW213284   1.698   3.729   1.866
 4129SOL     OW13285   5.061   1.094   6.624
 4129SOL    HW113286   5.071   1.152   6.705
 4129SOL    HW213287   5.152   1.069   6.590
 4130SOL     OW13288   6.982   3.686   5.617
 4130SOL    HW113289   6.911   3.663   5.683
 4130SOL    HW213290   7.010   3.603   5.568
 4131SOL     OW13291   1.165   5.734   3.660
 4131SOL    HW113292   1.146   5.690   3.748
 4131SOL    HW213293   1.246   5.791   3.668
 4132SOL     OW13294   5.461   4.424   3.893
 4132SOL    HW113295   5.476   4.375   3.808
 4132SOL    HW213296   5.397   4.500   3.877
 4133SOL     OW13297   2.999   6.916   1.982
 4133SOL    HW113298   2.903   6.924   2.010
 4133SOL    HW213299   3.028   6.820   1.990
 4134SOL     OW13300   1.808   2.218   0.664
 4134SOL    HW113301   1.819   2.248   0.569
 4134SOL    HW213302   1.716   2.244   0.696
 4135SOL     OW13303   1.847   0.471   2.737
 4135SOL    HW113304   1.803   0.486   2.826
 4135SOL    HW213305   1.908   0.548   2.717
 4136SOL     OW13306   0.836   1.998   2.708
 4136SOL    HW113307   0.824   1.969   2.803
 4136SOL    HW213308   0.836   1.917   2.649
 4137SOL     OW13309   1.833   4.128   1.255
 4137SOL    HW113310   1.877   4.107   1.168
 4137SOL    HW213311   1.804   4.043   1.299
 4138SOL     OW13312   3.711   5.503   3.360
 4138SOL    HW113313   3.688   5.455   3.445
 4138SOL    HW213314   3.805   5.537   3.365
 4139SOL     OW13315   2.067   2.307   5.294
 4139SOL    HW113316   1.970   2.329   5.285
 4139SOL    HW213317   2.078   2.223   5.347
 4140SOL     OW13318   2.669   0.514   5.405
 4140SOL    HW113319   2.748   0.503   5.465
 4140SOL    HW213320   2.593   0.459   5.440
 4141SOL     OW13321   5.230   6.107   1.508
 4141SOL    HW113322   5.329   6.123   1.501
 4141SOL    HW213323   5.212   6.042   1.582
 4142SOL     OW13324   7.004   5.536   0.660
 4142SOL    HW113325   6.909   5.532   0.692
 4142SOL    HW213326   0.047   5.485   0.724
 4143SOL     OW13327   6.871   2.897   0.009
 4143SOL    HW113328   6.778   2.863   0.020
 4143SOL    HW213329   6.878   2.948   6.939
 4144SOL     OW13330   5.507   2.985   0.487
 4144SOL    HW113331   5.531   3.081   0.473
 4144SOL    HW213332   5.530   2.932   0.405
 4145SOL     OW13333   0.197   6.370   1.599
 4145SOL    HW113334   0.221   6.401   1.507
 4145SOL    HW213335   0.187   6.271   1.600
 4146SOL     OW13336   6.498   0.576   5.489
 4146SOL    HW113337   6.482   0.486   5.447
 4146SOL    HW213338   6.581   0.573   5.543
 4147SOL     OW13339   4.034   2.017   5.397
 4147SOL    HW113340   3.954   1.956   5.400
 4147SOL    HW213341   4.035   2.073   5.480
 4148SOL     OW13342   0.331   0.181   3.895
 4148SOL    HW113343   0.392   0.258   3.913
 4148SOL    HW213344   0.296   0.146   3.982
 4149SOL     OW13345   0.531   3.173   6.927
 4149SOL    HW113346   0.523   3.214   0.002
 4149SOL    HW213347   0.483   3.085   6.927
 4150SOL     OW13348   6.491   0.798   5.883
 4150SOL    HW113349   6.496   0.729   5.956
 4150SOL    HW213350   6.396   0.824   5.869
 4151SOL     OW13351   4.600   6.255   6.350
 4151SOL    HW113352   4.660   6.307   6.412
 4151SOL    HW213353   4.509   6.295   6.350
 4152SOL     OW13354   2.965   5.513   1.100
 4152SOL    HW113355   3.018   5.512   1.015
 4152SOL    HW213356   2.991   5.434   1.156
 4153SOL     OW13357   4.866   4.837   6.330
 4153SOL    HW113358   4.839   4.769   6.262
 4153SOL    HW213359   4.882   4.925   6.285
 4154SOL     OW13360   0.204   4.228   4.858
 4154SOL    HW113361   0.157   4.278   4.931
 4154SOL    HW213362   0.269   4.163   4.898
 4155SOL     OW13363   5.826   2.754   3.498
 4155SOL    HW113364   5.795   2.663   3.526
 4155SOL    HW213365   5.909   2.777   3.549
 4156SOL     OW13366   5.441   0.251   5.390
 4156SOL    HW113367   5.499   0.192   5.446
 4156SOL    HW213368   5.441   0.344   5.428
 4157SOL     OW13369   3.960   6.822   3.947
 4157SOL    HW113370   3.982   6.736   3.992
 4157SOL    HW213371   3.997   6.898   4.000
 4158SOL     OW13372   1.676   5.511   4.134
 4158SOL    HW113373   1.692   5.472   4.043
 4158SOL    HW213374   1.645   5.606   4.124
 4159SOL     OW13375   1.975   3.127   4.076
 4159SOL    HW113376   1.915   3.113   3.997
 4159SOL    HW213377   1.949   3.211   4.124
 4160SOL     OW13378   6.373   0.481   1.223
 4160SOL    HW113379   6.308   0.494   1.298
 4160SOL    HW213380   6.353   0.396   1.176
 4161SOL     OW13381   2.312   5.871   6.326
 4161SOL    HW113382   2.405   5.877   6.288
 4161SOL    HW213383   2.306   5.930   6.406
 4162SOL     OW13384   6.571   0.206   5.201
 4162SOL    HW113385   6.579   0.271   5.125
 4162SOL    HW213386   6.660   0.195   5.245
 4163SOL     OW13387   5.708   1.291   3.314
 4163SOL    HW113388   5.789   1.344   3.289
 4163SOL    HW213389   5.729   1.193   3.310
 4164SOL     OW13390   1.039   6.704   6.029
 4164SOL    HW113391   1.100   6.666   6.098
 4164SOL    HW213392   1.030   6.639   5.953
 4165SOL     OW13393   4.882   0.336   0.569
 4165SOL    HW113394   4.877   0.259   0.633
 4165SOL    HW213395   4.881   0.302   0.475
 4166SOL     OW13396   5.772   2.990   0.889
 4166SOL    HW113397   5.837   3.025   0.956
 4166SOL    HW213398   5.755   3.060   0.820
 4167SOL     OW13399   2.448   3.521   0.384
 4167SOL    HW113400   2.378   3.451   0.368
 4167SOL    HW213401   2.535   3.477   0.404
 4168SOL     OW13402   0.892   4.987   0.869
 4168SOL    HW113403   0.946   4.989   0.954
 4168SOL    HW213404   0.875   4.892   0.843
 4169SOL     OW13405   5.693   3.834   4.370
 4169SOL    HW113406   5.666   3.830   4.466
 4169SOL    HW213407   5.617   3.801   4.313
 4170SOL     OW13408   3.574   3.332   5.324
 4170SOL    HW113409   3.499   3.270   5.346
 4170SOL    HW213410   3.543   3.427   5.332
 4171SOL     OW13411   5.178   4.500   1.053
 4171SOL    HW113412   5.165   4.476   1.149
 4171SOL    HW213413   5.099   4.554   1.022
 4172SOL     OW13414   6.920   2.195   5.847
 4172SOL    HW113415   6.859   2.268   5.877
 4172SOL    HW213416   6.933   2.202   5.748
 4173SOL     OW13417   6.075   3.335   4.537
 4173SOL    HW113418   6.096   3.385   4.620
 4173SOL    HW213419   6.113   3.383   4.458
 4174SOL     OW13420   5.557   0.991   3.486
 4174SOL    HW113421   5.478   1.016   3.430
 4174SOL    HW213422   5.556   1.044   3.571
 4175SOL     OW13423   2.603   6.405   4.029
 4175SOL    HW113424   2.568   6.327   3.976
 4175SOL    HW213425   2.529   6.471   4.043
 4176SOL     OW13426   3.592   0.039   2.282
 4176SOL    HW113427   3.595   6.969   2.229
 4176SOL    HW213428   3.587   0.018   2.380
 4177SOL     OW13429   0.761   5.230   5.342
 4177SOL    HW113430   0.686   5.275   5.392
 4177SOL    HW213431   0.848   5.257   5.381
 4178SOL     OW13432   3.603   1.191   4.034
 4178SOL    HW113433   3.634   1.100   4.010
 4178SOL    HW213434   3.664   1.231   4.103
 4179SOL     OW13435   4.892   3.338   4.255
 4179SOL    HW113436   4.875   3.263   4.319
 4179SOL    HW213437   4.862   3.424   4.295
 4180SOL     OW13438   5.345   3.347   2.610
 4180SOL    HW113439   5.289   3.347   2.528
 4180SOL    HW213440   5.442   3.356   2.585
 4181SOL     OW13441   2.166   1.823   5.937
 4181SOL    HW113442   2.258   1.835   5.973
 4181SOL    HW213443   2.121   1.747   5.985
 4182SOL     OW13444   0.180   0.024   3.285
 4182SOL    HW113445   0.110   6.977   3.249
 4182SOL    HW213446   0.199   0.001   3.380
 4183SOL     OW13447   3.378   1.190   1.337
 4183SOL    HW113448   3.278   1.190   1.331
 4183SOL    HW213449   3.415   1.259   1.275
 4184SOL     OW13450   3.982   4.790   1.233
 4184SOL    HW113451   3.885   4.781   1.213
 4184SOL    HW213452   4.014   4.709   1.282
 4185SOL     OW13453   0.452   5.088   3.200
 4185SOL    HW113454   0.528   5.152   3.211
 4185SOL    HW213455   0.406   5.076   3.288
 4186SOL     OW13456   1.729   4.503   0.404
 4186SOL    HW113457   1.685   4.413   0.401
 4186SOL    HW213458   1.659   4.574   0.416
 4187SOL     OW13459   3.715   3.337   6.065
 4187SOL    HW113460   3.626   3.326   6.109
 4187SOL    HW213461   3.782   3.276   6.108
 4188SOL     OW13462   5.173   6.785   4.547
 4188SOL    HW113463   5.193   6.687   4.538
 4188SOL    HW213464   5.119   6.801   4.630
 4189SOL     OW13465   3.080   1.649   4.697
 4189SOL    HW113466   3.066   1.724   4.761
 4189SOL    HW213467   2.994   1.629   4.649
 4190SOL     OW13468   2.406   7.006   6.289
 4190SOL    HW113469   2.431   0.026   6.380
 4190SOL    HW213470   2.338   0.051   6.248
 4191SOL     OW13471   6.094   3.553   3.280
 4191SOL    HW113472   6.005   3.512   3.301
 4191SOL    HW213473   6.080   3.635   3.223
 4192SOL     OW13474   0.203   1.694   3.574
 4192SOL    HW113475   0.218   1.643   3.489
 4192SOL    HW213476   0.209   1.792   3.555
 4193SOL     OW13477   2.282   6.478   1.333
 4193SOL    HW113478   2.210   6.548   1.326
 4193SOL    HW213479   2.246   6.391   1.299
 4194SOL     OW13480   6.758   2.117   5.051
 4194SOL    HW113481   6.794   2.063   5.127
 4194SOL    HW213482   6.822   2.114   4.975
 4195SOL     OW13483   3.636   0.729   1.855
 4195SOL    HW113484   3.637   0.631   1.877
 4195SOL    HW213485   3.713   0.773   1.901
 4196SOL     OW13486   6.275   1.751   4.612
 4196SOL    HW113487   6.244   1.797   4.696
 4196SOL    HW213488   6.212   1.677   4.590
 4197SOL     OW13489   4.976   4.713   4.063
 4197SOL    HW113490   5.056   4.707   4.123
 4197SOL    HW213491   4.979   4.800   4.013
 4198SOL     OW13492   6.216   3.678   0.184
 4198SOL    HW113493   6.188   3.770   0.211
 4198SOL    HW213494   6.314   3.666   0.203
 4199SOL     OW13495   2.338   3.411   6.084
 4199SOL    HW113496   2.286   3.369   6.010
 4199SOL    HW213497   2.337   3.511   6.073
 4200SOL     OW13498   3.030   6.553   5.455
 4200SOL    HW113499   3.093   6.508   5.392
 4200SOL    HW213500   3.051   6.650   5.461
 4201SOL     OW13501   5.855   6.302   4.000
 4201SOL    HW113502   5.766   6.260   4.017
 4201SOL    HW213503   5.871   6.374   4.067
 4202SOL     OW13504   4.129   4.886   5.902
 4202SOL    HW113505   4.193   4.950   5.859
 4202SOL    HW213506   4.036   4.904   5.870
 4203SOL     OW13507   4.006   5.963   2.911
 4203SOL    HW113508   4.013   6.029   2.836
 4203SOL    HW213509   3.995   6.011   2.997
 4204SOL     OW13510   3.196   2.832   1.816
 4204SOL    HW113511   3.185   2.921   1.772
 4204SOL    HW213512   3.140   2.764   1.768
 4205SOL     OW13513   3.919   5.090   4.189
 4205SOL    HW113514   3.883   5.124   4.102
 4205SOL    HW213515   3.853   5.029   4.231
 4206SOL     OW13516   4.837   0.752   5.923
 4206SOL    HW113517   4.875   0.833   5.879
 4206SOL    HW213518   4.868   0.670   5.875
 4207SOL     OW13519   2.010   1.683   1.797
 4207SOL    HW113520   1.977   1.667   1.704
 4207SOL    HW213521   2.067   1.766   1.798
 4208SOL     OW13522   1.639   2.261   1.070
 4208SOL    HW113523   1.655   2.267   0.971
 4208SOL    HW213524   1.666   2.170   1.103
 4209SOL     OW13525   1.059   1.473   5.039
 4209SOL    HW113526   0.974   1.426   5.016
 4209SOL    HW213527   1.115   1.483   4.957
 4210SOL     OW13528   3.126   3.362   1.934
 4210SOL    HW113529   3.035   3.345   1.896
 4210SOL    HW213530   3.143   3.460   1.941
 4211SOL     OW13531   5.114   5.634   5.726
 4211SOL    HW113532   5.168   5.556   5.694
 4211SOL    HW213533   5.082   5.616   5.819
 4212SOL     OW13534   6.476   2.190   1.951
 4212SOL    HW113535   6.401   2.237   1.905
 4212SOL    HW213536   6.486   2.098   1.914
 4213SOL     OW13537   2.363   0.698   2.535
 4213SOL    HW113538   2.297   0.711   2.461
 4213SOL    HW213539   2.315   0.678   2.620
 4214SOL     OW13540   1.018   4.111   6.248
 4214SOL    HW113541   1.067   4.143   6.329
 4214SOL    HW213542   0.940   4.171   6.230
 4215SOL     OW13543   0.089   5.817   4.721
 4215SOL    HW113544   0.151   5.896   4.719
 4215SOL    HW213545   0.062   5.799   4.815
 4216SOL     OW13546   1.472   2.126   3.750
 4216SOL    HW113547   1.485   2.221   3.720
 4216SOL    HW213548   1.375   2.102   3.743
 4217SOL     OW13549   6.605   0.130   3.133
 4217SOL    HW113550   6.696   0.116   3.173
 4217SOL    HW213551   6.593   0.069   3.055
 4218SOL     OW13552   5.152   6.835   1.719
 4218SOL    HW113553   5.111   6.896   1.787
 4218SOL    HW213554   5.230   6.881   1.676
 4219SOL     OW13555   2.992   4.830   5.205
 4219SOL    HW113556   2.924   4.869   5.266
 4219SOL    HW213557   2.947   4.768   5.140
 4220SOL     OW13558   6.605   3.687   2.800
 4220SOL    HW113559   6.577   3.720   2.890
 4220SOL    HW213560   6.676   3.746   2.763
 4221SOL     OW13561   6.517   5.757   6.203
 4221SOL    HW113562   6.522   5.668   6.157
 4221SOL    HW213563   6.452   5.816   6.156
 4222SOL     OW13564   6.220   1.919   2.376
 4222SOL    HW113565   6.297   1.978   2.398
 4222SOL    HW213566   6.156   1.969   2.317
 4223SOL     OW13567   3.830   3.104   3.335
 4223SOL    HW113568   3.870   3.071   3.249
 4223SOL    HW213569   3.784   3.191   3.319
 4224SOL     OW13570   4.920   3.199   4.018
 4224SOL    HW113571   4.999   3.158   4.064
 4224SOL    HW213572   4.863   3.246   4.085
 4225SOL     OW13573   5.660   0.585   5.353
 4225SOL    HW113574   5.651   0.545   5.262
 4225SOL    HW213575   5.735   0.652   5.353
 4226SOL     OW13576   2.124   1.343   3.550
 4226SOL    HW113577   2.208   1.370   3.597
 4226SOL    HW213578   2.086   1.261   3.594
 4227SOL     OW13579   3.435   4.192   6.435
 4227SOL    HW113580   3.531   4.171   6.453
 4227SOL    HW213581   3.421   4.205   6.337
 4228SOL     OW13582   5.586   5.904   4.201
 4228SOL    HW113583   5.487   5.915   4.195
 4228SOL    HW213584   5.609   5.845   4.278
 4229SOL     OW13585   3.864   4.944   5.795
 4229SOL    HW113586   3.805   4.864   5.801
 4229SOL    HW213587   3.828   5.016   5.856
 4230SOL     OW13588   2.314   0.029   4.891
 4230SOL    HW113589   2.254   7.000   4.825
 4230SOL    HW213590   2.303   0.128   4.886
 4231SOL     OW13591   5.178   6.493   5.344
 4231SOL    HW113592   5.104   6.519   5.405
 4231SOL    HW213593   5.259   6.549   5.364
 4232SOL     OW13594   0.872   5.397   2.283
 4232SOL    HW113595   0.814   5.458   2.230
 4232SOL    HW213596   0.966   5.401   2.248
 4233SOL     OW13597   6.070   0.426   0.270
 4233SOL    HW113598   6.118   0.338   0.277
 4233SOL    HW213599   6.039   0.454   0.361
 4234SOL     OW13600   2.127   5.542   5.817
 4234SOL    HW113601   2.103   5.494   5.733
 4234SOL    HW213602   2.208   5.599   5.802
 4235SOL     OW13603   6.414   4.435   5.383
 4235SOL    HW113604   6.383   4.526   5.410
 4235SOL    HW213605   6.435   4.381   5.465
 4236SOL     OW13606   6.898   2.950   3.833
 4236SOL    HW113607   6.827   2.998   3.783
 4236SOL    HW213608   6.883   2.962   3.932
 4237SOL     OW13609   6.258   4.360   4.333
 4237SOL    HW113610   6.193   4.365   4.409
 4237SOL    HW213611   6.347   4.331   4.369
 4238SOL     OW13612   4.214   4.938   3.896
 4238SOL    HW113613   4.141   4.888   3.850
 4238SOL    HW213614   4.275   4.978   3.828
 4239SOL     OW13615   4.785   6.955   4.303
 4239SOL    HW113616   4.881   6.940   4.326
 4239SOL    HW213617   4.761   0.035   4.320
 4240SOL     OW13618   2.956   6.364   6.238
 4240SOL    HW113619   2.857   6.375   6.243
 4240SOL    HW213620   2.987   6.384   6.145
 4241SOL     OW13621   5.658   0.203   1.082
 4241SOL    HW113622   5.620   0.240   1.167
 4241SOL    HW213623   5.731   0.261   1.049
 4242SOL     OW13624   2.414   6.753   2.926
 4242SOL    HW113625   2.438   6.846   2.897
 4242SOL    HW213626   2.394   6.754   3.024
 4243SOL     OW13627   0.457   3.914   2.434
 4243SOL    HW113628   0.531   3.981   2.426
 4243SOL    HW213629   0.473   3.840   2.368
 4244SOL     OW13630   5.234   5.788   0.925
 4244SOL    HW113631   5.168   5.779   0.850
 4244SOL    HW213632   5.262   5.883   0.935
 4245SOL     OW13633   6.440   2.614   6.875
 4245SOL    HW113634   6.416   2.556   6.952
 4245SOL    HW213635   6.447   2.558   6.792
 4246SOL     OW13636   4.935   2.570   2.752
 4246SOL    HW113637   4.876   2.639   2.710
 4246SOL    HW213638   5.020   2.563   2.698
 4247SOL     OW13639   2.673   5.567   4.145
 4247SOL    HW113640   2.762   5.556   4.102
 4247SOL    HW213641   2.652   5.665   4.154
 4248SOL     OW13642   1.581   0.272   3.175
 4248SOL    HW113643   1.639   0.240   3.250
 4248SOL    HW213644   1.572   0.372   3.180
 4249SOL     OW13645   0.345   1.297   3.653
 4249SOL    HW113646   0.319   1.265   3.744
 4249SOL    HW213647   0.383   1.389   3.660
 4250SOL     OW13648   0.256   5.935   4.260
 4250SOL    HW113649   0.185   5.958   4.193
 4250SOL    HW213650   0.328   5.881   4.216
 4251SOL     OW13651   5.701   2.726   6.879
 4251SOL    HW113652   5.734   2.810   6.836
 4251SOL    HW213653   5.714   2.649   6.817
 4252SOL     OW13654   5.930   5.553   6.089
 4252SOL    HW113655   5.947   5.628   6.152
 4252SOL    HW213656   5.973   5.470   6.124
 4253SOL     OW13657   3.970   6.437   2.001
 4253SOL    HW113658   3.893   6.400   2.053
 4253SOL    HW213659   4.009   6.364   1.944
 4254SOL     OW13660   2.135   3.962   0.524
 4254SOL    HW113661   2.229   3.941   0.551
 4254SOL    HW213662   2.128   3.961   0.424
 4255SOL     OW13663   0.749   4.543   3.936
 4255SOL    HW113664   0.724   4.486   4.015
 4255SOL    HW213665   0.699   4.512   3.855
 4256SOL     OW13666   0.832   5.419   0.894
 4256SOL    HW113667   0.874   5.333   0.864
 4256SOL    HW213668   0.895   5.467   0.955
 4257SOL     OW13669   6.060   1.575   5.224
 4257SOL    HW113670   6.106   1.662   5.207
 4257SOL    HW213671   6.045   1.563   5.322
 4258SOL     OW13672   3.499   5.515   1.148
 4258SOL    HW113673   3.466   5.608   1.166
 4258SOL    HW213674   3.429   5.449   1.176
 4259SOL     OW13675   1.636   0.082   1.776
 4259SOL    HW113676   1.619   0.041   1.866
 4259SOL    HW213677   1.550   0.097   1.729
 4260SOL     OW13678   5.155   0.209   4.259
 4260SOL    HW113679   5.179   0.306   4.262
 4260SOL    HW213680   5.148   0.173   4.352
 4261SOL     OW13681   2.007   0.523   4.183
 4261SOL    HW113682   1.922   0.471   4.176
 4261SOL    HW213683   2.032   0.534   4.279
 4262SOL     OW13684   1.906   5.014   5.784
 4262SOL    HW113685   1.842   5.074   5.832
 4262SOL    HW213686   1.859   4.930   5.757
 4263SOL     OW13687   2.877   2.301   3.458
 4263SOL    HW113688   2.829   2.323   3.373
 4263SOL    HW213689   2.974   2.326   3.449
 4264SOL     OW13690   5.785   1.482   4.316
 4264SOL    HW113691   5.787   1.382   4.317
 4264SOL    HW213692   5.695   1.514   4.285
 4265SOL     OW13693   3.412   6.970   0.749
 4265SOL    HW113694   3.497   0.005   0.766
 4265SOL    HW213695   3.409   6.942   0.653
 4266SOL     OW13696   1.324   0.524   6.992
 4266SOL    HW113697   1.281   0.475   0.053
 4266SOL    HW213698   1.378   0.460   6.937
 4267SOL     OW13699   2.240   4.054   4.070
 4267SOL    HW113700   2.195   4.003   3.998
 4267SOL    HW213701   2.294   3.992   4.127
 4268SOL     OW13702   1.376   5.004   6.881
 4268SOL    HW113703   1.360   5.010   6.980
 4268SOL    HW213704   1.355   5.092   6.839
 4269SOL     OW13705   3.608   1.701   3.686
 4269SOL    HW113706   3.616   1.754   3.602
 4269SOL    HW213707   3.557   1.617   3.667
 4270SOL     OW13708   3.485   2.930   1.258
 4270SOL    HW113709   3.398   2.882   1.251
 4270SOL    HW213710   3.483   3.013   1.202
 4271SOL     OW13711   6.078   0.746   1.424
 4271SOL    HW113712   6.010   0.745   1.351
 4271SOL    HW213713   6.060   0.823   1.486
 4272SOL     OW13714   6.813   3.369   5.782
 4272SOL    HW113715   6.718   3.365   5.814
 4272SOL    HW213716   6.815   3.408   5.690
 4273SOL     OW13717   4.680   6.528   5.332
 4273SOL    HW113718   4.601   6.548   5.390
 4273SOL    HW213719   4.679   6.431   5.309
 4274SOL     OW13720   0.456   6.733   2.215
 4274SOL    HW113721   0.484   6.637   2.226
 4274SOL    HW213722   0.357   6.740   2.223
 4275SOL     OW13723   0.289   2.259   4.097
 4275SOL    HW113724   0.265   2.311   4.014
 4275SOL    HW213725   0.388   2.262   4.111
 4276SOL     OW13726   3.000   4.913   4.004
 4276SOL    HW113727   2.922   4.921   3.942
 4276SOL    HW213728   2.978   4.849   4.077
 4277SOL     OW13729   6.800   4.642   3.854
 4277SOL    HW113730   6.899   4.641   3.840
 4277SOL    HW213731   6.779   4.599   3.941
 4278SOL     OW13732   6.330   6.507   3.101
 4278SOL    HW113733   6.247   6.525   3.152
 4278SOL    HW213734   6.314   6.522   3.003
 4279SOL     OW13735   1.573   1.505   2.698
 4279SOL    HW113736   1.491   1.488   2.643
 4279SOL    HW213737   1.580   1.602   2.719
 4280SOL     OW13738   6.747   6.734   6.478
 4280SOL    HW113739   6.783   6.824   6.501
 4280SOL    HW213740   6.687   6.741   6.398
 4281SOL     OW13741   4.924   5.762   3.933
 4281SOL    HW113742   4.992   5.764   3.859
 4281SOL    HW213743   4.914   5.853   3.972
 4282SOL     OW13744   3.155   3.855   0.600
 4282SOL    HW113745   3.082   3.919   0.623
 4282SOL    HW213746   3.210   3.892   0.526
 4283SOL     OW13747   5.068   0.667   2.791
 4283SOL    HW113748   4.989   0.632   2.841
 4283SOL    HW213749   5.049   0.662   2.693
 4284SOL     OW13750   4.446   5.331   0.366
 4284SOL    HW113751   4.490   5.404   0.312
 4284SOL    HW213752   4.391   5.274   0.305
 4285SOL     OW13753   3.587   0.612   6.260
 4285SOL    HW113754   3.636   0.558   6.329
 4285SOL    HW213755   3.646   0.685   6.226
 4286SOL     OW13756   6.652   1.100   0.212
 4286SOL    HW113757   6.619   1.029   0.273
 4286SOL    HW213758   6.650   1.066   0.118
 4287SOL     OW13759   4.578   0.646   0.230
 4287SOL    HW113760   4.586   0.746   0.233
 4287SOL    HW213761   4.631   0.607   0.305
 4288SOL     OW13762   6.462   6.081   1.831
 4288SOL    HW113763   6.371   6.040   1.841
 4288SOL    HW213764   6.502   6.095   1.922
 4289SOL     OW13765   0.465   2.605   5.268
 4289SOL    HW113766   0.392   2.587   5.333
 4289SOL    HW213767   0.489   2.521   5.220
 4290SOL     OW13768   0.244   0.281   3.188
 4290SOL    HW113769   0.224   0.192   3.228
 4290SOL    HW213770   0.204   0.353   3.244
 4291SOL     OW13771   4.835   3.020   5.889
 4291SOL    HW113772   4.877   3.105   5.856
 4291SOL    HW213773   4.801   2.968   5.811
 4292SOL     OW13774   4.940   2.057   0.140
 4292SOL    HW113775   5.009   2.023   0.076
 4292SOL    HW213776   4.863   2.095   0.089
 4293SOL     OW13777   5.433   3.666   6.690
 4293SOL    HW113778   5.380   3.742   6.727
 4293SOL    HW213779   5.372   3.591   6.665
 4294SOL     OW13780   2.735   1.595   6.130
 4294SOL    HW113781   2.815   1.642   6.093
 4294SOL    HW213782   2.764   1.523   6.192
 4295SOL     OW13783   4.083   6.584   2.324
 4295SOL    HW113784   4.100   6.667   2.271
 4295SOL    HW213785   4.141   6.585   2.406
 4296SOL     OW13786   3.021   6.572   0.937
 4296SOL    HW113787   3.021   6.547   1.034
 4296SOL    HW213788   3.075   6.504   0.886
 4297SOL     OW13789   6.696   5.317   1.243
 4297SOL    HW113790   6.751   5.376   1.301
 4297SOL    HW213791   6.738   5.227   1.238
 4298SOL     OW13792   3.897   5.860   1.516
 4298SOL    HW113793   3.897   5.960   1.514
 4298SOL    HW213794   3.840   5.826   1.442
 4299SOL     OW13795   0.754   2.731   6.862
 4299SOL    HW113796   0.731   2.723   6.959
 4299SOL    HW213797   0.753   2.827   6.836
 4300SOL     OW13798   3.119   0.238   1.018
 4300SOL    HW113799   3.182   0.309   1.050
 4300SOL    HW213800   3.099   0.253   0.921
 4301SOL     OW13801   2.927   6.190   1.627
 4301SOL    HW113802   2.992   6.231   1.562
 4301SOL    HW213803   2.976   6.165   1.711
 4302SOL     OW13804   0.332   6.834   6.901
 4302SOL    HW113805   0.377   6.857   6.987
 4302SOL    HW213806   0.301   6.739   6.903
 4303SOL     OW13807   0.138   4.902   3.684
 4303SOL    HW113808   0.064   4.918   3.750
 4303SOL    HW213809   0.117   4.821   3.629
 4304SOL     OW13810   3.589   4.192   1.980
 4304SOL    HW113811   3.572   4.273   2.036
 4304SOL    HW213812   3.589   4.217   1.883
 4305SOL     OW13813   0.816   6.979   5.474
 4305SOL    HW113814   0.842   0.028   5.402
 4305SOL    HW213815   0.732   6.932   5.447
 4306SOL     OW13816   4.863   3.774   4.614
 4306SOL    HW113817   4.904   3.742   4.699
 4306SOL    HW213818   4.767   3.796   4.630
 4307SOL     OW13819   6.187   2.748   5.661
 4307SOL    HW113820   6.123   2.726   5.735
 4307SOL    HW213821   6.209   2.845   5.664
 4308SOL     OW13822   4.926   5.340   1.693
 4308SOL    HW113823   4.916   5.423   1.748
 4308SOL    HW213824   4.956   5.265   1.753
 4309SOL     OW13825   0.977   3.520   6.458
 4309SOL    HW113826   1.034   3.447   6.496
 4309SOL    HW213827   0.946   3.581   6.532
 4310SOL     OW13828   1.551   2.310   2.829
 4310SOL    HW113829   1.511   2.319   2.738
 4310SOL    HW213830   1.577   2.215   2.844
 4311SOL     OW13831   1.419   6.266   2.274
 4311SOL    HW113832   1.379   6.290   2.362
 4311SOL    HW213833   1.416   6.345   2.213
 4312SOL     OW13834   1.070   5.123   2.174
 4312SOL    HW113835   1.051   5.147   2.269
 4312SOL    HW213836   1.134   5.046   2.172
 4313SOL     OW13837   4.707   1.919   0.528
 4313SOL    HW113838   4.661   1.836   0.562
 4313SOL    HW213839   4.648   1.964   0.461
 4314SOL     OW13840   6.607   2.393   6.097
 4314SOL    HW113841   6.573   2.309   6.056
 4314SOL    HW213842   6.673   2.436   6.035
 4315SOL     OW13843   1.949   1.908   2.866
 4315SOL    HW113844   2.028   1.894   2.926
 4315SOL    HW213845   1.899   1.989   2.895
 4316SOL     OW13846   4.732   0.792   2.758
 4316SOL    HW113847   4.767   0.713   2.707
 4316SOL    HW213848   4.784   0.874   2.733
 4317SOL     OW13849   4.537   0.757   5.217
 4317SOL    HW113850   4.539   0.841   5.162
 4317SOL    HW213851   4.625   0.746   5.264
 4318SOL     OW13852   0.583   0.981   4.395
 4318SOL    HW113853   0.584   0.884   4.373
 4318SOL    HW213854   0.491   1.017   4.383
 4319SOL     OW13855   1.712   1.774   1.595
 4319SOL    HW113856   1.613   1.789   1.602
 4319SOL    HW213857   1.759   1.863   1.600
 4320SOL     OW13858   3.898   6.237   0.492
 4320SOL    HW113859   3.975   6.174   0.480
 4320SOL    HW213860   3.813   6.184   0.497
 4321SOL     OW13861   6.652   5.871   3.153
 4321SOL    HW113862   6.714   5.831   3.086
 4321SOL    HW213863   6.700   5.940   3.206
 4322SOL     OW13864   0.737   2.612   5.265
 4322SOL    HW113865   0.639   2.589   5.268
 4322SOL    HW213866   0.790   2.535   5.301
 4323SOL     OW13867   4.341   5.395   6.993
 4323SOL    HW113868   4.319   5.342   0.060
 4323SOL    HW213869   4.276   5.373   6.921
 4324SOL     OW13870   0.095   3.928   5.489
 4324SOL    HW113871   0.055   3.843   5.522
 4324SOL    HW213872   0.176   3.908   5.433
 4325SOL     OW13873   3.004   0.984   2.905
 4325SOL    HW113874   2.908   0.975   2.880
 4325SOL    HW213875   3.021   0.939   2.993
 4326SOL     OW13876   4.937   2.802   2.514
 4326SOL    HW113877   5.033   2.784   2.537
 4326SOL    HW213878   4.932   2.885   2.458
 4327SOL     OW13879   3.456   5.615   3.266
 4327SOL    HW113880   3.430   5.546   3.198
 4327SOL    HW213881   3.536   5.583   3.317
 4328SOL     OW13882   5.890   4.826   5.150
 4328SOL    HW113883   5.984   4.860   5.145
 4328SOL    HW213884   5.890   4.727   5.137
 4329SOL     OW13885   5.576   3.207   5.156
 4329SOL    HW113886   5.629   3.282   5.196
 4329SOL    HW213887   5.632   3.158   5.090
 4330SOL     OW13888   2.481   6.204   5.122
 4330SOL    HW113889   2.559   6.233   5.177
 4330SOL    HW213890   2.486   6.247   5.032
 4331SOL     OW13891   6.948   0.628   1.441
 4331SOL    HW113892   6.944   0.532   1.468
 4331SOL    HW213893   0.020   0.646   1.393
 4332SOL     OW13894   6.109   3.709   2.873
 4332SOL    HW113895   6.110   3.806   2.850
 4332SOL    HW213896   6.189   3.664   2.833
 4333SOL     OW13897   4.778   2.443   4.848
 4333SOL    HW113898   4.869   2.420   4.813
 4333SOL    HW213899   4.766   2.401   4.938
 4334SOL     OW13900   0.907   2.652   2.344
 4334SOL    HW113901   0.987   2.644   2.404
 4334SOL    HW213902   0.925   2.723   2.275
 4335SOL     OW13903   2.952   2.814   0.723
 4335SOL    HW113904   2.914   2.753   0.793
 4335SOL    HW213905   2.977   2.901   0.764
 4336SOL     OW13906   2.016   5.349   5.623
 4336SOL    HW113907   2.039   5.335   5.527
 4336SOL    HW213908   2.078   5.294   5.680
 4337SOL     OW13909   1.455   5.872   2.578
 4337SOL    HW113910   1.391   5.854   2.504
 4337SOL    HW213911   1.547   5.841   2.552
 4338SOL     OW13912   6.263   6.756   6.007
 4338SOL    HW113913   6.219   6.742   5.918
 4338SOL    HW213914   6.335   6.687   6.019
 4339SOL     OW13915   3.957   2.547   0.139
 4339SOL    HW113916   3.864   2.555   0.103
 4339SOL    HW213917   3.982   2.450   0.146
 4340SOL     OW13918   6.137   3.376   0.901
 4340SOL    HW113919   6.051   3.411   0.937
 4340SOL    HW213920   6.181   3.446   0.845
 4341SOL     OW13921   0.938   5.838   2.103
 4341SOL    HW113922   0.895   5.908   2.160
 4341SOL    HW213923   1.005   5.880   2.043
 4342SOL     OW13924   4.905   3.398   2.923
 4342SOL    HW113925   4.932   3.475   2.866
 4342SOL    HW213926   4.874   3.323   2.864
 4343SOL     OW13927   3.629   0.340   5.772
 4343SOL    HW113928   3.568   0.308   5.845
 4343SOL    HW213929   3.581   0.410   5.718
 4344SOL     OW13930   0.205   3.160   4.014
 4344SOL    HW113931   0.194   3.110   3.929
 4344SOL    HW213932   0.124   3.148   4.071
 4345SOL     OW13933   2.856   3.573   2.543
 4345SOL    HW113934   2.896   3.665   2.547
 4345SOL    HW213935   2.756   3.580   2.533
 4346SOL     OW13936   2.191   2.891   3.088
 4346SOL    HW113937   2.092   2.897   3.084
 4346SOL    HW213938   2.225   2.838   3.010
 4347SOL     OW13939   6.113   5.673   1.201
 4347SOL    HW113940   6.080   5.675   1.106
 4347SOL    HW213941   6.165   5.589   1.216
 4348SOL     OW13942   6.727   6.224   3.848
 4348SOL    HW113943   6.820   6.199   3.874
 4348SOL    HW213944   6.664   6.195   3.920
 4349SOL     OW13945   0.485   4.243   3.698
 4349SOL    HW113946   0.481   4.144   3.714
 4349SOL    HW213947   0.392   4.281   3.702
 4350SOL     OW13948   5.804   1.657   4.925
 4350SOL    HW113949   5.773   1.719   4.997
 4350SOL    HW213950   5.752   1.675   4.841
 4351SOL     OW13951   1.383   6.218   1.662
 4351SOL    HW113952   1.289   6.235   1.635
 4351SOL    HW213953   1.445   6.265   1.600
 4352SOL     OW13954   5.478   4.386   1.222
 4352SOL    HW113955   5.492   4.354   1.316
 4352SOL    HW213956   5.393   4.346   1.186
 4353SOL     OW13957   3.426   3.522   6.575
 4353SOL    HW113958   3.334   3.550   6.548
 4353SOL    HW213959   3.447   3.561   6.665
 4354SOL     OW13960   0.215   0.236   4.857
 4354SOL    HW113961   0.205   0.336   4.866
 4354SOL    HW213962   0.135   0.199   4.810
 4355SOL     OW13963   1.253   0.203   4.060
 4355SOL    HW113964   1.349   0.182   4.043
 4355SOL    HW213965   1.238   0.301   4.050
 4356SOL     OW13966   4.934   3.297   5.793
 4356SOL    HW113967   4.886   3.290   5.706
 4356SOL    HW213968   5.032   3.284   5.778
 4357SOL     OW13969   6.778   1.348   2.323
 4357SOL    HW113970   6.863   1.377   2.367
 4357SOL    HW213971   6.771   1.391   2.233
 4358SOL     OW13972   0.184   1.168   0.312
 4358SOL    HW113973   0.215   1.089   0.365
 4358SOL    HW213974   0.084   1.170   0.312
 4359SOL     OW13975   2.379   0.552   6.287
 4359SOL    HW113976   2.335   0.641   6.292
 4359SOL    HW213977   2.315   0.481   6.317
 4360SOL     OW13978   0.745   2.572   3.507
 4360SOL    HW113979   0.818   2.591   3.573
 4360SOL    HW213980   0.705   2.483   3.528
 4361SOL     OW13981   1.709   2.517   1.143
 4361SOL    HW113982   1.693   2.581   1.068
 4361SOL    HW213983   1.673   2.427   1.118
 4362SOL     OW13984   0.666   6.413   4.058
 4362SOL    HW113985   0.752   6.365   4.038
 4362SOL    HW213986   0.603   6.351   4.104
 4363SOL     OW13987   4.263   0.687   3.293
 4363SOL    HW113988   4.210   0.609   3.262
 4363SOL    HW213989   4.236   0.768   3.241
 4364SOL     OW13990   2.948   3.851   2.564
 4364SOL    HW113991   3.030   3.861   2.506
 4364SOL    HW213992   2.899   3.938   2.567
 4365SOL     OW13993   2.863   1.959   1.428
 4365SOL    HW113994   2.785   1.999   1.380
 4365SOL    HW213995   2.842   1.952   1.525
 4366SOL     OW13996   5.399   5.662   5.456
 4366SOL    HW113997   5.355   5.751   5.467
 4366SOL    HW213998   5.337   5.590   5.488
 4367SOL     OW13999   3.080   4.941   2.789
 4367SOL    HW114000   3.002   4.919   2.731
 4367SOL    HW214001   3.159   4.964   2.733
 4368SOL     OW14002   4.463   6.222   2.579
 4368SOL    HW114003   4.519   6.169   2.642
 4368SOL    HW214004   4.492   6.204   2.485
 4369SOL     OW14005   5.214   5.615   3.370
 4369SOL    HW114006   5.122   5.575   3.363
 4369SOL    HW214007   5.279   5.558   3.320
 4370SOL     OW14008   3.928   4.104   1.486
 4370SOL    HW114009   3.909   4.025   1.428
 4370SOL    HW214010   3.844   4.157   1.500
 4371SOL     OW14011   2.833   0.438   2.319
 4371SOL    HW114012   2.925   0.461   2.350
 4371SOL    HW214013   2.766   0.483   2.378
 4372SOL     OW14014   1.321   2.536   4.738
 4372SOL    HW114015   1.378   2.496   4.809
 4372SOL    HW214016   1.298   2.467   4.669
 4373SOL     OW14017   4.588   0.757   6.003
 4373SOL    HW114018   4.682   0.774   5.973
 4373SOL    HW214019   4.532   0.839   5.985
 4374SOL     OW14020   2.487   1.915   1.355
 4374SOL    HW114021   2.417   1.894   1.422
 4374SOL    HW214022   2.501   1.836   1.295
 4375SOL     OW14023   3.515   0.168   3.727
 4375SOL    HW114024   3.483   0.118   3.808
 4375SOL    HW214025   3.604   0.209   3.746
 4376SOL     OW14026   6.604   6.124   1.326
 4376SOL    HW114027   6.665   6.200   1.303
 4376SOL    HW214028   6.569   6.136   1.419
 4377SOL     OW14029   6.181   6.051   0.204
 4377SOL    HW114030   6.207   6.015   0.114
 4377SOL    HW214031   6.089   6.021   0.227
 4378SOL     OW14032   1.661   5.191   2.404
 4378SOL    HW114033   1.733   5.196   2.474
 4378SOL    HW214034   1.656   5.097   2.369
 4379SOL     OW14035   1.708   0.541   1.829
 4379SOL    HW114036   1.730   0.621   1.773
 4379SOL    HW214037   1.711   0.566   1.926
 4380SOL     OW14038   1.928   5.925   4.869
 4380SOL    HW114039   1.922   5.982   4.786
 4380SOL    HW214040   1.955   5.982   4.946
 4381SOL     OW14041   3.522   5.521   4.390
 4381SOL    HW114042   3.498   5.487   4.481
 4381SOL    HW214043   3.444   5.569   4.350
 4382SOL     OW14044   4.693   4.498   4.405
 4382SOL    HW114045   4.706   4.458   4.496
 4382SOL    HW214046   4.663   4.593   4.414
 4383SOL     OW14047   1.371   1.826   5.649
 4383SOL    HW114048   1.390   1.922   5.627
 4383SOL    HW214049   1.392   1.768   5.570
 4384SOL     OW14050   4.198   0.371   1.344
 4384SOL    HW114051   4.233   0.370   1.250
 4384SOL    HW214052   4.115   0.427   1.348
 4385SOL     OW14053   0.041   1.476   3.871
 4385SOL    HW114054   0.094   1.473   3.786
 4385SOL    HW214055   6.992   1.552   3.867
 4386SOL     OW14056   1.160   4.179   6.478
 4386SOL    HW114057   1.256   4.154   6.487
 4386SOL    HW214058   1.105   4.125   6.542
 4387SOL     OW14059   6.693   2.593   1.235
 4387SOL    HW114060   6.736   2.678   1.265
 4387SOL    HW214061   6.741   2.515   1.275
 4388SOL     OW14062   4.017   0.533   6.553
 4388SOL    HW114063   4.088   0.466   6.532
 4388SOL    HW214064   4.058   0.611   6.600
 4389SOL     OW14065   5.523   2.265   1.539
 4389SOL    HW114066   5.593   2.336   1.539
 4389SOL    HW214067   5.530   2.211   1.454
 4390SOL     OW14068   4.464   2.128   1.806
 4390SOL    HW114069   4.415   2.086   1.883
 4390SOL    HW214070   4.397   2.163   1.740
 4391SOL     OW14071   1.676   5.894   6.254
 4391SOL    HW114072   1.775   5.911   6.255
 4391SOL    HW214073   1.638   5.910   6.345
 4392SOL     OW14074   5.163   3.181   4.947
 4392SOL    HW114075   5.162   3.206   5.044
 4392SOL    HW214076   5.080   3.215   4.903
 4393SOL     OW14077   4.665   0.195   3.872
 4393SOL    HW114078   4.575   0.155   3.854
 4393SOL    HW214079   4.736   0.126   3.855
 4394SOL     OW14080   5.908   5.673   2.740
 4394SOL    HW114081   5.921   5.750   2.677
 4394SOL    HW214082   5.834   5.615   2.706
 4395SOL     OW14083   4.501   1.643   0.993
 4395SOL    HW114084   4.476   1.714   1.059
 4395SOL    HW214085   4.430   1.572   0.993
 4396SOL     OW14086   2.007   1.898   4.327
 4396SOL    HW114087   2.011   1.904   4.426
 4396SOL    HW214088   2.064   1.821   4.297
 4397SOL     OW14089   0.491   1.436   3.910
 4397SOL    HW114090   0.448   1.504   3.850
 4397SOL    HW214091   0.427   1.361   3.927
 4398SOL     OW14092   1.512   4.484   4.698
 4398SOL    HW114093   1.454   4.419   4.649
 4398SOL    HW214094   1.485   4.488   4.794
 4399SOL     OW14095   2.726   0.610   0.658
 4399SOL    HW114096   2.667   0.544   0.613
 4399SOL    HW214097   2.754   0.574   0.747
 4400SOL     OW14098   1.892   0.056   4.295
 4400SOL    HW114099   1.885   0.140   4.242
 4400SOL    HW214100   1.829   7.003   4.258
 4401SOL     OW14101   5.817   6.173   5.281
 4401SOL    HW114102   5.910   6.207   5.273
 4401SOL    HW214103   5.802   6.136   5.373
 4402SOL     OW14104   1.129   5.582   3.144
 4402SOL    HW114105   1.042   5.544   3.114
 4402SOL    HW214106   1.113   5.665   3.198
 4403SOL     OW14107   6.479   0.121   3.388
 4403SOL    HW114108   6.528   0.144   3.303
 4403SOL    HW214109   6.508   0.031   3.420
 4404SOL     OW14110   1.262   3.634   4.498
 4404SOL    HW114111   1.191   3.629   4.567
 4404SOL    HW214112   1.313   3.547   4.495
 4405SOL     OW14113   2.993   4.530   5.641
 4405SOL    HW114114   2.960   4.509   5.733
 4405SOL    HW214115   3.091   4.514   5.636
 4406SOL     OW14116   4.860   4.951   1.127
 4406SOL    HW114117   4.837   4.994   1.215
 4406SOL    HW214118   4.947   4.988   1.094
 4407SOL     OW14119   0.153   5.767   0.536
 4407SOL    HW114120   0.168   5.727   0.446
 4407SOL    HW214121   0.117   5.696   0.598
 4408SOL     OW14122   4.598   0.450   0.967
 4408SOL    HW114123   4.681   0.410   0.929
 4408SOL    HW214124   4.588   0.423   1.063
 4409SOL     OW14125   4.082   1.306   1.627
 4409SOL    HW114126   4.105   1.320   1.531
 4409SOL    HW214127   3.982   1.298   1.636
 4410SOL     OW14128   2.459   4.244   0.127
 4410SOL    HW114129   2.388   4.309   0.155
 4410SOL    HW214130   2.425   4.188   0.053
 4411SOL     OW14131   3.263   3.277   2.996
 4411SOL    HW114132   3.168   3.253   3.016
 4411SOL    HW214133   3.314   3.195   2.972
 4412SOL     OW14134   4.635   1.596   5.531
 4412SOL    HW114135   4.657   1.596   5.629
 4412SOL    HW214136   4.552   1.648   5.516
 4413SOL     OW14137   4.452   5.688   4.457
 4413SOL    HW114138   4.513   5.765   4.478
 4413SOL    HW214139   4.503   5.618   4.408
 4414SOL     OW14140   4.894   5.058   2.505
 4414SOL    HW114141   4.845   5.115   2.438
 4414SOL    HW214142   4.979   5.104   2.532
 4415SOL     OW14143   5.623   3.546   6.264
 4415SOL    HW114144   5.555   3.475   6.280
 4415SOL    HW214145   5.631   3.563   6.166
 4416SOL     OW14146   2.643   1.567   3.860
 4416SOL    HW114147   2.603   1.569   3.769
 4416SOL    HW214148   2.693   1.652   3.876
 4417SOL     OW14149   6.772   4.493   2.635
 4417SOL    HW114150   6.749   4.589   2.616
 4417SOL    HW214151   6.826   4.489   2.720
 4418SOL     OW14152   4.278   6.654   4.107
 4418SOL    HW114153   4.186   6.648   4.069
 4418SOL    HW214154   4.275   6.634   4.205
 4419SOL     OW14155   5.792   5.598   0.380
 4419SOL    HW114156   5.724   5.562   0.317
 4419SOL    HW214157   5.830   5.523   0.435
 4420SOL     OW14158   4.569   0.962   0.521
 4420SOL    HW114159   4.577   1.061   0.533
 4420SOL    HW214160   4.660   0.924   0.503
 4421SOL     OW14161   2.488   1.619   2.368
 4421SOL    HW114162   2.576   1.661   2.344
 4421SOL    HW214163   2.415   1.660   2.313
 4422SOL     OW14164   2.800   3.166   5.813
 4422SOL    HW114165   2.726   3.138   5.752
 4422SOL    HW214166   2.790   3.263   5.835
 4423SOL     OW14167   1.308   2.279   5.430
 4423SOL    HW114168   1.377   2.287   5.357
 4423SOL    HW214169   1.321   2.353   5.496
 4424SOL     OW14170   5.017   6.648   3.383
 4424SOL    HW114171   5.054   6.555   3.386
 4424SOL    HW214172   4.918   6.644   3.395
 4425SOL     OW14173   3.611   5.431   6.231
 4425SOL    HW114174   3.711   5.424   6.241
 4425SOL    HW214175   3.587   5.424   6.134
 4426SOL     OW14176   0.028   0.972   5.476
 4426SOL    HW114177   0.075   0.974   5.388
 4426SOL    HW214178   6.948   0.946   5.461
 4427SOL     OW14179   0.399   0.899   3.266
 4427SOL    HW114180   0.417   0.992   3.297
 4427SOL    HW214181   0.372   0.900   3.170
 4428SOL     OW14182   2.904   4.783   4.228
 4428SOL    HW114183   2.892   4.787   4.327
 4428SOL    HW214184   2.825   4.736   4.187
 4429SOL     OW14185   3.179   0.152   3.659
 4429SOL    HW114186   3.266   0.156   3.610
 4429SOL    HW214187   3.122   0.229   3.632
 4430SOL     OW14188   4.461   2.413   3.282
 4430SOL    HW114189   4.362   2.396   3.278
 4430SOL    HW214190   4.505   2.379   3.199
 4431SOL     OW14191   2.969   1.145   2.389
 4431SOL    HW114192   2.983   1.207   2.312
 4431SOL    HW214193   2.912   1.068   2.361
 4432SOL     OW14194   3.488   2.955   3.622
 4432SOL    HW114195   3.573   2.948   3.568
 4432SOL    HW214196   3.490   2.888   3.696
 4433SOL     OW14197   6.101   0.193   3.532
 4433SOL    HW114198   6.119   0.130   3.607
 4433SOL    HW214199   6.120   0.286   3.561
 4434SOL     OW14200   4.779   1.323   4.251
 4434SOL    HW114201   4.872   1.318   4.214
 4434SOL    HW214202   4.752   1.419   4.259
 4435SOL     OW14203   3.510   3.219   0.860
 4435SOL    HW114204   3.434   3.240   0.800
 4435SOL    HW214205   3.577   3.163   0.811
 4436SOL     OW14206   3.185   1.906   6.605
 4436SOL    HW114207   3.254   1.892   6.533
 4436SOL    HW214208   3.113   1.838   6.596
 4437SOL     OW14209   4.358   0.891   4.584
 4437SOL    HW114210   4.308   0.805   4.585
 4437SOL    HW214211   4.307   0.959   4.531
 4438SOL     OW14212   4.481   1.601   0.040
 4438SOL    HW114213   4.556   1.640   0.094
 4438SOL    HW214214   4.473   1.651   6.969
 4439SOL     OW14215   0.971   5.184   1.370
 4439SOL    HW114216   1.023   5.262   1.337
 4439SOL    HW214217   0.881   5.214   1.402
 4440SOL     OW14218   1.837   5.476   0.140
 4440SOL    HW114219   1.742   5.461   0.111
 4440SOL    HW214220   1.892   5.397   0.114
 4441SOL     OW14221   6.292   1.953   1.733
 4441SOL    HW114222   6.375   1.954   1.789
 4441SOL    HW214223   6.285   2.040   1.684
 4442SOL     OW14224   3.658   6.425   3.566
 4442SOL    HW114225   3.587   6.465   3.625
 4442SOL    HW214226   3.629   6.429   3.471
 4443SOL     OW14227   1.338   2.088   6.645
 4443SOL    HW114228   1.423   2.126   6.681
 4443SOL    HW214229   1.312   2.136   6.561
 4444SOL     OW14230   3.826   6.232   6.556
 4444SOL    HW114231   3.921   6.201   6.543
 4444SOL    HW214232   3.819   6.280   6.643
 4445SOL     OW14233   1.366   1.082   6.344
 4445SOL    HW114234   1.374   0.982   6.340
 4445SOL    HW214235   1.328   1.115   6.257
 4446SOL     OW14236   5.969   0.969   1.571
 4446SOL    HW114237   5.875   0.988   1.543
 4446SOL    HW214238   6.011   1.053   1.604
 4447SOL     OW14239   5.164   3.472   5.468
 4447SOL    HW114240   5.065   3.485   5.474
 4447SOL    HW214241   5.209   3.523   5.541
 4448SOL     OW14242   3.020   4.115   0.124
 4448SOL    HW114243   3.004   4.065   0.209
 4448SOL    HW214244   2.933   4.128   0.076
 4449SOL     OW14245   3.515   0.527   6.018
 4449SOL    HW114246   3.554   0.540   6.109
 4449SOL    HW214247   3.559   0.590   5.954
 4450SOL     OW14248   3.403   2.977   2.931
 4450SOL    HW114249   3.457   2.976   2.848
 4450SOL    HW214250   3.463   2.976   3.011
 4451SOL     OW14251   5.712   4.243   2.675
 4451SOL    HW114252   5.753   4.154   2.696
 4451SOL    HW214253   5.673   4.282   2.758
 4452SOL     OW14254   6.142   6.449   5.009
 4452SOL    HW114255   6.074   6.482   5.074
 4452SOL    HW214256   6.127   6.352   4.990
 4453SOL     OW14257   6.089   3.005   0.867
 4453SOL    HW114258   6.059   3.013   0.772
 4453SOL    HW214259   6.170   3.062   0.881
 4454SOL     OW14260   5.273   2.064   1.263
 4454SOL    HW114261   5.181   2.076   1.301
 4454SOL    HW214262   5.316   2.153   1.253
 4455SOL     OW14263   2.999   6.205   1.193
 4455SOL    HW114264   2.985   6.218   1.095
 4455SOL    HW214265   3.039   6.115   1.209
 4456SOL     OW14266   2.508   5.218   2.461
 4456SOL    HW114267   2.465   5.166   2.534
 4456SOL    HW214268   2.456   5.207   2.376
 4457SOL     OW14269   4.203   2.596   6.681
 4457SOL    HW114270   4.175   2.642   6.596
 4457SOL    HW214271   4.132   2.608   6.750
 4458SOL     OW14272   1.919   3.057   6.585
 4458SOL    HW114273   1.941   2.960   6.588
 4458SOL    HW214274   1.829   3.070   6.545
 4459SOL     OW14275   5.146   7.013   4.094
 4459SOL    HW114276   5.147   0.067   4.166
 4459SOL    HW214277   5.166   6.924   4.134
 4460SOL     OW14278   2.124   2.950   6.297
 4460SOL    HW114279   2.086   3.007   6.224
 4460SOL    HW214280   2.211   2.911   6.267
 4461SOL     OW14281   0.945   0.087   2.825
 4461SOL    HW114282   0.905   0.003   2.862
 4461SOL    HW214283   0.875   0.140   2.778
 4462SOL     OW14284   6.665   4.300   1.043
 4462SOL    HW114285   6.733   4.259   1.104
 4462SOL    HW214286   6.592   4.341   1.098
 4463SOL     OW14287   1.851   2.624   6.822
 4463SOL    HW114288   1.817   2.586   6.908
 4463SOL    HW214289   1.853   2.724   6.828
 4464SOL     OW14290   6.075   4.996   0.759
 4464SOL    HW114291   6.169   5.022   0.735
 4464SOL    HW214292   6.045   5.051   0.837
 4465SOL     OW14293   1.964   6.234   2.696
 4465SOL    HW114294   2.053   6.278   2.702
 4465SOL    HW214295   1.913   6.271   2.618
 4466SOL     OW14296   0.768   0.909   2.801
 4466SOL    HW114297   0.746   0.910   2.703
 4466SOL    HW214298   0.857   0.952   2.815
 4467SOL     OW14299   0.925   6.804   3.490
 4467SOL    HW114300   1.010   6.828   3.443
 4467SOL    HW214301   0.945   6.785   3.586
 4468SOL     OW14302   0.619   1.943   0.181
 4468SOL    HW114303   0.625   1.965   0.279
 4468SOL    HW214304   0.535   1.982   0.143
 4469SOL     OW14305   3.120   6.671   1.968
 4469SOL    HW114306   3.110   6.575   1.942
 4469SOL    HW214307   3.196   6.712   1.917
 4470SOL     OW14308   5.469   3.520   1.640
 4470SOL    HW114309   5.376   3.527   1.603
 4470SOL    HW214310   5.480   3.432   1.686
 4471SOL     OW14311   0.336   2.835   0.181
 4471SOL    HW114312   0.309   2.775   0.106
 4471SOL    HW214313   0.261   2.844   0.246
 4472SOL     OW14314   1.858   4.314   2.887
 4472SOL    HW114315   1.851   4.241   2.819
 4472SOL    HW214316   1.913   4.283   2.965
 4473SOL     OW14317   6.863   0.268   4.983
 4473SOL    HW114318   6.900   0.186   4.939
 4473SOL    HW214319   6.778   0.295   4.938
 4474SOL     OW14320   3.028   0.298   2.736
 4474SOL    HW114321   3.072   0.225   2.788
 4474SOL    HW214322   3.036   0.279   2.638
 4475SOL     OW14323   1.329   3.773   1.367
 4475SOL    HW114324   1.324   3.862   1.413
 4475SOL    HW214325   1.332   3.787   1.268
 4476SOL     OW14326   5.170   6.351   2.948
 4476SOL    HW114327   5.228   6.285   2.995
 4476SOL    HW214328   5.103   6.302   2.892
 4477SOL     OW14329   1.601   0.215   6.644
 4477SOL    HW114330   1.568   0.128   6.607
 4477SOL    HW214331   1.643   0.268   6.570
 4478SOL     OW14332   2.377   6.444   2.392
 4478SOL    HW114333   2.333   6.496   2.465
 4478SOL    HW214334   2.397   6.351   2.424
 4479SOL     OW14335   1.272   0.458   6.614
 4479SOL    HW114336   1.254   0.392   6.541
 4479SOL    HW214337   1.320   0.412   6.689
 4480SOL     OW14338   2.072   3.402   4.429
 4480SOL    HW114339   2.047   3.498   4.425
 4480SOL    HW214340   2.144   3.389   4.498
 4481SOL     OW14341   2.169   6.521   4.467
 4481SOL    HW114342   2.221   6.466   4.402
 4481SOL    HW214343   2.232   6.577   4.521
 4482SOL     OW14344   0.948   3.907   3.987
 4482SOL    HW114345   0.985   3.842   4.053
 4482SOL    HW214346   0.996   3.897   3.900
 4483SOL     OW14347   6.884   3.200   1.129
 4483SOL    HW114348   6.902   3.104   1.153
 4483SOL    HW214349   6.808   3.204   1.065
 4484SOL     OW14350   3.580   2.099   5.466
 4484SOL    HW114351   3.504   2.037   5.442
 4484SOL    HW214352   3.622   2.134   5.382
 4485SOL     OW14353   5.132   2.717   6.577
 4485SOL    HW114354   5.188   2.649   6.530
 4485SOL    HW214355   5.038   2.683   6.585
 4486SOL     OW14356   6.895   4.044   4.792
 4486SOL    HW114357   6.859   4.094   4.871
 4486SOL    HW214358   6.837   3.965   4.773
 4487SOL     OW14359   2.333   3.357   6.749
 4487SOL    HW114360   2.257   3.293   6.741
 4487SOL    HW214361   2.339   3.390   6.843
 4488SOL     OW14362   5.560   2.705   6.425
 4488SOL    HW114363   5.639   2.651   6.396
 4488SOL    HW214364   5.527   2.670   6.513
 4489SOL     OW14365   5.308   6.052   4.273
 4489SOL    HW114366   5.314   6.124   4.342
 4489SOL    HW214367   5.258   5.974   4.311
 4490SOL     OW14368   5.496   1.774   1.634
 4490SOL    HW114369   5.465   1.860   1.594
 4490SOL    HW214370   5.596   1.774   1.639
 4491SOL     OW14371   1.159   3.139   2.949
 4491SOL    HW114372   1.073   3.089   2.957
 4491SOL    HW214373   1.216   3.095   2.880
 4492SOL     OW14374   5.436   2.572   0.493
 4492SOL    HW114375   5.385   2.652   0.524
 4492SOL    HW214376   5.403   2.491   0.540
 4493SOL     OW14377   3.790   4.934   4.527
 4493SOL    HW114378   3.808   5.007   4.461
 4493SOL    HW214379   3.874   4.913   4.577
 4494SOL     OW14380   6.790   2.467   5.898
 4494SOL    HW114381   6.822   2.530   5.970
 4494SOL    HW214382   6.780   2.517   5.812
 4495SOL     OW14383   5.066   6.903   3.317
 4495SOL    HW114384   5.021   6.820   3.350
 4495SOL    HW214385   5.013   6.983   3.345
 4496SOL     OW14386   5.214   5.006   0.387
 4496SOL    HW114387   5.285   5.074   0.368
 4496SOL    HW214388   5.228   4.969   0.479
 4497SOL     OW14389   5.464   6.049   6.658
 4497SOL    HW114390   5.458   6.134   6.711
 4497SOL    HW214391   5.560   6.030   6.638
 4498SOL     OW14392   0.301   3.704   6.657
 4498SOL    HW114393   0.311   3.700   6.757
 4498SOL    HW214394   0.360   3.636   6.615
 4499SOL     OW14395   6.493   3.307   4.152
 4499SOL    HW114396   6.463   3.401   4.140
 4499SOL    HW214397   6.429   3.259   4.213
 4500SOL     OW14398   2.975   3.737   4.151
 4500SOL    HW114399   2.965   3.656   4.093
 4500SOL    HW214400   2.944   3.715   4.244
 4501SOL     OW14401   0.958   3.809   5.631
 4501SOL    HW114402   1.014   3.857   5.564
 4501SOL    HW214403   0.930   3.721   5.593
 4502SOL     OW14404   2.007   2.571   5.951
 4502SOL    HW114405   2.057   2.490   5.921
 4502SOL    HW214406   2.006   2.639   5.877
 4503SOL     OW14407   2.335   0.793   3.165
 4503SOL    HW114408   2.291   0.827   3.248
 4503SOL    HW214409   2.421   0.748   3.190
 4504SOL     OW14410   6.489   2.310   5.442
 4504SOL    HW114411   6.538   2.277   5.362
 4504SOL    HW214412   6.453   2.401   5.424
 4505SOL     OW14413   0.514   6.037   4.929
 4505SOL    HW114414   0.546   5.979   4.854
 4505SOL    HW214415   0.433   5.997   4.971
 4506SOL     OW14416   4.007   2.059   4.556
 4506SOL    HW114417   4.018   2.106   4.469
 4506SOL    HW214418   3.924   2.005   4.555
 4507SOL     OW14419   4.833   4.569   1.689
 4507SOL    HW114420   4.767   4.528   1.625
 4507SOL    HW214421   4.855   4.503   1.760
 4508SOL     OW14422   1.462   3.964   6.800
 4508SOL    HW114423   1.419   3.953   6.711
 4508SOL    HW214424   1.434   3.888   6.860
 4509SOL     OW14425   4.424   1.890   4.295
 4509SOL    HW114426   4.516   1.928   4.281
 4509SOL    HW214427   4.432   1.796   4.330
 4510SOL     OW14428   5.360   0.232   4.941
 4510SOL    HW114429   5.415   0.314   4.924
 4510SOL    HW214430   5.419   0.152   4.935
 4511SOL     OW14431   0.261   3.269   6.485
 4511SOL    HW114432   0.267   3.243   6.388
 4511SOL    HW214433   0.242   3.188   6.540
 4512SOL     OW14434   2.617   6.629   6.122
 4512SOL    HW114435   2.543   6.620   6.055
 4512SOL    HW214436   2.664   6.716   6.109
 4513SOL     OW14437   4.948   6.624   1.391
 4513SOL    HW114438   4.861   6.655   1.430
 4513SOL    HW214439   4.940   6.528   1.363
 4514SOL     OW14440   3.911   1.015   4.686
 4514SOL    HW114441   3.958   0.988   4.602
 4514SOL    HW214442   3.965   1.084   4.733
 4515SOL     OW14443   6.668   4.073   0.168
 4515SOL    HW114444   6.574   4.045   0.185
 4515SOL    HW214445   6.672   4.131   0.087
 4516SOL     OW14446   1.269   1.164   6.084
 4516SOL    HW114447   1.213   1.083   6.100
 4516SOL    HW214448   1.210   1.244   6.074
 4517SOL     OW14449   2.672   6.851   5.865
 4517SOL    HW114450   2.639   6.837   5.772
 4517SOL    HW214451   2.744   6.785   5.885
 4518SOL     OW14452   0.077   2.127   3.789
 4518SOL    HW114453   0.019   2.068   3.845
 4518SOL    HW214454   0.030   2.214   3.773
 4519SOL     OW14455   0.278   1.566   2.539
 4519SOL    HW114456   0.325   1.651   2.518
 4519SOL    HW214457   0.240   1.569   2.631
 4520SOL     OW14458   5.722   4.993   2.822
 4520SOL    HW114459   5.790   4.929   2.856
 4520SOL    HW214460   5.720   5.074   2.880
 4521SOL     OW14461   5.044   1.866   5.930
 4521SOL    HW114462   4.995   1.891   6.014
 4521SOL    HW214463   5.095   1.945   5.897
 4522SOL     OW14464   4.859   6.998   3.895
 4522SOL    HW114465   4.953   0.015   3.911
 4522SOL    HW214466   4.831   6.939   3.971
 4523SOL     OW14467   1.996   4.174   0.082
 4523SOL    HW114468   1.962   4.084   0.054
 4523SOL    HW214469   1.962   4.243   0.019
 4524SOL     OW14470   5.351   1.914   5.660
 4524SOL    HW114471   5.425   1.861   5.619
 4524SOL    HW214472   5.377   1.941   5.753
 4525SOL     OW14473   6.667   1.710   4.013
 4525SOL    HW114474   6.649   1.806   3.993
 4525SOL    HW214475   6.654   1.694   4.111
 4526SOL     OW14476   5.058   0.134   1.382
 4526SOL    HW114477   5.064   0.040   1.415
 4526SOL    HW214478   5.067   0.197   1.459
 4527SOL     OW14479   4.376   0.971   3.714
 4527SOL    HW114480   4.410   0.898   3.773
 4527SOL    HW214481   4.384   0.944   3.618
 4528SOL     OW14482   4.748   6.535   0.059
 4528SOL    HW114483   4.832   6.484   0.041
 4528SOL    HW214484   4.744   6.561   0.156
 4529SOL     OW14485   2.683   1.010   3.367
 4529SOL    HW114486   2.733   1.095   3.380
 4529SOL    HW214487   2.585   1.029   3.360
 4530SOL     OW14488   0.450   3.678   5.661
 4530SOL    HW114489   0.527   3.638   5.711
 4530SOL    HW214490   0.459   3.778   5.658
 4531SOL     OW14491   1.181   3.919   3.242
 4531SOL    HW114492   1.188   3.860   3.323
 4531SOL    HW214493   1.191   3.864   3.160
 4532SOL     OW14494   0.130   1.472   2.028
 4532SOL    HW114495   0.122   1.558   2.078
 4532SOL    HW214496   0.202   1.479   1.959
 4533SOL     OW14497   1.706   0.554   3.555
 4533SOL    HW114498   1.643   0.579   3.481
 4533SOL    HW214499   1.694   0.456   3.576
 4534SOL     OW14500   6.421   3.514   4.997
 4534SOL    HW114501   6.408   3.568   5.080
 4534SOL    HW214502   6.332   3.492   4.957
 4535SOL     OW14503   4.386   1.906   2.461
 4535SOL    HW114504   4.483   1.882   2.471
 4535SOL    HW214505   4.375   2.004   2.478
 4536SOL     OW14506   4.912   1.279   4.537
 4536SOL    HW114507   4.866   1.364   4.512
 4536SOL    HW214508   4.896   1.261   4.634
 4537SOL     OW14509   3.592   3.141   6.412
 4537SOL    HW114510   3.619   3.046   6.429
 4537SOL    HW214511   3.539   3.145   6.327
 4538SOL     OW14512   3.160   2.172   4.044
 4538SOL    HW114513   3.226   2.098   4.037
 4538SOL    HW214514   3.200   2.256   4.007
 4539SOL     OW14515   2.751   2.346   4.094
 4539SOL    HW114516   2.798   2.433   4.112
 4539SOL    HW214517   2.751   2.329   3.995
 4540SOL     OW14518   4.058   3.644   3.691
 4540SOL    HW114519   4.089   3.677   3.780
 4540SOL    HW214520   4.085   3.708   3.620
 4541SOL     OW14521   5.339   0.397   0.183
 4541SOL    HW114522   5.361   0.495   0.184
 4541SOL    HW214523   5.361   0.358   0.094
 4542SOL     OW14524   6.021   6.137   2.039
 4542SOL    HW114525   6.073   6.084   1.971
 4542SOL    HW214526   6.025   6.090   2.127
 4543SOL     OW14527   4.458   1.334   6.889
 4543SOL    HW114528   4.460   1.426   6.928
 4543SOL    HW214529   4.452   1.340   6.789
 4544SOL     OW14530   2.665   6.113   6.368
 4544SOL    HW114531   2.699   6.184   6.306
 4544SOL    HW214532   2.654   6.151   6.459
 4545SOL     OW14533   4.629   2.371   5.189
 4545SOL    HW114534   4.699   2.417   5.244
 4545SOL    HW214535   4.672   2.301   5.132
 4546SOL     OW14536   0.782   6.997   6.409
 4546SOL    HW114537   0.713   0.054   6.398
 4546SOL    HW214538   0.769   6.927   6.339
 4547SOL     OW14539   5.779   3.289   1.764
 4547SOL    HW114540   5.685   3.316   1.787
 4547SOL    HW214541   5.832   3.278   1.848
 4548SOL     OW14542   1.372   5.012   4.059
 4548SOL    HW114543   1.458   5.006   4.109
 4548SOL    HW214544   1.364   4.936   3.996
 4549SOL     OW14545   6.668   3.588   3.155
 4549SOL    HW114546   6.711   3.506   3.118
 4549SOL    HW214547   6.738   3.657   3.174
 4550SOL     OW14548   0.689   5.921   3.758
 4550SOL    HW114549   0.644   5.909   3.669
 4550SOL    HW214550   0.628   5.893   3.831
 4551SOL     OW14551   0.151   1.745   5.376
 4551SOL    HW114552   0.054   1.741   5.352
 4551SOL    HW214553   0.206   1.713   5.299
 4552SOL     OW14554   0.222   3.309   5.867
 4552SOL    HW114555   0.130   3.328   5.900
 4552SOL    HW214556   0.268   3.245   5.929
 4553SOL     OW14557   3.962   4.975   6.406
 4553SOL    HW114558   3.973   4.962   6.505
 4553SOL    HW214559   4.044   4.942   6.359
 4554SOL     OW14560   4.191   1.044   1.982
 4554SOL    HW114561   4.111   0.985   1.972
 4554SOL    HW214562   4.220   1.077   1.892
 4555SOL     OW14563   4.430   1.357   6.587
 4555SOL    HW114564   4.410   1.284   6.522
 4555SOL    HW214565   4.510   1.409   6.556
 4556SOL     OW14566   4.208   1.139   3.859
 4556SOL    HW114567   4.283   1.079   3.832
 4556SOL    HW214568   4.137   1.085   3.904
 4557SOL     OW14569   5.175   0.256   4.714
 4557SOL    HW114570   5.086   0.284   4.750
 4557SOL    HW214571   5.238   0.237   4.790
 4558SOL     OW14572   6.706   3.946   6.683
 4558SOL    HW114573   6.758   3.874   6.728
 4558SOL    HW214574   6.643   3.988   6.747
 4559SOL     OW14575   1.669   6.667   2.115
 4559SOL    HW114576   1.741   6.599   2.119
 4559SOL    HW214577   1.700   6.751   2.160
 4560SOL     OW14578   5.167   4.316   3.254
 4560SOL    HW114579   5.157   4.282   3.160
 4560SOL    HW214580   5.135   4.245   3.317
 4561SOL     OW14581   2.795   0.514   0.905
 4561SOL    HW114582   2.740   0.527   0.988
 4561SOL    HW214583   2.864   0.444   0.920
 4562SOL     OW14584   2.895   5.575   5.435
 4562SOL    HW114585   2.877   5.586   5.337
 4562SOL    HW214586   2.930   5.483   5.452
 4563SOL     OW14587   5.596   3.730   0.418
 4563SOL    HW114588   5.553   3.725   0.509
 4563SOL    HW214589   5.562   3.810   0.370
 4564SOL     OW14590   1.306   5.229   1.260
 4564SOL    HW114591   1.335   5.185   1.345
 4564SOL    HW214592   1.232   5.176   1.218
 4565SOL     OW14593   0.306   1.317   5.343
 4565SOL    HW114594   0.327   1.227   5.304
 4565SOL    HW214595   0.242   1.364   5.284
 4566SOL     OW14596   6.856   0.590   0.398
 4566SOL    HW114597   6.910   0.553   0.322
 4566SOL    HW214598   6.828   0.683   0.377
 4567SOL     OW14599   0.399   1.121   0.687
 4567SOL    HW114600   0.311   1.085   0.719
 4567SOL    HW214601   0.396   1.221   0.687
 4568SOL     OW14602   1.683   3.975   5.082
 4568SOL    HW114603   1.740   3.980   5.164
 4568SOL    HW214604   1.696   4.057   5.027
 4569SOL     OW14605   1.779   2.250   3.871
 4569SOL    HW114606   1.724   2.332   3.854
 4569SOL    HW214607   1.747   2.204   3.954
 4570SOL     OW14608   6.911   6.377   3.054
 4570SOL    HW114609   6.948   6.317   3.126
 4570SOL    HW214610   6.871   6.458   3.096
 4571SOL     OW14611   3.581   3.792   4.803
 4571SOL    HW114612   3.550   3.829   4.890
 4571SOL    HW214613   3.565   3.694   4.801
 4572SOL     OW14614   0.245   0.122   1.215
 4572SOL    HW114615   0.183   0.049   1.186
 4572SOL    HW214616   0.324   0.082   1.262
 4573SOL     OW14617   5.977   5.659   0.865
 4573SOL    HW114618   6.014   5.748   0.888
 4573SOL    HW214619   5.886   5.669   0.826
 4574SOL     OW14620   0.203   4.798   0.895
 4574SOL    HW114621   0.209   4.714   0.840
 4574SOL    HW214622   0.184   4.875   0.835
 4575SOL     OW14623   0.124   1.941   0.545
 4575SOL    HW114624   0.087   1.861   0.497
 4575SOL    HW214625   0.186   1.909   0.618
 4576SOL     OW14626   2.857   5.741   6.258
 4576SOL    HW114627   2.910   5.774   6.336
 4576SOL    HW214628   2.919   5.700   6.191
 4577SOL     OW14629   0.362   3.527   2.793
 4577SOL    HW114630   0.334   3.621   2.775
 4577SOL    HW214631   0.443   3.505   2.738
 4578SOL     OW14632   0.755   3.905   3.572
 4578SOL    HW114633   0.706   3.818   3.570
 4578SOL    HW214634   0.745   3.947   3.663
 4579SOL     OW14635   4.319   1.304   2.957
 4579SOL    HW114636   4.332   1.353   2.871
 4579SOL    HW214637   4.344   1.208   2.945
 4580SOL     OW14638   6.378   5.062   0.820
 4580SOL    HW114639   6.372   5.151   0.865
 4580SOL    HW214640   6.415   5.074   0.728
 4581SOL     OW14641   3.259   5.118   2.351
 4581SOL    HW114642   3.212   5.101   2.437
 4581SOL    HW214643   3.355   5.092   2.360
 4582SOL     OW14644   5.953   6.399   4.635
 4582SOL    HW114645   6.040   6.408   4.684
 4582SOL    HW214646   5.897   6.330   4.681
 4583SOL     OW14647   2.998   1.741   4.957
 4583SOL    HW114648   3.019   1.683   5.036
 4583SOL    HW214649   3.063   1.817   4.953
 4584SOL     OW14650   0.374   5.796   6.300
 4584SOL    HW114651   0.360   5.849   6.384
 4584SOL    HW214652   0.286   5.779   6.257
 4585SOL     OW14653   2.630   6.361   2.942
 4585SOL    HW114654   2.682   6.379   3.025
 4585SOL    HW214655   2.615   6.446   2.892
 4586SOL     OW14656   3.468   4.759   1.004
 4586SOL    HW114657   3.411   4.713   1.072
 4586SOL    HW214658   3.450   4.857   1.006
 4587SOL     OW14659   4.194   3.519   1.745
 4587SOL    HW114660   4.104   3.513   1.786
 4587SOL    HW214661   4.237   3.428   1.744
 4588SOL     OW14662   3.849   3.265   5.342
 4588SOL    HW114663   3.858   3.167   5.325
 4588SOL    HW214664   3.755   3.294   5.325
 4589SOL     OW14665   5.567   1.936   2.764
 4589SOL    HW114666   5.636   1.866   2.780
 4589SOL    HW214667   5.485   1.895   2.727
 4590SOL     OW14668   4.431   5.910   1.704
 4590SOL    HW114669   4.414   5.841   1.775
 4590SOL    HW214670   4.353   5.913   1.642
 4591SOL     OW14671   6.939   5.726   5.470
 4591SOL    HW114672   6.897   5.816   5.487
 4591SOL    HW214673   7.004   5.734   5.394
 4592SOL     OW14674   3.890   3.001   1.432
 4592SOL    HW114675   3.946   3.007   1.350
 4592SOL    HW214676   3.866   2.906   1.450
 4593SOL     OW14677   4.602   5.294   3.303
 4593SOL    HW114678   4.612   5.353   3.383
 4593SOL    HW214679   4.542   5.339   3.236
 4594SOL     OW14680   4.353   1.441   1.646
 4594SOL    HW114681   4.350   1.538   1.621
 4594SOL    HW214682   4.260   1.407   1.659
 4595SOL     OW14683   3.557   2.846   6.646
 4595SOL    HW114684   3.546   2.939   6.681
 4595SOL    HW214685   3.639   2.841   6.589
 4596SOL     OW14686   6.096   6.410   2.129
 4596SOL    HW114687   6.042   6.470   2.070
 4596SOL    HW214688   6.094   6.317   2.093
 4597SOL     OW14689   5.417   5.196   6.548
 4597SOL    HW114690   5.514   5.175   6.557
 4597SOL    HW214691   5.363   5.132   6.603
 4598SOL     OW14692   1.234   5.224   6.506
 4598SOL    HW114693   1.144   5.261   6.484
 4598SOL    HW214694   1.230   5.125   6.510
 4599SOL     OW14695   1.492   3.421   1.217
 4599SOL    HW114696   1.441   3.452   1.137
 4599SOL    HW214697   1.590   3.433   1.201
 4600SOL     OW14698   3.198   5.198   5.892
 4600SOL    HW114699   3.169   5.259   5.965
 4600SOL    HW214700   3.193   5.103   5.923
 4601SOL     OW14701   1.890   0.985   5.251
 4601SOL    HW114702   1.944   0.980   5.335
 4601SOL    HW214703   1.937   0.935   5.178
 4602SOL     OW14704   1.371   6.705   1.467
 4602SOL    HW114705   1.446   6.766   1.441
 4602SOL    HW214706   1.403   6.641   1.537
 4603SOL     OW14707   3.654   6.264   1.271
 4603SOL    HW114708   3.567   6.301   1.238
 4603SOL    HW214709   3.692   6.326   1.340
 4604SOL     OW14710   4.152   0.978   0.804
 4604SOL    HW114711   4.112   0.958   0.893
 4604SOL    HW214712   4.100   1.051   0.759
 4605SOL     OW14713   4.994   0.725   3.896
 4605SOL    HW114714   5.050   0.786   3.953
 4605SOL    HW214715   4.996   0.633   3.934
 4606SOL     OW14716   0.125   6.833   2.704
 4606SOL    HW114717   0.192   6.871   2.768
 4606SOL    HW214718   0.144   6.736   2.689
 4607SOL     OW14719   2.243   2.102   0.760
 4607SOL    HW114720   2.268   2.150   0.843
 4607SOL    HW214721   2.235   2.167   0.685
 4608SOL     OW14722   1.333   5.028   5.149
 4608SOL    HW114723   1.243   5.064   5.170
 4608SOL    HW214724   1.402   5.076   5.204
 4609SOL     OW14725   4.508   5.487   6.407
 4609SOL    HW114726   4.534   5.490   6.310
 4609SOL    HW214727   4.590   5.500   6.463
 4610SOL     OW14728   0.133   2.453   0.285
 4610SOL    HW114729   0.043   2.417   0.260
 4610SOL    HW214730   0.131   2.486   0.380
 4611SOL     OW14731   6.888   3.910   0.121
 4611SOL    HW114732   6.808   3.953   0.161
 4611SOL    HW214733   6.965   3.915   0.185
 4612SOL     OW14734   1.842   6.363   7.010
 4612SOL    HW114735   1.890   6.375   6.923
 4612SOL    HW214736   1.746   6.391   6.999
 4613SOL     OW14737   2.482   5.994   2.657
 4613SOL    HW114738   2.525   6.029   2.740
 4613SOL    HW214739   2.523   5.906   2.632
 4614SOL     OW14740   1.870   4.912   6.290
 4614SOL    HW114741   1.847   4.989   6.350
 4614SOL    HW214742   1.952   4.867   6.325
 4615SOL     OW14743   1.816   1.428   0.208
 4615SOL    HW114744   1.733   1.395   0.253
 4615SOL    HW214745   1.793   1.503   0.145
 4616SOL     OW14746   6.754   0.730   6.557
 4616SOL    HW114747   6.762   0.708   6.459
 4616SOL    HW214748   6.844   0.724   6.600
 4617SOL     OW14749   1.266   2.516   2.140
 4617SOL    HW114750   1.339   2.487   2.078
 4617SOL    HW214751   1.177   2.494   2.100
 4618SOL     OW14752   1.527   2.402   4.888
 4618SOL    HW114753   1.517   2.406   4.987
 4618SOL    HW214754   1.612   2.447   4.861
 4619SOL     OW14755   4.323   6.960   3.484
 4619SOL    HW114756   4.225   6.954   3.464
 4619SOL    HW214757   4.357   0.035   3.458
 4620SOL     OW14758   3.303   3.873   6.753
 4620SOL    HW114759   3.239   3.799   6.775
 4620SOL    HW214760   3.282   3.953   6.808
 4621SOL     OW14761   6.318   2.114   4.625
 4621SOL    HW114762   6.293   2.205   4.657
 4621SOL    HW214763   6.333   2.053   4.703
 4622SOL     OW14764   1.377   2.757   0.883
 4622SOL    HW114765   1.373   2.848   0.924
 4622SOL    HW214766   1.286   2.717   0.880
 4623SOL     OW14767   0.341   5.307   0.888
 4623SOL    HW114768   0.359   5.213   0.860
 4623SOL    HW214769   0.423   5.363   0.871
 4624SOL     OW14770   4.790   0.531   4.139
 4624SOL    HW114771   4.725   0.456   4.125
 4624SOL    HW214772   4.880   0.504   4.106
 4625SOL     OW14773   1.425   4.195   6.942
 4625SOL    HW114774   1.446   4.121   6.879
 4625SOL    HW214775   1.325   4.202   6.953
 4626SOL     OW14776   6.266   4.944   1.778
 4626SOL    HW114777   6.291   4.873   1.844
 4626SOL    HW214778   6.170   4.934   1.753
 4627SOL     OW14779   3.364   5.679   5.348
 4627SOL    HW114780   3.462   5.687   5.364
 4627SOL    HW214781   3.346   5.604   5.284
 4628SOL     OW14782   5.875   4.030   3.165
 4628SOL    HW114783   5.952   4.093   3.159
 4628SOL    HW214784   5.809   4.064   3.233
 4629SOL     OW14785   2.266   4.798   6.142
 4629SOL    HW114786   2.213   4.766   6.221
 4629SOL    HW214787   2.212   4.865   6.091
 4630SOL     OW14788   3.171   5.629   3.584
 4630SOL    HW114789   3.195   5.664   3.493
 4630SOL    HW214790   3.205   5.535   3.593
 4631SOL     OW14791   2.747   0.031   3.717
 4631SOL    HW114792   2.828   0.009   3.663
 4631SOL    HW214793   2.769   0.024   3.814
 4632SOL     OW14794   4.430   5.133   3.027
 4632SOL    HW114795   4.399   5.150   3.121
 4632SOL    HW214796   4.434   5.219   2.977
 4633SOL     OW14797   6.824   1.635   4.505
 4633SOL    HW114798   6.892   1.597   4.568
 4633SOL    HW214799   6.801   1.728   4.532
 4634SOL     OW14800   3.016   4.595   6.463
 4634SOL    HW114801   3.062   4.643   6.538
 4634SOL    HW214802   3.051   4.501   6.457
 4635SOL     OW14803   5.922   3.308   2.256
 4635SOL    HW114804   5.892   3.321   2.161
 4635SOL    HW214805   5.941   3.211   2.271
 4636SOL     OW14806   2.994   5.173   6.766
 4636SOL    HW114807   3.053   5.127   6.700
 4636SOL    HW214808   2.984   5.114   6.847
 4637SOL     OW14809   1.524   0.810   6.795
 4637SOL    HW114810   1.593   0.866   6.750
 4637SOL    HW214811   1.448   0.793   6.732
 4638SOL     OW14812   3.923   2.609   6.457
 4638SOL    HW114813   3.998   2.666   6.427
 4638SOL    HW214814   3.951   2.513   6.455
 4639SOL     OW14815   1.452   4.073   5.587
 4639SOL    HW114816   1.523   4.103   5.651
 4639SOL    HW214817   1.490   4.007   5.523
 4640SOL     OW14818   5.111   5.532   4.163
 4640SOL    HW114819   5.162   5.446   4.157
 4640SOL    HW214820   5.174   5.609   4.151
 4641SOL     OW14821   2.859   5.068   4.349
 4641SOL    HW114822   2.896   5.111   4.266
 4641SOL    HW214823   2.813   5.137   4.404
 4642SOL     OW14824   6.182   5.709   5.179
 4642SOL    HW114825   6.086   5.730   5.198
 4642SOL    HW214826   6.241   5.762   5.240
 4643SOL     OW14827   4.799   2.398   0.187
 4643SOL    HW114828   4.777   2.495   0.195
 4643SOL    HW214829   4.824   2.377   0.093
 4644SOL     OW14830   1.616   5.281   5.413
 4644SOL    HW114831   1.525   5.271   5.453
 4644SOL    HW214832   1.608   5.318   5.320
 4645SOL     OW14833   1.801   0.318   4.316
 4645SOL    HW114834   1.795   0.405   4.364
 4645SOL    HW214835   1.709   0.281   4.301
 4646SOL     OW14836   2.511   6.834   2.192
 4646SOL    HW114837   2.528   6.745   2.234
 4646SOL    HW214838   2.469   6.821   2.102
 4647SOL     OW14839   0.855   6.572   2.992
 4647SOL    HW114840   0.911   6.491   3.012
 4647SOL    HW214841   0.783   6.547   2.928
 4648SOL     OW14842   3.612   6.819   1.455
 4648SOL    HW114843   3.712   6.830   1.457
 4648SOL    HW214844   3.587   6.752   1.386
 4649SOL     OW14845   5.087   0.731   5.349
 4649SOL    HW114846   5.042   0.721   5.260
 4649SOL    HW214847   5.175   0.684   5.346
 4650SOL     OW14848   3.806   5.815   3.111
 4650SOL    HW114849   3.874   5.883   3.141
 4650SOL    HW214850   3.720   5.831   3.159
 4651SOL     OW14851   0.100   2.113   1.752
 4651SOL    HW114852   0.105   2.025   1.706
 4651SOL    HW214853   0.178   2.123   1.814
 4652SOL     OW14854   0.764   0.064   3.711
 4652SOL    HW114855   0.716   0.058   3.798
 4652SOL    HW214856   0.849   0.115   3.723
 4653SOL     OW14857   6.665   5.572   0.249
 4653SOL    HW114858   6.714   5.562   0.336
 4653SOL    HW214859   6.681   5.663   0.212
 4654SOL     OW14860   0.561   0.194   0.306
 4654SOL    HW114861   0.560   0.207   0.207
 4654SOL    HW214862   0.509   0.266   0.350
 4655SOL     OW14863   0.414   4.895   2.194
 4655SOL    HW114864   0.353   4.956   2.245
 4655SOL    HW214865   0.398   4.906   2.096
 4656SOL     OW14866   1.026   6.816   2.973
 4656SOL    HW114867   1.020   6.869   3.057
 4656SOL    HW214868   0.949   6.753   2.967
 4657SOL     OW14869   5.314   6.933   1.998
 4657SOL    HW114870   5.397   6.882   1.977
 4657SOL    HW214871   5.339   0.005   2.040
 4658SOL     OW14872   3.687   0.519   2.589
 4658SOL    HW114873   3.693   0.496   2.686
 4658SOL    HW214874   3.653   0.441   2.538
 4659SOL     OW14875   1.816   3.333   5.047
 4659SOL    HW114876   1.768   3.323   4.959
 4659SOL    HW214877   1.894   3.394   5.035
 4660SOL     OW14878   1.256   2.179   4.682
 4660SOL    HW114879   1.321   2.173   4.606
 4660SOL    HW214880   1.293   2.241   4.752
 4661SOL     OW14881   3.749   3.632   4.648
 4661SOL    HW114882   3.767   3.587   4.560
 4661SOL    HW214883   3.690   3.711   4.633
 4662SOL     OW14884   4.943   0.698   5.117
 4662SOL    HW114885   4.950   0.792   5.082
 4662SOL    HW214886   4.958   0.634   5.042
 4663SOL     OW14887   6.655   1.630   2.890
 4663SOL    HW114888   6.749   1.634   2.924
 4663SOL    HW214889   6.636   1.539   2.854
 4664SOL     OW14890   2.357   2.339   6.434
 4664SOL    HW114891   2.324   2.261   6.487
 4664SOL    HW214892   2.310   2.422   6.464
 4665SOL     OW14893   4.737   6.859   6.857
 4665SOL    HW114894   4.823   6.818   6.884
 4665SOL    HW214895   4.676   6.865   6.936
 4666SOL     OW14896   2.540   1.066   6.852
 4666SOL    HW114897   2.497   1.038   6.938
 4666SOL    HW214898   2.471   1.104   6.790
 4667SOL     OW14899   6.867   4.832   7.003
 4667SOL    HW114900   6.853   4.913   6.946
 4667SOL    HW214901   6.803   4.836   0.065
 4668SOL     OW14902   0.244   1.601   4.231
 4668SOL    HW114903   0.322   1.646   4.189
 4668SOL    HW214904   0.159   1.635   4.189
 4669SOL     OW14905   3.090   6.508   0.627
 4669SOL    HW114906   3.132   6.562   0.554
 4669SOL    HW214907   3.004   6.551   0.655
 4670SOL     OW14908   3.523   1.132   5.077
 4670SOL    HW114909   3.571   1.112   5.162
 4670SOL    HW214910   3.572   1.091   5.000
 4671SOL     OW14911   5.901   3.505   1.428
 4671SOL    HW114912   5.824   3.448   1.456
 4671SOL    HW214913   5.974   3.500   1.497
 4672SOL     OW14914   2.677   4.755   5.951
 4672SOL    HW114915   2.734   4.836   5.939
 4672SOL    HW214916   2.730   4.674   5.927
 4673SOL     OW14917   3.971   0.475   1.054
 4673SOL    HW114918   3.918   0.510   1.131
 4673SOL    HW214919   3.932   0.389   1.023
 4674SOL     OW14920   5.245   5.981   6.486
 4674SOL    HW114921   5.312   6.009   6.555
 4674SOL    HW214922   5.279   5.902   6.436
 4675SOL     OW14923   0.745   3.659   0.679
 4675SOL    HW114924   0.834   3.613   0.682
 4675SOL    HW214925   0.673   3.591   0.663
 4676SOL     OW14926   0.932   5.392   3.650
 4676SOL    HW114927   0.903   5.483   3.678
 4676SOL    HW214928   0.885   5.323   3.706
 4677SOL     OW14929   1.455   1.727   0.391
 4677SOL    HW114930   1.477   1.726   0.489
 4677SOL    HW214931   1.405   1.644   0.367
 4678SOL     OW14932   2.450   4.468   2.764
 4678SOL    HW114933   2.442   4.417   2.678
 4678SOL    HW214934   2.532   4.525   2.762
 4679SOL     OW14935   4.808   6.787   2.102
 4679SOL    HW114936   4.795   6.706   2.160
 4679SOL    HW214937   4.869   6.764   2.026
 4680SOL     OW14938   4.224   1.105   1.201
 4680SOL    HW114939   4.183   1.031   1.148
 4680SOL    HW214940   4.152   1.161   1.241
 4681SOL     OW14941   4.528   4.870   6.837
 4681SOL    HW114942   4.622   4.842   6.822
 4681SOL    HW214943   4.510   4.874   6.936
 4682SOL     OW14944   5.452   3.329   6.257
 4682SOL    HW114945   5.361   3.369   6.265
 4682SOL    HW214946   5.468   3.301   6.162
 4683SOL     OW14947   5.938   5.185   2.976
 4683SOL    HW114948   5.851   5.182   3.025
 4683SOL    HW214949   5.956   5.096   2.933
 4684SOL     OW14950   4.547   5.681   5.855
 4684SOL    HW114951   4.524   5.592   5.893
 4684SOL    HW214952   4.640   5.706   5.880
 4685SOL     OW14953   2.092   3.872   6.164
 4685SOL    HW114954   2.140   3.925   6.234
 4685SOL    HW214955   2.030   3.932   6.114
 4686SOL     OW14956   3.790   5.492   0.117
 4686SOL    HW114957   3.820   5.578   0.077
 4686SOL    HW214958   3.785   5.501   0.216
 4687SOL     OW14959   3.969   1.918   3.811
 4687SOL    HW114960   3.957   1.892   3.907
 4687SOL    HW214961   3.879   1.935   3.770
 4688SOL     OW14962   6.092   2.676   5.924
 4688SOL    HW114963   6.117   2.613   5.998
 4688SOL    HW214964   6.073   2.767   5.963
 4689SOL     OW14965   5.453   0.242   1.337
 4689SOL    HW114966   5.393   0.273   1.411
 4689SOL    HW214967   5.548   0.260   1.361
 4690SOL     OW14968   1.756   1.104   0.460
 4690SOL    HW114969   1.738   1.086   0.557
 4690SOL    HW214970   1.826   1.041   0.427
 4691SOL     OW14971   4.452   4.130   0.225
 4691SOL    HW114972   4.449   4.175   0.136
 4691SOL    HW214973   4.489   4.038   0.215
 4692SOL     OW14974   6.012   4.268   3.380
 4692SOL    HW114975   6.036   4.271   3.284
 4692SOL    HW214976   6.094   4.252   3.435
 4693SOL     OW14977   1.504   1.037   4.042
 4693SOL    HW114978   1.582   1.055   4.102
 4693SOL    HW214979   1.465   1.124   4.012
 4694SOL     OW14980   2.539   2.028   0.443
 4694SOL    HW114981   2.630   2.066   0.461
 4694SOL    HW214982   2.499   2.074   0.365
 4695SOL     OW14983   1.613   5.817   0.768
 4695SOL    HW114984   1.606   5.732   0.820
 4695SOL    HW214985   1.524   5.839   0.728
 4696SOL     OW14986   0.530   5.541   6.408
 4696SOL    HW114987   0.470   5.484   6.464
 4696SOL    HW214988   0.475   5.610   6.361
 4697SOL     OW14989   1.338   3.361   2.341
 4697SOL    HW114990   1.395   3.438   2.313
 4697SOL    HW214991   1.322   3.366   2.439
 4698SOL     OW14992   3.654   6.864   3.452
 4698SOL    HW114993   3.590   6.827   3.386
 4698SOL    HW214994   3.626   6.956   3.478
 4699SOL     OW14995   0.558   6.501   2.677
 4699SOL    HW114996   0.470   6.473   2.641
 4699SOL    HW214997   0.545   6.573   2.745
 4700SOL     OW14998   6.842   1.655   2.093
 4700SOL    HW114999   6.920   1.638   2.153
 4700SOL    HW215000   6.818   1.570   2.046
 4701SOL     OW15001   3.250   2.189   1.869
 4701SOL    HW115002   3.241   2.197   1.770
 4701SOL    HW215003   3.345   2.208   1.895
 4702SOL     OW15004   4.799   5.366   0.516
 4702SOL    HW115005   4.832   5.418   0.595
 4702SOL    HW215006   4.709   5.327   0.537
 4703SOL     OW15007   1.521   5.635   2.699
 4703SOL    HW115008   1.557   5.692   2.626
 4703SOL    HW215009   1.463   5.689   2.759
 4704SOL     OW15010   0.433   6.386   5.666
 4704SOL    HW115011   0.479   6.458   5.614
 4704SOL    HW215012   0.353   6.424   5.713
 4705SOL     OW15013   3.093   2.272   0.663
 4705SOL    HW115014   3.175   2.328   0.663
 4705SOL    HW215015   3.054   2.271   0.755
 4706SOL     OW15016   1.541   0.239   0.796
 4706SOL    HW115017   1.633   0.211   0.770
 4706SOL    HW215018   1.510   0.311   0.735
 4707SOL     OW15019   1.275   5.758   1.834
 4707SOL    HW115020   1.194   5.812   1.854
 4707SOL    HW215021   1.354   5.819   1.822
 4708SOL     OW15022   0.877   1.900   5.640
 4708SOL    HW115023   0.827   1.822   5.602
 4708SOL    HW215024   0.971   1.872   5.662
 4709SOL     OW15025   4.744   5.079   4.502
 4709SOL    HW115026   4.693   5.162   4.526
 4709SOL    HW215027   4.827   5.105   4.452
 4710SOL     OW15028   6.296   0.276   5.215
 4710SOL    HW115029   6.262   0.358   5.260
 4710SOL    HW215030   6.396   0.273   5.222
 4711SOL     OW15031   6.223   2.638   3.348
 4711SOL    HW115032   6.213   2.717   3.286
 4711SOL    HW215033   6.233   2.670   3.442
 4712SOL     OW15034   4.138   4.446   6.169
 4712SOL    HW115035   4.135   4.537   6.126
 4712SOL    HW215036   4.045   4.408   6.171
 4713SOL     OW15037   5.460   5.631   0.875
 4713SOL    HW115038   5.508   5.654   0.959
 4713SOL    HW215039   5.378   5.688   0.867
 4714SOL     OW15040   0.154   1.943   6.549
 4714SOL    HW115041   0.134   1.860   6.498
 4714SOL    HW215042   0.225   1.996   6.502
 4715SOL     OW15043   5.961   2.695   1.270
 4715SOL    HW115044   6.005   2.653   1.349
 4715SOL    HW215045   6.030   2.734   1.210
 4716SOL     OW15046   4.946   5.517   5.560
 4716SOL    HW115047   5.041   5.510   5.528
 4716SOL    HW215048   4.941   5.490   5.656
 4717SOL     OW15049   2.045   5.438   5.102
 4717SOL    HW115050   1.983   5.394   5.036
 4717SOL    HW215051   2.080   5.523   5.062
 4718SOL     OW15052   5.046   2.840   1.038
 4718SOL    HW115053   5.127   2.818   0.985
 4718SOL    HW215054   4.980   2.887   0.980
 4719SOL     OW15055   5.262   3.572   2.975
 4719SOL    HW115056   5.358   3.542   2.970
 4719SOL    HW215057   5.216   3.551   2.889
 4720SOL     OW15058   2.303   4.444   5.780
 4720SOL    HW115059   2.263   4.535   5.771
 4720SOL    HW215060   2.340   4.415   5.692
 4721SOL     OW15061   5.710   2.495   1.504
 4721SOL    HW115062   5.689   2.555   1.582
 4721SOL    HW215063   5.711   2.549   1.420
 4722SOL     OW15064   1.415   5.658   0.060
 4722SOL    HW115065   1.485   5.588   0.053
 4722SOL    HW215066   1.338   5.636   0.000
 4723SOL     OW15067   3.853   4.205   5.534
 4723SOL    HW115068   3.852   4.294   5.579
 4723SOL    HW215069   3.915   4.209   5.455
 4724SOL     OW15070   7.012   6.602   3.719
 4724SOL    HW115071   0.023   6.541   3.794
 4724SOL    HW215072   6.927   6.648   3.742
 4725SOL     OW15073   6.102   4.842   0.197
 4725SOL    HW115074   6.173   4.812   0.261
 4725SOL    HW215075   6.012   4.816   0.232
 4726SOL     OW15076   1.184   2.966   5.947
 4726SOL    HW115077   1.198   2.910   5.866
 4726SOL    HW215078   1.149   2.909   6.022
 4727SOL     OW15079   0.402   5.782   0.210
 4727SOL    HW115080   0.401   5.874   0.249
 4727SOL    HW215081   0.340   5.724   0.263
 4728SOL     OW15082   6.433   1.791   2.803
 4728SOL    HW115083   6.519   1.744   2.823
 4728SOL    HW215084   6.433   1.880   2.849
 4729SOL     OW15085   4.593   0.110   0.366
 4729SOL    HW115086   4.664   0.062   0.418
 4729SOL    HW215087   4.633   0.192   0.324
 4730SOL     OW15088   3.590   6.230   5.126
 4730SOL    HW115089   3.553   6.149   5.172
 4730SOL    HW215090   3.520   6.301   5.121
 4731SOL     OW15091   3.069   0.797   0.976
 4731SOL    HW115092   3.112   0.815   0.888
 4731SOL    HW215093   3.116   0.850   1.047
 4732SOL     OW15094   0.626   3.963   5.130
 4732SOL    HW115095   0.656   3.983   5.036
 4732SOL    HW215096   0.684   3.891   5.169
 4733SOL     OW15097   1.679   4.243   2.498
 4733SOL    HW115098   1.609   4.252   2.568
 4733SOL    HW215099   1.754   4.186   2.531
 4734SOL     OW15100   5.155   3.334   0.099
 4734SOL    HW115101   5.173   3.407   0.032
 4734SOL    HW215102   5.199   3.357   0.186
 4735SOL     OW15103   6.798   5.482   3.633
 4735SOL    HW115104   6.781   5.386   3.650
 4735SOL    HW215105   6.722   5.537   3.668
 4736SOL     OW15106   5.834   2.106   4.405
 4736SOL    HW115107   5.873   2.024   4.447
 4736SOL    HW215108   5.753   2.082   4.352
 4737SOL     OW15109   2.302   4.443   0.447
 4737SOL    HW115110   2.381   4.472   0.394
 4737SOL    HW215111   2.292   4.502   0.528
 4738SOL     OW15112   3.467   6.672   4.120
 4738SOL    HW115113   3.462   6.751   4.182
 4738SOL    HW215114   3.394   6.608   4.142
 4739SOL     OW15115   5.632   2.020   3.962
 4739SOL    HW115116   5.541   1.981   3.951
 4739SOL    HW215117   5.632   2.115   3.929
 4740SOL     OW15118   0.637   0.795   0.806
 4740SOL    HW115119   0.632   0.704   0.847
 4740SOL    HW215120   0.620   0.788   0.708
 4741SOL     OW15121   4.471   4.924   0.963
 4741SOL    HW115122   4.485   4.904   1.060
 4741SOL    HW215123   4.553   4.965   0.925
 4742SOL     OW15124   2.853   5.265   1.152
 4742SOL    HW115125   2.763   5.226   1.173
 4742SOL    HW215126   2.891   5.307   1.234
 4743SOL     OW15127   1.901   1.296   5.700
 4743SOL    HW115128   1.822   1.266   5.647
 4743SOL    HW215129   1.979   1.236   5.681
 4744SOL     OW15130   2.427   2.871   5.436
 4744SOL    HW115131   2.519   2.864   5.475
 4744SOL    HW215132   2.431   2.923   5.350
 4745SOL     OW15133   2.495   4.907   5.543
 4745SOL    HW115134   2.498   4.877   5.448
 4745SOL    HW215135   2.545   4.994   5.552
 4746SOL     OW15136   5.768   5.972   1.213
 4746SOL    HW115137   5.844   5.929   1.262
 4746SOL    HW215138   5.785   6.070   1.205
 4747SOL     OW15139   0.998   3.571   6.190
 4747SOL    HW115140   0.905   3.603   6.169
 4747SOL    HW215141   1.007   3.557   6.289
 4748SOL     OW15142   1.386   0.440   1.331
 4748SOL    HW115143   1.454   0.514   1.335
 4748SOL    HW215144   1.432   0.354   1.310
 4749SOL     OW15145   3.059   6.425   5.984
 4749SOL    HW115146   3.091   6.519   5.983
 4749SOL    HW215147   3.035   6.396   5.891
 4750SOL     OW15148   0.489   1.974   4.071
 4750SOL    HW115149   0.517   2.070   4.072
 4750SOL    HW215150   0.469   1.946   3.977
 4751SOL     OW15151   2.058   3.223   0.160
 4751SOL    HW115152   2.073   3.146   0.097
 4751SOL    HW215153   1.982   3.278   0.127
 4752SOL     OW15154   2.866   6.657   0.673
 4752SOL    HW115155   2.859   6.669   0.772
 4752SOL    HW215156   2.779   6.622   0.638
 4753SOL     OW15157   5.615   6.670   4.480
 4753SOL    HW115158   5.517   6.653   4.476
 4753SOL    HW215159   5.631   6.768   4.489
 4754SOL     OW15160   6.422   0.438   5.991
 4754SOL    HW115161   6.509   0.483   6.011
 4754SOL    HW215162   6.401   0.446   5.894
 4755SOL     OW15163   2.282   0.379   6.918
 4755SOL    HW115164   2.297   0.326   6.834
 4755SOL    HW215165   2.255   0.318   6.992
 4756SOL     OW15166   5.934   2.229   1.790
 4756SOL    HW115167   5.941   2.233   1.690
 4756SOL    HW215168   5.947   2.320   1.829
 4757SOL     OW15169   2.160   1.911   1.867
 4757SOL    HW115170   2.185   2.007   1.856
 4757SOL    HW215171   2.242   1.855   1.876
 4758SOL     OW15172   3.367   5.800   5.003
 4758SOL    HW115173   3.320   5.844   5.079
 4758SOL    HW215174   3.442   5.743   5.039
 4759SOL     OW15175   5.052   5.654   4.842
 4759SOL    HW115176   5.096   5.638   4.930
 4759SOL    HW215177   4.961   5.612   4.842
 4760SOL     OW15178   3.299   1.750   1.272
 4760SOL    HW115179   3.257   1.831   1.231
 4760SOL    HW215180   3.342   1.694   1.201
 4761SOL     OW15181   6.688   0.640   0.008
 4761SOL    HW115182   6.602   0.666   0.052
 4761SOL    HW215183   6.750   0.601   0.076
 4762SOL     OW15184   2.733   4.920   3.366
 4762SOL    HW115185   2.770   4.970   3.288
 4762SOL    HW215186   2.767   4.826   3.365
 4763SOL     OW15187   5.829   5.996   3.025
 4763SOL    HW115188   5.899   5.928   3.002
 4763SOL    HW215189   5.759   5.995   2.954
 4764SOL     OW15190   4.835   3.973   4.942
 4764SOL    HW115191   4.930   3.964   4.914
 4764SOL    HW215192   4.803   3.886   4.980
 4765SOL     OW15193   4.910   6.577   4.629
 4765SOL    HW115194   4.968   6.516   4.683
 4765SOL    HW215195   4.919   6.671   4.662
 4766SOL     OW15196   4.410   0.825   4.187
 4766SOL    HW115197   4.500   0.784   4.173
 4766SOL    HW215198   4.420   0.912   4.234
 4767SOL     OW15199   4.680   6.016   0.089
 4767SOL    HW115200   4.626   6.090   0.051
 4767SOL    HW215201   4.640   5.987   0.176
 4768SOL     OW15202   5.404   2.072   4.971
 4768SOL    HW115203   5.341   1.995   4.962
 4768SOL    HW215204   5.381   2.124   5.054
 4769SOL     OW15205   4.226   5.140   1.490
 4769SOL    HW115206   4.157   5.211   1.482
 4769SOL    HW215207   4.182   5.050   1.494
 4770SOL     OW15208   2.099   0.061   3.616
 4770SOL    HW115209   2.183   0.043   3.564
 4770SOL    HW215210   2.119   0.058   3.714
 4771SOL     OW15211   2.938   4.992   6.146
 4771SOL    HW115212   2.989   4.907   6.161
 4771SOL    HW215213   2.923   5.005   6.048
 4772SOL     OW15214   2.291   6.310   2.009
 4772SOL    HW115215   2.280   6.401   1.970
 4772SOL    HW215216   2.366   6.263   1.963
 4773SOL     OW15217   6.829   5.541   4.558
 4773SOL    HW115218   6.839   5.640   4.560
 4773SOL    HW215219   6.757   5.515   4.493
 4774SOL     OW15220   0.594   2.876   1.920
 4774SOL    HW115221   0.615   2.793   1.869
 4774SOL    HW215222   0.581   2.952   1.855
 4775SOL     OW15223   5.643   0.496   3.044
 4775SOL    HW115224   5.680   0.443   3.120
 4775SOL    HW215225   5.573   0.443   2.996
 4776SOL     OW15226   2.500   6.769   3.501
 4776SOL    HW115227   2.432   6.696   3.498
 4776SOL    HW215228   2.574   6.743   3.563
 4777SOL     OW15229   2.447   4.378   1.036
 4777SOL    HW115230   2.454   4.431   0.952
 4777SOL    HW215231   2.524   4.315   1.042
 4778SOL     OW15232   5.495   2.375   1.996
 4778SOL    HW115233   5.471   2.420   1.910
 4778SOL    HW215234   5.423   2.310   2.021
 4779SOL     OW15235   6.043   6.784   1.933
 4779SOL    HW115236   6.016   6.854   1.867
 4779SOL    HW215237   6.137   6.799   1.962
 4780SOL     OW15238   0.927   6.714   6.728
 4780SOL    HW115239   1.006   6.738   6.784
 4780SOL    HW215240   0.957   6.675   6.641
 4781SOL     OW15241   3.225   6.149   0.985
 4781SOL    HW115242   3.199   6.210   0.910
 4781SOL    HW215243   3.144   6.128   1.040
 4782SOL     OW15244   4.780   6.590   0.334
 4782SOL    HW115245   4.825   6.590   0.422
 4782SOL    HW215246   4.792   6.679   0.290
 4783SOL     OW15247   4.437   4.548   0.317
 4783SOL    HW115248   4.521   4.525   0.268
 4783SOL    HW215249   4.358   4.513   0.266
 4784SOL     OW15250   6.219   4.733   6.946
 4784SOL    HW115251   6.172   4.758   0.016
 4784SOL    HW215252   6.310   4.775   6.945
 4785SOL     OW15253   6.853   6.101   1.515
 4785SOL    HW115254   6.783   6.034   1.493
 4785SOL    HW215255   6.841   6.132   1.609
 4786SOL     OW15256   1.861   2.313   2.352
 4786SOL    HW115257   1.805   2.378   2.406
 4786SOL    HW215258   1.912   2.255   2.415
 4787SOL     OW15259   3.291   1.957   3.474
 4787SOL    HW115260   3.316   1.914   3.561
 4787SOL    HW215261   3.191   1.958   3.465
 4788SOL     OW15262   1.803   5.132   6.435
 4788SOL    HW115263   1.704   5.117   6.444
 4788SOL    HW215264   1.839   5.164   6.523
 4789SOL     OW15265   5.402   0.651   0.172
 4789SOL    HW115266   5.341   0.685   0.100
 4789SOL    HW215267   5.392   0.707   0.254
 4790SOL     OW15268   6.399   3.678   6.825
 4790SOL    HW115269   6.432   3.750   6.885
 4790SOL    HW215270   6.320   3.711   6.772
 4791SOL     OW15271   5.783   2.048   1.600
 4791SOL    HW115272   5.799   2.089   1.690
 4791SOL    HW215273   5.770   1.950   1.610
 4792SOL     OW15274   1.487   3.039   2.458
 4792SOL    HW115275   1.560   3.045   2.526
 4792SOL    HW215276   1.398   3.044   2.504
 4793SOL     OW15277   0.834   2.343   5.624
 4793SOL    HW115278   0.818   2.433   5.666
 4793SOL    HW215279   0.836   2.273   5.696
 4794SOL     OW15280   3.966   0.641   3.385
 4794SOL    HW115281   3.878   0.668   3.425
 4794SOL    HW215282   4.040   0.671   3.445
 4795SOL     OW15283   6.826   2.280   4.074
 4795SOL    HW115284   6.913   2.286   4.123
 4795SOL    HW215285   6.817   2.357   4.010
 4796SOL     OW15286   4.849   1.967   6.600
 4796SOL    HW115287   4.760   1.974   6.644
 4796SOL    HW215288   4.918   1.944   6.669
 4797SOL     OW15289   1.482   5.924   5.072
 4797SOL    HW115290   1.524   6.014   5.083
 4797SOL    HW215291   1.382   5.933   5.072
 4798SOL     OW15292   0.122   4.311   5.725
 4798SOL    HW115293   0.072   4.323   5.639
 4798SOL    HW215294   0.219   4.330   5.711
 4799SOL     OW15295   4.932   2.195   5.999
 4799SOL    HW115296   4.927   2.283   6.046
 4799SOL    HW215297   4.957   2.123   6.064
 4800SOL     OW15298   3.385   3.155   5.885
 4800SOL    HW115299   3.288   3.162   5.865
 4800SOL    HW215300   3.427   3.085   5.827
 4801SOL     OW15301   2.292   1.921   0.190
 4801SOL    HW115302   2.247   1.890   0.274
 4801SOL    HW215303   2.332   2.011   0.205
 4802SOL     OW15304   1.425   6.505   2.144
 4802SOL    HW115305   1.497   6.573   2.127
 4802SOL    HW215306   1.413   6.448   2.063
 4803SOL     OW15307   0.843   6.695   0.555
 4803SOL    HW115308   0.851   6.781   0.607
 4803SOL    HW215309   0.903   6.626   0.596
 4804SOL     OW15310   4.126   5.084   6.151
 4804SOL    HW115311   4.153   5.050   6.241
 4804SOL    HW215312   4.128   5.010   6.085
 4805SOL     OW15313   6.718   6.909   1.164
 4805SOL    HW115314   6.750   6.820   1.197
 4805SOL    HW215315   6.618   6.908   1.162
 4806SOL     OW15316   6.958   3.542   3.650
 4806SOL    HW115317   6.878   3.552   3.591
 4806SOL    HW215318   0.013   3.489   3.604
 4807SOL     OW15319   1.519   5.333   0.975
 4807SOL    HW115320   1.441   5.302   0.920
 4807SOL    HW215321   1.551   5.258   1.033
 4808SOL     OW15322   6.049   3.741   0.618
 4808SOL    HW115323   5.988   3.740   0.538
 4808SOL    HW215324   6.103   3.657   0.620
 4809SOL     OW15325   3.782   3.993   6.735
 4809SOL    HW115326   3.690   3.985   6.698
 4809SOL    HW215327   3.783   3.958   6.829
 4810SOL     OW15328   1.400   4.576   2.113
 4810SOL    HW115329   1.471   4.645   2.099
 4810SOL    HW215330   1.419   4.496   2.057
 4811SOL     OW15331   2.563   4.577   2.428
 4811SOL    HW115332   2.610   4.563   2.341
 4811SOL    HW215333   2.617   4.637   2.487
 4812SOL     OW15334   6.610   4.812   5.283
 4812SOL    HW115335   6.693   4.842   5.237
 4812SOL    HW215336   6.596   4.865   5.367
 4813SOL     OW15337   5.132   1.305   2.001
 4813SOL    HW115338   5.161   1.212   1.979
 4813SOL    HW215339   5.208   1.368   1.987
 4814SOL     OW15340   5.901   4.538   0.321
 4814SOL    HW115341   5.992   4.561   0.285
 4814SOL    HW215342   5.839   4.615   0.309
 4815SOL     OW15343   5.129   4.581   2.180
 4815SOL    HW115344   5.104   4.673   2.149
 4815SOL    HW215345   5.089   4.565   2.270
 4816SOL     OW15346   6.165   5.225   2.741
 4816SOL    HW115347   6.157   5.187   2.833
 4816SOL    HW215348   6.218   5.309   2.744
 4817SOL     OW15349   0.460   2.142   6.070
 4817SOL    HW115350   0.439   2.058   6.120
 4817SOL    HW215351   0.554   2.169   6.088
 4818SOL     OW15352   0.989   0.195   4.583
 4818SOL    HW115353   0.949   0.196   4.674
 4818SOL    HW215354   1.080   0.237   4.586
 4819SOL     OW15355   1.927   3.434   0.621
 4819SOL    HW115356   1.836   3.391   0.624
 4819SOL    HW215357   1.986   3.381   0.561
 4820SOL     OW15358   0.214   3.174   1.768
 4820SOL    HW115359   0.256   3.134   1.686
 4820SOL    HW215360   0.181   3.266   1.748
 4821SOL     OW15361   0.832   5.929   2.836
 4821SOL    HW115362   0.856   5.884   2.750
 4821SOL    HW215363   0.790   5.863   2.898
 4822SOL     OW15364   1.371   3.611   4.178
 4822SOL    HW115365   1.352   3.649   4.087
 4822SOL    HW215366   1.295   3.553   4.206
 4823SOL     OW15367   1.642   2.042   2.857
 4823SOL    HW115368   1.733   2.082   2.864
 4823SOL    HW215369   1.635   1.987   2.774
 4824SOL     OW15370   5.091   2.273   5.520
 4824SOL    HW115371   5.102   2.174   5.508
 4824SOL    HW215372   5.174   2.312   5.559
 4825SOL     OW15373   1.171   1.740   4.160
 4825SOL    HW115374   1.183   1.646   4.192
 4825SOL    HW215375   1.170   1.741   4.060
 4826SOL     OW15376   5.112   0.466   0.602
 4826SOL    HW115377   5.035   0.402   0.605
 4826SOL    HW215378   5.134   0.496   0.695
 4827SOL     OW15379   6.089   1.717   0.289
 4827SOL    HW115380   6.095   1.814   0.311
 4827SOL    HW215381   6.140   1.699   0.205
 4828SOL     OW15382   4.535   0.829   1.288
 4828SOL    HW115383   4.459   0.767   1.271
 4828SOL    HW215384   4.593   0.792   1.360
 4829SOL     OW15385   4.068   6.421   6.458
 4829SOL    HW115386   4.036   6.469   6.540
 4829SOL    HW215387   4.053   6.478   6.378
 4830SOL     OW15388   4.110   5.861   4.107
 4830SOL    HW115389   4.191   5.814   4.142
 4830SOL    HW215390   4.044   5.873   4.181
 4831SOL     OW15391   2.732   5.220   5.233
 4831SOL    HW115392   2.827   5.250   5.219
 4831SOL    HW215393   2.680   5.234   5.148
 4832SOL     OW15394   3.624   2.939   4.707
 4832SOL    HW115395   3.653   3.029   4.739
 4832SOL    HW215396   3.664   2.869   4.766
 4833SOL     OW15397   5.662   2.241   3.222
 4833SOL    HW115398   5.629   2.216   3.131
 4833SOL    HW215399   5.687   2.338   3.223
 4834SOL     OW15400   2.618   5.930   2.107
 4834SOL    HW115401   2.541   5.991   2.122
 4834SOL    HW215402   2.637   5.880   2.191
 4835SOL     OW15403   6.293   3.350   5.994
 4835SOL    HW115404   6.314   3.442   5.959
 4835SOL    HW215405   6.266   3.356   6.090
 4836SOL     OW15406   5.051   1.708   5.514
 4836SOL    HW115407   5.029   1.650   5.593
 4836SOL    HW215408   5.093   1.653   5.442
 4837SOL     OW15409   6.674   3.401   2.827
 4837SOL    HW115410   6.638   3.492   2.845
 4837SOL    HW215411   6.639   3.368   2.739
 4838SOL     OW15412   1.942   5.099   6.671
 4838SOL    HW115413   2.030   5.102   6.625
 4838SOL    HW215414   1.932   5.011   6.718
 4839SOL     OW15415   1.309   3.388   6.843
 4839SOL    HW115416   1.321   3.399   6.942
 4839SOL    HW215417   1.328   3.294   6.817
 4840SOL     OW15418   5.090   3.776   5.334
 4840SOL    HW115419   5.186   3.780   5.361
 4840SOL    HW215420   5.059   3.867   5.307
 4841SOL     OW15421   3.135   5.903   3.141
 4841SOL    HW115422   3.228   5.929   3.114
 4841SOL    HW215423   3.076   5.902   3.061
 4842SOL     OW15424   2.728   5.422   3.148
 4842SOL    HW115425   2.722   5.503   3.205
 4842SOL    HW215426   2.657   5.357   3.174
 4843SOL     OW15427   6.456   2.821   1.740
 4843SOL    HW115428   6.452   2.737   1.686
 4843SOL    HW215429   6.528   2.814   1.809
 4844SOL     OW15430   1.268   3.610   5.417
 4844SOL    HW115431   1.367   3.627   5.410
 4844SOL    HW215432   1.222   3.695   5.444
 4845SOL     OW15433   4.707   4.736   5.270
 4845SOL    HW115434   4.736   4.824   5.232
 4845SOL    HW215435   4.613   4.718   5.244
 4846SOL     OW15436   0.106   2.093   3.281
 4846SOL    HW115437   0.030   2.105   3.346
 4846SOL    HW215438   0.188   2.066   3.331
 4847SOL     OW15439   2.544   0.693   5.181
 4847SOL    HW115440   2.609   0.699   5.105
 4847SOL    HW215441   2.579   0.630   5.250
 4848SOL     OW15442   2.217   0.958   3.703
 4848SOL    HW115443   2.307   0.940   3.744
 4848SOL    HW215444   2.179   0.873   3.668
 4849SOL     OW15445   1.722   0.085   1.011
 4849SOL    HW115446   1.679   0.170   0.981
 4849SOL    HW215447   1.654   0.011   1.008
 4850SOL     OW15448   4.395   0.491   1.540
 4850SOL    HW115449   4.397   0.489   1.440
 4850SOL    HW215450   4.368   0.582   1.571
 4851SOL     OW15451   3.791   5.456   6.560
 4851SOL    HW115452   3.707   5.425   6.515
 4851SOL    HW215453   3.864   5.389   6.546
 4852SOL     OW15454   3.447   5.741   4.178
 4852SOL    HW115455   3.365   5.773   4.225
 4852SOL    HW215456   3.519   5.809   4.186
 4853SOL     OW15457   3.675   1.227   2.764
 4853SOL    HW115458   3.592   1.244   2.817
 4853SOL    HW215459   3.737   1.305   2.772
 4854SOL     OW15460   5.576   6.615   1.921
 4854SOL    HW115461   5.622   6.527   1.932
 4854SOL    HW215462   5.565   6.659   2.010
 4855SOL     OW15463   7.013   3.582   4.809
 4855SOL    HW115464   0.009   3.605   4.713
 4855SOL    HW215465   0.062   3.636   4.864
 4856SOL     OW15466   0.541   3.297   2.427
 4856SOL    HW115467   0.451   3.332   2.401
 4856SOL    HW215468   0.552   3.204   2.393
 4857SOL     OW15469   3.284   2.044   3.746
 4857SOL    HW115470   3.375   2.085   3.752
 4857SOL    HW215471   3.239   2.074   3.662
 4858SOL     OW15472   0.908   0.241   4.840
 4858SOL    HW115473   0.975   0.303   4.881
 4858SOL    HW215474   0.867   0.185   4.912
 4859SOL     OW15475   1.155   4.828   1.645
 4859SOL    HW115476   1.130   4.912   1.597
 4859SOL    HW215477   1.239   4.792   1.606
 4860SOL     OW15478   3.896   4.498   0.113
 4860SOL    HW115479   3.907   4.541   0.203
 4860SOL    HW215480   3.800   4.477   0.098
 4861SOL     OW15481   6.475   4.890   6.075
 4861SOL    HW115482   6.522   4.959   6.131
 4861SOL    HW215483   6.377   4.907   6.077
 4862SOL     OW15484   2.911   4.836   4.897
 4862SOL    HW115485   2.890   4.751   4.943
 4862SOL    HW215486   2.936   4.906   4.964
 4863SOL     OW15487   4.863   3.329   2.593
 4863SOL    HW115488   4.771   3.355   2.623
 4863SOL    HW215489   4.898   3.257   2.653
 4864SOL     OW15490   3.010   1.583   1.771
 4864SOL    HW115491   3.038   1.540   1.857
 4864SOL    HW215492   3.090   1.620   1.724
 4865SOL     OW15493   2.827   4.968   5.903
 4865SOL    HW115494   2.895   4.922   5.846
 4865SOL    HW215495   2.801   5.055   5.860
 4866SOL     OW15496   6.567   4.910   1.969
 4866SOL    HW115497   6.474   4.880   1.949
 4866SOL    HW215498   6.631   4.838   1.944
 4867SOL     OW15499   5.039   5.949   3.412
 4867SOL    HW115500   5.113   5.995   3.461
 4867SOL    HW215501   4.977   5.906   3.478
 4868SOL     OW15502   1.074   5.435   1.349
 4868SOL    HW115503   1.023   5.520   1.367
 4868SOL    HW215504   1.160   5.458   1.303
 4869SOL     OW15505   6.936   2.158   0.597
 4869SOL    HW115506   6.855   2.138   0.543
 4869SOL    HW215507   6.949   2.085   0.665
 4870SOL     OW15508   4.098   5.829   1.731
 4870SOL    HW115509   4.161   5.757   1.700
 4870SOL    HW215510   4.051   5.868   1.652
 4871SOL     OW15511   1.392   1.658   3.244
 4871SOL    HW115512   1.347   1.668   3.155
 4871SOL    HW215513   1.480   1.614   3.232
 4872SOL     OW15514   1.020   0.021   3.143
 4872SOL    HW115515   1.088   7.005   3.209
 4872SOL    HW215516   1.050   0.106   3.101
 4873SOL     OW15517   0.218   5.052   5.084
 4873SOL    HW115518   0.185   5.083   4.994
 4873SOL    HW215519   0.215   4.952   5.088
 4874SOL     OW15520   5.531   4.044   2.523
 4874SOL    HW115521   5.562   4.121   2.466
 4874SOL    HW215522   5.611   3.995   2.558
 4875SOL     OW15523   5.437   1.648   1.129
 4875SOL    HW115524   5.348   1.694   1.125
 4875SOL    HW215525   5.477   1.660   1.219
 4876SOL     OW15526   5.761   0.419   5.668
 4876SOL    HW115527   5.667   0.433   5.636
 4876SOL    HW215528   5.773   0.466   5.756
 4877SOL     OW15529   6.311   1.619   1.016
 4877SOL    HW115530   6.258   1.649   1.095
 4877SOL    HW215531   6.399   1.666   1.014
 4878SOL     OW15532   0.424   1.846   1.908
 4878SOL    HW115533   0.345   1.892   1.949
 4878SOL    HW215534   0.505   1.862   1.965
 4879SOL     OW15535   4.031   4.801   2.759
 4879SOL    HW115536   4.097   4.876   2.752
 4879SOL    HW215537   4.078   4.719   2.793
 4880SOL     OW15538   5.187   1.851   0.281
 4880SOL    HW115539   5.266   1.836   0.339
 4880SOL    HW215540   5.133   1.928   0.316
 4881SOL     OW15541   2.822   6.269   5.869
 4881SOL    HW115542   2.765   6.351   5.860
 4881SOL    HW215543   2.812   6.213   5.787
 4882SOL     OW15544   6.327   1.552   5.429
 4882SOL    HW115545   6.281   1.629   5.384
 4882SOL    HW215546   6.260   1.495   5.477
 4883SOL     OW15547   5.517   4.541   2.548
 4883SOL    HW115548   5.549   4.548   2.453
 4883SOL    HW215549   5.431   4.490   2.550
 4884SOL     OW15550   4.589   0.385   1.702
 4884SOL    HW115551   4.516   0.448   1.677
 4884SOL    HW215552   4.597   0.314   1.631
 4885SOL     OW15553   1.971   6.448   1.860
 4885SOL    HW115554   1.962   6.528   1.919
 4885SOL    HW215555   2.058   6.451   1.812
 4886SOL     OW15556   0.310   6.528   6.824
 4886SOL    HW115557   0.264   6.532   6.735
 4886SOL    HW215558   0.394   6.474   6.815
 4887SOL     OW15559   6.472   2.066   3.745
 4887SOL    HW115560   6.506   2.072   3.839
 4887SOL    HW215561   6.428   2.152   3.720
 4888SOL     OW15562   1.685   6.921   3.611
 4888SOL    HW115563   1.768   6.869   3.587
 4888SOL    HW215564   1.628   6.931   3.530
 4889SOL     OW15565   0.671   2.259   0.144
 4889SOL    HW115566   0.705   2.182   0.198
 4889SOL    HW215567   0.748   2.305   0.100
 4890SOL     OW15568   0.869   1.500   4.132
 4890SOL    HW115569   0.955   1.457   4.160
 4890SOL    HW215570   0.831   1.552   4.208
 4891SOL     OW15571   1.162   5.214   0.526
 4891SOL    HW115572   1.121   5.150   0.590
 4891SOL    HW215573   1.262   5.211   0.534
 4892SOL     OW15574   0.954   5.756   2.369
 4892SOL    HW115575   0.959   5.773   2.270
 4892SOL    HW215576   0.973   5.659   2.387
 4893SOL     OW15577   6.785   4.573   6.942
 4893SOL    HW115578   6.709   4.568   7.006
 4893SOL    HW215579   6.837   4.657   6.959
 4894SOL     OW15580   2.287   0.485   3.158
 4894SOL    HW115581   2.267   0.425   3.236
 4894SOL    HW215582   2.316   0.575   3.192
 4895SOL     OW15583   1.163   3.530   0.762
 4895SOL    HW115584   1.075   3.556   0.801
 4895SOL    HW215585   1.158   3.436   0.729
 4896SOL     OW15586   3.224   5.342   3.565
 4896SOL    HW115587   3.278   5.330   3.482
 4896SOL    HW215588   3.128   5.325   3.546
 4897SOL     OW15589   3.233   4.863   6.373
 4897SOL    HW115590   3.190   4.844   6.462
 4897SOL    HW215591   3.165   4.856   6.301
 4898SOL     OW15592   5.325   2.353   5.622
 4898SOL    HW115593   5.328   2.414   5.701
 4898SOL    HW215594   5.401   2.289   5.626
 4899SOL     OW15595   6.469   4.920   2.651
 4899SOL    HW115596   6.449   4.882   2.560
 4899SOL    HW215597   6.477   5.019   2.645
 4900SOL     OW15598   0.231   6.550   5.790
 4900SOL    HW115599   0.187   6.478   5.844
 4900SOL    HW215600   0.162   6.595   5.733
 4901SOL     OW15601   1.818   0.538   4.457
 4901SOL    HW115602   1.869   0.623   4.458
 4901SOL    HW215603   1.784   0.517   4.549
 4902SOL     OW15604   1.275   3.920   2.392
 4902SOL    HW115605   1.187   3.966   2.378
 4902SOL    HW215606   1.349   3.983   2.368
 4903SOL     OW15607   3.931   6.718   6.856
 4903SOL    HW115608   3.940   6.698   6.758
 4903SOL    HW215609   3.835   6.733   6.878
 4904SOL     OW15610   2.137   5.679   4.395
 4904SOL    HW115611   2.039   5.661   4.397
 4904SOL    HW215612   2.174   5.655   4.305
 4905SOL     OW15613   4.516   2.499   2.164
 4905SOL    HW115614   4.428   2.452   2.165
 4905SOL    HW215615   4.585   2.439   2.125
 4906SOL     OW15616   4.320   6.859   0.544
 4906SOL    HW115617   4.292   6.769   0.576
 4906SOL    HW215618   4.410   6.882   0.582
 4907SOL     OW15619   4.367   6.320   3.353
 4907SOL    HW115620   4.316   6.365   3.280
 4907SOL    HW215621   4.379   6.224   3.332
 4908SOL     OW15622   4.124   5.631   6.830
 4908SOL    HW115623   4.126   5.663   6.735
 4908SOL    HW215624   4.218   5.618   6.863
 4909SOL     OW15625   5.899   0.198   5.688
 4909SOL    HW115626   5.838   0.275   5.674
 4909SOL    HW215627   5.882   0.159   5.779
 4910SOL     OW15628   5.161   0.291   5.383
 4910SOL    HW115629   5.109   0.206   5.376
 4910SOL    HW215630   5.259   0.270   5.383
 4911SOL     OW15631   6.960   1.953   5.943
 4911SOL    HW115632   6.960   1.958   6.043
 4911SOL    HW215633   6.926   2.040   5.905
 4912SOL     OW15634   4.440   1.472   1.897
 4912SOL    HW115635   4.395   1.452   1.810
 4912SOL    HW215636   4.428   1.395   1.959
 4913SOL     OW15637   3.296   4.137   3.709
 4913SOL    HW115638   3.393   4.149   3.689
 4913SOL    HW215639   3.276   4.173   3.801
 4914SOL     OW15640   2.963   0.810   4.421
 4914SOL    HW115641   2.968   0.877   4.496
 4914SOL    HW215642   3.018   0.731   4.444
 4915SOL     OW15643   4.424   6.710   4.362
 4915SOL    HW115644   4.517   6.679   4.382
 4915SOL    HW215645   4.424   6.764   4.278
 4916SOL     OW15646   2.454   2.014   2.907
 4916SOL    HW115647   2.457   2.018   3.007
 4916SOL    HW215648   2.544   1.990   2.872
 4917SOL     OW15649   1.520   3.727   0.822
 4917SOL    HW115650   1.586   3.789   0.780
 4917SOL    HW215651   1.525   3.638   0.777
 4918SOL     OW15652   2.813   0.221   2.972
 4918SOL    HW115653   2.837   0.138   2.922
 4918SOL    HW215654   2.728   0.258   2.934
 4919SOL     OW15655   1.528   1.941   3.109
 4919SOL    HW115656   1.569   1.850   3.116
 4919SOL    HW215657   1.557   1.984   3.023
 4920SOL     OW15658   4.120   0.532   6.864
 4920SOL    HW115659   4.154   0.505   6.954
 4920SOL    HW215660   4.176   0.606   6.828
 4921SOL     OW15661   2.436   4.006   1.744
 4921SOL    HW115662   2.432   3.911   1.712
 4921SOL    HW215663   2.349   4.031   1.786
 4922SOL     OW15664   1.092   3.252   5.404
 4922SOL    HW115665   1.108   3.194   5.324
 4922SOL    HW215666   1.176   3.302   5.427
 4923SOL     OW15667   4.961   6.967   2.217
 4923SOL    HW115668   5.015   0.006   2.153
 4923SOL    HW215669   4.906   6.900   2.166
 4924SOL     OW15670   1.687   3.368   4.428
 4924SOL    HW115671   1.671   3.414   4.340
 4924SOL    HW215672   1.688   3.269   4.414
 4925SOL     OW15673   5.379   6.347   0.720
 4925SOL    HW115674   5.362   6.344   0.819
 4925SOL    HW215675   5.313   6.410   0.678
 4926SOL     OW15676   5.360   2.824   1.571
 4926SOL    HW115677   5.279   2.814   1.513
 4926SOL    HW215678   5.367   2.745   1.632
 4927SOL     OW15679   3.792   2.911   2.868
 4927SOL    HW115680   3.831   2.933   2.779
 4927SOL    HW215681   3.693   2.928   2.866
 4928SOL     OW15682   0.567   6.585   6.518
 4928SOL    HW115683   0.535   6.668   6.563
 4928SOL    HW215684   0.541   6.505   6.573
 4929SOL     OW15685   1.290   4.498   5.128
 4929SOL    HW115686   1.208   4.468   5.080
 4929SOL    HW215687   1.286   4.469   5.224
 4930SOL     OW15688   0.928   1.116   0.301
 4930SOL    HW115689   0.997   1.175   0.342
 4930SOL    HW215690   0.851   1.106   0.364
 4931SOL     OW15691   0.621   0.730   6.957
 4931SOL    HW115692   0.613   0.778   0.029
 4931SOL    HW215693   0.718   0.716   6.936
 4932SOL     OW15694   2.346   2.798   1.745
 4932SOL    HW115695   2.420   2.860   1.773
 4932SOL    HW215696   2.332   2.805   1.646
 4933SOL     OW15697   2.398   1.545   4.502
 4933SOL    HW115698   2.359   1.490   4.428
 4933SOL    HW215699   2.424   1.484   4.577
 4934SOL     OW15700   0.719   5.353   4.388
 4934SOL    HW115701   0.748   5.341   4.483
 4934SOL    HW215702   0.631   5.402   4.386
 4935SOL     OW15703   1.466   1.115   6.584
 4935SOL    HW115704   1.558   1.075   6.580
 4935SOL    HW215705   1.431   1.127   6.491
 4936SOL     OW15706   2.726   5.979   1.685
 4936SOL    HW115707   2.796   6.051   1.680
 4936SOL    HW215708   2.727   5.938   1.777
 4937SOL     OW15709   0.778   3.732   6.137
 4937SOL    HW115710   0.680   3.724   6.154
 4937SOL    HW215711   0.795   3.732   6.038
 4938SOL     OW15712   3.226   4.465   1.538
 4938SOL    HW115713   3.128   4.481   1.551
 4938SOL    HW215714   3.278   4.531   1.594
 4939SOL     OW15715   1.739   1.461   2.062
 4939SOL    HW115716   1.702   1.514   2.138
 4939SOL    HW215717   1.738   1.516   1.979
 4940SOL     OW15718   6.934   1.703   4.812
 4940SOL    HW115719   6.983   1.705   4.899
 4940SOL    HW215720   6.956   1.618   4.764
 4941SOL     OW15721   4.101   2.423   5.404
 4941SOL    HW115722   4.007   2.418   5.372
 4941SOL    HW215723   4.155   2.481   5.342
 4942SOL     OW15724   5.358   3.299   4.008
 4942SOL    HW115725   5.430   3.235   4.034
 4942SOL    HW215726   5.293   3.308   4.084
 4943SOL     OW15727   6.166   4.203   6.921
 4943SOL    HW115728   6.083   4.240   6.879
 4943SOL    HW215729   6.189   4.116   6.878
 4944SOL     OW15730   1.979   4.663   0.455
 4944SOL    HW115731   1.929   4.578   0.438
 4944SOL    HW215732   2.047   4.676   0.383
 4945SOL     OW15733   1.460   1.213   5.106
 4945SOL    HW115734   1.421   1.191   5.016
 4945SOL    HW215735   1.537   1.276   5.094
 4946SOL     OW15736   1.122   4.440   0.125
 4946SOL    HW115737   1.055   4.380   0.082
 4946SOL    HW215738   1.162   4.501   0.056
 4947SOL     OW15739   2.868   0.747   2.534
 4947SOL    HW115740   2.790   0.684   2.537
 4947SOL    HW215741   2.902   0.753   2.440
 4948SOL     OW15742   1.785   2.514   2.520
 4948SOL    HW115743   1.848   2.592   2.522
 4948SOL    HW215744   1.706   2.537   2.463
 4949SOL     OW15745   6.605   3.946   6.165
 4949SOL    HW115746   6.588   4.044   6.179
 4949SOL    HW215747   6.613   3.901   6.254
 4950SOL     OW15748   2.030   4.076   4.960
 4950SOL    HW115749   2.117   4.029   4.973
 4950SOL    HW215750   2.045   4.171   4.934
 4951SOL     OW15751   6.373   6.065   3.864
 4951SOL    HW115752   6.291   6.029   3.909
 4951SOL    HW215753   6.454   6.023   3.904
 4952SOL     OW15754   6.732   0.359   6.554
 4952SOL    HW115755   6.718   0.392   6.647
 4952SOL    HW215756   6.821   0.315   6.547
 4953SOL     OW15757   1.887   1.717   4.090
 4953SOL    HW115758   1.975   1.756   4.116
 4953SOL    HW215759   1.852   1.764   4.009
 4954SOL     OW15760   2.150   3.752   5.774
 4954SOL    HW115761   2.063   3.705   5.790
 4954SOL    HW215762   2.201   3.705   5.702
 4955SOL     OW15763   2.866   5.262   0.439
 4955SOL    HW115764   2.916   5.179   0.416
 4955SOL    HW215765   2.920   5.342   0.410
 4956SOL     OW15766   2.872   0.698   5.181
 4956SOL    HW115767   2.836   0.659   5.265
 4956SOL    HW215768   2.917   0.626   5.127
 4957SOL     OW15769   5.872   3.692   0.373
 4957SOL    HW115770   5.861   3.727   0.280
 4957SOL    HW215771   5.782   3.679   0.414
 4958SOL     OW15772   2.161   6.212   5.448
 4958SOL    HW115773   2.088   6.155   5.410
 4958SOL    HW215774   2.248   6.164   5.439
 4959SOL     OW15775   6.820   1.889   1.206
 4959SOL    HW115776   6.823   1.895   1.306
 4959SOL    HW215777   6.906   1.922   1.168
 4960SOL     OW15778   3.991   4.805   3.793
 4960SOL    HW115779   3.950   4.851   3.715
 4960SOL    HW215780   3.934   4.818   3.874
 4961SOL     OW15781   3.151   0.675   6.919
 4961SOL    HW115782   3.133   0.773   6.924
 4961SOL    HW215783   3.066   0.624   6.934
 4962SOL     OW15784   5.678   2.073   0.853
 4962SOL    HW115785   5.645   2.066   0.759
 4962SOL    HW215786   5.724   2.160   0.866
 4963SOL     OW15787   1.506   6.039   0.970
 4963SOL    HW115788   1.454   6.084   0.896
 4963SOL    HW215789   1.597   6.014   0.937
 4964SOL     OW15790   2.061   6.513   4.841
 4964SOL    HW115791   1.963   6.492   4.838
 4964SOL    HW215792   2.113   6.437   4.802
 4965SOL     OW15793   0.666   6.729   3.133
 4965SOL    HW115794   0.752   6.682   3.115
 4965SOL    HW215795   0.661   6.753   3.230
 4966SOL     OW15796   2.355   6.383   4.324
 4966SOL    HW115797   2.355   6.285   4.305
 4966SOL    HW215798   2.388   6.433   4.244
 4967SOL     OW15799   3.166   4.589   5.972
 4967SOL    HW115800   3.205   4.584   5.880
 4967SOL    HW215801   3.150   4.497   6.006
 4968SOL     OW15802   0.296   0.787   4.203
 4968SOL    HW115803   0.300   0.867   4.143
 4968SOL    HW215804   0.211   0.737   4.188
 4969SOL     OW15805   0.347   6.393   2.524
 4969SOL    HW115806   0.330   6.335   2.604
 4969SOL    HW215807   0.301   6.353   2.444
 4970SOL     OW15808   2.122   1.242   1.804
 4970SOL    HW115809   2.197   1.176   1.798
 4970SOL    HW215810   2.151   1.322   1.856
 4971SOL     OW15811   6.113   5.513   2.778
 4971SOL    HW115812   6.043   5.582   2.759
 4971SOL    HW215813   6.115   5.493   2.876
 4972SOL     OW15814   1.263   4.342   0.358
 4972SOL    HW115815   1.340   4.315   0.300
 4972SOL    HW215816   1.186   4.369   0.300
 4973SOL     OW15817   0.325   0.744   1.885
 4973SOL    HW115818   0.415   0.777   1.857
 4973SOL    HW215819   0.264   0.744   1.805
 4974SOL     OW15820   4.905   4.688   0.101
 4974SOL    HW115821   4.917   4.639   0.015
 4974SOL    HW215822   4.995   4.706   0.142
 4975SOL     OW15823   5.071   3.966   0.693
 4975SOL    HW115824   5.152   4.023   0.679
 4975SOL    HW215825   5.010   3.975   0.614
 4976SOL     OW15826   1.283   0.613   4.498
 4976SOL    HW115827   1.183   0.617   4.498
 4976SOL    HW215828   1.319   0.694   4.544
 4977SOL     OW15829   3.576   3.541   6.829
 4977SOL    HW115830   3.539   3.597   6.903
 4977SOL    HW215831   3.654   3.488   6.864
 4978SOL     OW15832   4.882   4.370   5.418
 4978SOL    HW115833   4.900   4.447   5.477
 4978SOL    HW215834   4.822   4.305   5.465
 4979SOL     OW15835   0.483   6.612   0.213
 4979SOL    HW115836   0.525   6.603   0.122
 4979SOL    HW215837   0.549   6.585   0.283
 4980SOL     OW15838   6.293   4.493   2.584
 4980SOL    HW115839   6.261   4.406   2.621
 4980SOL    HW215840   6.388   4.484   2.553
 4981SOL     OW15841   3.354   5.878   1.756
 4981SOL    HW115842   3.423   5.819   1.714
 4981SOL    HW215843   3.339   5.958   1.698
 4982SOL     OW15844   4.128   1.668   6.873
 4982SOL    HW115845   4.039   1.641   6.837
 4982SOL    HW215846   4.121   1.759   6.913
 4983SOL     OW15847   6.177   4.962   4.195
 4983SOL    HW115848   6.262   4.928   4.154
 4983SOL    HW215849   6.193   4.986   4.291
 4984SOL     OW15850   4.728   4.265   3.073
 4984SOL    HW115851   4.824   4.239   3.080
 4984SOL    HW215852   4.716   4.358   3.108
 4985SOL     OW15853   4.867   6.435   3.004
 4985SOL    HW115854   4.911   6.455   2.917
 4985SOL    HW215855   4.843   6.520   3.051
 4986SOL     OW15856   6.592   4.891   1.227
 4986SOL    HW115857   6.507   4.907   1.177
 4986SOL    HW215858   6.580   4.919   1.322
 4987SOL     OW15859   1.120   6.433   2.872
 4987SOL    HW115860   1.084   6.387   2.791
 4987SOL    HW215861   1.145   6.527   2.848
 4988SOL     OW15862   5.965   1.322   3.476
 4988SOL    HW115863   5.892   1.384   3.508
 4988SOL    HW215864   5.997   1.266   3.552
 4989SOL     OW15865   4.606   0.609   1.898
 4989SOL    HW115866   4.691   0.649   1.864
 4989SOL    HW215867   4.593   0.519   1.859
 4990SOL     OW15868   3.835   1.582   6.804
 4990SOL    HW115869   3.830   1.539   6.714
 4990SOL    HW215870   3.743   1.599   6.838
 4991SOL     OW15871   6.976   5.958   3.790
 4991SOL    HW115872   7.007   6.050   3.765
 4991SOL    HW215873   6.929   5.917   3.712
 4992SOL     OW15874   6.129   1.510   2.817
 4992SOL    HW115875   6.174   1.580   2.871
 4992SOL    HW215876   6.087   1.442   2.877
 4993SOL     OW15877   3.958   6.682   4.894
 4993SOL    HW115878   3.920   6.620   4.825
 4993SOL    HW215879   3.935   6.777   4.870
 4994SOL     OW15880   2.266   5.671   4.653
 4994SOL    HW115881   2.345   5.610   4.645
 4994SOL    HW215882   2.213   5.667   4.568
 4995SOL     OW15883   0.385   0.848   5.179
 4995SOL    HW115884   0.392   0.749   5.174
 4995SOL    HW215885   0.395   0.877   5.274
 4996SOL     OW15886   6.890   1.343   3.614
 4996SOL    HW115887   6.949   1.384   3.545
 4996SOL    HW215888   6.887   1.243   3.600
 4997SOL     OW15889   3.490   2.334   1.336
 4997SOL    HW115890   3.513   2.429   1.313
 4997SOL    HW215891   3.574   2.284   1.359
 4998SOL     OW15892   1.701   3.496   3.565
 4998SOL    HW115893   1.772   3.433   3.533
 4998SOL    HW215894   1.617   3.445   3.585
 4999SOL     OW15895   0.195   3.638   4.992
 4999SOL    HW115896   0.225   3.729   4.962
 4999SOL    HW215897   0.272   3.590   5.033
 5000SOL     OW15898   3.290   6.189   3.338
 5000SOL    HW115899   3.259   6.117   3.401
 5000SOL    HW215900   3.217   6.257   3.327
 5001SOL     OW15901   0.279   5.578   2.548
 5001SOL    HW115902   0.201   5.637   2.566
 5001SOL    HW215903   0.283   5.555   2.451
 5002SOL     OW15904   0.557   5.120   1.889
 5002SOL    HW115905   0.486   5.174   1.846
 5002SOL    HW215906   0.577   5.157   1.980
 5003SOL     OW15907   4.105   6.589   2.844
 5003SOL    HW115908   4.057   6.638   2.917
 5003SOL    HW215909   4.111   6.492   2.868
 5004SOL     OW15910   2.339   5.168   5.464
 5004SOL    HW115911   2.319   5.106   5.388
 5004SOL    HW215912   2.270   5.240   5.468
 5005SOL     OW15913   2.361   3.280   6.309
 5005SOL    HW115914   2.274   3.237   6.332
 5005SOL    HW215915   2.353   3.328   6.222
 5006SOL     OW15916   5.528   1.077   2.132
 5006SOL    HW115917   5.561   1.150   2.072
 5006SOL    HW215918   5.607   1.033   2.176
 5007SOL     OW15919   6.692   0.407   1.158
 5007SOL    HW115920   6.594   0.425   1.164
 5007SOL    HW215921   6.731   0.454   1.079
 5008SOL     OW15922   6.683   5.477   1.497
 5008SOL    HW115923   6.756   5.529   1.453
 5008SOL    HW215924   6.595   5.524   1.485
 5009SOL     OW15925   1.019   2.830   0.384
 5009SOL    HW115926   1.009   2.814   0.286
 5009SOL    HW215927   1.037   2.743   0.430
 5010SOL     OW15928   4.045   2.402   0.795
 5010SOL    HW115929   3.986   2.328   0.825
 5010SOL    HW215930   4.133   2.365   0.766
 5011SOL     OW15931   2.295   3.845   1.349
 5011SOL    HW115932   2.257   3.763   1.306
 5011SOL    HW215933   2.293   3.920   1.284
 5012SOL     OW15934   6.315   3.024   5.376
 5012SOL    HW115935   6.272   3.113   5.361
 5012SOL    HW215936   6.384   3.008   5.305
 5013SOL     OW15937   5.549   0.476   5.946
 5013SOL    HW115938   5.506   0.482   6.036
 5013SOL    HW215939   5.505   0.404   5.893
 5014SOL     OW15940   6.643   4.527   0.462
 5014SOL    HW115941   6.630   4.618   0.502
 5014SOL    HW215942   6.733   4.523   0.417
 5015SOL     OW15943   5.114   0.634   4.753
 5015SOL    HW115944   5.192   0.628   4.817
 5015SOL    HW215945   5.146   0.667   4.665
 5016SOL     OW15946   0.665   3.346   4.706
 5016SOL    HW115947   0.596   3.314   4.641
 5016SOL    HW215948   0.631   3.333   4.799
 5017SOL     OW15949   1.340   2.063   1.301
 5017SOL    HW115950   1.395   2.146   1.308
 5017SOL    HW215951   1.246   2.082   1.328
 5018SOL     OW15952   1.163   5.527   2.432
 5018SOL    HW115953   1.177   5.435   2.469
 5018SOL    HW215954   1.179   5.526   2.333
 5019SOL     OW15955   2.545   6.147   5.702
 5019SOL    HW115956   2.527   6.150   5.800
 5019SOL    HW215957   2.532   6.054   5.669
 5020SOL     OW15958   0.166   6.857   5.461
 5020SOL    HW115959   0.228   6.902   5.525
 5020SOL    HW215960   0.204   6.768   5.435
 5021SOL     OW15961   1.113   0.799   1.171
 5021SOL    HW115962   1.115   0.775   1.268
 5021SOL    HW215963   1.095   0.717   1.116
 5022SOL     OW15964   1.038   2.784   1.728
 5022SOL    HW115965   1.107   2.743   1.669
 5022SOL    HW215966   1.073   2.790   1.821
 5023SOL     OW15967   0.317   4.484   1.710
 5023SOL    HW115968   0.345   4.544   1.785
 5023SOL    HW215969   0.389   4.484   1.640
 5024SOL     OW15970   6.064   5.172   0.973
 5024SOL    HW115971   6.156   5.168   1.011
 5024SOL    HW215972   6.029   5.266   0.978
 5025SOL     OW15973   4.101   2.149   3.748
 5025SOL    HW115974   4.042   2.196   3.683
 5025SOL    HW215975   4.053   2.071   3.787
 5026SOL     OW15976   6.586   5.255   4.798
 5026SOL    HW115977   6.624   5.171   4.760
 5026SOL    HW215978   6.486   5.254   4.787
 5027SOL     OW15979   6.027   0.156   1.844
 5027SOL    HW115980   5.984   0.073   1.807
 5027SOL    HW215981   6.126   0.145   1.844
 5028SOL     OW15982   6.379   1.801   3.716
 5028SOL    HW115983   6.452   1.869   3.718
 5028SOL    HW215984   6.386   1.743   3.798
 5029SOL     OW15985   6.225   2.328   2.273
 5029SOL    HW115986   6.198   2.404   2.332
 5029SOL    HW215987   6.317   2.345   2.237
 5030SOL     OW15988   6.962   6.141   5.879
 5030SOL    HW115989   6.933   6.138   5.974
 5030SOL    HW215990   0.034   6.093   5.869
 5031SOL     OW15991   7.013   1.220   5.584
 5031SOL    HW115992   0.089   1.241   5.618
 5031SOL    HW215993   7.010   1.126   5.551
 5032SOL     OW15994   2.912   1.350   5.936
 5032SOL    HW115995   2.946   1.256   5.947
 5032SOL    HW215996   2.830   1.349   5.879
 5033SOL     OW15997   1.893   0.538   0.320
 5033SOL    HW115998   1.858   0.613   0.264
 5033SOL    HW215999   1.920   0.462   0.260
 5034SOL     OW16000   5.595   6.547   4.241
 5034SOL    HW116001   5.632   6.597   4.320
 5034SOL    HW216002   5.510   6.590   4.212
 5035SOL     OW16003   0.611   4.190   5.552
 5035SOL    HW116004   0.710   4.180   5.557
 5035SOL    HW216005   0.585   4.214   5.459
 5036SOL     OW16006   6.589   5.110   6.756
 5036SOL    HW116007   6.568   5.199   6.798
 5036SOL    HW216008   6.679   5.080   6.786
 5037SOL     OW16009   4.603   4.630   1.317
 5037SOL    HW116010   4.667   4.668   1.251
 5037SOL    HW216011   4.596   4.691   1.396
 5038SOL     OW16012   3.664   2.883   3.895
 5038SOL    HW116013   3.611   2.896   3.978
 5038SOL    HW216014   3.717   2.799   3.902
 5039SOL     OW16015   1.965   3.476   5.408
 5039SOL    HW116016   1.976   3.401   5.343
 5039SOL    HW216017   1.926   3.441   5.493
 5040SOL     OW16018   0.894   6.408   5.221
 5040SOL    HW116019   0.870   6.394   5.125
 5040SOL    HW216020   0.912   6.319   5.264
 5041SOL     OW16021   1.133   2.072   1.659
 5041SOL    HW116022   1.233   2.078   1.670
 5041SOL    HW216023   1.089   2.140   1.718
 5042SOL     OW16024   0.074   2.689   0.468
 5042SOL    HW116025   0.043   2.709   0.375
 5042SOL    HW216026   7.011   2.660   0.524
 5043SOL     OW16027   4.272   0.698   6.725
 5043SOL    HW116028   4.189   0.752   6.719
 5043SOL    HW216029   4.339   0.745   6.783
 5044SOL     OW16030   0.733   5.408   1.224
 5044SOL    HW116031   0.713   5.337   1.292
 5044SOL    HW216032   0.716   5.372   1.133
 5045SOL     OW16033   6.142   5.756   5.901
 5045SOL    HW116034   6.091   5.841   5.890
 5045SOL    HW216035   6.237   5.776   5.925
 5046SOL     OW16036   3.853   3.981   3.623
 5046SOL    HW116037   3.930   3.934   3.581
 5046SOL    HW216038   3.787   4.008   3.552
 5047SOL     OW16039   2.326   4.300   2.927
 5047SOL    HW116040   2.252   4.345   2.976
 5047SOL    HW216041   2.384   4.369   2.883
 5048SOL     OW16042   1.391   1.278   3.949
 5048SOL    HW116043   1.422   1.373   3.959
 5048SOL    HW216044   1.291   1.277   3.940
 5049SOL     OW16045   4.646   0.914   0.196
 5049SOL    HW116046   4.708   0.978   0.241
 5049SOL    HW216047   4.607   0.956   0.115
 5050SOL     OW16048   1.775   1.214   6.756
 5050SOL    HW116049   1.858   1.257   6.790
 5050SOL    HW216050   1.698   1.237   6.816
 5051SOL     OW16051   4.605   4.291   1.656
 5051SOL    HW116052   4.637   4.207   1.613
 5051SOL    HW216053   4.563   4.269   1.745
 5052SOL     OW16054   3.030   1.751   5.754
 5052SOL    HW116055   2.972   1.811   5.809
 5052SOL    HW216056   3.094   1.806   5.701
 5053SOL     OW16057   0.858   4.763   3.005
 5053SOL    HW116058   0.903   4.797   3.088
 5053SOL    HW216059   0.762   4.793   3.006
 5054SOL     OW16060   2.677   5.045   4.852
 5054SOL    HW116061   2.608   5.004   4.793
 5054SOL    HW216062   2.751   4.979   4.868
 5055SOL     OW16063   0.758   2.123   5.780
 5055SOL    HW116064   0.742   2.076   5.867
 5055SOL    HW216065   0.785   2.056   5.711
 5056SOL     OW16066   5.374   3.552   5.946
 5056SOL    HW116067   5.405   3.639   5.986
 5056SOL    HW216068   5.350   3.489   6.019
 5057SOL     OW16069   6.851   0.087   3.235
 5057SOL    HW116070   6.829   0.008   3.293
 5057SOL    HW216071   6.905   0.152   3.288
 5058SOL     OW16072   3.362   3.631   6.081
 5058SOL    HW116073   3.428   3.601   6.150
 5058SOL    HW216074   3.308   3.552   6.050
 5059SOL     OW16075   0.414   0.633   3.342
 5059SOL    HW116076   0.341   0.577   3.302
 5059SOL    HW216077   0.410   0.725   3.303
 5060SOL     OW16078   0.400   2.727   6.246
 5060SOL    HW116079   0.445   2.816   6.238
 5060SOL    HW216080   0.470   2.655   6.252
 5061SOL     OW16081   5.050   2.548   0.294
 5061SOL    HW116082   4.997   2.562   0.210
 5061SOL    HW216083   5.084   2.454   0.296
 5062SOL     OW16084   5.756   0.071   2.648
 5062SOL    HW116085   5.762   6.989   2.625
 5062SOL    HW216086   5.720   0.122   2.570
 5063SOL     OW16087   0.337   6.912   2.484
 5063SOL    HW116088   0.354   7.009   2.502
 5063SOL    HW216089   0.245   6.888   2.514
 5064SOL     OW16090   5.017   3.565   0.921
 5064SOL    HW116091   5.041   3.626   0.997
 5064SOL    HW216092   5.099   3.518   0.889
 5065SOL     OW16093   3.188   0.558   5.838
 5065SOL    HW116094   3.185   0.482   5.773
 5065SOL    HW216095   3.276   0.606   5.828
 5066SOL     OW16096   4.769   4.773   1.876
 5066SOL    HW116097   4.672   4.772   1.899
 5066SOL    HW216098   4.790   4.694   1.818
 5067SOL     OW16099   4.757   1.557   1.087
 5067SOL    HW116100   4.668   1.601   1.074
 5067SOL    HW216101   4.751   1.490   1.161
 5068SOL     OW16102   2.317   4.931   0.838
 5068SOL    HW116103   2.248   4.920   0.767
 5068SOL    HW216104   2.393   4.985   0.803
 5069SOL     OW16105   1.788   4.728   3.063
 5069SOL    HW116106   1.742   4.753   3.148
 5069SOL    HW216107   1.839   4.807   3.028
 5070SOL     OW16108   4.922   3.408   3.652
 5070SOL    HW116109   4.939   3.486   3.714
 5070SOL    HW216110   4.899   3.327   3.706
 5071SOL     OW16111   4.604   2.460   4.609
 5071SOL    HW116112   4.681   2.466   4.672
 5071SOL    HW216113   4.518   2.461   4.660
 5072SOL     OW16114   0.699   6.198   0.616
 5072SOL    HW116115   0.790   6.189   0.576
 5072SOL    HW216116   0.685   6.293   0.645
 5073SOL     OW16117   6.185   6.772   3.175
 5073SOL    HW116118   6.175   6.871   3.188
 5073SOL    HW216119   6.124   6.741   3.102
 5074SOL     OW16120   3.589   3.283   6.644
 5074SOL    HW116121   3.577   3.236   6.556
 5074SOL    HW216122   3.556   3.376   6.636
 5075SOL     OW16123   0.262   1.266   5.724
 5075SOL    HW116124   0.231   1.246   5.817
 5075SOL    HW216125   0.306   1.356   5.722
 5076SOL     OW16126   3.607   1.041   1.274
 5076SOL    HW116127   3.512   1.055   1.302
 5076SOL    HW216128   3.669   1.074   1.346
 5077SOL     OW16129   0.337   2.681   3.994
 5077SOL    HW116130   0.266   2.655   4.058
 5077SOL    HW216131   0.423   2.637   4.019
 5078SOL     OW16132   0.773   2.034   3.295
 5078SOL    HW116133   0.849   2.010   3.355
 5078SOL    HW216134   0.782   2.130   3.266
 5079SOL     OW16135   2.715   4.666   6.402
 5079SOL    HW116136   2.802   4.669   6.452
 5079SOL    HW216137   2.711   4.743   6.338
 5080SOL     OW16138   5.681   6.699   5.578
 5080SOL    HW116139   5.639   6.689   5.487
 5080SOL    HW216140   5.611   6.720   5.645
 5081SOL     OW16141   4.023   3.179   3.102
 5081SOL    HW116142   3.931   3.149   3.125
 5081SOL    HW216143   4.072   3.105   3.056
 5082SOL     OW16144   5.792   5.378   5.487
 5082SOL    HW116145   5.738   5.453   5.449
 5082SOL    HW216146   5.841   5.331   5.413
 5083SOL     OW16147   2.077   6.520   2.709
 5083SOL    HW116148   1.984   6.529   2.746
 5083SOL    HW216149   2.136   6.475   2.775
 5084SOL     OW16150   0.972   4.889   4.737
 5084SOL    HW116151   0.928   4.879   4.648
 5084SOL    HW216152   1.065   4.855   4.732
 5085SOL     OW16153   5.694   2.288   6.780
 5085SOL    HW116154   5.596   2.287   6.761
 5085SOL    HW216155   5.709   2.268   6.877
 5086SOL     OW16156   6.411   5.219   4.192
 5086SOL    HW116157   6.412   5.148   4.262
 5086SOL    HW216158   6.351   5.294   4.220
 5087SOL     OW16159   6.691   6.097   3.336
 5087SOL    HW116160   6.619   6.136   3.280
 5087SOL    HW216161   6.662   6.096   3.432
 5088SOL     OW16162   5.769   1.462   5.308
 5088SOL    HW116163   5.850   1.521   5.317
 5088SOL    HW216164   5.700   1.489   5.375
 5089SOL     OW16165   6.432   3.542   3.062
 5089SOL    HW116166   6.419   3.443   3.050
 5089SOL    HW216167   6.521   3.559   3.104
 5090SOL     OW16168   2.045   3.858   1.478
 5090SOL    HW116169   2.117   3.840   1.411
 5090SOL    HW216170   2.019   3.773   1.522
 5091SOL     OW16171   0.689   5.780   3.088
 5091SOL    HW116172   0.633   5.849   3.043
 5091SOL    HW216173   0.763   5.824   3.138
 5092SOL     OW16174   3.248   2.545   1.264
 5092SOL    HW116175   3.294   2.532   1.352
 5092SOL    HW216176   3.232   2.456   1.222
 5093SOL     OW16177   1.438   1.842   1.612
 5093SOL    HW116178   1.428   1.940   1.632
 5093SOL    HW216179   1.355   1.809   1.568
 5094SOL     OW16180   1.126   0.394   5.489
 5094SOL    HW116181   1.208   0.450   5.486
 5094SOL    HW216182   1.132   0.331   5.567
 5095SOL     OW16183   1.073   1.253   4.476
 5095SOL    HW116184   1.148   1.286   4.419
 5095SOL    HW216185   0.986   1.291   4.443
 5096SOL     OW16186   4.196   3.900   0.874
 5096SOL    HW116187   4.121   3.835   0.877
 5096SOL    HW216188   4.232   3.906   0.781
 5097SOL     OW16189   1.588   0.311   6.356
 5097SOL    HW116190   1.668   0.284   6.304
 5097SOL    HW216191   1.506   0.304   6.299
 5098SOL     OW16192   0.110   0.762   1.679
 5098SOL    HW116193   0.083   0.854   1.707
 5098SOL    HW216194   0.164   0.767   1.595
 5099SOL     OW16195   1.206   0.532   6.063
 5099SOL    HW116196   1.113   0.554   6.036
 5099SOL    HW216197   1.211   0.436   6.090
 5100SOL     OW16198   4.648   6.494   5.918
 5100SOL    HW116199   4.676   6.435   5.842
 5100SOL    HW216200   4.728   6.545   5.951
 5101SOL     OW16201   5.126   6.416   6.589
 5101SOL    HW116202   5.191   6.396   6.663
 5101SOL    HW216203   5.112   6.515   6.583
 5102SOL     OW16204   5.890   0.716   5.739
 5102SOL    HW116205   5.980   0.758   5.754
 5102SOL    HW216206   5.865   0.661   5.818
 5103SOL     OW16207   6.994   1.084   4.531
 5103SOL    HW116208   6.908   1.041   4.561
 5103SOL    HW216209   0.025   1.023   4.467
 5104SOL     OW16210   1.859   6.628   1.684
 5104SOL    HW116211   1.908   6.706   1.646
 5104SOL    HW216212   1.922   6.573   1.739
 5105SOL     OW16213   4.037   3.503   6.942
 5105SOL    HW116214   3.967   3.443   6.981
 5105SOL    HW216215   4.010   3.532   6.851
 5106SOL     OW16216   3.603   0.301   2.444
 5106SOL    HW116217   3.508   0.298   2.414
 5106SOL    HW216218   3.656   0.233   2.394
 5107SOL     OW16219   2.984   0.692   0.291
 5107SOL    HW116220   3.010   0.627   0.362
 5107SOL    HW216221   2.992   0.649   0.201
 5108SOL     OW16222   3.063   3.607   3.907
 5108SOL    HW116223   3.152   3.570   3.933
 5108SOL    HW216224   3.077   3.694   3.859
 5109SOL     OW16225   0.869   1.942   0.707
 5109SOL    HW116226   0.834   1.955   0.800
 5109SOL    HW216227   0.799   1.896   0.652
 5110SOL     OW16228   1.062   6.901   6.360
 5110SOL    HW116229   1.094   6.806   6.350
 5110SOL    HW216230   0.967   6.901   6.389
 5111SOL     OW16231   0.773   1.052   5.666
 5111SOL    HW116232   0.816   1.072   5.754
 5111SOL    HW216233   0.841   1.058   5.593
 5112SOL     OW16234   0.669   6.777   3.415
 5112SOL    HW116235   0.764   6.802   3.436
 5112SOL    HW216236   0.607   6.846   3.452
 5113SOL     OW16237   1.365   0.107   0.945
 5113SOL    HW116238   1.434   0.160   0.895
 5113SOL    HW216239   1.324   0.040   0.884
 5114SOL     OW16240   3.152   2.947   0.073
 5114SOL    HW116241   3.184   3.022   0.132
 5114SOL    HW216242   3.225   2.921   0.010
 5115SOL     OW16243   1.883   4.296   5.247
 5115SOL    HW116244   1.898   4.393   5.229
 5115SOL    HW216245   1.916   4.273   5.338
 5116SOL     OW16246   5.353   5.529   5.943
 5116SOL    HW116247   5.322   5.605   6.000
 5116SOL    HW216248   5.423   5.561   5.879
 5117SOL     OW16249   2.161   4.583   4.193
 5117SOL    HW116250   2.210   4.500   4.219
 5117SOL    HW216251   2.223   4.661   4.196
 5118SOL     OW16252   4.763   6.302   0.394
 5118SOL    HW116253   4.834   6.337   0.334
 5118SOL    HW216254   4.673   6.331   0.360
 5119SOL     OW16255   4.993   0.508   1.765
 5119SOL    HW116256   4.938   0.447   1.821
 5119SOL    HW216257   4.960   0.601   1.775
 5120SOL     OW16258   5.853   1.498   3.156
 5120SOL    HW116259   5.905   1.569   3.205
 5120SOL    HW216260   5.772   1.538   3.114
 5121SOL     OW16261   1.252   2.825   6.564
 5121SOL    HW116262   1.319   2.784   6.502
 5121SOL    HW216263   1.297   2.849   6.651
 5122SOL     OW16264   2.931   0.724   4.150
 5122SOL    HW116265   2.932   0.782   4.231
 5122SOL    HW216266   2.974   0.773   4.074
 5123SOL     OW16267   5.163   3.477   4.702
 5123SOL    HW116268   5.230   3.551   4.695
 5123SOL    HW216269   5.111   3.487   4.787
 5124SOL     OW16270   2.644   5.252   6.642
 5124SOL    HW116271   2.548   5.266   6.618
 5124SOL    HW216272   2.695   5.336   6.621
 5125SOL     OW16273   0.258   3.834   4.294
 5125SOL    HW116274   0.322   3.891   4.243
 5125SOL    HW216275   0.291   3.740   4.295
 5126SOL     OW16276   6.197   4.651   5.752
 5126SOL    HW116277   6.100   4.653   5.778
 5126SOL    HW216278   6.244   4.581   5.805
 5127SOL     OW16279   5.660   4.072   1.287
 5127SOL    HW116280   5.669   4.058   1.188
 5127SOL    HW216281   5.564   4.070   1.312
 5128SOL     OW16282   1.048   0.625   0.204
 5128SOL    HW116283   1.006   0.564   0.136
 5128SOL    HW216284   1.102   0.570   0.268
 5129SOL     OW16285   5.165   0.897   2.901
 5129SOL    HW116286   5.129   0.817   2.852
 5129SOL    HW216287   5.181   0.874   2.996
 5130SOL     OW16288   0.863   5.789   4.784
 5130SOL    HW116289   0.863   5.889   4.787
 5130SOL    HW216290   0.808   5.754   4.859
 5131SOL     OW16291   3.182   5.116   3.340
 5131SOL    HW116292   3.093   5.158   3.357
 5131SOL    HW216293   3.179   5.066   3.254
 5132SOL     OW16294   3.479   1.395   6.303
 5132SOL    HW116295   3.458   1.435   6.392
 5132SOL    HW216296   3.476   1.466   6.233
 5133SOL     OW16297   3.136   5.428   6.070
 5133SOL    HW116298   3.130   5.527   6.066
 5133SOL    HW216299   3.218   5.401   6.122
 5134SOL     OW16300   6.312   6.848   2.040
 5134SOL    HW116301   6.342   6.759   2.006
 5134SOL    HW216302   6.384   6.916   2.025
 5135SOL     OW16303   6.315   3.577   2.761
 5135SOL    HW116304   6.307   3.481   2.787
 5135SOL    HW216305   6.411   3.605   2.768
 5136SOL     OW16306   6.713   1.303   5.643
 5136SOL    HW116307   6.796   1.250   5.626
 5136SOL    HW216308   6.701   1.317   5.741
 5137SOL     OW16309   4.917   2.931   5.101
 5137SOL    HW116310   4.873   3.009   5.146
 5137SOL    HW216311   4.923   2.949   5.003
 5138SOL     OW16312   3.504   3.744   3.872
 5138SOL    HW116313   3.603   3.761   3.868
 5138SOL    HW216314   3.459   3.795   3.798
 5139SOL     OW16315   1.014   0.648   4.542
 5139SOL    HW116316   1.000   0.653   4.443
 5139SOL    HW216317   0.964   0.722   4.587
 5140SOL     OW16318   4.018   1.793   6.375
 5140SOL    HW116319   3.959   1.725   6.331
 5140SOL    HW216320   4.088   1.822   6.311
 5141SOL     OW16321   6.060   2.504   0.590
 5141SOL    HW116322   6.155   2.527   0.568
 5141SOL    HW216323   6.043   2.521   0.687
 5142SOL     OW16324   5.833   6.917   4.205
 5142SOL    HW116325   5.902   6.963   4.259
 5142SOL    HW216326   5.872   6.836   4.162
 5143SOL     OW16327   0.799   4.102   4.136
 5143SOL    HW116328   0.846   4.059   4.213
 5143SOL    HW216329   0.833   4.063   4.051
 5144SOL     OW16330   2.149   3.600   6.722
 5144SOL    HW116331   2.198   3.513   6.722
 5144SOL    HW216332   2.054   3.585   6.695
 5145SOL     OW16333   3.487   6.034   6.298
 5145SOL    HW116334   3.467   5.955   6.356
 5145SOL    HW216335   3.425   6.036   6.220
 5146SOL     OW16336   4.123   4.361   5.737
 5146SOL    HW116337   4.036   4.334   5.777
 5146SOL    HW216338   4.129   4.460   5.732
 5147SOL     OW16339   5.400   4.032   3.150
 5147SOL    HW116340   5.393   4.029   3.250
 5147SOL    HW216341   5.310   4.046   3.110
 5148SOL     OW16342   0.978   0.727   2.186
 5148SOL    HW116343   1.048   0.696   2.250
 5148SOL    HW216344   0.911   0.782   2.234
 5149SOL     OW16345   5.798   4.788   4.013
 5149SOL    HW116346   5.877   4.732   3.992
 5149SOL    HW216347   5.821   4.853   4.086
 5150SOL     OW16348   1.286   4.885   3.556
 5150SOL    HW116349   1.369   4.925   3.517
 5150SOL    HW216350   1.247   4.819   3.492
 5151SOL     OW16351   5.475   4.618   1.619
 5151SOL    HW116352   5.526   4.666   1.691
 5151SOL    HW216353   5.454   4.682   1.545
 5152SOL     OW16354   1.096   6.384   6.884
 5152SOL    HW116355   1.189   6.352   6.866
 5152SOL    HW216356   1.030   6.318   6.848
 5153SOL     OW16357   1.633   1.346   0.389
 5153SOL    HW116358   1.663   1.251   0.397
 5153SOL    HW216359   1.686   1.403   0.452
 5154SOL     OW16360   0.965   2.791   6.619
 5154SOL    HW116361   1.058   2.821   6.601
 5154SOL    HW216362   0.926   2.843   6.695
 5155SOL     OW16363   2.580   1.645   0.539
 5155SOL    HW116364   2.600   1.588   0.618
 5155SOL    HW216365   2.541   1.732   0.570
 5156SOL     OW16366   5.520   5.082   5.261
 5156SOL    HW116367   5.507   5.000   5.316
 5156SOL    HW216368   5.439   5.097   5.203
 5157SOL     OW16369   3.470   1.796   1.861
 5157SOL    HW116370   3.455   1.880   1.914
 5157SOL    HW216371   3.470   1.718   1.923
 5158SOL     OW16372   3.432   1.958   1.043
 5158SOL    HW116373   3.523   1.995   1.025
 5158SOL    HW216374   3.395   1.999   1.126
 5159SOL     OW16375   6.182   3.768   6.673
 5159SOL    HW116376   6.099   3.731   6.716
 5159SOL    HW216377   6.225   3.696   6.617
 5160SOL     OW16378   6.190   6.319   3.293
 5160SOL    HW116379   6.217   6.270   3.376
 5160SOL    HW216380   6.100   6.288   3.263
 5161SOL     OW16381   1.369   3.228   6.543
 5161SOL    HW116382   1.466   3.236   6.562
 5161SOL    HW216383   1.328   3.162   6.605
 5162SOL     OW16384   0.285   5.300   2.554
 5162SOL    HW116385   0.276   5.246   2.637
 5162SOL    HW216386   0.293   5.397   2.578
 5163SOL     OW16387   3.226   6.266   1.799
 5163SOL    HW116388   3.258   6.194   1.738
 5163SOL    HW216389   3.236   6.355   1.754
 5164SOL     OW16390   2.812   2.996   0.396
 5164SOL    HW116391   2.786   2.908   0.357
 5164SOL    HW216392   2.911   3.007   0.390
 5165SOL     OW16393   1.218   4.637   6.981
 5165SOL    HW116394   1.208   4.687   6.895
 5165SOL    HW216395   1.270   4.692   0.031
 5166SOL     OW16396   1.630   5.552   2.099
 5166SOL    HW116397   1.532   5.572   2.094
 5166SOL    HW216398   1.680   5.620   2.045
 5167SOL     OW16399   6.106   4.002   5.423
 5167SOL    HW116400   6.074   4.049   5.506
 5167SOL    HW216401   6.059   4.041   5.343
 5168SOL     OW16402   4.614   1.973   2.175
 5168SOL    HW116403   4.515   1.970   2.156
 5168SOL    HW216404   4.664   1.951   2.092
 5169SOL     OW16405   4.173   1.683   3.975
 5169SOL    HW116406   4.140   1.646   3.888
 5169SOL    HW216407   4.211   1.774   3.961
 5170SOL     OW16408   1.539   3.462   6.196
 5170SOL    HW116409   1.619   3.485   6.141
 5170SOL    HW216410   1.458   3.458   6.136
 5171SOL     OW16411   1.369   5.057   5.437
 5171SOL    HW116412   1.339   5.112   5.514
 5171SOL    HW216413   1.314   4.974   5.432
 5172SOL     OW16414   1.541   5.262   4.053
 5172SOL    HW116415   1.546   5.326   4.129
 5172SOL    HW216416   1.447   5.230   4.042
 5173SOL     OW16417   4.468   3.890   6.304
 5173SOL    HW116418   4.562   3.920   6.288
 5173SOL    HW216419   4.408   3.969   6.312
 5174SOL     OW16420   1.663   0.025   3.859
 5174SOL    HW116421   1.664   0.010   3.761
 5174SOL    HW216422   1.750   0.066   3.888
 5175SOL     OW16423   3.167   4.344   6.385
 5175SOL    HW116424   3.215   4.287   6.318
 5175SOL    HW216425   3.071   4.316   6.389
 5176SOL     OW16426   5.284   5.305   5.803
 5176SOL    HW116427   5.324   5.378   5.860
 5176SOL    HW216428   5.353   5.234   5.788
 5177SOL     OW16429   5.169   6.730   0.778
 5177SOL    HW116430   5.139   6.636   0.791
 5177SOL    HW216431   5.264   6.730   0.747
 5178SOL     OW16432   0.721   4.415   2.123
 5178SOL    HW116433   0.647   4.378   2.067
 5178SOL    HW216434   0.707   4.513   2.135
 5179SOL     OW16435   5.130   4.045   2.992
 5179SOL    HW116436   5.193   3.994   2.933
 5179SOL    HW216437   5.132   4.141   2.967
 5180SOL     OW16438   3.086   6.912   1.285
 5180SOL    HW116439   3.128   6.904   1.375
 5180SOL    HW216440   3.142   6.864   1.217
 5181SOL     OW16441   0.215   0.540   0.005
 5181SOL    HW116442   0.154   0.608   0.048
 5181SOL    HW216443   0.192   0.532   6.923
 5182SOL     OW16444   4.481   4.663   2.097
 5182SOL    HW116445   4.516   4.582   2.051
 5182SOL    HW216446   4.385   4.678   2.073
 5183SOL     OW16447   3.911   2.107   2.994
 5183SOL    HW116448   3.952   2.024   3.030
 5183SOL    HW216449   3.982   2.175   2.977
 5184SOL     OW16450   2.097   2.428   3.477
 5184SOL    HW116451   2.042   2.409   3.559
 5184SOL    HW216452   2.181   2.374   3.480
 5185SOL     OW16453   4.732   0.237   2.779
 5185SOL    HW116454   4.807   0.177   2.749
 5185SOL    HW216455   4.666   0.246   2.705
 5186SOL     OW16456   6.314   2.909   6.094
 5186SOL    HW116457   6.248   2.948   6.029
 5186SOL    HW216458   6.398   2.884   6.045
 5187SOL     OW16459   2.387   5.399   4.610
 5187SOL    HW116460   2.382   5.429   4.705
 5187SOL    HW216461   2.463   5.444   4.564
 5188SOL     OW16462   6.980   6.472   1.700
 5188SOL    HW116463   7.002   6.556   1.749
 5188SOL    HW216464   0.048   6.419   1.685
 5189SOL     OW16465   5.648   6.694   6.414
 5189SOL    HW116466   5.606   6.607   6.391
 5189SOL    HW216467   5.745   6.680   6.436
 5190SOL     OW16468   1.863   3.056   2.505
 5190SOL    HW116469   1.921   3.095   2.576
 5190SOL    HW216470   1.868   3.114   2.423
 5191SOL     OW16471   2.904   5.994   2.806
 5191SOL    HW116472   2.846   5.991   2.724
 5191SOL    HW216473   2.864   5.937   2.878
 5192SOL     OW16474   1.795   6.087   1.737
 5192SOL    HW116475   1.730   6.051   1.804
 5192SOL    HW216476   1.763   6.066   1.644
 5193SOL     OW16477   5.342   0.091   6.760
 5193SOL    HW116478   5.345   0.169   6.697
 5193SOL    HW216479   5.282   0.021   6.722
 5194SOL     OW16480   3.358   1.846   6.408
 5194SOL    HW116481   3.293   1.796   6.351
 5194SOL    HW216482   3.427   1.783   6.444
 5195SOL     OW16483   0.642   0.678   3.511
 5195SOL    HW116484   0.550   0.675   3.472
 5195SOL    HW216485   0.689   0.760   3.481
 5196SOL     OW16486   4.482   6.613   2.583
 5196SOL    HW116487   4.521   6.698   2.550
 5196SOL    HW216488   4.554   6.552   2.615
 5197SOL     OW16489   1.841   3.486   6.372
 5197SOL    HW116490   1.815   3.490   6.275
 5197SOL    HW216491   1.938   3.462   6.380
 5198SOL     OW16492   4.404   5.379   2.899
 5198SOL    HW116493   4.402   5.430   2.985
 5198SOL    HW216494   4.343   5.422   2.832
 5199SOL     OW16495   0.302   5.303   1.164
 5199SOL    HW116496   0.347   5.314   1.075
 5199SOL    HW216497   0.235   5.376   1.177
 5200SOL     OW16498   0.396   4.055   4.953
 5200SOL    HW116499   0.450   4.038   5.035
 5200SOL    HW216500   0.456   4.050   4.873
 5201SOL     OW16501   0.384   6.731   3.909
 5201SOL    HW116502   0.300   6.743   3.856
 5201SOL    HW216503   0.360   6.708   4.004
 5202SOL     OW16504   6.969   2.981   6.517
 5202SOL    HW116505   0.047   2.964   6.483
 5202SOL    HW216506   6.920   3.039   6.452
 5203SOL     OW16507   0.872   2.408   0.034
 5203SOL    HW116508   0.858   2.422   6.951
 5203SOL    HW216509   0.967   2.380   0.050
 5204SOL     OW16510   3.966   5.146   0.286
 5204SOL    HW116511   3.962   5.061   0.339
 5204SOL    HW216512   3.906   5.214   0.328
 5205SOL     OW16513   1.921   0.099   1.719
 5205SOL    HW116514   1.828   0.073   1.747
 5205SOL    HW216515   1.949   0.180   1.771
 5206SOL     OW16516   0.765   4.566   6.705
 5206SOL    HW116517   0.800   4.531   6.618
 5206SOL    HW216518   0.832   4.627   6.746
 5207SOL     OW16519   1.111   5.422   4.100
 5207SOL    HW116520   1.042   5.466   4.043
 5207SOL    HW216521   1.076   5.414   4.194
 5208SOL     OW16522   3.396   0.964   0.510
 5208SOL    HW116523   3.363   1.041   0.456
 5208SOL    HW216524   3.484   0.987   0.552
 5209SOL     OW16525   5.901   5.696   3.967
 5209SOL    HW116526   5.829   5.761   3.945
 5209SOL    HW216527   5.990   5.735   3.943
 5210SOL     OW16528   5.478   3.938   5.190
 5210SOL    HW116529   5.569   3.899   5.176
 5210SOL    HW216530   5.440   3.903   5.276
 5211SOL     OW16531   3.304   3.105   3.730
 5211SOL    HW116532   3.367   3.173   3.767
 5211SOL    HW216533   3.353   3.043   3.669
 5212SOL     OW16534   6.713   2.309   1.007
 5212SOL    HW116535   6.676   2.398   0.980
 5212SOL    HW216536   6.663   2.237   0.960
 5213SOL     OW16537   5.161   1.483   6.521
 5213SOL    HW116538   5.090   1.487   6.592
 5213SOL    HW216539   5.243   1.438   6.559
 5214SOL     OW16540   5.616   1.301   6.502
 5214SOL    HW116541   5.599   1.258   6.413
 5214SOL    HW216542   5.529   1.330   6.542
 5215SOL     OW16543   5.590   5.577   3.214
 5215SOL    HW116544   5.563   5.673   3.207
 5215SOL    HW216545   5.665   5.559   3.150
 5216SOL     OW16546   5.041   5.923   1.340
 5216SOL    HW116547   4.959   5.979   1.351
 5216SOL    HW216548   5.122   5.978   1.359
 5217SOL     OW16549   3.195   5.291   4.042
 5217SOL    HW116550   3.234   5.257   4.128
 5217SOL    HW216551   3.187   5.215   3.977
 5218SOL     OW16552   1.952   0.534   3.482
 5218SOL    HW116553   1.963   0.614   3.423
 5218SOL    HW216554   1.872   0.547   3.541
 5219SOL     OW16555   3.582   6.827   6.612
 5219SOL    HW116556   3.680   6.827   6.591
 5219SOL    HW216557   3.548   6.921   6.611
 5220SOL     OW16558   1.173   5.635   2.712
 5220SOL    HW116559   1.094   5.697   2.708
 5220SOL    HW216560   1.182   5.588   2.624
 5221SOL     OW16561   5.795   2.359   4.523
 5221SOL    HW116562   5.783   2.337   4.620
 5221SOL    HW216563   5.800   2.274   4.470
 5222SOL     OW16564   2.666   6.773   4.425
 5222SOL    HW116565   2.680   6.752   4.522
 5222SOL    HW216566   2.569   6.790   4.408
 5223SOL     OW16567   4.369   0.595   1.226
 5223SOL    HW116568   4.456   0.553   1.202
 5223SOL    HW216569   4.295   0.550   1.176
 5224SOL     OW16570   0.081   1.338   3.396
 5224SOL    HW116571   0.019   1.413   3.373
 5224SOL    HW216572   0.176   1.367   3.381
 5225SOL     OW16573   6.196   1.016   3.112
 5225SOL    HW116574   6.121   1.065   3.156
 5225SOL    HW216575   6.254   0.973   3.182
 5226SOL     OW16576   0.233   6.341   5.397
 5226SOL    HW116577   0.282   6.355   5.483
 5226SOL    HW216578   0.136   6.355   5.412
 5227SOL     OW16579   0.933   5.119   4.107
 5227SOL    HW116580   0.835   5.105   4.119
 5227SOL    HW216581   0.964   5.193   4.165
 5228SOL     OW16582   6.450   2.688   0.223
 5228SOL    HW116583   6.368   2.660   0.274
 5228SOL    HW216584   6.423   2.741   0.143
 5229SOL     OW16585   2.073   4.229   6.627
 5229SOL    HW116586   2.151   4.286   6.652
 5229SOL    HW216587   2.065   4.154   6.692
 5230SOL     OW16588   0.629   0.432   0.775
 5230SOL    HW116589   0.639   0.461   0.680
 5230SOL    HW216590   0.717   0.402   0.811
 5231SOL     OW16591   3.066   3.108   4.863
 5231SOL    HW116592   3.012   3.192   4.868
 5231SOL    HW216593   3.031   3.042   4.930
 5232SOL     OW16594   3.517   2.081   6.363
 5232SOL    HW116595   3.453   2.008   6.385
 5232SOL    HW216596   3.520   2.147   6.438
 5233SOL     OW16597   6.610   6.710   1.440
 5233SOL    HW116598   6.650   6.661   1.518
 5233SOL    HW216599   6.563   6.645   1.381
 5234SOL     OW16600   3.569   0.017   0.214
 5234SOL    HW116601   3.585   0.055   0.305
 5234SOL    HW216602   3.504   0.076   0.165
 5235SOL     OW16603   1.820   2.841   1.406
 5235SOL    HW116604   1.789   2.913   1.468
 5235SOL    HW216605   1.918   2.825   1.420
 5236SOL     OW16606   5.335   3.186   1.452
 5236SOL    HW116607   5.287   3.174   1.538
 5236SOL    HW216608   5.301   3.268   1.405
 5237SOL     OW16609   2.617   1.847   5.303
 5237SOL    HW116610   2.619   1.844   5.203
 5237SOL    HW216611   2.527   1.820   5.336
 5238SOL     OW16612   1.970   5.593   0.389
 5238SOL    HW116613   1.921   5.598   0.476
 5238SOL    HW216614   1.905   5.574   0.315
 5239SOL     OW16615   3.667   3.646   4.200
 5239SOL    HW116616   3.635   3.621   4.108
 5239SOL    HW216617   3.728   3.725   4.194
 5240SOL     OW16618   3.050   2.135   5.573
 5240SOL    HW116619   3.131   2.095   5.615
 5240SOL    HW216620   2.981   2.064   5.558
 5241SOL     OW16621   1.612   5.874   6.542
 5241SOL    HW116622   1.570   5.877   6.632
 5241SOL    HW216623   1.708   5.900   6.549
 5242SOL     OW16624   5.906   0.316   5.016
 5242SOL    HW116625   5.887   0.306   5.113
 5242SOL    HW216626   6.000   0.287   4.998
 5243SOL     OW16627   1.434   6.362   0.952
 5243SOL    HW116628   1.467   6.335   1.043
 5243SOL    HW216629   1.470   6.452   0.929
 5244SOL     OW16630   4.269   3.947   6.070
 5244SOL    HW116631   4.366   3.935   6.051
 5244SOL    HW216632   4.247   4.045   6.069
 5245SOL     OW16633   4.290   4.058   6.681
 5245SOL    HW116634   4.191   4.043   6.679
 5245SOL    HW216635   4.322   4.078   6.588
 5246SOL     OW16636   6.616   4.155   2.685
 5246SOL    HW116637   6.602   4.216   2.607
 5246SOL    HW216638   6.527   4.124   2.719
 5247SOL     OW16639   1.093   6.510   0.334
 5247SOL    HW116640   1.109   6.418   0.300
 5247SOL    HW216641   1.029   6.507   0.410
 5248SOL     OW16642   5.502   6.656   5.843
 5248SOL    HW116643   5.451   6.740   5.827
 5248SOL    HW216644   5.490   6.594   5.765
 5249SOL     OW16645   0.361   5.496   4.792
 5249SOL    HW116646   0.388   5.587   4.823
 5249SOL    HW216647   0.400   5.427   4.853
 5250SOL     OW16648   0.133   1.137   5.953
 5250SOL    HW116649   0.138   1.062   5.887
 5250SOL    HW216650   0.200   1.122   6.026
 5251SOL     OW16651   7.015   2.750   1.167
 5251SOL    HW116652   0.009   2.713   1.260
 5251SOL    HW216653   0.086   2.792   1.140
 5252SOL     OW16654   2.036   5.515   1.225
 5252SOL    HW116655   2.121   5.461   1.224
 5252SOL    HW216656   2.047   5.594   1.285
 5253SOL     OW16657   5.572   3.884   4.648
 5253SOL    HW116658   5.578   3.984   4.643
 5253SOL    HW216659   5.535   3.857   4.736
 5254SOL     OW16660   5.187   1.455   3.632
 5254SOL    HW116661   5.147   1.531   3.682
 5254SOL    HW216662   5.114   1.400   3.591
 5255SOL     OW16663   3.898   0.470   4.708
 5255SOL    HW116664   3.891   0.556   4.759
 5255SOL    HW216665   3.849   0.480   4.621
 5256SOL     OW16666   5.135   0.824   3.162
 5256SOL    HW116667   5.073   0.848   3.238
 5256SOL    HW216668   5.229   0.820   3.196
 5257SOL     OW16669   4.665   0.027   2.138
 5257SOL    HW116670   4.714   6.960   2.165
 5257SOL    HW216671   4.619   0.011   2.050
 5258SOL     OW16672   5.067   4.674   1.534
 5258SOL    HW116673   4.973   4.662   1.566
 5258SOL    HW216674   5.120   4.725   1.602
 5259SOL     OW16675   4.596   6.314   1.212
 5259SOL    HW116676   4.594   6.397   1.156
 5259SOL    HW216677   4.658   6.247   1.171
 5260SOL     OW16678   5.155   3.204   1.063
 5260SOL    HW116679   5.073   3.214   1.008
 5260SOL    HW216680   5.228   3.163   1.008
 5261SOL     OW16681   1.153   2.572   5.526
 5261SOL    HW116682   1.182   2.499   5.588
 5261SOL    HW216683   1.072   2.541   5.475
 5262SOL     OW16684   2.437   7.007   2.855
 5262SOL    HW116685   2.377   0.073   2.848
 5262SOL    HW216686   2.517   0.005   2.797
 5263SOL     OW16687   0.902   0.285   6.384
 5263SOL    HW116688   0.836   0.244   6.447
 5263SOL    HW216689   0.995   0.259   6.412
 5264SOL     OW16690   6.104   1.212   1.671
 5264SOL    HW116691   6.082   1.309   1.679
 5264SOL    HW216692   6.163   1.184   1.747
 5265SOL     OW16693   5.100   4.196   2.524
 5265SOL    HW116694   5.185   4.203   2.576
 5265SOL    HW216695   5.105   4.117   2.463
 5266SOL     OW16696   2.555   6.475   1.340
 5266SOL    HW116697   2.458   6.479   1.318
 5266SOL    HW216698   2.591   6.384   1.316
 5267SOL     OW16699   4.499   4.627   5.660
 5267SOL    HW116700   4.458   4.677   5.736
 5267SOL    HW216701   4.535   4.540   5.694
 5268SOL     OW16702   6.480   5.469   5.307
 5268SOL    HW116703   6.528   5.516   5.233
 5268SOL    HW216704   6.502   5.513   5.394
 5269SOL     OW16705   2.087   6.333   4.032
 5269SOL    HW116706   2.073   6.427   4.063
 5269SOL    HW216707   2.185   6.312   4.032
 5270SOL     OW16708   4.682   2.053   1.628
 5270SOL    HW116709   4.652   2.076   1.535
 5270SOL    HW216710   4.604   2.062   1.691
 5271SOL     OW16711   4.489   5.160   4.181
 5271SOL    HW116712   4.434   5.078   4.171
 5271SOL    HW216713   4.474   5.201   4.271
 5272SOL     OW16714   0.972   5.924   3.781
 5272SOL    HW116715   0.881   5.899   3.813
 5272SOL    HW216716   0.990   5.882   3.693
 5273SOL     OW16717   1.072   2.761   3.513
 5273SOL    HW116718   1.061   2.798   3.421
 5273SOL    HW216719   1.105   2.833   3.574
 5274SOL     OW16720   6.146   5.042   2.529
 5274SOL    HW116721   6.158   5.111   2.601
 5274SOL    HW216722   6.180   4.954   2.561
 5275SOL     OW16723   3.135   1.172   6.106
 5275SOL    HW116724   3.051   1.154   6.157
 5275SOL    HW216725   3.142   1.108   6.029
 5276SOL     OW16726   0.353   5.916   0.783
 5276SOL    HW116727   0.302   5.864   0.714
 5276SOL    HW216728   0.435   5.955   0.742
 5277SOL     OW16729   1.874   2.166   2.895
 5277SOL    HW116730   1.955   2.171   2.954
 5277SOL    HW216731   1.887   2.224   2.815
 5278SOL     OW16732   5.440   6.896   5.676
 5278SOL    HW116733   5.498   6.972   5.645
 5278SOL    HW216734   5.361   6.889   5.615
 5279SOL     OW16735   1.288   6.398   6.238
 5279SOL    HW116736   1.214   6.341   6.201
 5279SOL    HW216737   1.342   6.344   6.303
 5280SOL     OW16738   3.497   6.020   5.275
 5280SOL    HW116739   3.538   5.934   5.305
 5280SOL    HW216740   3.411   6.002   5.228
 5281SOL     OW16741   1.187   1.835   3.902
 5281SOL    HW116742   1.177   1.913   3.841
 5281SOL    HW216743   1.130   1.760   3.869
 5282SOL     OW16744   1.802   0.128   2.272
 5282SOL    HW116745   1.720   0.178   2.301
 5282SOL    HW216746   1.877   0.148   2.334
 5283SOL     OW16747   1.426   0.967   3.178
 5283SOL    HW116748   1.437   0.953   3.080
 5283SOL    HW216749   1.328   0.969   3.201
 5284SOL     OW16750   4.575   2.643   3.160
 5284SOL    HW116751   4.520   2.614   3.237
 5284SOL    HW216752   4.645   2.708   3.191
 5285SOL     OW16753   1.086   3.572   3.967
 5285SOL    HW116754   1.048   3.481   3.987
 5285SOL    HW216755   1.168   3.562   3.911
 5286SOL     OW16756   6.237   3.172   1.042
 5286SOL    HW116757   6.323   3.198   1.088
 5286SOL    HW216758   6.203   3.250   0.989
 5287SOL     OW16759   2.982   5.333   1.387
 5287SOL    HW116760   3.039   5.309   1.466
 5287SOL    HW216761   2.906   5.391   1.417
 5288SOL     OW16762   4.118   0.153   2.954
 5288SOL    HW116763   4.126   0.088   3.030
 5288SOL    HW216764   4.173   0.234   2.973
 5289SOL     OW16765   2.461   5.397   5.959
 5289SOL    HW116766   2.472   5.318   5.898
 5289SOL    HW216767   2.460   5.366   6.054
 5290SOL     OW16768   1.555   3.650   5.374
 5290SOL    HW116769   1.532   3.620   5.282
 5290SOL    HW216770   1.617   3.584   5.416
 5291SOL     OW16771   2.956   4.402   6.093
 5291SOL    HW116772   2.941   4.365   6.184
 5291SOL    HW216773   2.945   4.330   6.025
 5292SOL     OW16774   5.804   4.688   6.250
 5292SOL    HW116775   5.822   4.634   6.168
 5292SOL    HW216776   5.706   4.697   6.263
 5293SOL     OW16777   1.792   0.004   5.297
 5293SOL    HW116778   1.744   6.938   5.330
 5293SOL    HW216779   1.774   0.017   5.200
 5294SOL     OW16780   4.768   1.901   5.174
 5294SOL    HW116781   4.669   1.918   5.174
 5294SOL    HW216782   4.794   1.861   5.262
 5295SOL     OW16783   3.833   0.838   3.048
 5295SOL    HW116784   3.768   0.901   3.007
 5295SOL    HW216785   3.880   0.883   3.124
 5296SOL     OW16786   3.169   4.086   6.903
 5296SOL    HW116787   3.093   4.073   6.840
 5296SOL    HW216788   3.134   4.100   6.996
 5297SOL     OW16789   1.524   3.521   0.060
 5297SOL    HW116790   1.481   3.496   0.147
 5297SOL    HW216791   1.603   3.461   0.044
 5298SOL     OW16792   1.553   6.350   7.009
 5298SOL    HW116793   1.530   6.407   0.074
 5298SOL    HW216794   1.496   6.377   6.932
 5299SOL     OW16795   2.721   2.774   0.256
 5299SOL    HW116796   2.687   2.729   0.173
 5299SOL    HW216797   2.784   2.712   0.304
 5300SOL     OW16798   0.288   5.856   1.418
 5300SOL    HW116799   0.240   5.769   1.428
 5300SOL    HW216800   0.289   5.883   1.322
 5301SOL     OW16801   4.202   1.875   6.168
 5301SOL    HW116802   4.259   1.837   6.095
 5301SOL    HW216803   4.226   1.970   6.184
 5302SOL     OW16804   5.728   5.869   3.298
 5302SOL    HW116805   5.733   5.889   3.200
 5302SOL    HW216806   5.741   5.771   3.312
 5303SOL     OW16807   6.833   5.209   5.056
 5303SOL    HW116808   6.854   5.135   4.992
 5303SOL    HW216809   6.769   5.273   5.013
 5304SOL     OW16810   5.878   0.476   0.081
 5304SOL    HW116811   5.921   0.454   0.168
 5304SOL    HW216812   5.779   0.481   0.092
 5305SOL     OW16813   0.808   5.294   2.521
 5305SOL    HW116814   0.840   5.322   2.431
 5305SOL    HW216815   0.863   5.218   2.554
 5306SOL     OW16816   0.905   4.928   5.610
 5306SOL    HW116817   0.914   4.829   5.621
 5306SOL    HW216818   0.859   4.948   5.523
 5307SOL     OW16819   3.750   1.599   0.239
 5307SOL    HW116820   3.668   1.652   0.260
 5307SOL    HW216821   3.730   1.534   0.166
 5308SOL     OW16822   1.463   4.388   2.649
 5308SOL    HW116823   1.496   4.418   2.560
 5308SOL    HW216824   1.364   4.406   2.656
 5309SOL     OW16825   3.822   4.859   1.977
 5309SOL    HW116826   3.722   4.871   1.970
 5309SOL    HW216827   3.848   4.851   2.073
 5310SOL     OW16828   5.998   3.604   1.820
 5310SOL    HW116829   5.908   3.633   1.787
 5310SOL    HW216830   6.048   3.684   1.854
 5311SOL     OW16831   6.398   6.867   0.385
 5311SOL    HW116832   6.461   6.863   0.308
 5311SOL    HW216833   6.382   6.774   0.420
 5312SOL     OW16834   0.813   5.590   1.880
 5312SOL    HW116835   0.903   5.549   1.865
 5312SOL    HW216836   0.746   5.547   1.820
 5313SOL     OW16837   1.058   2.821   6.117
 5313SOL    HW116838   1.083   2.881   6.193
 5313SOL    HW216839   1.051   2.727   6.151
 5314SOL     OW16840   4.289   6.548   0.106
 5314SOL    HW116841   4.276   6.646   0.123
 5314SOL    HW216842   4.377   6.534   0.062
 5315SOL     OW16843   5.124   3.501   1.954
 5315SOL    HW116844   5.204   3.542   1.913
 5315SOL    HW216845   5.059   3.572   1.981
 5316SOL     OW16846   0.794   3.426   5.362
 5316SOL    HW116847   0.794   3.326   5.367
 5316SOL    HW216848   0.700   3.460   5.358
 5317SOL     OW16849   6.008   1.524   5.471
 5317SOL    HW116850   5.957   1.448   5.514
 5317SOL    HW216851   6.035   1.589   5.541
 5318SOL     OW16852   0.602   2.490   0.774
 5318SOL    HW116853   0.617   2.393   0.758
 5318SOL    HW216854   0.690   2.538   0.776
 5319SOL     OW16855   4.511   5.963   0.305
 5319SOL    HW116856   4.460   5.899   0.362
 5319SOL    HW216857   4.524   6.049   0.355
 5320SOL     OW16858   4.288   4.953   0.711
 5320SOL    HW116859   4.352   4.967   0.635
 5320SOL    HW216860   4.202   4.917   0.676
 5321SOL     OW16861   2.175   4.795   4.447
 5321SOL    HW116862   2.083   4.796   4.407
 5321SOL    HW216863   2.173   4.744   4.532
 5322SOL     OW16864   5.549   5.980   0.173
 5322SOL    HW116865   5.466   5.994   0.228
 5322SOL    HW216866   5.624   5.952   0.233
 5323SOL     OW16867   3.970   1.587   5.975
 5323SOL    HW116868   3.906   1.658   5.946
 5323SOL    HW216869   3.920   1.506   6.005
 5324SOL     OW16870   3.518   2.435   0.739
 5324SOL    HW116871   3.435   2.487   0.719
 5324SOL    HW216872   3.598   2.494   0.725
 5325SOL     OW16873   4.117   0.426   4.395
 5325SOL    HW116874   4.146   0.337   4.431
 5325SOL    HW216875   4.046   0.413   4.327
 5326SOL     OW16876   6.835   5.108   3.343
 5326SOL    HW116877   6.846   5.057   3.429
 5326SOL    HW216878   6.916   5.163   3.326
 5327SOL     OW16879   5.877   3.045   5.530
 5327SOL    HW116880   5.781   3.064   5.551
 5327SOL    HW216881   5.888   2.947   5.511
 5328SOL     OW16882   3.600   3.806   5.877
 5328SOL    HW116883   3.610   3.732   5.943
 5328SOL    HW216884   3.662   3.792   5.799
 5329SOL     OW16885   0.569   4.559   6.297
 5329SOL    HW116886   0.532   4.552   6.205
 5329SOL    HW216887   0.669   4.560   6.293
 5330SOL     OW16888   4.652   3.862   0.187
 5330SOL    HW116889   4.699   3.942   0.149
 5330SOL    HW216890   4.592   3.822   0.118
 5331SOL     OW16891   6.045   1.702   6.811
 5331SOL    HW116892   6.120   1.732   6.752
 5331SOL    HW216893   6.061   1.607   6.839
 5332SOL     OW16894   0.673   3.087   1.277
 5332SOL    HW116895   0.581   3.069   1.241
 5332SOL    HW216896   0.741   3.057   1.210
 5333SOL     OW16897   0.773   0.714   2.972
 5333SOL    HW116898   0.752   0.793   2.915
 5333SOL    HW216899   0.805   0.745   3.061
 5334SOL     OW16900   3.075   7.007   4.214
 5334SOL    HW116901   3.158   6.952   4.205
 5334SOL    HW216902   3.088   0.080   4.170
 5335SOL     OW16903   0.105   6.058   0.792
 5335SOL    HW116904   0.196   6.100   0.796
 5335SOL    HW216905   0.113   5.960   0.810
 5336SOL     OW16906   1.899   3.529   3.244
 5336SOL    HW116907   1.862   3.497   3.157
 5336SOL    HW216908   1.909   3.629   3.241
 5337SOL     OW16909   4.898   4.277   1.276
 5337SOL    HW116910   4.847   4.316   1.352
 5337SOL    HW216911   4.875   4.180   1.267
 5338SOL     OW16912   5.627   1.520   0.423
 5338SOL    HW116913   5.713   1.560   0.390
 5338SOL    HW216914   5.572   1.592   0.467
 5339SOL     OW16915   0.041   1.750   4.121
 5339SOL    HW116916   6.993   1.804   4.177
 5339SOL    HW216917   0.016   1.760   4.025
 5340SOL     OW16918   4.565   4.197   0.993
 5340SOL    HW116919   4.551   4.221   1.089
 5340SOL    HW216920   4.617   4.112   0.987
 5341SOL     OW16921   3.348   2.723   6.303
 5341SOL    HW116922   3.319   2.804   6.251
 5341SOL    HW216923   3.418   2.750   6.370
 5342SOL     OW16924   4.048   6.948   4.243
 5342SOL    HW116925   4.110   0.007   4.268
 5342SOL    HW216926   3.956   6.969   4.276
 5343SOL     OW16927   3.737   4.054   4.504
 5343SOL    HW116928   3.681   4.107   4.567
 5343SOL    HW216929   3.698   3.963   4.493
 5344SOL     OW16930   2.250   2.928   2.711
 5344SOL    HW116931   2.293   2.868   2.778
 5344SOL    HW216932   2.262   2.889   2.619
 5345SOL     OW16933   3.913   6.200   1.156
 5345SOL    HW116934   3.829   6.231   1.200
 5345SOL    HW216935   3.895   6.177   1.061
 5346SOL     OW16936   3.430   6.116   4.035
 5346SOL    HW116937   3.368   6.152   3.966
 5346SOL    HW216938   3.487   6.190   4.071
 5347SOL     OW16939   0.898   2.831   2.124
 5347SOL    HW116940   0.819   2.868   2.076
 5347SOL    HW216941   0.973   2.817   2.060
 5348SOL     OW16942   0.279   1.815   0.759
 5348SOL    HW116943   0.376   1.792   0.762
 5348SOL    HW216944   0.234   1.776   0.840
 5349SOL     OW16945   1.103   2.608   6.921
 5349SOL    HW116946   1.167   2.533   6.902
 5349SOL    HW216947   1.018   2.593   6.872
 5350SOL     OW16948   2.023   0.464   5.366
 5350SOL    HW116949   1.941   0.516   5.390
 5350SOL    HW216950   1.998   0.385   5.311
 5351SOL     OW16951   6.180   5.697   1.958
 5351SOL    HW116952   6.106   5.631   1.968
 5351SOL    HW216953   6.256   5.654   1.909
 5352SOL     OW16954   2.047   5.536   3.507
 5352SOL    HW116955   2.036   5.564   3.602
 5352SOL    HW216956   2.053   5.617   3.449
 5353SOL     OW16957   3.854   5.208   3.663
 5353SOL    HW116958   3.924   5.278   3.680
 5353SOL    HW216959   3.785   5.246   3.602
 5354SOL     OW16960   2.392   5.622   1.762
 5354SOL    HW116961   2.450   5.662   1.833
 5354SOL    HW216962   2.392   5.522   1.771
 5355SOL     OW16963   5.176   3.073   3.631
 5355SOL    HW116964   5.166   3.040   3.537
 5355SOL    HW216965   5.273   3.071   3.657
 5356SOL     OW16966   5.835   4.489   1.701
 5356SOL    HW116967   5.777   4.408   1.711
 5356SOL    HW216968   5.778   4.571   1.699
 5357SOL     OW16969   4.183   6.274   0.115
 5357SOL    HW116970   4.184   6.277   0.015
 5357SOL    HW216971   4.212   6.363   0.151
 5358SOL     OW16972   4.326   1.170   0.200
 5358SOL    HW116973   4.245   1.210   0.241
 5358SOL    HW216974   4.408   1.211   0.240
 5359SOL     OW16975   1.678   1.872   6.908
 5359SOL    HW116976   1.597   1.869   6.967
 5359SOL    HW216977   1.719   1.964   6.913
 5360SOL     OW16978   4.479   6.573   5.607
 5360SOL    HW116979   4.521   6.483   5.618
 5360SOL    HW216980   4.389   6.563   5.565
 5361SOL     OW16981   1.996   0.180   4.889
 5361SOL    HW116982   2.073   0.220   4.840
 5361SOL    HW216983   1.911   0.222   4.858
 5362SOL     OW16984   5.569   5.086   3.512
 5362SOL    HW116985   5.497   5.154   3.501
 5362SOL    HW216986   5.656   5.132   3.531
 5363SOL     OW16987   0.408   0.043   6.451
 5363SOL    HW116988   0.412   7.003   6.368
 5363SOL    HW216989   0.454   7.009   6.526
 5364SOL     OW16990   6.854   5.705   1.836
 5364SOL    HW116991   6.777   5.737   1.892
 5364SOL    HW216992   6.874   5.773   1.765
 5365SOL     OW16993   3.646   3.132   6.877
 5365SOL    HW116994   3.591   3.169   6.802
 5365SOL    HW216995   3.734   3.179   6.880
 5366SOL     OW16996   5.133   5.678   1.685
 5366SOL    HW116997   5.192   5.611   1.640
 5366SOL    HW216998   5.179   5.766   1.689
 5367SOL     OW16999   0.772   5.770   0.956
 5367SOL    HW117000   0.682   5.736   0.981
 5367SOL    HW217001   0.813   5.711   0.887
 5368SOL     OW17002   5.439   0.436   2.822
 5368SOL    HW117003   5.375   0.508   2.849
 5368SOL    HW217004   5.458   0.443   2.724
 5369SOL     OW17005   3.283   0.023   2.035
 5369SOL    HW117006   3.329   0.053   1.952
 5369SOL    HW217007   3.194   6.997   2.012
 5370SOL     OW17008   4.296   2.771   1.386
 5370SOL    HW117009   4.261   2.755   1.478
 5370SOL    HW217010   4.383   2.821   1.392
 5371SOL     OW17011   1.442   4.096   4.362
 5371SOL    HW117012   1.471   4.000   4.371
 5371SOL    HW217013   1.458   4.126   4.268
 5372SOL     OW17014   2.206   5.830   3.565
 5372SOL    HW117015   2.133   5.815   3.499
 5372SOL    HW217016   2.275   5.758   3.555
 5373SOL     OW17017   3.842   6.072   3.710
 5373SOL    HW117018   3.918   6.059   3.774
 5373SOL    HW217019   3.858   6.155   3.656
 5374SOL     OW17020   0.934   4.280   7.004
 5374SOL    HW117021   0.910   4.184   6.998
 5374SOL    HW217022   0.852   4.336   6.996
 5375SOL     OW17023   1.938   5.068   4.794
 5375SOL    HW117024   1.932   4.975   4.756
 5375SOL    HW217025   1.867   5.080   4.864
 5376SOL     OW17026   2.054   3.249   0.458
 5376SOL    HW117027   2.032   3.153   0.475
 5376SOL    HW217028   2.070   3.263   0.360
 5377SOL     OW17029   0.351   0.513   2.019
 5377SOL    HW117030   0.331   0.606   1.989
 5377SOL    HW217031   0.367   0.513   2.118
 5378SOL     OW17032   0.143   0.372   2.247
 5378SOL    HW117033   0.137   0.377   2.147
 5378SOL    HW217034   0.200   0.447   2.281
 5379SOL     OW17035   2.106   5.771   5.146
 5379SOL    HW117036   2.123   5.756   5.048
 5379SOL    HW217037   2.058   5.858   5.158
 5380SOL     OW17038   2.018   1.696   3.590
 5380SOL    HW117039   2.093   1.762   3.585
 5380SOL    HW217040   2.038   1.618   3.530
 5381SOL     OW17041   6.343   4.014   1.134
 5381SOL    HW117042   6.307   4.058   1.052
 5381SOL    HW217043   6.320   3.917   1.132
 5382SOL     OW17044   3.340   0.287   2.383
 5382SOL    HW117045   3.358   0.383   2.405
 5382SOL    HW217046   3.297   0.280   2.294
 5383SOL     OW17047   2.259   2.468   5.410
 5383SOL    HW117048   2.235   2.517   5.326
 5383SOL    HW217049   2.204   2.385   5.417
 5384SOL     OW17050   5.834   0.192   4.459
 5384SOL    HW117051   5.916   0.137   4.472
 5384SOL    HW217052   5.832   0.265   4.528
 5385SOL     OW17053   3.070   3.099   4.294
 5385SOL    HW117054   3.035   3.028   4.355
 5385SOL    HW217055   3.033   3.188   4.321
 5386SOL     OW17056   4.930   0.064   4.593
 5386SOL    HW117057   4.910   6.988   4.627
 5386SOL    HW217058   4.954   0.123   4.670
 5387SOL     OW17059   3.046   6.367   3.823
 5387SOL    HW117060   3.117   6.429   3.789
 5387SOL    HW217061   2.963   6.420   3.844
 5388SOL     OW17062   6.329   0.356   3.729
 5388SOL    HW117063   6.331   0.301   3.812
 5388SOL    HW217064   6.236   0.388   3.713
 5389SOL     OW17065   4.483   0.828   1.707
 5389SOL    HW117066   4.399   0.822   1.653
 5389SOL    HW217067   4.536   0.907   1.678
 5390SOL     OW17068   4.803   3.942   3.343
 5390SOL    HW117069   4.716   3.893   3.339
 5390SOL    HW217070   4.877   3.882   3.311
 5391SOL     OW17071   1.574   2.411   1.383
 5391SOL    HW117072   1.614   2.476   1.318
 5391SOL    HW217073   1.478   2.433   1.398
 5392SOL     OW17074   5.576   3.333   1.143
 5392SOL    HW117075   5.672   3.343   1.167
 5392SOL    HW217076   5.525   3.300   1.223
 5393SOL     OW17077   5.152   6.904   6.412
 5393SOL    HW117078   5.137   6.995   6.374
 5393SOL    HW217079   5.223   6.857   6.360
 5394SOL     OW17080   6.889   4.416   6.757
 5394SOL    HW117081   6.925   4.347   6.821
 5394SOL    HW217082   6.853   4.493   6.809
 5395SOL     OW17083   4.801   1.182   1.873
 5395SOL    HW117084   4.801   1.177   1.973
 5395SOL    HW217085   4.727   1.126   1.836
 5396SOL     OW17086   4.874   4.542   2.771
 5396SOL    HW117087   4.921   4.454   2.764
 5396SOL    HW217088   4.879   4.590   2.683
 5397SOL     OW17089   6.817   2.979   1.885
 5397SOL    HW117090   6.843   2.976   1.981
 5397SOL    HW217091   6.882   3.036   1.834
 5398SOL     OW17092   3.332   1.869   2.659
 5398SOL    HW117093   3.358   1.934   2.588
 5398SOL    HW217094   3.275   1.915   2.727
 5399SOL     OW17095   2.549   5.505   6.971
 5399SOL    HW117096   2.506   5.550   6.892
 5399SOL    HW217097   2.483   5.446   0.001
 5400SOL     OW17098   2.612   4.075   0.873
 5400SOL    HW117099   2.538   4.008   0.869
 5400SOL    HW217100   2.648   4.092   0.782
 5401SOL     OW17101   5.467   3.615   2.001
 5401SOL    HW117102   5.442   3.688   2.064
 5401SOL    HW217103   5.480   3.530   2.052
 5402SOL     OW17104   1.934   4.663   1.796
 5402SOL    HW117105   2.025   4.637   1.764
 5402SOL    HW217106   1.942   4.719   1.878
 5403SOL     OW17107   6.405   2.291   6.332
 5403SOL    HW117108   6.378   2.262   6.423
 5403SOL    HW217109   6.500   2.322   6.334
 5404SOL     OW17110   0.898   1.356   2.852
 5404SOL    HW117111   0.878   1.428   2.786
 5404SOL    HW217112   0.812   1.318   2.886
 5405SOL     OW17113   5.910   5.907   6.925
 5405SOL    HW117114   5.915   5.985   6.862
 5405SOL    HW217115   5.854   5.835   6.884
 5406SOL     OW17116   2.675   0.510   0.022
 5406SOL    HW117117   2.645   0.430   0.075
 5406SOL    HW217118   2.600   0.576   0.019
 5407SOL     OW17119   4.095   2.945   1.235
 5407SOL    HW117120   4.055   2.871   1.181
 5407SOL    HW217121   4.160   2.907   1.301
 5408SOL     OW17122   3.373   1.137   6.261
 5408SOL    HW117123   3.400   1.233   6.256
 5408SOL    HW217124   3.279   1.127   6.228
 5409SOL     OW17125   6.136   1.104   4.065
 5409SOL    HW117126   6.076   1.184   4.076
 5409SOL    HW217127   6.094   1.040   4.001
 5410SOL     OW17128   2.220   2.859   1.510
 5410SOL    HW117129   2.213   2.958   1.506
 5410SOL    HW217130   2.194   2.820   1.421
 5411SOL     OW17131   6.251   5.286   5.733
 5411SOL    HW117132   6.321   5.353   5.706
 5411SOL    HW217133   6.229   5.228   5.655
 5412SOL     OW17134   4.121   0.971   6.336
 5412SOL    HW117135   4.047   0.905   6.356
 5412SOL    HW217136   4.160   0.951   6.246
 5413SOL     OW17137   2.145   1.146   1.410
 5413SOL    HW117138   2.081   1.172   1.483
 5413SOL    HW217139   2.239   1.157   1.444
 5414SOL     OW17140   5.860   2.802   5.004
 5414SOL    HW117141   5.917   2.810   5.086
 5414SOL    HW217142   5.817   2.891   4.985
 5415SOL     OW17143   1.588   6.241   1.125
 5415SOL    HW117144   1.682   6.252   1.091
 5415SOL    HW217145   1.548   6.159   1.084
 5416SOL     OW17146   4.678   4.441   6.405
 5416SOL    HW117147   4.623   4.501   6.463
 5416SOL    HW217148   4.620   4.402   6.334
 5417SOL     OW17149   3.877   6.814   5.571
 5417SOL    HW117150   3.853   6.737   5.630
 5417SOL    HW217151   3.836   6.897   5.607
 5418SOL     OW17152   4.011   6.572   4.040
 5418SOL    HW117153   4.027   6.492   3.983
 5418SOL    HW217154   3.922   6.564   4.085
 5419SOL     OW17155   2.964   5.018   0.369
 5419SOL    HW117156   2.937   4.935   0.418
 5419SOL    HW217157   3.031   4.995   0.299
 5420SOL     OW17158   1.140   2.069   2.275
 5420SOL    HW117159   1.041   2.082   2.276
 5420SOL    HW217160   1.179   2.119   2.197
 5421SOL     OW17161   1.927   3.196   2.929
 5421SOL    HW117162   2.000   3.184   2.996
 5421SOL    HW217163   1.842   3.157   2.964
 5422SOL     OW17164   0.918   5.597   0.010
 5422SOL    HW117165   0.928   5.644   6.938
 5422SOL    HW217166   1.008   5.576   0.048
 5423SOL     OW17167   5.735   2.627   0.138
 5423SOL    HW117168   5.726   2.672   0.049
 5423SOL    HW217169   5.667   2.554   0.146
 5424SOL     OW17170   4.984   3.001   4.289
 5424SOL    HW117171   5.076   2.987   4.252
 5424SOL    HW217172   4.924   2.927   4.257
 5425SOL     OW17173   4.265   1.494   4.142
 5425SOL    HW117174   4.241   1.575   4.088
 5425SOL    HW217175   4.182   1.456   4.184
 5426SOL     OW17176   6.039   5.230   4.079
 5426SOL    HW117177   6.113   5.279   4.124
 5426SOL    HW217178   6.024   5.142   4.126
 5427SOL     OW17179   4.872   4.915   0.430
 5427SOL    HW117180   4.781   4.874   0.433
 5427SOL    HW217181   4.886   4.972   0.512
 5428SOL     OW17182   0.137   0.355   1.950
 5428SOL    HW117183   0.103   0.379   1.860
 5428SOL    HW217184   0.217   0.412   1.972
 5429SOL     OW17185   1.115   1.772   5.734
 5429SOL    HW117186   1.154   1.756   5.825
 5429SOL    HW217187   1.182   1.819   5.677
 5430SOL     OW17188   0.651   3.521   5.816
 5430SOL    HW117189   0.713   3.593   5.847
 5430SOL    HW217190   0.704   3.438   5.796
 5431SOL     OW17191   3.395   5.723   0.172
 5431SOL    HW117192   3.452   5.739   0.091
 5431SOL    HW217193   3.330   5.650   0.152
 5432SOL     OW17194   4.771   6.340   6.619
 5432SOL    HW117195   4.743   6.293   6.702
 5432SOL    HW217196   4.777   6.439   6.636
 5433SOL     OW17197   0.671   1.838   3.673
 5433SOL    HW117198   0.671   1.747   3.631
 5433SOL    HW217199   0.728   1.836   3.755
 5434SOL     OW17200   4.096   1.178   4.857
 5434SOL    HW117201   4.159   1.242   4.814
 5434SOL    HW217202   4.082   1.203   4.953
 5435SOL     OW17203   5.024   1.063   1.770
 5435SOL    HW117204   4.950   1.130   1.779
 5435SOL    HW217205   5.112   1.111   1.769
 5436SOL     OW17206   5.176   3.727   4.004
 5436SOL    HW117207   5.239   3.668   3.953
 5436SOL    HW217208   5.220   3.814   4.024
 5437SOL     OW17209   3.060   4.766   6.170
 5437SOL    HW117210   3.050   4.699   6.243
 5437SOL    HW217211   3.072   4.719   6.083
 5438SOL     OW17212   6.403   4.022   2.478
 5438SOL    HW117213   6.414   3.927   2.507
 5438SOL    HW217214   6.327   4.063   2.529
 5439SOL     OW17215   1.160   2.763   1.271
 5439SOL    HW117216   1.120   2.854   1.281
 5439SOL    HW217217   1.148   2.731   1.177
 5440SOL     OW17218   0.618   1.309   1.956
 5440SOL    HW117219   0.649   1.372   2.028
 5440SOL    HW217220   0.696   1.277   1.903
 5441SOL     OW17221   5.075   2.184   2.408
 5441SOL    HW117222   5.015   2.261   2.384
 5441SOL    HW217223   5.143   2.215   2.474
 5442SOL     OW17224   3.799   5.958   3.404
 5442SOL    HW117225   3.804   5.913   3.493
 5442SOL    HW217226   3.724   5.919   3.351
 5443SOL     OW17227   2.714   0.570   4.031
 5443SOL    HW117228   2.793   0.627   4.054
 5443SOL    HW217229   2.659   0.615   3.961
 5444SOL     OW17230   1.706   0.710   4.191
 5444SOL    HW117231   1.717   0.622   4.236
 5444SOL    HW217232   1.616   0.714   4.147
 5445SOL     OW17233   5.897   3.903   4.039
 5445SOL    HW117234   5.942   3.942   3.958
 5445SOL    HW217235   5.846   3.821   4.013
 5446SOL     OW17236   6.313   4.954   4.906
 5446SOL    HW117237   6.233   4.941   4.964
 5446SOL    HW217238   6.381   5.009   4.955
 5447SOL     OW17239   2.211   1.818   6.398
 5447SOL    HW117240   2.176   1.767   6.476
 5447SOL    HW217241   2.311   1.819   6.401
 5448SOL     OW17242   4.892   3.007   4.830
 5448SOL    HW117243   4.982   2.967   4.815
 5448SOL    HW217244   4.831   2.983   4.755
 5449SOL     OW17245   1.707   2.411   6.479
 5449SOL    HW117246   1.806   2.405   6.467
 5449SOL    HW217247   1.661   2.386   6.393
 5450SOL     OW17248   1.460   0.677   2.083
 5450SOL    HW117249   1.555   0.648   2.099
 5450SOL    HW217250   1.434   0.654   1.989
 5451SOL     OW17251   0.933   5.893   3.199
 5451SOL    HW117252   1.032   5.889   3.207
 5451SOL    HW217253   0.907   5.973   3.144
 5452SOL     OW17254   2.367   4.134   6.876
 5452SOL    HW117255   2.433   4.072   6.835
 5452SOL    HW217256   2.275   4.096   6.867
 5453SOL     OW17257   5.136   4.429   1.702
 5453SOL    HW117258   5.069   4.483   1.650
 5453SOL    HW217259   5.192   4.376   1.639
 5454SOL     OW17260   7.003   3.797   6.567
 5454SOL    HW117261   0.063   3.842   6.519
 5454SOL    HW217262   0.006   3.700   6.574
 5455SOL     OW17263   6.232   2.806   0.662
 5455SOL    HW117264   6.146   2.840   0.625
 5455SOL    HW217265   6.276   2.878   0.716
 5456SOL     OW17266   3.066   0.208   0.079
 5456SOL    HW117267   3.143   0.265   0.109
 5456SOL    HW217268   3.101   0.132   0.024
 5457SOL     OW17269   6.556   2.189   6.620
 5457SOL    HW117270   6.583   2.285   6.626
 5457SOL    HW217271   6.457   2.183   6.614
 5458SOL     OW17272   0.726   4.408   0.292
 5458SOL    HW117273   0.672   4.335   0.249
 5458SOL    HW217274   0.732   4.486   0.229
 5459SOL     OW17275   2.094   4.030   6.812
 5459SOL    HW117276   2.129   3.954   6.758
 5459SOL    HW217277   1.997   4.014   6.834
 5460SOL     OW17278   3.609   0.691   3.174
 5460SOL    HW117279   3.553   0.698   3.091
 5460SOL    HW217280   3.705   0.698   3.149
 5461SOL     OW17281   5.896   0.034   5.451
 5461SOL    HW117282   5.951   0.057   5.371
 5461SOL    HW217283   5.921   0.095   5.527
 5462SOL     OW17284   0.812   6.946   6.674
 5462SOL    HW117285   0.856   6.857   6.689
 5462SOL    HW217286   0.806   6.964   6.576
 5463SOL     OW17287   6.616   2.170   0.394
 5463SOL    HW117288   6.665   2.222   0.323
 5463SOL    HW217289   6.530   2.217   0.416
 5464SOL     OW17290   1.081   1.211   3.931
 5464SOL    HW117291   0.986   1.217   3.901
 5464SOL    HW217292   1.083   1.189   4.029
 5465SOL     OW17293   3.784   6.227   3.338
 5465SOL    HW117294   3.772   6.133   3.372
 5465SOL    HW217295   3.698   6.277   3.349
 5466SOL     OW17296   5.547   3.497   5.475
 5466SOL    HW117297   5.548   3.502   5.376
 5466SOL    HW217298   5.555   3.589   5.513
 5467SOL     OW17299   5.029   2.863   2.925
 5467SOL    HW117300   4.950   2.861   2.865
 5467SOL    HW217301   5.003   2.901   3.014
 5468SOL     OW17302   5.675   2.600   4.594
 5468SOL    HW117303   5.714   2.544   4.522
 5468SOL    HW217304   5.739   2.606   4.670
 5469SOL     OW17305   4.252   5.773   6.471
 5469SOL    HW117306   4.168   5.734   6.509
 5469SOL    HW217307   4.318   5.788   6.545
 5470SOL     OW17308   3.511   6.354   2.605
 5470SOL    HW117309   3.415   6.351   2.576
 5470SOL    HW217310   3.541   6.262   2.628
 5471SOL     OW17311   4.983   6.916   2.483
 5471SOL    HW117312   4.968   6.905   2.385
 5471SOL    HW217313   4.924   6.854   2.533
 5472SOL     OW17314   4.269   3.600   5.908
 5472SOL    HW117315   4.316   3.612   5.996
 5472SOL    HW217316   4.174   3.632   5.916
 5473SOL     OW17317   0.125   3.396   2.675
 5473SOL    HW117318   0.043   3.443   2.643
 5473SOL    HW217319   0.194   3.464   2.700
 5474SOL     OW17320   1.621   4.820   4.352
 5474SOL    HW117321   1.657   4.751   4.415
 5474SOL    HW217322   1.645   4.911   4.384
 5475SOL     OW17323   2.486   3.028   1.443
 5475SOL    HW117324   2.445   3.117   1.464
 5475SOL    HW217325   2.554   3.039   1.371
 5476SOL     OW17326   2.029   4.220   5.709
 5476SOL    HW117327   1.981   4.288   5.764
 5476SOL    HW217328   2.041   4.254   5.616
 5477SOL     OW17329   2.457   4.754   3.497
 5477SOL    HW117330   2.477   4.844   3.537
 5477SOL    HW217331   2.374   4.760   3.442
 5478SOL     OW17332   3.858   5.166   4.718
 5478SOL    HW117333   3.784   5.233   4.727
 5478SOL    HW217334   3.882   5.155   4.621
 5479SOL     OW17335   4.999   1.343   5.935
 5479SOL    HW117336   5.023   1.331   6.032
 5479SOL    HW217337   5.053   1.419   5.898
 5480SOL     OW17338   6.509   4.317   3.220
 5480SOL    HW117339   6.511   4.408   3.179
 5480SOL    HW217340   6.559   4.253   3.162
 5481SOL     OW17341   4.445   1.562   4.344
 5481SOL    HW117342   4.383   1.532   4.272
 5481SOL    HW217343   4.394   1.576   4.429
 5482SOL     OW17344   3.428   5.060   1.290
 5482SOL    HW117345   3.390   5.082   1.200
 5482SOL    HW217346   3.465   5.143   1.332
 5483SOL     OW17347   0.088   1.923   5.624
 5483SOL    HW117348   0.042   2.012   5.617
 5483SOL    HW217349   0.127   1.899   5.535
 5484SOL     OW17350   4.334   1.387   4.772
 5484SOL    HW117351   4.385   1.464   4.735
 5484SOL    HW217352   4.321   1.400   4.871
 5485SOL     OW17353   4.503   0.361   5.592
 5485SOL    HW117354   4.472   0.454   5.574
 5485SOL    HW217355   4.525   0.315   5.506
 5486SOL     OW17356   2.700   5.797   5.440
 5486SOL    HW117357   2.782   5.744   5.463
 5486SOL    HW217358   2.627   5.736   5.411
 5487SOL     OW17359   4.026   3.202   6.870
 5487SOL    HW117360   3.954   3.193   6.801
 5487SOL    HW217361   4.092   3.270   6.840
 5488SOL     OW17362   5.974   0.495   1.215
 5488SOL    HW117363   5.993   0.442   1.297
 5488SOL    HW217364   5.964   0.434   1.136
 5489SOL     OW17365   0.196   3.715   1.412
 5489SOL    HW117366   0.228   3.804   1.446
 5489SOL    HW217367   0.097   3.718   1.399
 5490SOL     OW17368   2.625   0.562   2.484
 5490SOL    HW117369   2.613   0.473   2.528
 5490SOL    HW217370   2.539   0.613   2.487
 5491SOL     OW17371   0.775   3.000   6.800
 5491SOL    HW117372   0.682   2.995   6.836
 5491SOL    HW217373   0.784   3.082   6.744
 5492SOL     OW17374   0.674   3.145   6.378
 5492SOL    HW117375   0.668   3.144   6.478
 5492SOL    HW217376   0.707   3.234   6.347
 5493SOL     OW17377   4.033   3.448   3.261
 5493SOL    HW117378   4.027   3.357   3.220
 5493SOL    HW217379   3.942   3.489   3.264
 5494SOL     OW17380   6.608   3.556   5.435
 5494SOL    HW117381   6.676   3.618   5.395
 5494SOL    HW217382   6.624   3.463   5.402
 5495SOL     OW17383   5.649   0.779   1.451
 5495SOL    HW117384   5.589   0.702   1.475
 5495SOL    HW217385   5.691   0.762   1.362
 5496SOL     OW17386   4.551   0.824   3.848
 5496SOL    HW117387   4.550   0.725   3.863
 5496SOL    HW217388   4.603   0.868   3.921
 5497SOL     OW17389   0.425   1.131   5.185
 5497SOL    HW117390   0.498   1.173   5.130
 5497SOL    HW217391   0.430   1.032   5.177
 5498SOL     OW17392   6.924   4.904   2.051
 5498SOL    HW117393   6.836   4.906   2.003
 5498SOL    HW217394   6.998   4.898   1.983
 5499SOL     OW17395   0.738   0.613   4.024
 5499SOL    HW117396   0.770   0.524   3.993
 5499SOL    HW217397   0.694   0.661   3.948
 5500SOL     OW17398   0.897   0.869   6.705
 5500SOL    HW117399   0.875   0.799   6.637
 5500SOL    HW217400   0.989   0.905   6.688
 5501SOL     OW17401   3.657   1.685   0.878
 5501SOL    HW117402   3.653   1.749   0.801
 5501SOL    HW217403   3.684   1.733   0.961
 5502SOL     OW17404   5.749   3.293   6.326
 5502SOL    HW117405   5.731   3.265   6.421
 5502SOL    HW217406   5.738   3.392   6.318
 5503SOL     OW17407   0.265   4.172   0.964
 5503SOL    HW117408   0.243   4.098   1.028
 5503SOL    HW217409   0.220   4.154   0.876
 5504SOL     OW17410   4.743   1.338   5.090
 5504SOL    HW117411   4.789   1.423   5.116
 5504SOL    HW217412   4.684   1.307   5.165
 5505SOL     OW17413   2.220   4.882   3.382
 5505SOL    HW117414   2.266   4.963   3.344
 5505SOL    HW217415   2.196   4.899   3.477
 5506SOL     OW17416   0.215   3.428   0.503
 5506SOL    HW117417   0.160   3.387   0.431
 5506SOL    HW217418   0.305   3.383   0.505
 5507SOL     OW17419   3.448   0.833   5.166
 5507SOL    HW117420   3.398   0.898   5.222
 5507SOL    HW217421   3.546   0.839   5.186
 5508SOL     OW17422   1.243   0.522   0.387
 5508SOL    HW117423   1.191   0.442   0.418
 5508SOL    HW217424   1.314   0.493   0.324
 5509SOL     OW17425   0.770   5.777   0.535
 5509SOL    HW117426   0.805   5.734   0.452
 5509SOL    HW217427   0.825   5.748   0.614
 5510SOL     OW17428   4.288   5.138   6.637
 5510SOL    HW117429   4.230   5.198   6.692
 5510SOL    HW217430   4.374   5.185   6.616
 5511SOL     OW17431   1.178   0.924   5.393
 5511SOL    HW117432   1.197   0.878   5.306
 5511SOL    HW217433   1.176   0.856   5.467
 5512SOL     OW17434   3.475   1.226   0.901
 5512SOL    HW117435   3.525   1.224   0.814
 5512SOL    HW217436   3.411   1.303   0.900
 5513SOL     OW17437   3.414   5.374   5.851
 5513SOL    HW117438   3.330   5.319   5.854
 5513SOL    HW217439   3.416   5.435   5.930
 5514SOL     OW17440   3.418   0.288   4.896
 5514SOL    HW117441   3.350   0.360   4.908
 5514SOL    HW217442   3.505   0.317   4.934
 5515SOL     OW17443   1.741   5.733   1.911
 5515SOL    HW117444   1.784   5.810   1.956
 5515SOL    HW217445   1.811   5.674   1.871
 5516SOL     OW17446   2.308   2.756   4.949
 5516SOL    HW117447   2.329   2.850   4.975
 5516SOL    HW217448   2.349   2.736   4.860
 5517SOL     OW17449   2.144   3.743   1.848
 5517SOL    HW117450   2.143   3.807   1.924
 5517SOL    HW217451   2.165   3.651   1.882
 5518SOL     OW17452   6.203   4.864   6.023
 5518SOL    HW117453   6.153   4.810   5.955
 5518SOL    HW217454   6.190   4.961   6.004
 5519SOL     OW17455   5.669   3.059   3.683
 5519SOL    HW117456   5.734   3.051   3.758
 5519SOL    HW217457   5.663   3.154   3.654
 5520SOL     OW17458   5.312   6.632   2.432
 5520SOL    HW117459   5.263   6.664   2.514
 5520SOL    HW217460   5.409   6.623   2.453
 5521SOL     OW17461   5.958   5.821   1.764
 5521SOL    HW117462   6.047   5.804   1.722
 5521SOL    HW217463   5.919   5.905   1.728
 5522SOL     OW17464   6.457   5.254   1.333
 5522SOL    HW117465   6.436   5.308   1.415
 5522SOL    HW217466   6.541   5.288   1.291
 5523SOL     OW17467   4.807   1.081   2.154
 5523SOL    HW117468   4.840   1.012   2.089
 5523SOL    HW217469   4.882   1.143   2.177
 5524SOL     OW17470   3.286   0.071   4.801
 5524SOL    HW117471   3.336   0.134   4.859
 5524SOL    HW217472   3.194   0.107   4.782
 5525SOL     OW17473   0.794   2.399   0.466
 5525SOL    HW117474   0.757   2.452   0.389
 5525SOL    HW217475   0.849   2.460   0.523
 5526SOL     OW17476   4.724   4.540   3.085
 5526SOL    HW117477   4.752   4.635   3.067
 5526SOL    HW217478   4.626   4.539   3.108
 5527SOL     OW17479   4.907   3.916   3.027
 5527SOL    HW117480   4.825   3.968   3.050
 5527SOL    HW217481   4.983   3.978   3.010
 5528SOL     OW17482   1.871   0.684   1.154
 5528SOL    HW117483   1.882   0.679   1.253
 5528SOL    HW217484   1.858   0.592   1.117
 5529SOL     OW17485   2.864   6.974   3.934
 5529SOL    HW117486   2.880   6.900   3.999
 5529SOL    HW217487   2.949   0.011   3.921
 5530SOL     OW17488   6.153   2.119   1.170
 5530SOL    HW117489   6.185   2.027   1.150
 5530SOL    HW217490   6.225   2.185   1.148
 5531SOL     OW17491   3.901   3.626   1.520
 5531SOL    HW117492   3.804   3.602   1.531
 5531SOL    HW217493   3.956   3.572   1.583
 5532SOL     OW17494   1.908   2.953   0.563
 5532SOL    HW117495   1.901   2.855   0.582
 5532SOL    HW217496   1.836   3.002   0.612
 5533SOL     OW17497   4.725   1.493   3.938
 5533SOL    HW117498   4.632   1.466   3.961
 5533SOL    HW217499   4.757   1.441   3.859
 5534SOL     OW17500   1.113   0.793   6.440
 5534SOL    HW117501   1.176   0.816   6.514
 5534SOL    HW217502   1.164   0.770   6.358
 5535SOL     OW17503   1.016   1.286   2.573
 5535SOL    HW117504   0.969   1.335   2.646
 5535SOL    HW217505   1.105   1.254   2.605
 5536SOL     OW17506   4.204   0.601   4.626
 5536SOL    HW117507   4.110   0.577   4.650
 5536SOL    HW217508   4.234   0.547   4.548
 5537SOL     OW17509   3.606   1.599   2.504
 5537SOL    HW117510   3.691   1.567   2.463
 5537SOL    HW217511   3.541   1.523   2.511
 5538SOL     OW17512   3.825   6.282   4.688
 5538SOL    HW117513   3.812   6.236   4.776
 5538SOL    HW217514   3.819   6.215   4.614
 5539SOL     OW17515   1.704   3.664   1.544
 5539SOL    HW117516   1.705   3.660   1.644
 5539SOL    HW217517   1.611   3.649   1.512
 5540SOL     OW17518   4.918   4.836   3.744
 5540SOL    HW117519   4.908   4.882   3.832
 5540SOL    HW217520   4.839   4.777   3.729
 5541SOL     OW17521   5.073   0.630   6.383
 5541SOL    HW117522   5.010   0.678   6.323
 5541SOL    HW217523   5.142   0.694   6.417
 5542SOL     OW17524   4.321   3.365   6.332
 5542SOL    HW117525   4.322   3.434   6.260
 5542SOL    HW217526   4.295   3.407   6.419
 5543SOL     OW17527   5.769   4.062   6.421
 5543SOL    HW117528   5.693   4.046   6.484
 5543SOL    HW217529   5.782   3.981   6.364
 5544SOL     OW17530   5.154   0.159   6.314
 5544SOL    HW117531   5.129   0.250   6.345
 5544SOL    HW217532   5.124   0.146   6.219
 5545SOL     OW17533   4.055   1.911   3.075
 5545SOL    HW117534   4.017   1.820   3.093
 5545SOL    HW217535   4.155   1.906   3.081
 5546SOL     OW17536   1.421   5.618   5.476
 5546SOL    HW117537   1.463   5.540   5.522
 5546SOL    HW217538   1.328   5.594   5.447
 5547SOL     OW17539   2.944   6.057   4.577
 5547SOL    HW117540   2.988   6.049   4.667
 5547SOL    HW217541   2.985   5.991   4.514
 5548SOL     OW17542   6.577   3.291   5.970
 5548SOL    HW117543   6.609   3.354   6.039
 5548SOL    HW217544   6.477   3.287   5.972
 5549SOL     OW17545   3.593   4.512   0.126
 5549SOL    HW117546   3.495   4.495   0.124
 5549SOL    HW217547   3.610   4.605   0.161
 5550SOL     OW17548   2.627   5.660   1.899
 5550SOL    HW117549   2.718   5.687   1.868
 5550SOL    HW217550   2.595   5.724   1.969
 5551SOL     OW17551   1.605   0.534   2.915
 5551SOL    HW117552   1.582   0.488   2.830
 5551SOL    HW217553   1.529   0.592   2.943
 5552SOL     OW17554   6.794   1.692   0.498
 5552SOL    HW117555   6.741   1.772   0.473
 5552SOL    HW217556   6.884   1.697   0.455
 5553SOL     OW17557   4.464   6.950   0.028
 5553SOL    HW117558   4.399   6.904   6.983
 5553SOL    HW217559   4.442   6.929   0.124
 5554SOL     OW17560   2.955   2.358   5.711
 5554SOL    HW117561   2.879   2.403   5.664
 5554SOL    HW217562   2.982   2.276   5.661
 5555SOL     OW17563   0.412   5.549   3.350
 5555SOL    HW117564   0.507   5.561   3.379
 5555SOL    HW217565   0.365   5.488   3.414
 5556SOL     OW17566   1.026   2.339   4.739
 5556SOL    HW117567   1.088   2.271   4.699
 5556SOL    HW217568   1.001   2.406   4.669
 5557SOL     OW17569   2.428   6.010   3.782
 5557SOL    HW117570   2.355   6.024   3.715
 5557SOL    HW217571   2.515   6.001   3.734
 5558SOL     OW17572   5.331   2.848   5.061
 5558SOL    HW117573   5.272   2.771   5.038
 5558SOL    HW217574   5.340   2.909   4.982
 5559SOL     OW17575   2.138   0.472   1.098
 5559SOL    HW117576   2.170   0.379   1.119
 5559SOL    HW217577   2.038   0.473   1.097
 5560SOL     OW17578   0.368   0.842   2.974
 5560SOL    HW117579   0.388   0.746   2.993
 5560SOL    HW217580   0.272   0.852   2.948
 5561SOL     OW17581   1.411   3.060   3.974
 5561SOL    HW117582   1.314   3.049   3.954
 5561SOL    HW217583   1.452   2.970   3.990
 5562SOL     OW17584   1.771   2.593   6.159
 5562SOL    HW117585   1.732   2.502   6.175
 5562SOL    HW217586   1.850   2.585   6.098
 5563SOL     OW17587   4.432   6.353   2.151
 5563SOL    HW117588   4.422   6.360   2.250
 5563SOL    HW217589   4.381   6.274   2.118
 5564SOL     OW17590   4.916   3.862   1.776
 5564SOL    HW117591   4.879   3.774   1.804
 5564SOL    HW217592   4.845   3.914   1.728
 5565SOL     OW17593   4.515   2.273   5.702
 5565SOL    HW117594   4.510   2.348   5.767
 5565SOL    HW217595   4.432   2.272   5.646
 5566SOL     OW17596   1.625   5.590   0.944
 5566SOL    HW117597   1.574   5.504   0.939
 5566SOL    HW217598   1.592   5.644   1.021
 5567SOL     OW17599   1.658   5.816   1.328
 5567SOL    HW117600   1.627   5.748   1.394
 5567SOL    HW217601   1.595   5.817   1.250
 5568SOL     OW17602   4.591   1.759   0.764
 5568SOL    HW117603   4.526   1.833   0.753
 5568SOL    HW217604   4.574   1.712   0.850
 5569SOL     OW17605   4.188   1.677   1.573
 5569SOL    HW117606   4.165   1.771   1.546
 5569SOL    HW217607   4.206   1.623   1.491
 5570SOL     OW17608   6.297   4.659   5.482
 5570SOL    HW117609   6.271   4.743   5.435
 5570SOL    HW217610   6.267   4.664   5.577
 5571SOL     OW17611   0.532   5.704   0.749
 5571SOL    HW117612   0.483   5.781   0.789
 5571SOL    HW217613   0.587   5.736   0.671
 5572SOL     OW17614   4.229   2.388   6.390
 5572SOL    HW117615   4.260   2.468   6.443
 5572SOL    HW217616   4.130   2.378   6.401
 5573SOL     OW17617   1.367   3.828   0.387
 5573SOL    HW117618   1.324   3.808   0.475
 5573SOL    HW217619   1.430   3.905   0.397
 5574SOL     OW17620   0.405   6.781   4.940
 5574SOL    HW117621   0.439   6.754   4.850
 5574SOL    HW217622   0.378   6.877   4.937
 5575SOL     OW17623   1.625   0.996   0.941
 5575SOL    HW117624   1.526   1.010   0.933
 5575SOL    HW217625   1.645   0.946   1.025
 5576SOL     OW17626   5.970   5.452   0.597
 5576SOL    HW117627   5.905   5.377   0.610
 5576SOL    HW217628   5.995   5.491   0.685
 5577SOL     OW17629   2.388   3.420   5.495
 5577SOL    HW117630   2.307   3.465   5.532
 5577SOL    HW217631   2.363   3.330   5.459
 5578SOL     OW17632   4.260   2.300   0.294
 5578SOL    HW117633   4.310   2.386   0.285
 5578SOL    HW217634   4.164   2.314   0.270
 5579SOL     OW17635   5.199   3.527   6.911
 5579SOL    HW117636   5.113   3.555   6.869
 5579SOL    HW217637   5.274   3.548   6.849
 5580SOL     OW17638   5.352   1.213   0.676
 5580SOL    HW117639   5.358   1.211   0.776
 5580SOL    HW217640   5.325   1.124   0.641
 5581SOL     OW17641   2.040   0.441   6.589
 5581SOL    HW117642   2.071   0.511   6.654
 5581SOL    HW217643   1.944   0.457   6.566
 5582SOL     OW17644   3.658   3.166   4.023
 5582SOL    HW117645   3.633   3.070   4.009
 5582SOL    HW217646   3.583   3.225   3.991
 5583SOL     OW17647   3.449   0.158   1.808
 5583SOL    HW117648   3.451   0.235   1.745
 5583SOL    HW217649   3.539   0.149   1.851
 5584SOL     OW17650   6.085   4.201   3.107
 5584SOL    HW117651   6.070   4.276   3.042
 5584SOL    HW217652   6.179   4.168   3.099
 5585SOL     OW17653   6.556   0.724   3.631
 5585SOL    HW117654   6.546   0.675   3.718
 5585SOL    HW217655   6.593   0.815   3.649
 5586SOL     OW17656   2.499   1.495   5.918
 5586SOL    HW117657   2.409   1.482   5.877
 5586SOL    HW217658   2.490   1.549   6.001
 5587SOL     OW17659   4.147   0.675   3.814
 5587SOL    HW117660   4.158   0.711   3.722
 5587SOL    HW217661   4.057   0.701   3.849
 5588SOL     OW17662   2.240   0.059   5.368
 5588SOL    HW117663   2.334   0.090   5.356
 5588SOL    HW217664   2.211   0.007   5.288
 5589SOL     OW17665   5.097   2.517   6.338
 5589SOL    HW117666   5.125   2.551   6.248
 5589SOL    HW217667   5.176   2.478   6.385
 5590SOL     OW17668   6.713   5.933   4.334
 5590SOL    HW117669   6.665   5.950   4.420
 5590SOL    HW217670   6.762   6.016   4.307
 5591SOL     OW17671   5.853   0.828   0.070
 5591SOL    HW117672   5.787   0.863   0.003
 5591SOL    HW217673   5.856   0.728   0.064
 5592SOL     OW17674   1.447   4.115   2.628
 5592SOL    HW117675   1.453   4.215   2.624
 5592SOL    HW217676   1.375   4.089   2.692
 5593SOL     OW17677   1.254   2.772   5.707
 5593SOL    HW117678   1.207   2.697   5.660
 5593SOL    HW217679   1.273   2.845   5.641
 5594SOL     OW17680   2.218   0.224   0.286
 5594SOL    HW117681   2.241   0.131   0.315
 5594SOL    HW217682   2.278   0.289   0.332
 5595SOL     OW17683   6.487   1.156   5.724
 5595SOL    HW117684   6.392   1.178   5.702
 5595SOL    HW217685   6.547   1.197   5.656
 5596SOL     OW17686   5.049   0.631   2.108
 5596SOL    HW117687   5.073   0.543   2.149
 5596SOL    HW217688   4.954   0.629   2.076
 5597SOL     OW17689   5.930   0.946   6.229
 5597SOL    HW117690   5.996   0.881   6.267
 5597SOL    HW217691   5.936   1.032   6.280
 5598SOL     OW17692   5.676   1.796   3.768
 5598SOL    HW117693   5.734   1.862   3.817
 5598SOL    HW217694   5.626   1.843   3.695
 5599SOL     OW17695   4.879   4.040   2.154
 5599SOL    HW117696   4.869   4.074   2.060
 5599SOL    HW217697   4.917   4.112   2.212
 5600SOL     OW17698   2.094   0.594   2.994
 5600SOL    HW117699   2.166   0.537   3.035
 5600SOL    HW217700   2.005   0.569   3.032
 5601SOL     OW17701   5.215   3.313   5.814
 5601SOL    HW117702   5.236   3.334   5.909
 5601SOL    HW217703   5.248   3.387   5.755
 5602SOL     OW17704   0.546   2.410   3.290
 5602SOL    HW117705   0.574   2.389   3.384
 5602SOL    HW217706   0.627   2.433   3.236
 5603SOL     OW17707   4.404   2.418   4.797
 5603SOL    HW117708   4.398   2.350   4.724
 5603SOL    HW217709   4.334   2.399   4.866
 5604SOL     OW17710   1.068   0.460   4.092
 5604SOL    HW117711   1.029   0.505   4.173
 5604SOL    HW217712   1.003   0.465   4.017
 5605SOL     OW17713   1.986   6.544   4.264
 5605SOL    HW117714   1.902   6.494   4.283
 5605SOL    HW217715   2.036   6.560   4.349
 5606SOL     OW17716   4.654   2.280   0.469
 5606SOL    HW117717   4.705   2.225   0.536
 5606SOL    HW217718   4.714   2.304   0.393
 5607SOL     OW17719   6.129   2.509   2.439
 5607SOL    HW117720   6.194   2.577   2.475
 5607SOL    HW217721   6.059   2.489   2.507
 5608SOL     OW17722   5.572   1.064   3.949
 5608SOL    HW117723   5.524   0.982   3.980
 5608SOL    HW217724   5.550   1.082   3.853
 5609SOL     OW17725   6.123   6.590   1.503
 5609SOL    HW117726   6.140   6.612   1.407
 5609SOL    HW217727   6.200   6.621   1.558
 5610SOL     OW17728   5.299   4.387   0.070
 5610SOL    HW117729   5.324   4.482   0.088
 5610SOL    HW217730   5.297   4.337   0.157
 5611SOL     OW17731   0.700   5.248   1.444
 5611SOL    HW117732   0.728   5.211   1.533
 5611SOL    HW217733   0.601   5.264   1.444
 5612SOL     OW17734   3.060   1.225   0.569
 5612SOL    HW117735   3.142   1.281   0.573
 5612SOL    HW217736   3.071   1.156   0.497
 5613SOL     OW17737   6.889   4.984   4.899
 5613SOL    HW117738   6.970   4.931   4.872
 5613SOL    HW217739   6.821   4.981   4.826
 5614SOL     OW17740   5.846   2.300   4.796
 5614SOL    HW117741   5.870   2.206   4.774
 5614SOL    HW217742   5.758   2.302   4.844
 5615SOL     OW17743   6.558   2.566   2.354
 5615SOL    HW117744   6.546   2.483   2.300
 5615SOL    HW217745   6.603   2.543   2.441
 5616SOL     OW17746   1.609   3.672   3.395
 5616SOL    HW117747   1.646   3.608   3.462
 5616SOL    HW217748   1.597   3.762   3.436
 5617SOL     OW17749   2.488   5.683   5.937
 5617SOL    HW117750   2.421   5.752   5.963
 5617SOL    HW217751   2.446   5.592   5.939
 5618SOL     OW17752   6.883   5.319   4.015
 5618SOL    HW117753   6.804   5.379   4.004
 5618SOL    HW217754   6.962   5.372   4.044
 5619SOL     OW17755   3.597   3.207   4.789
 5619SOL    HW117756   3.655   3.266   4.845
 5619SOL    HW217757   3.501   3.232   4.802
 5620SOL     OW17758   4.172   4.667   5.704
 5620SOL    HW117759   4.133   4.723   5.631
 5620SOL    HW217760   4.142   4.703   5.793
 5621SOL     OW17761   1.571   3.017   4.755
 5621SOL    HW117762   1.512   2.988   4.679
 5621SOL    HW217763   1.599   3.112   4.740
 5622SOL     OW17764   4.548   5.390   4.734
 5622SOL    HW117765   4.483   5.431   4.797
 5622SOL    HW217766   4.555   5.292   4.753
 5623SOL     OW17767   4.467   6.340   4.248
 5623SOL    HW117768   4.498   6.397   4.325
 5623SOL    HW217769   4.373   6.311   4.264
 5624SOL     OW17770   0.093   5.955   4.051
 5624SOL    HW117771   0.070   5.956   3.954
 5624SOL    HW217772   0.019   5.912   4.103
 5625SOL     OW17773   1.214   5.936   4.732
 5625SOL    HW117774   1.223   5.963   4.636
 5625SOL    HW217775   1.244   5.841   4.742
 5626SOL     OW17776   2.127   3.944   4.325
 5626SOL    HW117777   2.107   3.881   4.250
 5626SOL    HW217778   2.117   3.898   4.412
 5627SOL     OW17779   1.350   5.821   0.622
 5627SOL    HW117780   1.264   5.854   0.584
 5627SOL    HW217781   1.339   5.726   0.653
 5628SOL     OW17782   2.888   2.652   0.451
 5628SOL    HW117783   2.943   2.573   0.424
 5628SOL    HW217784   2.924   2.690   0.536
 5629SOL     OW17785   5.113   3.897   1.344
 5629SOL    HW117786   5.024   3.942   1.335
 5629SOL    HW217787   5.154   3.922   1.432
 5630SOL     OW17788   1.781   3.813   6.360
 5630SOL    HW117789   1.830   3.733   6.324
 5630SOL    HW217790   1.688   3.786   6.387
 5631SOL     OW17791   4.119   0.725   2.120
 5631SOL    HW117792   4.208   0.736   2.076
 5631SOL    HW217793   4.117   0.639   2.170
 5632SOL     OW17794   5.895   0.127   5.956
 5632SOL    HW117795   5.956   0.071   6.012
 5632SOL    HW217796   5.802   0.122   5.993
 5633SOL     OW17797   0.786   4.616   5.939
 5633SOL    HW117798   0.796   4.532   5.886
 5633SOL    HW217799   0.746   4.687   5.881
 5634SOL     OW17800   2.975   6.290   6.583
 5634SOL    HW117801   2.999   6.230   6.506
 5634SOL    HW217802   2.909   6.358   6.553
 5635SOL     OW17803   2.594   6.678   6.518
 5635SOL    HW117804   2.542   6.702   6.600
 5635SOL    HW217805   2.535   6.681   6.438
 5636SOL     OW17806   6.284   0.737   5.558
 5636SOL    HW117807   6.260   0.806   5.490
 5636SOL    HW217808   6.376   0.703   5.538
 5637SOL     OW17809   5.168   6.007   4.515
 5637SOL    HW117810   5.256   5.967   4.539
 5637SOL    HW217811   5.097   5.936   4.520
 5638SOL     OW17812   5.315   5.730   1.180
 5638SOL    HW117813   5.281   5.749   1.088
 5638SOL    HW217814   5.238   5.711   1.241
 5639SOL     OW17815   1.325   0.099   1.624
 5639SOL    HW117816   1.259   0.057   1.686
 5639SOL    HW217817   1.276   0.150   1.554
 5640SOL     OW17818   2.523   6.108   2.892
 5640SOL    HW117819   2.485   6.060   2.971
 5640SOL    HW217820   2.575   6.188   2.923
 5641SOL     OW17821   1.517   5.116   4.639
 5641SOL    HW117822   1.426   5.102   4.599
 5641SOL    HW217823   1.517   5.084   4.733
 5642SOL     OW17824   1.220   4.814   6.761
 5642SOL    HW117825   1.284   4.754   6.713
 5642SOL    HW217826   1.269   4.893   6.796
 5643SOL     OW17827   3.757   2.117   4.355
 5643SOL    HW117828   3.741   2.026   4.393
 5643SOL    HW217829   3.847   2.119   4.312
 5644SOL     OW17830   5.489   1.195   4.958
 5644SOL    HW117831   5.397   1.225   4.983
 5644SOL    HW217832   5.557   1.245   5.012
 5645SOL     OW17833   4.951   5.336   2.266
 5645SOL    HW117834   5.001   5.354   2.181
 5645SOL    HW217835   4.976   5.406   2.334
 5646SOL     OW17836   0.336   5.792   3.555
 5646SOL    HW117837   0.257   5.811   3.498
 5646SOL    HW217838   0.339   5.694   3.575
 5647SOL     OW17839   6.215   5.932   6.961
 5647SOL    HW117840   6.123   5.904   6.931
 5647SOL    HW217841   6.266   5.966   6.882
 5648SOL     OW17842   1.933   1.712   3.192
 5648SOL    HW117843   2.020   1.727   3.146
 5648SOL    HW217844   1.915   1.787   3.256
 5649SOL     OW17845   1.594   0.442   4.617
 5649SOL    HW117846   1.559   0.482   4.533
 5649SOL    HW217847   1.523   0.443   4.688
 5650SOL     OW17848   6.750   4.984   0.669
 5650SOL    HW117849   6.654   4.998   0.692
 5650SOL    HW217850   6.774   4.888   0.681
 5651SOL     OW17851   0.320   1.184   1.625
 5651SOL    HW117852   0.347   1.133   1.543
 5651SOL    HW217853   0.330   1.282   1.607
 5652SOL     OW17854   5.522   5.823   1.661
 5652SOL    HW117855   5.476   5.883   1.596
 5652SOL    HW217856   5.569   5.750   1.612
 5653SOL     OW17857   6.766   6.145   5.667
 5653SOL    HW117858   6.821   6.140   5.584
 5653SOL    HW217859   6.818   6.106   5.744
 5654SOL     OW17860   0.305   0.527   5.933
 5654SOL    HW117861   0.304   0.471   5.850
 5654SOL    HW217862   0.288   0.622   5.910
 5655SOL     OW17863   1.153   3.309   3.810
 5655SOL    HW117864   1.131   3.285   3.905
 5655SOL    HW217865   1.069   3.329   3.760
 5656SOL     OW17866   2.918   4.006   0.647
 5656SOL    HW117867   2.922   4.076   0.718
 5656SOL    HW217868   2.889   4.049   0.561
 5657SOL     OW17869   4.551   0.225   1.388
 5657SOL    HW117870   4.459   0.218   1.426
 5657SOL    HW217871   4.596   0.135   1.393
 5658SOL     OW17872   3.293   6.908   5.318
 5658SOL    HW117873   3.323   6.846   5.245
 5658SOL    HW217874   3.285   6.856   5.403
 5659SOL     OW17875   3.000   3.643   3.154
 5659SOL    HW117876   3.054   3.617   3.074
 5659SOL    HW217877   2.955   3.562   3.191
 5660SOL     OW17878   5.093   0.132   0.452
 5660SOL    HW117879   5.161   0.140   0.524
 5660SOL    HW217880   5.139   0.121   0.364
 5661SOL     OW17881   0.121   6.000   5.466
 5661SOL    HW117882   0.210   6.006   5.421
 5661SOL    HW217883   0.128   6.036   5.559
 5662SOL     OW17884   2.482   4.490   3.936
 5662SOL    HW117885   2.434   4.569   3.898
 5662SOL    HW217886   2.417   4.414   3.947
 5663SOL     OW17887   1.150   4.183   0.527
 5663SOL    HW117888   1.099   4.107   0.486
 5663SOL    HW217889   1.193   4.237   0.455
 5664SOL     OW17890   0.175   4.694   2.946
 5664SOL    HW117891   0.183   4.748   2.862
 5664SOL    HW217892   0.244   4.724   3.011
 5665SOL     OW17893   1.975   2.420   6.463
 5665SOL    HW117894   2.036   2.354   6.420
 5665SOL    HW217895   2.002   2.513   6.437
 5666SOL     OW17896   4.662   5.645   0.903
 5666SOL    HW117897   4.757   5.650   0.872
 5666SOL    HW217898   4.603   5.626   0.824
 5667SOL     OW17899   0.037   5.069   3.017
 5667SOL    HW117900   0.093   5.115   3.086
 5667SOL    HW217901   7.015   4.985   3.056
 5668SOL     OW17902   4.650   1.639   6.061
 5668SOL    HW117903   4.606   1.722   6.028
 5668SOL    HW217904   4.599   1.602   6.138
 5669SOL     OW17905   0.057   5.250   5.670
 5669SOL    HW117906   0.070   5.158   5.634
 5669SOL    HW217907   0.051   5.314   5.593
 5670SOL     OW17908   0.584   3.308   3.486
 5670SOL    HW117909   0.531   3.393   3.475
 5670SOL    HW217910   0.526   3.230   3.464
 5671SOL     OW17911   2.437   6.747   6.313
 5671SOL    HW117912   2.500   6.717   6.241
 5671SOL    HW217913   2.433   6.846   6.315
 5672SOL     OW17914   5.024   3.813   6.320
 5672SOL    HW117915   4.969   3.779   6.396
 5672SOL    HW217916   5.008   3.756   6.240
 5673SOL     OW17917   0.587   0.695   2.494
 5673SOL    HW117918   0.637   0.775   2.529
 5673SOL    HW217919   0.496   0.691   2.536
 5674SOL     OW17920   0.372   3.936   1.773
 5674SOL    HW117921   0.341   3.956   1.680
 5674SOL    HW217922   0.326   3.854   1.806
 5675SOL     OW17923   4.429   2.699   5.296
 5675SOL    HW117924   4.495   2.770   5.269
 5675SOL    HW217925   4.342   2.742   5.318
 5676SOL     OW17926   1.690   0.873   1.184
 5676SOL    HW117927   1.765   0.816   1.153
 5676SOL    HW217928   1.720   0.930   1.260
 5677SOL     OW17929   6.614   2.000   3.516
 5677SOL    HW117930   6.589   2.037   3.605
 5677SOL    HW217931   6.592   2.067   3.445
 5678SOL     OW17932   3.916   6.266   2.563
 5678SOL    HW117933   3.975   6.274   2.483
 5678SOL    HW217934   3.877   6.356   2.585
 5679SOL     OW17935   1.365   6.919   4.804
 5679SOL    HW117936   1.401   6.962   4.887
 5679SOL    HW217937   1.277   6.876   4.824
 5680SOL     OW17938   1.638   5.183   6.701
 5680SOL    HW117939   1.702   5.111   6.730
 5680SOL    HW217940   1.690   5.265   6.675
 5681SOL     OW17941   0.882   2.982   6.293
 5681SOL    HW117942   0.831   3.053   6.342
 5681SOL    HW217943   0.969   2.966   6.338
 5682SOL     OW17944   1.320   2.976   5.553
 5682SOL    HW117945   1.345   3.009   5.462
 5682SOL    HW217946   1.228   3.006   5.575
 5683SOL     OW17947   3.478   2.553   6.653
 5683SOL    HW117948   3.534   2.537   6.571
 5683SOL    HW217949   3.498   2.644   6.689
 5684SOL     OW17950   3.811   3.262   4.281
 5684SOL    HW117951   3.885   3.203   4.313
 5684SOL    HW217952   3.782   3.231   4.190
 5685SOL     OW17953   0.667   5.185   2.129
 5685SOL    HW117954   0.573   5.216   2.142
 5685SOL    HW217955   0.725   5.221   2.202
 5686SOL     OW17956   3.667   0.122   0.469
 5686SOL    HW117957   3.585   0.144   0.522
 5686SOL    HW217958   3.743   0.181   0.499
 5687SOL     OW17959   6.220   4.200   4.689
 5687SOL    HW117960   6.295   4.185   4.753
 5687SOL    HW217961   6.212   4.298   4.670
 5688SOL     OW17962   6.074   2.110   0.805
 5688SOL    HW117963   6.007   2.037   0.819
 5688SOL    HW217964   6.037   2.179   0.743
 5689SOL     OW17965   4.555   1.265   0.276
 5689SOL    HW117966   4.647   1.250   0.237
 5689SOL    HW217967   4.562   1.327   0.353
 5690SOL     OW17968   3.663   5.991   0.670
 5690SOL    HW117969   3.573   6.018   0.637
 5690SOL    HW217970   3.675   6.022   0.764
 5691SOL     OW17971   2.973   6.313   2.373
 5691SOL    HW117972   2.875   6.295   2.373
 5691SOL    HW217973   2.989   6.411   2.383
 5692SOL     OW17974   6.657   1.754   6.004
 5692SOL    HW117975   6.719   1.801   5.942
 5692SOL    HW217976   6.639   1.811   6.084
 5693SOL     OW17977   4.944   2.799   2.172
 5693SOL    HW117978   4.933   2.898   2.165
 5693SOL    HW217979   4.857   2.754   2.153
 5694SOL     OW17980   0.476   1.148   3.476
 5694SOL    HW117981   0.418   1.204   3.535
 5694SOL    HW217982   0.531   1.087   3.532
 5695SOL     OW17983   1.352   2.402   3.790
 5695SOL    HW117984   1.273   2.363   3.837
 5695SOL    HW217985   1.323   2.441   3.703
 5696SOL     OW17986   3.277   1.198   4.967
 5696SOL    HW117987   3.356   1.170   5.022
 5696SOL    HW217988   3.308   1.225   4.876
 5697SOL     OW17989   6.989   2.316   0.870
 5697SOL    HW117990   6.992   2.234   0.814
 5697SOL    HW217991   6.923   2.303   0.944
 5698SOL     OW17992   0.238   2.293   2.311
 5698SOL    HW117993   0.326   2.257   2.340
 5698SOL    HW217994   0.237   2.392   2.322
 5699SOL     OW17995   6.416   1.222   4.055
 5699SOL    HW117996   6.318   1.205   4.064
 5699SOL    HW217997   6.432   1.318   4.030
 5700SOL     OW17998   1.158   6.266   4.337
 5700SOL    HW117999   1.122   6.333   4.272
 5700SOL    HW218000   1.252   6.290   4.361
 5701SOL     OW18001   0.481   5.858   2.910
 5701SOL    HW118002   0.523   5.806   2.836
 5701SOL    HW218003   0.418   5.800   2.960
 5702SOL     OW18004   1.600   0.053   5.883
 5702SOL    HW118005   1.647   0.101   5.958
 5702SOL    HW218006   1.666   0.033   5.811
 5703SOL     OW18007   4.630   5.150   6.820
 5703SOL    HW118008   4.620   5.212   6.897
 5703SOL    HW218009   4.575   5.068   6.835
 5704SOL     OW18010   4.565   5.583   3.054
 5704SOL    HW118011   4.619   5.504   3.028
 5704SOL    HW218012   4.540   5.636   2.973
 5705SOL     OW18013   5.934   0.980   0.993
 5705SOL    HW118014   5.972   0.925   1.067
 5705SOL    HW218015   5.948   1.077   1.013
 5706SOL     OW18016   1.526   1.885   0.184
 5706SOL    HW118017   1.504   1.823   0.260
 5706SOL    HW218018   1.451   1.949   0.171
 5707SOL     OW18019   1.198   6.969   6.583
 5707SOL    HW118020   1.144   6.938   6.505
 5707SOL    HW218021   1.144   0.017   6.638
 5708SOL     OW18022   5.304   0.023   2.393
 5708SOL    HW118023   5.392   6.990   2.395
 5708SOL    HW218024   5.237   6.985   2.445
 5709SOL     OW18025   0.555   6.467   3.249
 5709SOL    HW118026   0.517   6.469   3.157
 5709SOL    HW218027   0.510   6.537   3.305
 5710SOL     OW18028   2.913   3.611   6.018
 5710SOL    HW118029   2.920   3.676   5.942
 5710SOL    HW218030   2.880   3.523   5.984
 5711SOL     OW18031   4.746   1.055   3.932
 5711SOL    HW118032   4.773   0.989   3.862
 5711SOL    HW218033   4.762   1.148   3.898
 5712SOL     OW18034   0.209   0.040   5.668
 5712SOL    HW118035   0.138   0.111   5.676
 5712SOL    HW218036   0.224   7.013   5.758
 5713SOL     OW18037   0.159   2.479   1.881
 5713SOL    HW118038   0.192   2.413   1.813
 5713SOL    HW218039   0.060   2.489   1.872
 5714SOL     OW18040   1.398   6.996   0.094
 5714SOL    HW118041   1.318   6.956   0.138
 5714SOL    HW218042   1.387   6.993   7.010
 5715SOL     OW18043   0.924   6.128   3.060
 5715SOL    HW118044   0.904   6.061   2.988
 5715SOL    HW218045   1.013   6.170   3.043
 5716SOL     OW18046   1.559   4.264   5.754
 5716SOL    HW118047   1.471   4.258   5.802
 5716SOL    HW218048   1.600   4.354   5.770
 5717SOL     OW18049   1.545   4.883   1.102
 5717SOL    HW118050   1.595   4.905   1.018
 5717SOL    HW218051   1.464   4.941   1.109
 5718SOL     OW18052   1.943   4.659   0.105
 5718SOL    HW118053   2.034   4.666   0.146
 5718SOL    HW218054   1.893   4.744   0.121
 5719SOL     OW18055   2.632   0.856   5.672
 5719SOL    HW118056   2.705   0.838   5.606
 5719SOL    HW218057   2.644   0.798   5.752
 5720SOL     OW18058   0.176   5.151   4.838
 5720SOL    HW118059   0.142   5.244   4.829
 5720SOL    HW218060   0.218   5.122   4.752
 5721SOL     OW18061   1.005   3.800   0.009
 5721SOL    HW118062   0.928   3.755   6.978
 5721SOL    HW218063   1.085   3.797   6.965
 5722SOL     OW18064   5.610   0.956   4.867
 5722SOL    HW118065   5.549   1.031   4.893
 5722SOL    HW218066   5.568   0.903   4.793
 5723SOL     OW18067   3.889   4.727   0.897
 5723SOL    HW118068   3.988   4.716   0.900
 5723SOL    HW218069   3.860   4.736   0.802
 5724SOL     OW18070   4.067   2.138   6.001
 5724SOL    HW118071   4.028   2.224   5.968
 5724SOL    HW218072   4.104   2.151   6.093
 5725SOL     OW18073   5.277   5.738   3.594
 5725SOL    HW118074   5.327   5.665   3.641
 5725SOL    HW218075   5.255   5.709   3.501
 5726SOL     OW18076   6.207   3.609   4.858
 5726SOL    HW118077   6.190   3.699   4.899
 5726SOL    HW218078   6.260   3.621   4.774
 5727SOL     OW18079   5.617   2.745   3.111
 5727SOL    HW118080   5.586   2.732   3.017
 5727SOL    HW218081   5.538   2.760   3.171
 5728SOL     OW18082   5.790   0.797   6.056
 5728SOL    HW118083   5.814   0.844   5.971
 5728SOL    HW218084   5.828   0.847   6.134
 5729SOL     OW18085   0.328   1.719   0.472
 5729SOL    HW118086   0.269   1.685   0.545
 5729SOL    HW218087   0.420   1.680   0.483
 5730SOL     OW18088   3.638   5.728   5.293
 5730SOL    HW118089   3.728   5.763   5.319
 5730SOL    HW218090   3.640   5.628   5.292
 5731SOL     OW18091   1.236   6.671   3.926
 5731SOL    HW118092   1.181   6.718   3.858
 5731SOL    HW218093   1.296   6.736   3.972
 5732SOL     OW18094   6.212   5.017   4.454
 5732SOL    HW118095   6.170   5.101   4.488
 5732SOL    HW218096   6.310   5.030   4.446
 5733SOL     OW18097   3.595   0.764   6.509
 5733SOL    HW118098   3.541   0.731   6.587
 5733SOL    HW218099   3.626   0.686   6.454
 5734SOL     OW18100   1.199   6.908   5.365
 5734SOL    HW118101   1.271   6.977   5.365
 5734SOL    HW218102   1.183   6.876   5.458
 5735SOL     OW18103   3.788   1.062   1.914
 5735SOL    HW118104   3.823   1.136   1.856
 5735SOL    HW218105   3.719   1.098   1.976
 5736SOL     OW18106   5.283   4.424   6.229
 5736SOL    HW118107   5.209   4.484   6.259
 5736SOL    HW218108   5.260   4.385   6.140
 5737SOL     OW18109   5.157   6.409   1.246
 5737SOL    HW118110   5.229   6.465   1.286
 5737SOL    HW218111   5.108   6.359   1.319
 5738SOL     OW18112   3.672   1.090   6.477
 5738SOL    HW118113   3.690   1.055   6.569
 5738SOL    HW218114   3.664   1.189   6.479
 5739SOL     OW18115   1.808   6.562   5.610
 5739SOL    HW118116   1.863   6.481   5.589
 5739SOL    HW218117   1.726   6.534   5.659
 5740SOL     OW18118   4.625   3.434   1.084
 5740SOL    HW118119   4.562   3.508   1.064
 5740SOL    HW218120   4.622   3.366   1.010
 5741SOL     OW18121   0.887   3.670   3.794
 5741SOL    HW118122   0.954   3.632   3.857
 5741SOL    HW218123   0.796   3.637   3.817
 5742SOL     OW18124   3.791   6.681   3.771
 5742SOL    HW118125   3.862   6.713   3.834
 5742SOL    HW218126   3.715   6.642   3.824
 5743SOL     OW18127   3.720   4.851   6.060
 5743SOL    HW118128   3.699   4.860   6.157
 5743SOL    HW218129   3.649   4.798   6.015
 5744SOL     OW18130   6.089   0.523   3.060
 5744SOL    HW118131   6.102   0.622   3.066
 5744SOL    HW218132   6.176   0.480   3.034
 5745SOL     OW18133   2.530   2.468   3.503
 5745SOL    HW118134   2.513   2.545   3.565
 5745SOL    HW218135   2.553   2.387   3.556
 5746SOL     OW18136   3.912   0.212   3.700
 5746SOL    HW118137   3.870   0.153   3.769
 5746SOL    HW218138   3.988   0.263   3.741
 5747SOL     OW18139   0.917   6.178   1.931
 5747SOL    HW118140   0.938   6.106   1.865
 5747SOL    HW218141   0.965   6.160   2.017
 5748SOL     OW18142   0.646   6.431   0.751
 5748SOL    HW118143   0.727   6.424   0.808
 5748SOL    HW218144   0.651   6.514   0.695
 5749SOL     OW18145   2.230   6.710   4.805
 5749SOL    HW118146   2.203   6.800   4.769
 5749SOL    HW218147   2.149   6.659   4.834
 5750SOL     OW18148   6.802   4.386   4.908
 5750SOL    HW118149   6.795   4.457   4.978
 5750SOL    HW218150   6.760   4.302   4.942
 5751SOL     OW18151   1.624   3.296   4.696
 5751SOL    HW118152   1.698   3.362   4.705
 5751SOL    HW218153   1.564   3.322   4.620
 5752SOL     OW18154   5.712   0.328   1.389
 5752SOL    HW118155   5.752   0.243   1.423
 5752SOL    HW218156   5.692   0.389   1.465
 5753SOL     OW18157   2.932   3.927   5.074
 5753SOL    HW118158   3.004   3.991   5.101
 5753SOL    HW218159   2.912   3.939   4.977
 5754SOL     OW18160   1.601   6.006   2.271
 5754SOL    HW118161   1.593   6.099   2.308
 5754SOL    HW218162   1.514   5.958   2.283
 5755SOL     OW18163   1.813   1.863   6.064
 5755SOL    HW118164   1.802   1.845   5.966
 5755SOL    HW218165   1.887   1.807   6.100
 5756SOL     OW18166   6.523   0.135   2.254
 5756SOL    HW118167   6.529   0.050   2.306
 5756SOL    HW218168   6.491   0.209   2.313
 5757SOL     OW18169   0.255   5.683   4.043
 5757SOL    HW118170   0.176   5.694   3.982
 5757SOL    HW218171   0.223   5.654   4.133
 5758SOL     OW18172   2.338   0.011   3.502
 5758SOL    HW118173   2.400   0.089   3.505
 5758SOL    HW218174   2.388   6.945   3.473
 5759SOL     OW18175   4.741   6.774   1.779
 5759SOL    HW118176   4.665   6.756   1.841
 5759SOL    HW218177   4.769   6.870   1.789
 5760SOL     OW18178   6.629   3.366   2.297
 5760SOL    HW118179   6.633   3.380   2.198
 5760SOL    HW218180   6.671   3.279   2.320
 5761SOL     OW18181   5.019   5.896   5.082
 5761SOL    HW118182   5.045   5.800   5.074
 5761SOL    HW218183   4.921   5.902   5.103
 5762SOL     OW18184   4.349   4.460   0.562
 5762SOL    HW118185   4.418   4.404   0.607
 5762SOL    HW218186   4.380   4.484   0.471
 5763SOL     OW18187   5.304   6.358   0.328
 5763SOL    HW118188   5.325   6.278   0.384
 5763SOL    HW218189   5.376   6.372   0.261
 5764SOL     OW18190   4.294   5.290   3.205
 5764SOL    HW118191   4.212   5.285   3.148
 5764SOL    HW218192   4.274   5.342   3.288
 5765SOL     OW18193   6.607   3.842   0.833
 5765SOL    HW118194   6.643   3.920   0.884
 5765SOL    HW218195   6.639   3.757   0.876
 5766SOL     OW18196   2.224   2.188   4.667
 5766SOL    HW118197   2.277   2.215   4.587
 5766SOL    HW218198   2.185   2.097   4.652
 5767SOL     OW18199   2.273   0.046   6.915
 5767SOL    HW118200   2.252   0.003   7.003
 5767SOL    HW218201   2.195   0.036   6.854
 5768SOL     OW18202   6.768   6.898   3.609
 5768SOL    HW118203   6.725   6.987   3.627
 5768SOL    HW218204   6.820   6.903   3.524
 5769SOL     OW18205   2.603   5.147   5.465
 5769SOL    HW118206   2.636   5.153   5.371
 5769SOL    HW218207   2.505   5.166   5.467
 5770SOL     OW18208   0.534   6.277   0.067
 5770SOL    HW118209   0.482   6.292   0.152
 5770SOL    HW218210   0.565   6.365   0.031
 5771SOL     OW18211   1.632   0.390   4.099
 5771SOL    HW118212   1.595   0.445   4.024
 5771SOL    HW218213   1.725   0.362   4.076
 5772SOL     OW18214   4.593   1.317   1.554
 5772SOL    HW118215   4.500   1.346   1.576
 5772SOL    HW218216   4.654   1.396   1.560
 5773SOL     OW18217   4.293   1.082   2.351
 5773SOL    HW118218   4.371   1.094   2.289
 5773SOL    HW218219   4.251   0.993   2.333
 5774SOL     OW18220   1.693   0.911   4.482
 5774SOL    HW118221   1.626   0.899   4.408
 5774SOL    HW218222   1.783   0.879   4.451
 5775SOL     OW18223   1.352   6.074   2.730
 5775SOL    HW118224   1.254   6.080   2.710
 5775SOL    HW218225   1.390   5.994   2.685
 5776SOL     OW18226   1.337   0.390   3.402
 5776SOL    HW118227   1.262   0.420   3.345
 5776SOL    HW218228   1.411   0.458   3.400
 5777SOL     OW18229   1.037   0.433   3.511
 5777SOL    HW118230   1.006   0.417   3.417
 5777SOL    HW218231   1.026   0.530   3.533
 5778SOL     OW18232   1.835   0.760   0.127
 5778SOL    HW118233   1.745   0.801   0.111
 5778SOL    HW218234   1.872   0.726   0.041
 5779SOL     OW18235   4.845   2.412   6.921
 5779SOL    HW118236   4.777   2.479   6.891
 5779SOL    HW218237   4.936   2.441   6.891
 5780SOL     OW18238   5.264   5.866   4.892
 5780SOL    HW118239   5.215   5.867   4.805
 5780SOL    HW218240   5.198   5.864   4.967
 5781SOL     OW18241   6.451   4.133   4.822
 5781SOL    HW118242   6.526   4.185   4.780
 5781SOL    HW218243   6.484   4.042   4.846
 5782SOL     OW18244   1.309   1.511   0.287
 5782SOL    HW118245   1.329   1.424   0.241
 5782SOL    HW218246   1.226   1.502   0.342
 5783SOL     OW18247   0.979   0.948   2.486
 5783SOL    HW118248   1.034   0.864   2.482
 5783SOL    HW218249   1.025   1.015   2.544
 5784SOL     OW18250   0.524   6.385   6.706
 5784SOL    HW118251   0.543   6.366   6.803
 5784SOL    HW218252   0.558   6.309   6.650
 5785SOL     OW18253   1.914   1.817   0.174
 5785SOL    HW118254   1.855   1.898   0.169
 5785SOL    HW218255   1.878   1.754   0.242
 5786SOL     OW18256   0.011   4.395   0.717
 5786SOL    HW118257   6.947   4.416   0.774
 5786SOL    HW218258   0.029   4.296   0.721
 5787SOL     OW18259   2.227   2.051   5.323
 5787SOL    HW118260   2.274   2.045   5.235
 5787SOL    HW218261   2.289   2.087   5.392
 5788SOL     OW18262   2.808   1.423   2.645
 5788SOL    HW118263   2.892   1.400   2.596
 5788SOL    HW218264   2.829   1.446   2.740
 5789SOL     OW18265   3.695   4.509   6.748
 5789SOL    HW118266   3.644   4.527   6.664
 5789SOL    HW218267   3.641   4.539   6.827
 5790SOL     OW18268   1.725   3.832   4.168
 5790SOL    HW118269   1.739   3.825   4.266
 5790SOL    HW218270   1.756   3.748   4.123
 5791SOL     OW18271   4.239   0.384   1.756
 5791SOL    HW118272   4.285   0.430   1.681
 5791SOL    HW218273   4.147   0.422   1.768
 5792SOL     OW18274   6.614   2.518   2.619
 5792SOL    HW118275   6.704   2.477   2.632
 5792SOL    HW218276   6.589   2.572   2.699
 5793SOL     OW18277   5.246   0.805   3.594
 5793SOL    HW118278   5.266   0.890   3.641
 5793SOL    HW218279   5.291   0.804   3.505
 5794SOL     OW18280   4.095   1.884   0.521
 5794SOL    HW118281   4.012   1.873   0.465
 5794SOL    HW218282   4.149   1.959   0.484
 5795SOL     OW18283   6.654   5.114   6.471
 5795SOL    HW118284   6.671   5.015   6.467
 5795SOL    HW218285   6.606   5.136   6.556
 5796SOL     OW18286   3.820   0.781   6.794
 5796SOL    HW118287   3.911   0.807   6.760
 5796SOL    HW218288   3.829   0.722   6.874
 5797SOL     OW18289   4.299   1.954   5.333
 5797SOL    HW118290   4.328   1.951   5.429
 5797SOL    HW218291   4.203   1.983   5.329
 5798SOL     OW18292   0.916   4.416   5.379
 5798SOL    HW118293   0.884   4.447   5.290
 5798SOL    HW218294   0.849   4.440   5.449
 5799SOL     OW18295   5.427   1.419   3.762
 5799SOL    HW118296   5.331   1.413   3.738
 5799SOL    HW218297   5.484   1.407   3.680
 5800SOL     OW18298   5.891   6.116   0.784
 5800SOL    HW118299   5.880   6.198   0.840
 5800SOL    HW218300   5.923   6.040   0.841
 5801SOL     OW18301   1.292   2.411   4.493
 5801SOL    HW118302   1.274   2.501   4.454
 5801SOL    HW218303   1.386   2.384   4.473
 5802SOL     OW18304   0.909   4.414   0.490
 5802SOL    HW118305   0.854   4.398   0.408
 5802SOL    HW218306   0.941   4.327   0.526
 5803SOL     OW18307   1.168   4.304   2.251
 5803SOL    HW118308   1.228   4.277   2.176
 5803SOL    HW218309   1.073   4.306   2.219
 5804SOL     OW18310   6.682   4.899   3.839
 5804SOL    HW118311   6.716   4.808   3.812
 5804SOL    HW218312   6.603   4.888   3.898
 5805SOL     OW18313   2.990   3.358   6.151
 5805SOL    HW118314   2.897   3.395   6.159
 5805SOL    HW218315   2.987   3.258   6.163
 5806SOL     OW18316   6.852   5.989   5.428
 5806SOL    HW118317   6.952   5.994   5.437
 5806SOL    HW218318   6.826   6.004   5.333
 5807SOL     OW18319   1.458   3.641   2.000
 5807SOL    HW118320   1.388   3.615   1.934
 5807SOL    HW218321   1.466   3.740   2.004
 5808SOL     OW18322   6.216   4.169   3.981
 5808SOL    HW118323   6.309   4.139   3.963
 5808SOL    HW218324   6.186   4.135   4.070
 5809SOL     OW18325   0.131   2.218   4.753
 5809SOL    HW118326   0.052   2.264   4.793
 5809SOL    HW218327   0.126   2.120   4.774
 5810SOL     OW18328   3.323   1.298   4.069
 5810SOL    HW118329   3.318   1.384   4.119
 5810SOL    HW218330   3.415   1.260   4.078
 5811SOL     OW18331   2.691   7.007   5.586
 5811SOL    HW118332   2.710   6.912   5.559
 5811SOL    HW218333   2.776   0.044   5.583
 5812SOL     OW18334   5.827   0.703   4.298
 5812SOL    HW118335   5.809   0.769   4.371
 5812SOL    HW218336   5.913   0.725   4.253
 5813SOL     OW18337   1.268   1.283   0.675
 5813SOL    HW118338   1.189   1.231   0.708
 5813SOL    HW218339   1.338   1.219   0.641
 5814SOL     OW18340   6.397   4.873   1.063
 5814SOL    HW118341   6.394   4.944   0.992
 5814SOL    HW218342   6.319   4.811   1.051
 5815SOL     OW18343   4.640   2.670   3.774
 5815SOL    HW118344   4.720   2.627   3.732
 5815SOL    HW218345   4.669   2.745   3.833
 5816SOL     OW18346   4.818   5.565   0.044
 5816SOL    HW118347   4.816   5.524   0.135
 5816SOL    HW218348   4.729   5.607   0.024
 5817SOL     OW18349   5.336   3.553   5.666
 5817SOL    HW118350   5.375   3.579   5.755
 5817SOL    HW218351   5.410   3.533   5.602
 5818SOL     OW18352   6.460   6.261   4.814
 5818SOL    HW118353   6.413   6.179   4.849
 5818SOL    HW218354   6.426   6.281   4.722
 5819SOL     OW18355   4.385   0.316   6.226
 5819SOL    HW118356   4.471   0.283   6.264
 5819SOL    HW218357   4.337   0.372   6.293
 5820SOL     OW18358   4.338   6.018   3.833
 5820SOL    HW118359   4.297   6.078   3.901
 5820SOL    HW218360   4.300   5.926   3.842
 5821SOL     OW18361   0.428   0.153   2.519
 5821SOL    HW118362   0.509   0.136   2.575
 5821SOL    HW218363   0.395   0.246   2.535
 5822SOL     OW18364   0.018   2.687   2.571
 5822SOL    HW118365   0.110   2.654   2.593
 5822SOL    HW218366   6.966   2.630   2.617
 5823SOL     OW18367   0.747   0.947   6.011
 5823SOL    HW118368   0.806   0.890   6.068
 5823SOL    HW218369   0.677   0.889   5.968
 5824SOL     OW18370   6.856   5.599   2.646
 5824SOL    HW118371   6.938   5.656   2.639
 5824SOL    HW218372   6.786   5.634   2.584
 5825SOL     OW18373   2.567   2.121   5.346
 5825SOL    HW118374   2.619   2.178   5.281
 5825SOL    HW218375   2.563   2.027   5.311
 5826SOL     OW18376   6.821   4.954   5.172
 5826SOL    HW118377   6.779   5.033   5.216
 5826SOL    HW218378   6.835   4.972   5.075
 5827SOL     OW18379   2.226   4.974   4.767
 5827SOL    HW118380   2.170   4.895   4.790
 5827SOL    HW218381   2.174   5.036   4.708
 5828SOL     OW18382   6.722   3.317   1.594
 5828SOL    HW118383   6.791   3.311   1.522
 5828SOL    HW218384   6.634   3.286   1.558
 5829SOL     OW18385   2.732   1.726   2.786
 5829SOL    HW118386   2.730   1.826   2.783
 5829SOL    HW218387   2.814   1.693   2.739
 5830SOL     OW18388   4.519   0.056   5.578
 5830SOL    HW118389   4.555   0.118   5.648
 5830SOL    HW218390   4.579   0.057   5.498
 5831SOL     OW18391   0.033   0.343   4.073
 5831SOL    HW118392   6.971   0.280   4.071
 5831SOL    HW218393   0.034   0.399   3.990
 5832SOL     OW18394   3.790   4.648   5.795
 5832SOL    HW118395   3.700   4.668   5.833
 5832SOL    HW218396   3.785   4.647   5.695
 5833SOL     OW18397   4.165   3.225   5.261
 5833SOL    HW118398   4.214   3.312   5.264
 5833SOL    HW218399   4.102   3.225   5.183
 5834SOL     OW18400   6.007   2.434   0.299
 5834SOL    HW118401   6.024   2.498   0.224
 5834SOL    HW218402   6.007   2.483   0.386
 5835SOL     OW18403   4.886   3.541   3.176
 5835SOL    HW118404   4.916   3.634   3.151
 5835SOL    HW218405   4.891   3.482   3.095
 5836SOL     OW18406   2.756   6.702   2.826
 5836SOL    HW118407   2.679   6.653   2.784
 5836SOL    HW218408   2.837   6.643   2.824
 5837SOL     OW18409   4.354   5.356   5.673
 5837SOL    HW118410   4.277   5.419   5.663
 5837SOL    HW218411   4.397   5.341   5.584
 5838SOL     OW18412   2.673   1.345   5.781
 5838SOL    HW118413   2.639   1.254   5.801
 5838SOL    HW218414   2.613   1.413   5.824
 5839SOL     OW18415   0.174   2.129   2.536
 5839SOL    HW118416   0.083   2.143   2.575
 5839SOL    HW218417   0.203   2.212   2.488
 5840SOL     OW18418   1.351   5.338   0.064
 5840SOL    HW118419   1.352   5.244   0.029
 5840SOL    HW218420   1.316   5.399   7.009
 5841SOL     OW18421   5.101   1.715   2.799
 5841SOL    HW118422   5.038   1.784   2.764
 5841SOL    HW218423   5.187   1.719   2.747
 5842SOL     OW18424   4.513   3.030   1.418
 5842SOL    HW118425   4.474   3.062   1.332
 5842SOL    HW218426   4.592   2.972   1.400
 5843SOL     OW18427   2.154   3.872   2.128
 5843SOL    HW118428   2.246   3.836   2.115
 5843SOL    HW218429   2.106   3.818   2.197
 5844SOL     OW18430   0.795   6.465   5.726
 5844SOL    HW118431   0.748   6.552   5.742
 5844SOL    HW218432   0.883   6.482   5.683
 5845SOL     OW18433   0.785   0.275   2.686
 5845SOL    HW118434   0.784   0.346   2.757
 5845SOL    HW218435   0.839   0.306   2.608
 5846SOL     OW18436   6.177   3.229   3.946
 5846SOL    HW118437   6.163   3.231   4.045
 5846SOL    HW218438   6.240   3.156   3.922
 5847SOL     OW18439   1.804   1.890   2.157
 5847SOL    HW118440   1.883   1.847   2.114
 5847SOL    HW218441   1.812   1.990   2.148
 5848SOL     OW18442   2.564   5.216   3.194
 5848SOL    HW118443   2.566   5.200   3.293
 5848SOL    HW218444   2.487   5.166   3.154
 5849SOL     OW18445   6.910   0.382   6.839
 5849SOL    HW118446   6.811   0.391   6.831
 5849SOL    HW218447   6.933   0.286   6.860
 5850SOL     OW18448   0.854   3.904   1.834
 5850SOL    HW118449   0.938   3.863   1.798
 5850SOL    HW218450   0.791   3.924   1.759
 5851SOL     OW18451   4.969   3.148   2.756
 5851SOL    HW118452   5.060   3.112   2.735
 5851SOL    HW218453   4.915   3.077   2.801
 5852SOL     OW18454   4.676   6.896   3.428
 5852SOL    HW118455   4.577   6.910   3.428
 5852SOL    HW218456   4.720   6.966   3.372
 5853SOL     OW18457   3.198   5.614   4.396
 5853SOL    HW118458   3.162   5.521   4.395
 5853SOL    HW218459   3.193   5.651   4.489
 5854SOL     OW18460   6.439   4.241   5.580
 5854SOL    HW118461   6.518   4.251   5.639
 5854SOL    HW218462   6.356   4.267   5.629
 5855SOL     OW18463   0.144   0.508   4.881
 5855SOL    HW118464   0.075   0.544   4.943
 5855SOL    HW218465   0.231   0.556   4.896
 5856SOL     OW18466   1.828   6.293   3.930
 5856SOL    HW118467   1.842   6.217   3.867
 5856SOL    HW218468   1.915   6.317   3.973
 5857SOL     OW18469   6.017   2.912   5.256
 5857SOL    HW118470   5.977   2.844   5.318
 5857SOL    HW218471   6.002   3.003   5.293
 5858SOL     OW18472   2.632   2.311   2.134
 5858SOL    HW118473   2.611   2.256   2.054
 5858SOL    HW218474   2.727   2.343   2.128
 5859SOL     OW18475   5.812   6.904   1.397
 5859SOL    HW118476   5.797   6.849   1.479
 5859SOL    HW218477   5.904   6.944   1.400
 5860SOL     OW18478   2.024   3.640   1.642
 5860SOL    HW118479   2.069   3.702   1.706
 5860SOL    HW218480   1.973   3.570   1.693
 5861SOL     OW18481   4.952   1.682   4.360
 5861SOL    HW118482   4.870   1.648   4.314
 5861SOL    HW218483   4.954   1.647   4.454
 5862SOL     OW18484   5.256   4.974   3.400
 5862SOL    HW118485   5.286   5.066   3.424
 5862SOL    HW218486   5.318   4.907   3.440
 5863SOL     OW18487   2.914   0.983   4.669
 5863SOL    HW118488   2.944   0.892   4.697
 5863SOL    HW218489   2.945   1.050   4.736
 5864SOL     OW18490   3.967   3.480   1.911
 5864SOL    HW118491   3.905   3.425   1.855
 5864SOL    HW218492   4.013   3.420   1.977
 5865SOL     OW18493   5.710   0.244   4.758
 5865SOL    HW118494   5.695   0.330   4.709
 5865SOL    HW218495   5.745   0.264   4.850
 5866SOL     OW18496   4.386   5.849   6.711
 5866SOL    HW118497   4.403   5.844   6.809
 5866SOL    HW218498   4.455   5.906   6.668
 5867SOL     OW18499   0.249   3.960   1.133
 5867SOL    HW118500   0.300   3.875   1.123
 5867SOL    HW218501   0.152   3.943   1.117
 5868SOL     OW18502   0.222   0.696   5.507
 5868SOL    HW118503   0.212   0.684   5.408
 5868SOL    HW218504   0.158   0.635   5.554
 5869SOL     OW18505   2.737   5.670   3.239
 5869SOL    HW118506   2.777   5.756   3.207
 5869SOL    HW218507   2.640   5.684   3.260
 5870SOL     OW18508   4.834   5.741   4.572
 5870SOL    HW118509   4.775   5.773   4.498
 5870SOL    HW218510   4.892   5.816   4.603
 5871SOL     OW18511   4.278   3.342   0.394
 5871SOL    HW118512   4.204   3.274   0.390
 5871SOL    HW218513   4.330   3.330   0.479
 5872SOL     OW18514   3.849   5.109   6.847
 5872SOL    HW118515   3.835   5.208   6.857
 5872SOL    HW218516   3.939   5.092   6.809
 5873SOL     OW18517   2.164   2.578   0.905
 5873SOL    HW118518   2.127   2.510   0.968
 5873SOL    HW218519   2.254   2.549   0.873
 5874SOL     OW18520   2.853   3.042   1.177
 5874SOL    HW118521   2.781   2.979   1.208
 5874SOL    HW218522   2.942   3.009   1.208
 5875SOL     OW18523   3.862   1.152   1.473
 5875SOL    HW118524   3.777   1.185   1.514
 5875SOL    HW218525   3.882   1.061   1.508
 5876SOL     OW18526   2.796   3.123   6.882
 5876SOL    HW118527   2.757   3.163   6.965
 5876SOL    HW218528   2.855   3.046   6.907
 5877SOL     OW18529   0.000   0.017   1.123
 5877SOL    HW118530   7.013   7.006   1.027
 5877SOL    HW218531   6.936   6.994   1.170
 5878SOL     OW18532   5.029   5.002   3.225
 5878SOL    HW118533   5.088   4.982   3.303
 5878SOL    HW218534   5.037   4.929   3.157
 5879SOL     OW18535   2.535   3.635   6.212
 5879SOL    HW118536   2.503   3.688   6.134
 5879SOL    HW218537   2.488   3.665   6.295
 5880SOL     OW18538   4.660   4.352   6.687
 5880SOL    HW118539   4.560   4.355   6.693
 5880SOL    HW218540   4.689   4.372   6.594
 5881SOL     OW18541   1.568   0.290   2.297
 5881SOL    HW118542   1.481   0.271   2.342
 5881SOL    HW218543   1.557   0.283   2.198
 5882SOL     OW18544   0.741   6.259   5.576
 5882SOL    HW118545   0.643   6.240   5.568
 5882SOL    HW218546   0.755   6.331   5.645
 5883SOL     OW18547   0.430   1.390   0.646
 5883SOL    HW118548   0.529   1.407   0.653
 5883SOL    HW218549   0.406   1.372   0.551
 5884SOL     OW18550   5.879   0.936   4.992
 5884SOL    HW118551   5.801   0.922   4.931
 5884SOL    HW218552   5.909   1.031   4.987
 5885SOL     OW18553   1.035   5.562   1.025
 5885SOL    HW118554   1.022   5.654   1.064
 5885SOL    HW218555   1.124   5.526   1.055
 5886SOL     OW18556   0.843   2.865   3.355
 5886SOL    HW118557   0.812   2.771   3.361
 5886SOL    HW218558   0.852   2.904   3.447
 5887SOL     OW18559   2.896   1.888   1.797
 5887SOL    HW118560   2.942   1.801   1.813
 5887SOL    HW218561   2.926   1.955   1.866
 5888SOL     OW18562   2.413   0.010   1.163
 5888SOL    HW118563   2.443   6.980   1.079
 5888SOL    HW218564   2.483   0.075   1.193
 5889SOL     OW18565   6.445   1.211   0.553
 5889SOL    HW118566   6.479   1.286   0.497
 5889SOL    HW218567   6.461   1.231   0.649
 5890SOL     OW18568   1.845   6.544   2.858
 5890SOL    HW118569   1.765   6.530   2.799
 5890SOL    HW218570   1.840   6.635   2.899
 5891SOL     OW18571   2.168   3.958   0.239
 5891SOL    HW118572   2.106   4.029   0.205
 5891SOL    HW218573   2.193   3.897   0.164
 5892SOL     OW18574   0.399   4.897   1.916
 5892SOL    HW118575   0.458   4.977   1.901
 5892SOL    HW218576   0.412   4.831   1.843
 5893SOL     OW18577   1.517   4.687   1.296
 5893SOL    HW118578   1.606   4.648   1.322
 5893SOL    HW218579   1.531   4.774   1.250
 5894SOL     OW18580   0.737   5.679   5.016
 5894SOL    HW118581   0.758   5.582   5.011
 5894SOL    HW218582   0.812   5.727   5.062
 5895SOL     OW18583   6.526   3.532   3.558
 5895SOL    HW118584   6.459   3.581   3.614
 5895SOL    HW218585   6.486   3.515   3.468
 5896SOL     OW18586   5.222   1.019   1.364
 5896SOL    HW118587   5.272   0.933   1.382
 5896SOL    HW218588   5.130   0.998   1.333
 5897SOL     OW18589   3.804   1.293   1.748
 5897SOL    HW118590   3.858   1.352   1.808
 5897SOL    HW218591   3.726   1.344   1.712
 5898SOL     OW18592   2.217   1.104   5.455
 5898SOL    HW118593   2.285   1.034   5.473
 5898SOL    HW218594   2.138   1.090   5.515
 5899SOL     OW18595   6.878   5.741   6.139
 5899SOL    HW118596   6.829   5.823   6.168
 5899SOL    HW218597   6.860   5.667   6.203
 5900SOL     OW18598   6.688   5.222   3.614
 5900SOL    HW118599   6.742   5.144   3.583
 5900SOL    HW218600   6.619   5.192   3.680
 5901SOL     OW18601   1.740   1.517   0.590
 5901SOL    HW118602   1.756   1.465   0.675
 5901SOL    HW218603   1.680   1.594   0.610
 5902SOL     OW18604   5.654   3.478   5.176
 5902SOL    HW118605   5.735   3.511   5.128
 5902SOL    HW218606   5.583   3.454   5.109
 5903SOL     OW18607   5.463   2.860   6.726
 5903SOL    HW118608   5.438   2.785   6.788
 5903SOL    HW218609   5.559   2.884   6.740
 5904SOL     OW18610   1.167   3.913   0.814
 5904SOL    HW118611   1.230   3.985   0.845
 5904SOL    HW218612   1.114   3.879   0.891
 5905SOL     OW18613   5.528   1.172   3.704
 5905SOL    HW118614   5.501   1.245   3.766
 5905SOL    HW218615   5.452   1.150   3.643
 5906SOL     OW18616   5.264   1.827   5.002
 5906SOL    HW118617   5.166   1.847   5.008
 5906SOL    HW218618   5.278   1.729   4.992
 5907SOL     OW18619   1.577   0.027   0.508
 5907SOL    HW118620   1.563   6.966   0.571
 5907SOL    HW218621   1.644   0.091   0.548
 5908SOL     OW18622   5.513   3.976   0.290
 5908SOL    HW118623   5.444   3.926   0.238
 5908SOL    HW218624   5.475   4.006   0.377
 5909SOL     OW18625   0.820   4.521   6.203
 5909SOL    HW118626   0.804   4.573   6.120
 5909SOL    HW218627   0.873   4.439   6.182
 5910SOL     OW18628   1.314   4.781   0.185
 5910SOL    HW118629   1.237   4.759   0.244
 5910SOL    HW218630   1.398   4.739   0.221
 5911SOL     OW18631   0.718   5.725   6.044
 5911SOL    HW118632   0.646   5.784   6.082
 5911SOL    HW218633   0.792   5.716   6.110
 5912SOL     OW18634   6.255   3.394   6.769
 5912SOL    HW118635   6.275   3.487   6.735
 5912SOL    HW218636   6.184   3.353   6.712
 5913SOL     OW18637   1.975   2.723   5.724
 5913SOL    HW118638   2.069   2.740   5.694
 5913SOL    HW218639   1.934   2.652   5.666
 5914SOL     OW18640   2.825   5.649   0.109
 5914SOL    HW118641   2.907   5.701   0.086
 5914SOL    HW218642   2.830   5.558   0.068
 5915SOL     OW18643   5.573   3.376   2.130
 5915SOL    HW118644   5.475   3.354   2.125
 5915SOL    HW218645   5.625   3.291   2.129
 5916SOL     OW18646   4.008   0.518   5.623
 5916SOL    HW118647   4.006   0.458   5.703
 5916SOL    HW218648   3.951   0.478   5.551
 5917SOL     OW18649   3.733   3.460   3.518
 5917SOL    HW118650   3.824   3.446   3.478
 5917SOL    HW218651   3.727   3.411   3.605
 5918SOL     OW18652   2.107   3.715   4.763
 5918SOL    HW118653   2.013   3.696   4.791
 5918SOL    HW218654   2.167   3.711   4.842
 5919SOL     OW18655   3.218   1.603   6.812
 5919SOL    HW118656   3.308   1.606   6.768
 5919SOL    HW218657   3.158   1.541   6.761
 5920SOL     OW18658   3.787   6.889   0.142
 5920SOL    HW118659   3.745   6.926   0.059
 5920SOL    HW218660   3.733   6.918   0.222
 5921SOL     OW18661   3.553   5.056   5.581
 5921SOL    HW118662   3.600   5.106   5.654
 5921SOL    HW218663   3.614   4.987   5.543
 5922SOL     OW18664   6.371   5.058   3.539
 5922SOL    HW118665   6.426   5.097   3.612
 5922SOL    HW218666   6.347   5.130   3.473
 5923SOL     OW18667   6.185   1.220   2.753
 5923SOL    HW118668   6.204   1.170   2.837
 5923SOL    HW218669   6.129   1.300   2.774
 5924SOL     OW18670   6.197   2.861   5.047
 5924SOL    HW118671   6.177   2.900   4.957
 5924SOL    HW218672   6.141   2.906   5.116
 5925SOL     OW18673   4.354   6.770   2.802
 5925SOL    HW118674   4.433   6.732   2.755
 5925SOL    HW218675   4.292   6.695   2.828
 5926SOL     OW18676   3.346   5.051   1.590
 5926SOL    HW118677   3.253   5.014   1.590
 5926SOL    HW218678   3.407   4.988   1.542
 5927SOL     OW18679   2.250   4.345   2.231
 5927SOL    HW118680   2.281   4.381   2.143
 5927SOL    HW218681   2.204   4.257   2.216
 5928SOL     OW18682   2.845   0.511   2.754
 5928SOL    HW118683   2.895   0.571   2.817
 5928SOL    HW218684   2.907   0.439   2.721
 5929SOL     OW18685   0.670   6.179   5.988
 5929SOL    HW118686   0.675   6.194   5.889
 5929SOL    HW218687   0.693   6.084   6.008
 5930SOL     OW18688   6.082   1.693   3.775
 5930SOL    HW118689   6.037   1.718   3.690
 5930SOL    HW218690   6.177   1.723   3.773
 5931SOL     OW18691   5.396   4.888   2.641
 5931SOL    HW118692   5.343   4.834   2.707
 5931SOL    HW218693   5.487   4.849   2.632
 5932SOL     OW18694   2.603   6.420   0.844
 5932SOL    HW118695   2.577   6.337   0.894
 5932SOL    HW218696   2.618   6.494   0.909
 5933SOL     OW18697   6.685   5.127   2.087
 5933SOL    HW118698   6.618   5.059   2.058
 5933SOL    HW218699   6.665   5.156   2.181
 5934SOL     OW18700   3.430   3.879   3.650
 5934SOL    HW118701   3.405   3.803   3.589
 5934SOL    HW218702   3.370   3.957   3.631
 5935SOL     OW18703   3.849   3.130   4.710
 5935SOL    HW118704   3.760   3.174   4.720
 5935SOL    HW218705   3.897   3.171   4.632
 5936SOL     OW18706   4.499   3.587   6.665
 5936SOL    HW118707   4.489   3.488   6.667
 5936SOL    HW218708   4.455   3.627   6.746
 5937SOL     OW18709   0.498   4.254   2.009
 5937SOL    HW118710   0.403   4.253   2.040
 5937SOL    HW218711   0.552   4.189   2.063
 5938SOL     OW18712   1.166   5.160   3.950
 5938SOL    HW118713   1.142   5.237   4.009
 5938SOL    HW218714   1.213   5.090   4.004
 5939SOL     OW18715   3.193   0.518   3.219
 5939SOL    HW118716   3.094   0.524   3.214
 5939SOL    HW218717   3.228   0.479   3.133
 5940SOL     OW18718   4.283   6.819   2.258
 5940SOL    HW118719   4.242   6.841   2.346
 5940SOL    HW218720   4.374   6.780   2.272
 5941SOL     OW18721   6.215   4.535   2.036
 5941SOL    HW118722   6.212   4.483   2.121
 5941SOL    HW218723   6.245   4.475   1.962
 5942SOL     OW18724   4.783   2.633   6.546
 5942SOL    HW118725   4.749   2.701   6.481
 5942SOL    HW218726   4.778   2.542   6.506
 5943SOL     OW18727   3.177   5.866   0.235
 5943SOL    HW118728   3.132   5.841   0.149
 5943SOL    HW218729   3.271   5.834   0.234
 5944SOL     OW18730   5.775   1.758   1.626
 5944SOL    HW118731   5.873   1.780   1.628
 5944SOL    HW218732   5.746   1.727   1.716
 5945SOL     OW18733   0.043   5.468   5.460
 5945SOL    HW118734   0.135   5.503   5.442
 5945SOL    HW218735   7.009   5.458   5.374
 5946SOL     OW18736   3.352   3.379   5.695
 5946SOL    HW118737   3.424   3.432   5.649
 5946SOL    HW218738   3.394   3.312   5.756
 5947SOL     OW18739   3.903   2.977   1.924
 5947SOL    HW118740   3.991   3.017   1.899
 5947SOL    HW218741   3.913   2.924   2.008
 5948SOL     OW18742   4.069   5.269   3.044
 5948SOL    HW118743   4.046   5.213   2.965
 5948SOL    HW218744   4.094   5.361   3.013
 5949SOL     OW18745   3.985   3.701   0.878
 5949SOL    HW118746   3.992   3.650   0.793
 5949SOL    HW218747   3.892   3.735   0.889
 5950SOL     OW18748   5.154   3.252   5.200
 5950SOL    HW118749   5.226   3.321   5.209
 5950SOL    HW218750   5.183   3.167   5.244
 5951SOL     OW18751   0.544   6.301   4.875
 5951SOL    HW118752   0.472   6.359   4.913
 5951SOL    HW218753   0.529   6.206   4.903
 5952SOL     OW18754   5.901   6.508   4.202
 5952SOL    HW118755   5.945   6.444   4.264
 5952SOL    HW218756   5.810   6.531   4.237
 5953SOL     OW18757   6.922   2.850   5.617
 5953SOL    HW118758   6.880   2.923   5.562
 5953SOL    HW218759   6.987   2.891   5.681
 5954SOL     OW18760   0.084   4.630   5.649
 5954SOL    HW118761   0.008   4.682   5.610
 5954SOL    HW218762   0.119   4.566   5.581
 5955SOL     OW18763   6.283   5.975   2.238
 5955SOL    HW118764   6.271   6.060   2.287
 5955SOL    HW218765   6.245   5.899   2.291
 5956SOL     OW18766   3.344   1.776   0.595
 5956SOL    HW118767   3.259   1.725   0.587
 5956SOL    HW218768   3.334   1.865   0.550
 5957SOL     OW18769   4.589   6.952   5.893
 5957SOL    HW118770   4.603   6.897   5.811
 5957SOL    HW218771   4.531   0.015   5.872
 5958SOL     OW18772   5.453   6.672   2.873
 5958SOL    HW118773   5.448   6.746   2.806
 5958SOL    HW218774   5.527   6.690   2.938
 5959SOL     OW18775   3.395   1.696   5.728
 5959SOL    HW118776   3.375   1.738   5.817
 5959SOL    HW218777   3.363   1.756   5.655
 5960SOL     OW18778   3.295   6.870   4.232
 5960SOL    HW118779   3.268   6.789   4.283
 5960SOL    HW218780   3.338   6.936   4.293
 5961SOL     OW18781   4.552   1.183   3.679
 5961SOL    HW118782   4.516   1.110   3.738
 5961SOL    HW218783   4.476   1.241   3.649
 5962SOL     OW18784   5.208   5.967   2.054
 5962SOL    HW118785   5.177   6.060   2.036
 5962SOL    HW218786   5.129   5.907   2.068
 5963SOL     OW18787   3.988   3.067   4.310
 5963SOL    HW118788   3.979   3.067   4.211
 5963SOL    HW218789   4.054   2.997   4.338
 5964SOL     OW18790   0.464   5.329   5.929
 5964SOL    HW118791   0.524   5.399   5.889
 5964SOL    HW218792   0.508   5.289   6.009
 5965SOL     OW18793   1.935   1.940   5.808
 5965SOL    HW118794   1.920   2.038   5.821
 5965SOL    HW218795   1.994   1.906   5.880
 5966SOL     OW18796   2.788   5.142   5.679
 5966SOL    HW118797   2.695   5.175   5.699
 5966SOL    HW218798   2.787   5.092   5.593
 5967SOL     OW18799   4.308   6.122   2.107
 5967SOL    HW118800   4.284   6.094   2.014
 5967SOL    HW218801   4.240   6.086   2.171
 5968SOL     OW18802   5.940   1.730   3.250
 5968SOL    HW118803   5.859   1.786   3.267
 5968SOL    HW218804   6.014   1.789   3.216
 5969SOL     OW18805   6.249   1.809   5.387
 5969SOL    HW118806   6.209   1.846   5.303
 5969SOL    HW218807   6.256   1.882   5.455
 5970SOL     OW18808   0.152   4.780   2.432
 5970SOL    HW118809   0.150   4.696   2.487
 5970SOL    HW218810   0.182   4.758   2.339
 5971SOL     OW18811   2.529   0.181   3.199
 5971SOL    HW118812   2.626   0.190   3.223
 5971SOL    HW218813   2.509   0.241   3.121
 5972SOL     OW18814   4.393   6.189   0.737
 5972SOL    HW118815   4.406   6.202   0.639
 5972SOL    HW218816   4.341   6.266   0.775
 5973SOL     OW18817   2.119   5.228   2.896
 5973SOL    HW118818   2.116   5.256   2.992
 5973SOL    HW218819   2.099   5.130   2.889
 5974SOL     OW18820   5.450   4.070   6.098
 5974SOL    HW118821   5.542   4.107   6.088
 5974SOL    HW218822   5.417   4.086   6.191
 5975SOL     OW18823   3.667   1.872   0.700
 5975SOL    HW118824   3.609   1.944   0.662
 5975SOL    HW218825   3.763   1.895   0.684
 5976SOL     OW18826   2.847   3.576   5.230
 5976SOL    HW118827   2.790   3.522   5.292
 5976SOL    HW218828   2.872   3.662   5.275
 5977SOL     OW18829   1.604   4.835   1.742
 5977SOL    HW118830   1.618   4.923   1.788
 5977SOL    HW218831   1.678   4.820   1.677
 5978SOL     OW18832   5.680   5.153   3.080
 5978SOL    HW118833   5.624   5.236   3.076
 5978SOL    HW218834   5.626   5.079   3.121
 5979SOL     OW18835   6.828   0.662   3.099
 5979SOL    HW118836   6.855   0.663   3.003
 5979SOL    HW218837   6.729   0.663   3.106
 5980SOL     OW18838   3.523   3.833   6.602
 5980SOL    HW118839   3.510   3.863   6.508
 5980SOL    HW218840   3.446   3.866   6.658
 5981SOL     OW18841   6.569   1.702   2.038
 5981SOL    HW118842   6.651   1.690   2.094
 5981SOL    HW218843   6.488   1.696   2.096
 5982SOL     OW18844   6.240   1.862   6.621
 5982SOL    HW118845   6.282   1.913   6.696
 5982SOL    HW218846   6.169   1.919   6.578
 5983SOL     OW18847   2.533   1.759   4.452
 5983SOL    HW118848   2.585   1.793   4.530
 5983SOL    HW218849   2.481   1.678   4.480
 5984SOL     OW18850   0.131   0.114   4.409
 5984SOL    HW118851   0.208   0.173   4.434
 5984SOL    HW218852   0.054   0.132   4.471
 5985SOL     OW18853   5.437   2.977   4.655
 5985SOL    HW118854   5.371   2.945   4.587
 5985SOL    HW218855   5.480   2.898   4.699
 5986SOL     OW18856   3.080   3.084   4.595
 5986SOL    HW118857   3.160   3.043   4.552
 5986SOL    HW218858   3.076   3.059   4.691
 5987SOL     OW18859   4.357   1.467   5.278
 5987SOL    HW118860   4.370   1.566   5.266
 5987SOL    HW218861   4.294   1.452   5.355
 5988SOL     OW18862   4.512   5.790   4.855
 5988SOL    HW118863   4.588   5.728   4.837
 5988SOL    HW218864   4.547   5.883   4.867
 5989SOL     OW18865   2.528   6.252   6.576
 5989SOL    HW118866   2.505   6.315   6.650
 5989SOL    HW218867   2.488   6.286   6.490
 5990SOL     OW18868   3.741   4.006   0.595
 5990SOL    HW118869   3.783   4.096   0.600
 5990SOL    HW218870   3.781   3.955   0.518
 5991SOL     OW18871   4.436   4.688   5.195
 5991SOL    HW118872   4.395   4.775   5.168
 5991SOL    HW218873   4.405   4.616   5.132
 5992SOL     OW18874   3.920   0.702   3.939
 5992SOL    HW118875   3.909   0.678   4.036
 5992SOL    HW218876   3.870   0.637   3.883
 5993SOL     OW18877   3.655   6.851   5.971
 5993SOL    HW118878   3.674   6.754   5.983
 5993SOL    HW218879   3.655   6.897   6.060
 5994SOL     OW18880   6.284   2.327   1.846
 5994SOL    HW118881   6.353   2.399   1.855
 5994SOL    HW218882   6.195   2.369   1.831
 5995SOL     OW18883   6.560   5.400   1.736
 5995SOL    HW118884   6.571   5.304   1.762
 5995SOL    HW218885   6.608   5.417   1.650
 5996SOL     OW18886   0.634   5.517   6.986
 5996SOL    HW118887   0.728   5.505   0.004
 5996SOL    HW218888   0.608   5.613   6.994
 5997SOL     OW18889   0.833   6.521   2.635
 5997SOL    HW118890   0.851   6.616   2.660
 5997SOL    HW218891   0.735   6.503   2.641
 5998SOL     OW18892   5.197   2.700   2.454
 5998SOL    HW118893   5.224   2.631   2.522
 5998SOL    HW218894   5.197   2.659   2.363
 5999SOL     OW18895   1.032   2.194   2.657
 5999SOL    HW118896   1.038   2.288   2.690
 5999SOL    HW218897   0.952   2.149   2.697
 6000SOL     OW18898   4.409   5.689   1.849
 6000SOL    HW118899   4.320   5.666   1.887
 6000SOL    HW218900   4.482   5.659   1.911
 6001SOL     OW18901   0.683   4.210   6.353
 6001SOL    HW118902   0.660   4.291   6.300
 6001SOL    HW218903   0.661   4.128   6.300
 6002SOL     OW18904   0.593   6.454   1.618
 6002SOL    HW118905   0.551   6.489   1.534
 6002SOL    HW218906   0.541   6.487   1.697
 6003SOL     OW18907   6.068   2.681   4.656
 6003SOL    HW118908   6.142   2.676   4.722
 6003SOL    HW218909   5.982   2.657   4.701
 6004SOL     OW18910   0.084   4.396   3.467
 6004SOL    HW118911   0.141   4.372   3.388
 6004SOL    HW218912   7.004   4.371   3.448
 6005SOL     OW18913   4.218   5.094   4.730
 6005SOL    HW118914   4.164   5.014   4.756
 6005SOL    HW218915   4.180   5.135   4.647
 6006SOL     OW18916   3.664   6.799   6.894
 6006SOL    HW118917   3.628   6.725   6.951
 6006SOL    HW218918   3.640   6.780   6.798
 6007SOL     OW18919   4.920   3.129   3.740
 6007SOL    HW118920   4.931   3.145   3.838
 6007SOL    HW218921   5.009   3.110   3.699
 6008SOL     OW18922   2.568   5.575   6.220
 6008SOL    HW118923   2.559   5.609   6.126
 6008SOL    HW218924   2.663   5.547   6.236
 6009SOL     OW18925   3.131   1.366   4.642
 6009SOL    HW118926   3.156   1.452   4.598
 6009SOL    HW218927   3.203   1.298   4.625
 6010SOL     OW18928   2.353   4.511   2.034
 6010SOL    HW118929   2.443   4.537   2.069
 6010SOL    HW218930   2.361   4.483   1.938
 6011SOL     OW18931   5.109   2.570   2.193
 6011SOL    HW118932   5.154   2.572   2.104
 6011SOL    HW218933   5.066   2.658   2.211
 6012SOL     OW18934   6.992   2.087   0.330
 6012SOL    HW118935   6.960   2.180   0.315
 6012SOL    HW218936   0.004   2.075   0.426
 6013SOL     OW18937   5.162   1.452   3.145
 6013SOL    HW118938   5.106   1.375   3.176
 6013SOL    HW218939   5.206   1.429   3.058
 6014SOL     OW18940   5.021   1.204   0.649
 6014SOL    HW118941   5.056   1.287   0.606
 6014SOL    HW218942   5.041   1.206   0.747
 6015SOL     OW18943   5.955   2.454   5.818
 6015SOL    HW118944   5.941   2.455   5.719
 6015SOL    HW218945   5.967   2.548   5.851
 6016SOL     OW18946   0.577   1.703   6.691
 6016SOL    HW118947   0.670   1.666   6.691
 6016SOL    HW218948   0.548   1.723   6.784
 6017SOL     OW18949   6.509   5.185   2.592
 6017SOL    HW118950   6.593   5.229   2.625
 6017SOL    HW218951   6.438   5.254   2.580
 6018SOL     OW18952   3.570   2.613   0.313
 6018SOL    HW118953   3.508   2.642   0.241
 6018SOL    HW218954   3.658   2.660   0.302
 6019SOL     OW18955   4.842   1.833   4.048
 6019SOL    HW118956   4.868   1.762   4.113
 6019SOL    HW218957   4.743   1.840   4.045
 6020SOL     OW18958   1.680   6.308   2.003
 6020SOL    HW118959   1.595   6.347   1.968
 6020SOL    HW218960   1.737   6.381   2.042
 6021SOL     OW18961   4.545   6.887   2.618
 6021SOL    HW118962   4.594   6.953   2.561
 6021SOL    HW218963   4.461   6.928   2.653
 6022SOL     OW18964   4.329   0.700   4.854
 6022SOL    HW118965   4.289   0.649   4.778
 6022SOL    HW218966   4.287   0.790   4.859
 6023SOL     OW18967   5.523   1.394   3.120
 6023SOL    HW118968   5.556   1.475   3.073
 6023SOL    HW218969   5.558   1.392   3.213
 6024SOL     OW18970   0.295   4.460   2.893
 6024SOL    HW118971   0.388   4.479   2.925
 6024SOL    HW218972   0.239   4.542   2.904
 6025SOL     OW18973   4.101   0.516   2.290
 6025SOL    HW118974   4.053   0.503   2.376
 6025SOL    HW218975   4.134   0.428   2.256
 6026SOL     OW18976   0.337   4.094   4.169
 6026SOL    HW118977   0.363   4.105   4.265
 6026SOL    HW218978   0.383   4.164   4.114
 6027SOL     OW18979   1.865   3.971   5.277
 6027SOL    HW118980   1.917   3.887   5.263
 6027SOL    HW218981   1.928   4.048   5.288
 6028SOL     OW18982   1.100   3.789   0.279
 6028SOL    HW118983   1.085   3.786   0.180
 6028SOL    HW218984   1.197   3.801   0.298
 6029SOL     OW18985   1.987   6.679   6.821
 6029SOL    HW118986   2.032   6.698   6.733
 6029SOL    HW218987   1.958   6.584   6.823
 6030SOL     OW18988   2.791   0.187   3.240
 6030SOL    HW118989   2.862   0.237   3.290
 6030SOL    HW218990   2.809   0.193   3.142
 6031SOL     OW18991   4.493   5.373   4.463
 6031SOL    HW118992   4.468   5.277   4.477
 6031SOL    HW218993   4.537   5.409   4.545
 6032SOL     OW18994   1.796   3.451   2.275
 6032SOL    HW118995   1.886   3.476   2.239
 6032SOL    HW218996   1.744   3.401   2.205
 6033SOL     OW18997   2.348   2.741   2.884
 6033SOL    HW118998   2.446   2.726   2.896
 6033SOL    HW218999   2.304   2.656   2.855
 6034SOL     OW19000   1.931   5.330   4.493
 6034SOL    HW119001   2.028   5.305   4.499
 6034SOL    HW219002   1.921   5.417   4.445
 6035SOL     OW19003   6.334   1.623   4.216
 6035SOL    HW119004   6.420   1.604   4.262
 6035SOL    HW219005   6.258   1.611   4.280
 6036SOL     OW19006   0.116   6.674   4.625
 6036SOL    HW119007   0.102   6.698   4.528
 6036SOL    HW219008   0.131   6.757   4.678
 6037SOL     OW19009   4.957   5.150   6.379
 6037SOL    HW119010   4.934   5.114   6.469
 6037SOL    HW219011   4.981   5.247   6.387
 6038SOL     OW19012   1.034   3.188   5.896
 6038SOL    HW119013   1.087   3.267   5.926
 6038SOL    HW219014   1.093   3.107   5.895
 6039SOL     OW19015   3.113   3.120   3.272
 6039SOL    HW119016   3.089   3.093   3.365
 6039SOL    HW219017   3.184   3.059   3.236
 6040SOL     OW19018   0.507   1.830   5.978
 6040SOL    HW119019   0.427   1.855   6.032
 6040SOL    HW219020   0.574   1.904   5.981
 6041SOL     OW19021   1.597   1.651   6.156
 6041SOL    HW119022   1.683   1.603   6.140
 6041SOL    HW219023   1.615   1.745   6.182
 6042SOL     OW19024   5.818   5.246   1.967
 6042SOL    HW119025   5.740   5.219   2.022
 6042SOL    HW219026   5.888   5.174   1.970
 6043SOL     OW19027   1.090   5.139   4.939
 6043SOL    HW119028   0.999   5.151   4.977
 6043SOL    HW219029   1.089   5.063   4.873
 6044SOL     OW19030   0.765   1.980   0.944
 6044SOL    HW119031   0.759   2.022   1.035
 6044SOL    HW219032   0.685   1.922   0.929
 6045SOL     OW19033   5.734   5.419   1.180
 6045SOL    HW119034   5.817   5.462   1.217
 6045SOL    HW219035   5.750   5.394   1.084
 6046SOL     OW19036   2.709   2.079   0.716
 6046SOL    HW119037   2.701   2.143   0.639
 6046SOL    HW219038   2.632   2.093   0.778
 6047SOL     OW19039   6.338   1.804   3.461
 6047SOL    HW119040   6.290   1.725   3.423
 6047SOL    HW219041   6.345   1.794   3.560
 6048SOL     OW19042   4.373   6.805   3.210
 6048SOL    HW119043   4.392   6.748   3.290
 6048SOL    HW219044   4.329   6.750   3.139
 6049SOL     OW19045   5.364   3.680   6.296
 6049SOL    HW119046   5.439   3.687   6.361
 6049SOL    HW219047   5.286   3.635   6.340
 6050SOL     OW19048   3.808   3.971   5.900
 6050SOL    HW119049   3.856   3.927   5.824
 6050SOL    HW219050   3.722   3.922   5.918
 6051SOL     OW19051   2.507   2.026   3.376
 6051SOL    HW119052   2.492   2.102   3.312
 6051SOL    HW219053   2.467   1.942   3.339
 6052SOL     OW19054   6.595   6.636   0.678
 6052SOL    HW119055   6.596   6.563   0.610
 6052SOL    HW219056   6.515   6.625   0.737
 6053SOL     OW19057   3.730   0.243   6.610
 6053SOL    HW119058   3.631   0.235   6.599
 6053SOL    HW219059   3.751   0.255   6.707
 6054SOL     OW19060   2.460   3.836   0.810
 6054SOL    HW119061   2.546   3.790   0.830
 6054SOL    HW219062   2.420   3.798   0.727
 6055SOL     OW19063   5.600   0.636   6.353
 6055SOL    HW119064   5.685   0.679   6.385
 6055SOL    HW219065   5.558   0.694   6.283
 6056SOL     OW19066   4.939   2.281   4.665
 6056SOL    HW119067   4.922   2.282   4.567
 6056SOL    HW219068   4.931   2.188   4.700
 6057SOL     OW19069   4.892   2.204   4.407
 6057SOL    HW119070   4.805   2.248   4.383
 6057SOL    HW219071   4.891   2.109   4.375
 6058SOL     OW19072   5.159   2.636   2.942
 6058SOL    HW119073   5.191   2.601   2.854
 6058SOL    HW219074   5.095   2.711   2.927
 6059SOL     OW19075   4.917   5.440   5.823
 6059SOL    HW119076   4.949   5.346   5.833
 6059SOL    HW219077   4.818   5.441   5.814
 6060SOL     OW19078   3.250   3.976   5.487
 6060SOL    HW119079   3.310   3.902   5.518
 6060SOL    HW219080   3.156   3.957   5.518
 6061SOL     OW19081   3.944   2.518   0.467
 6061SOL    HW119082   4.003   2.577   0.411
 6061SOL    HW219083   3.970   2.525   0.563
 6062SOL     OW19084   2.522   1.490   4.808
 6062SOL    HW119085   2.438   1.442   4.832
 6062SOL    HW219086   2.572   1.515   4.891
 6063SOL     OW19087   4.337   1.774   6.615
 6063SOL    HW119088   4.366   1.790   6.709
 6063SOL    HW219089   4.284   1.690   6.610
 6064SOL     OW19090   2.455   5.527   3.037
 6064SOL    HW119091   2.523   5.471   3.084
 6064SOL    HW219092   2.484   5.541   2.942
 6065SOL     OW19093   5.766   6.752   1.628
 6065SOL    HW119094   5.667   6.759   1.631
 6065SOL    HW219095   5.793   6.657   1.615
 6066SOL     OW19096   4.346   1.351   0.726
 6066SOL    HW119097   4.396   1.272   0.761
 6066SOL    HW219098   4.400   1.398   0.657
 6067SOL     OW19099   6.157   1.309   6.664
 6067SOL    HW119100   6.246   1.355   6.661
 6067SOL    HW219101   6.092   1.358   6.606
 6068SOL     OW19102   5.918   3.850   4.570
 6068SOL    HW119103   5.820   3.853   4.549
 6068SOL    HW219104   5.966   3.915   4.511
 6069SOL     OW19105   0.112   3.656   5.981
 6069SOL    HW119106   0.135   3.648   5.884
 6069SOL    HW219107   0.024   3.704   5.991
 6070SOL     OW19108   3.001   1.566   6.078
 6070SOL    HW119109   3.063   1.600   6.007
 6070SOL    HW219110   2.973   1.473   6.055
 6071SOL     OW19111   4.752   6.131   5.527
 6071SOL    HW119112   4.831   6.147   5.468
 6071SOL    HW219113   4.764   6.045   5.575
 6072SOL     OW19114   1.043   1.211   2.255
 6072SOL    HW119115   0.953   1.249   2.278
 6072SOL    HW219116   1.097   1.201   2.339
 6073SOL     OW19117   6.228   3.555   0.527
 6073SOL    HW119118   6.160   3.559   0.453
 6073SOL    HW219119   6.295   3.484   0.506
 6074SOL     OW19120   1.178   6.797   4.483
 6074SOL    HW119121   1.100   6.769   4.428
 6074SOL    HW219122   1.211   6.886   4.451
 6075SOL     OW19123   6.988   2.308   6.170
 6075SOL    HW119124   7.011   2.404   6.189
 6075SOL    HW219125   0.002   2.285   6.077
 6076SOL     OW19126   2.248   6.912   5.144
 6076SOL    HW119127   2.284   6.970   5.071
 6076SOL    HW219128   2.321   6.853   5.178
 6077SOL     OW19129   5.305   5.594   2.452
 6077SOL    HW119130   5.386   5.540   2.427
 6077SOL    HW219131   5.223   5.537   2.442
 6078SOL     OW19132   3.507   4.997   2.384
 6078SOL    HW119133   3.603   4.981   2.407
 6078SOL    HW219134   3.484   4.945   2.302
 6079SOL     OW19135   3.239   3.396   6.306
 6079SOL    HW119136   3.256   3.473   6.368
 6079SOL    HW219137   3.162   3.418   6.246
 6080SOL     OW19138   7.004   1.583   1.241
 6080SOL    HW119139   6.912   1.546   1.255
 6080SOL    HW219140   0.010   1.583   1.143
 6081SOL     OW19141   6.724   3.439   4.540
 6081SOL    HW119142   6.748   3.404   4.450
 6081SOL    HW219143   6.684   3.531   4.531
 6082SOL     OW19144   3.992   1.022   3.247
 6082SOL    HW119145   3.936   1.011   3.329
 6082SOL    HW219146   4.042   1.108   3.252
 6083SOL     OW19147   1.205   5.702   6.351
 6083SOL    HW119148   1.106   5.717   6.345
 6083SOL    HW219149   1.251   5.749   6.275
 6084SOL     OW19150   0.024   5.660   3.907
 6084SOL    HW119151   6.989   5.728   3.961
 6084SOL    HW219152   7.003   5.660   3.813
 6085SOL     OW19153   0.044   3.918   0.557
 6085SOL    HW119154   6.961   3.909   0.574
 6085SOL    HW219155   0.068   3.874   0.471
 6086SOL     OW19156   3.493   1.419   5.102
 6086SOL    HW119157   3.492   1.325   5.069
 6086SOL    HW219158   3.523   1.480   5.029
 6087SOL     OW19159   5.015   0.009   0.172
 6087SOL    HW119160   4.981   0.074   0.239
 6087SOL    HW219161   5.014   0.051   0.081
 6088SOL     OW19162   7.005   6.265   4.523
 6088SOL    HW119163   0.089   6.255   4.521
 6088SOL    HW219164   6.980   6.335   4.590
 6089SOL     OW19165   0.282   3.948   1.501
 6089SOL    HW119166   0.191   3.988   1.488
 6089SOL    HW219167   0.352   4.012   1.470
 6090SOL     OW19168   1.202   6.111   6.405
 6090SOL    HW119169   1.285   6.088   6.353
 6090SOL    HW219170   1.122   6.096   6.347
 6091SOL     OW19171   0.916   1.578   2.253
 6091SOL    HW119172   0.952   1.664   2.218
 6091SOL    HW219173   0.935   1.504   2.188
 6092SOL     OW19174   3.072   0.190   3.354
 6092SOL    HW119175   3.104   0.199   3.260
 6092SOL    HW219176   3.087   0.276   3.403
 6093SOL     OW19177   1.587   2.597   2.363
 6093SOL    HW119178   1.600   2.695   2.348
 6093SOL    HW219179   1.517   2.584   2.433
 6094SOL     OW19180   2.673   1.205   1.103
 6094SOL    HW119181   2.716   1.222   1.192
 6094SOL    HW219182   2.579   1.173   1.116
 6095SOL     OW19183   4.677   2.612   6.811
 6095SOL    HW119184   4.648   2.700   6.849
 6095SOL    HW219185   4.660   2.611   6.712
 6096SOL     OW19186   5.644   0.668   4.046
 6096SOL    HW119187   5.572   0.737   4.038
 6096SOL    HW219188   5.702   0.690   4.125
 6097SOL     OW19189   2.018   0.121   2.993
 6097SOL    HW119190   2.048   0.038   3.040
 6097SOL    HW219191   1.981   0.186   3.060
 6098SOL     OW19192   1.748   2.111   5.617
 6098SOL    HW119193   1.836   2.160   5.610
 6098SOL    HW219194   1.735   2.078   5.710
 6099SOL     OW19195   5.658   5.824   5.935
 6099SOL    HW119196   5.643   5.727   5.918
 6099SOL    HW219197   5.708   5.864   5.858
 6100SOL     OW19198   6.107   3.270   6.544
 6100SOL    HW119199   6.011   3.284   6.569
 6100SOL    HW219200   6.135   3.177   6.571
 6101SOL     OW19201   6.490   1.677   5.617
 6101SOL    HW119202   6.447   1.604   5.564
 6101SOL    HW219203   6.424   1.711   5.685
 6102SOL     OW19204   3.552   1.064   4.557
 6102SOL    HW119205   3.636   1.102   4.518
 6102SOL    HW219206   3.573   0.978   4.603
 6103SOL     OW19207   0.073   0.840   3.992
 6103SOL    HW119208   0.018   0.848   3.909
 6103SOL    HW219209   0.054   0.753   4.037
 6104SOL     OW19210   6.532   1.825   6.237
 6104SOL    HW119211   6.608   1.827   6.301
 6104SOL    HW219212   6.449   1.794   6.284
 6105SOL     OW19213   3.330   6.504   5.529
 6105SOL    HW119214   3.330   6.533   5.625
 6105SOL    HW219215   3.412   6.451   5.510
 6106SOL     OW19216   2.351   4.660   6.474
 6106SOL    HW119217   2.350   4.565   6.442
 6106SOL    HW219218   2.445   4.693   6.480
 6107SOL     OW19219   2.746   5.502   4.418
 6107SOL    HW119220   2.702   5.482   4.331
 6107SOL    HW219221   2.778   5.416   4.459
 6108SOL     OW19222   0.508   2.000   2.751
 6108SOL    HW119223   0.582   2.045   2.701
 6108SOL    HW219224   0.444   2.069   2.783
 6109SOL     OW19225   5.334   2.656   6.912
 6109SOL    HW119226   5.279   2.737   6.934
 6109SOL    HW219227   5.333   2.594   6.990
 6110SOL     OW19228   2.833   2.552   6.554
 6110SOL    HW119229   2.743   2.586   6.527
 6110SOL    HW219230   2.822   2.480   6.623
 6111SOL     OW19231   1.167   5.243   2.468
 6111SOL    HW119232   1.223   5.163   2.448
 6111SOL    HW219233   1.094   5.218   2.532
 6112SOL     OW19234   2.248   2.401   3.025
 6112SOL    HW119235   2.224   2.454   2.944
 6112SOL    HW219236   2.223   2.452   3.108
 6113SOL     OW19237   0.408   0.993   6.373
 6113SOL    HW119238   0.505   1.012   6.391
 6113SOL    HW219239   0.352   1.030   6.447
 6114SOL     OW19240   5.071   5.558   1.052
 6114SOL    HW119241   5.003   5.531   1.120
 6114SOL    HW219242   5.145   5.609   1.096
 6115SOL     OW19243   5.220   5.709   3.114
 6115SOL    HW119244   5.131   5.712   3.068
 6115SOL    HW219245   5.206   5.695   3.213
 6116SOL     OW19246   2.661   1.316   1.584
 6116SOL    HW119247   2.724   1.372   1.531
 6116SOL    HW219248   2.684   1.220   1.574
 6117SOL     OW19249   0.054   0.080   5.370
 6117SOL    HW119250   0.063   0.028   5.285
 6117SOL    HW219251   0.134   0.062   5.428
 6118SOL     OW19252   0.212   2.015   1.427
 6118SOL    HW119253   0.135   2.064   1.388
 6118SOL    HW219254   0.192   1.993   1.523
 6119SOL     OW19255   0.332   4.644   4.509
 6119SOL    HW119256   0.420   4.647   4.460
 6119SOL    HW219257   0.327   4.560   4.563
 6120SOL     OW19258   3.061   6.810   3.808
 6120SOL    HW119259   3.119   6.874   3.860
 6120SOL    HW219260   2.971   6.804   3.852
 6121SOL     OW19261   6.634   2.655   4.842
 6121SOL    HW119262   6.557   2.718   4.841
 6121SOL    HW219263   6.717   2.703   4.812
 6122SOL     OW19264   3.575   6.786   2.215
 6122SOL    HW119265   3.522   6.768   2.298
 6122SOL    HW219266   3.525   6.751   2.136
 6123SOL     OW19267   6.912   0.889   1.101
 6123SOL    HW119268   6.947   0.891   1.008
 6123SOL    HW219269   6.909   0.982   1.137
 6124SOL     OW19270   3.437   6.451   5.104
 6124SOL    HW119271   3.416   6.475   5.009
 6124SOL    HW219272   3.448   6.535   5.158
 6125SOL     OW19273   2.364   5.630   1.347
 6125SOL    HW119274   2.353   5.701   1.417
 6125SOL    HW219275   2.427   5.662   1.277
 6126SOL     OW19276   5.343   5.884   3.916
 6126SOL    HW119277   5.397   5.968   3.907
 6126SOL    HW219278   5.365   5.822   3.842
 6127SOL     OW19279   2.238   0.028   1.421
 6127SOL    HW119280   2.161   0.011   1.360
 6127SOL    HW219281   2.316   6.988   1.392
 6128SOL     OW19282   6.647   2.864   0.312
 6128SOL    HW119283   6.696   2.833   0.393
 6128SOL    HW219284   6.586   2.792   0.280
 6129SOL     OW19285   6.320   4.118   3.004
 6129SOL    HW119286   6.354   4.202   2.962
 6129SOL    HW219287   6.395   4.071   3.050
 6130SOL     OW19288   6.681   2.950   4.738
 6130SOL    HW119289   6.700   3.047   4.748
 6130SOL    HW219290   6.743   2.897   4.796
 6131SOL     OW19291   6.947   1.485   5.456
 6131SOL    HW119292   6.930   1.440   5.368
 6131SOL    HW219293   6.937   1.418   5.530
 6132SOL     OW19294   3.122   0.575   0.795
 6132SOL    HW119295   3.100   0.637   0.870
 6132SOL    HW219296   3.217   0.543   0.805
 6133SOL     OW19297   0.424   2.823   2.757
 6133SOL    HW119298   0.379   2.893   2.813
 6133SOL    HW219299   0.520   2.818   2.782
 6134SOL     OW19300   4.279   3.091   6.448
 6134SOL    HW119301   4.246   3.185   6.444
 6134SOL    HW219302   4.273   3.049   6.357
 6135SOL     OW19303   5.980   6.954   2.145
 6135SOL    HW119304   5.992   6.902   2.061
 6135SOL    HW219305   6.069   6.965   2.191
 6136SOL     OW19306   0.818   1.297   2.376
 6136SOL    HW119307   0.810   1.394   2.352
 6136SOL    HW219308   0.869   1.288   2.462
 6137SOL     OW19309   3.891   1.177   5.790
 6137SOL    HW119310   3.804   1.180   5.840
 6137SOL    HW219311   3.935   1.088   5.804
 6138SOL     OW19312   3.661   6.874   2.492
 6138SOL    HW119313   3.759   6.858   2.495
 6138SOL    HW219314   3.613   6.792   2.524
 6139SOL     OW19315   2.095   3.369   4.819
 6139SOL    HW119316   2.087   3.417   4.906
 6139SOL    HW219317   2.165   3.298   4.826
 6140SOL     OW19318   0.672   6.784   2.052
 6140SOL    HW119319   0.584   6.775   2.100
 6140SOL    HW219320   0.741   6.729   2.099
 6141SOL     OW19321   6.337   6.233   4.540
 6141SOL    HW119322   6.286   6.206   4.459
 6141SOL    HW219323   6.282   6.298   4.594
 6142SOL     OW19324   0.384   5.487   0.607
 6142SOL    HW119325   0.450   5.412   0.602
 6142SOL    HW219326   0.415   5.554   0.675
 6143SOL     OW19327   5.574   4.554   6.809
 6143SOL    HW119328   5.638   4.512   6.873
 6143SOL    HW219329   5.604   4.647   6.787
 6144SOL     OW19330   6.546   4.395   2.497
 6144SOL    HW119331   6.562   4.374   2.400
 6144SOL    HW219332   6.630   4.431   2.537
 6145SOL     OW19333   4.600   5.844   3.662
 6145SOL    HW119334   4.566   5.910   3.729
 6145SOL    HW219335   4.546   5.760   3.668
 6146SOL     OW19336   4.403   0.895   3.455
 6146SOL    HW119337   4.345   0.929   3.381
 6146SOL    HW219338   4.462   0.822   3.420
 6147SOL     OW19339   1.610   4.761   3.273
 6147SOL    HW119340   1.572   4.684   3.324
 6147SOL    HW219341   1.669   4.815   3.334
 6148SOL     OW19342   7.002   6.667   4.164
 6148SOL    HW119343   0.005   6.757   4.124
 6148SOL    HW219344   6.909   6.638   4.140
 6149SOL     OW19345   3.499   5.214   3.098
 6149SOL    HW119346   3.588   5.243   3.063
 6149SOL    HW219347   3.499   5.115   3.113
 6150SOL     OW19348   4.299   4.884   6.692
 6150SOL    HW119349   4.382   4.865   6.744
 6150SOL    HW219350   4.292   4.983   6.676
 6151SOL     OW19351   6.352   3.639   4.606
 6151SOL    HW119352   6.375   3.542   4.597
 6151SOL    HW219353   6.298   3.669   4.527
 6152SOL     OW19354   5.013   4.532   5.878
 6152SOL    HW119355   4.950   4.567   5.808
 6152SOL    HW219356   5.092   4.593   5.884
 6153SOL     OW19357   4.712   3.984   1.662
 6153SOL    HW119358   4.762   3.970   1.576
 6153SOL    HW219359   4.619   3.948   1.652
 6154SOL     OW19360   5.412   1.448   1.812
 6154SOL    HW119361   5.437   1.542   1.835
 6154SOL    HW219362   5.346   1.449   1.738
 6155SOL     OW19363   1.549   2.821   4.090
 6155SOL    HW119364   1.531   2.765   4.171
 6155SOL    HW219365   1.645   2.848   4.090
 6156SOL     OW19366   4.734   5.190   2.288
 6156SOL    HW119367   4.815   5.247   2.283
 6156SOL    HW219368   4.657   5.245   2.321
 6157SOL     OW19369   1.076   2.114   3.474
 6157SOL    HW119370   1.021   2.172   3.535
 6157SOL    HW219371   1.126   2.172   3.409
 6158SOL     OW19372   4.856   0.748   6.612
 6158SOL    HW119373   4.869   0.836   6.566
 6158SOL    HW219374   4.833   0.678   6.545
 6159SOL     OW19375   4.711   1.380   0.022
 6159SOL    HW119376   4.656   1.321   6.979
 6159SOL    HW219377   4.652   1.431   0.084
 6160SOL     OW19378   5.914   5.778   0.581
 6160SOL    HW119379   5.856   5.753   0.659
 6160SOL    HW219380   5.900   5.712   0.507
 6161SOL     OW19381   5.999   2.244   6.081
 6161SOL    HW119382   6.012   2.245   5.982
 6161SOL    HW219383   6.067   2.184   6.124
 6162SOL     OW19384   0.879   5.092   4.543
 6162SOL    HW119385   0.925   5.170   4.585
 6162SOL    HW219386   0.938   5.052   4.473
 6163SOL     OW19387   5.742   5.324   0.895
 6163SOL    HW119388   5.650   5.301   0.925
 6163SOL    HW219389   5.768   5.265   0.819
 6164SOL     OW19390   2.040   2.811   1.806
 6164SOL    HW119391   2.019   2.715   1.790
 6164SOL    HW219392   2.131   2.832   1.770
 6165SOL     OW19393   3.971   6.039   6.918
 6165SOL    HW119394   4.024   5.998   6.843
 6165SOL    HW219395   3.947   6.133   6.894
 6166SOL     OW19396   3.486   1.132   5.553
 6166SOL    HW119397   3.529   1.065   5.613
 6166SOL    HW219398   3.445   1.205   5.608
 6167SOL     OW19399   0.602   4.963   2.389
 6167SOL    HW119400   0.569   5.040   2.444
 6167SOL    HW219401   0.532   4.936   2.323
 6168SOL     OW19402   0.429   3.756   1.039
 6168SOL    HW119403   0.523   3.790   1.032
 6168SOL    HW219404   0.428   3.657   1.027
 6169SOL     OW19405   1.625   2.996   1.916
 6169SOL    HW119406   1.551   3.063   1.910
 6169SOL    HW219407   1.712   3.041   1.897
 6170SOL     OW19408   0.326   3.098   5.034
 6170SOL    HW119409   0.341   3.000   5.043
 6170SOL    HW219410   0.291   3.135   5.120
 6171SOL     OW19411   0.137   1.529   0.575
 6171SOL    HW119412   0.119   1.439   0.536
 6171SOL    HW219413   0.129   1.525   0.675
 6172SOL     OW19414   0.713   2.565   2.794
 6172SOL    HW119415   0.688   2.659   2.817
 6172SOL    HW219416   0.758   2.563   2.705
 6173SOL     OW19417   6.610   5.610   3.033
 6173SOL    HW119418   6.693   5.603   2.977
 6173SOL    HW219419   6.634   5.641   3.125
 6174SOL     OW19420   4.884   5.220   3.402
 6174SOL    HW119421   4.817   5.226   3.329
 6174SOL    HW219422   4.914   5.125   3.412
 6175SOL     OW19423   3.270   0.782   4.959
 6175SOL    HW119424   3.230   0.868   4.928
 6175SOL    HW219425   3.332   0.801   5.036
 6176SOL     OW19426   4.406   3.493   5.287
 6176SOL    HW119427   4.484   3.553   5.273
 6176SOL    HW219428   4.322   3.539   5.256
 6177SOL     OW19429   5.663   2.120   1.337
 6177SOL    HW119430   5.665   2.034   1.286
 6177SOL    HW219431   5.713   2.108   1.423
 6178SOL     OW19432   4.832   3.611   1.817
 6178SOL    HW119433   4.817   3.517   1.786
 6178SOL    HW219434   4.851   3.612   1.915
 6179SOL     OW19435   6.830   4.603   1.412
 6179SOL    HW119436   6.825   4.529   1.479
 6179SOL    HW219437   6.865   4.567   1.325
 6180SOL     OW19438   2.988   4.816   0.944
 6180SOL    HW119439   2.993   4.896   1.004
 6180SOL    HW219440   2.917   4.753   0.979
 6181SOL     OW19441   4.988   5.900   6.119
 6181SOL    HW119442   4.999   5.946   6.031
 6181SOL    HW219443   5.011   5.963   6.192
 6182SOL     OW19444   4.468   2.536   0.263
 6182SOL    HW119445   4.412   2.616   0.284
 6182SOL    HW219446   4.548   2.564   0.209
 6183SOL     OW19447   1.784   2.230   1.414
 6183SOL    HW119448   1.693   2.270   1.408
 6183SOL    HW219449   1.843   2.288   1.470
 6184SOL     OW19450   2.569   0.593   6.061
 6184SOL    HW119451   2.553   0.536   5.981
 6184SOL    HW219452   2.483   0.609   6.108
 6185SOL     OW19453   2.781   3.758   5.737
 6185SOL    HW119454   2.730   3.792   5.816
 6185SOL    HW219455   2.718   3.743   5.661
 6186SOL     OW19456   7.001   1.789   1.887
 6186SOL    HW119457   6.931   1.798   1.816
 6186SOL    HW219458   6.964   1.738   1.964
 6187SOL     OW19459   4.757   2.736   4.872
 6187SOL    HW119460   4.777   2.642   4.847
 6187SOL    HW219461   4.843   2.783   4.895
 6188SOL     OW19462   1.326   1.558   5.188
 6188SOL    HW119463   1.322   1.581   5.091
 6188SOL    HW219464   1.305   1.460   5.200
 6189SOL     OW19465   4.046   5.502   2.305
 6189SOL    HW119466   4.021   5.413   2.343
 6189SOL    HW219467   4.137   5.528   2.336
 6190SOL     OW19468   6.539   3.840   5.922
 6190SOL    HW119469   6.572   3.867   6.012
 6190SOL    HW219470   6.444   3.871   5.910
 6191SOL     OW19471   2.192   2.798   5.553
 6191SOL    HW119472   2.122   2.775   5.486
 6191SOL    HW219473   2.279   2.813   5.506
 6192SOL     OW19474   2.027   1.727   6.208
 6192SOL    HW119475   2.086   1.743   6.288
 6192SOL    HW219476   2.069   1.659   6.149
 6193SOL     OW19477   5.107   5.449   0.591
 6193SOL    HW119478   5.091   5.363   0.543
 6193SOL    HW219479   5.106   5.524   0.525
 6194SOL     OW19480   6.806   0.917   6.935
 6194SOL    HW119481   6.799   0.920   6.836
 6194SOL    HW219482   6.780   0.826   6.968
 6195SOL     OW19483   5.752   6.977   4.746
 6195SOL    HW119484   5.791   6.954   4.657
 6195SOL    HW219485   5.724   0.058   4.746
 6196SOL     OW19486   5.702   4.642   2.990
 6196SOL    HW119487   5.739   4.628   3.082
 6196SOL    HW219488   5.663   4.734   2.983
 6197SOL     OW19489   2.448   5.240   2.933
 6197SOL    HW119490   2.392   5.321   2.949
 6197SOL    HW219491   2.539   5.267   2.901
 6198SOL     OW19492   5.898   6.042   6.404
 6198SOL    HW119493   5.997   6.049   6.418
 6198SOL    HW219494   5.870   6.110   6.336
 6199SOL     OW19495   0.528   0.715   0.566
 6199SOL    HW119496   0.544   0.788   0.499
 6199SOL    HW219497   0.576   0.632   0.537
 6200SOL     OW19498   1.267   1.064   2.493
 6200SOL    HW119499   1.357   1.105   2.509
 6200SOL    HW219500   1.274   0.998   2.418
 6201SOL     OW19501   0.438   4.716   3.984
 6201SOL    HW119502   0.492   4.708   3.900
 6201SOL    HW219503   0.499   4.736   4.061
 6202SOL     OW19504   6.238   1.686   3.002
 6202SOL    HW119505   6.316   1.728   2.955
 6202SOL    HW219506   6.204   1.749   3.072
 6203SOL     OW19507   6.424   5.609   1.872
 6203SOL    HW119508   6.479   5.543   1.820
 6203SOL    HW219509   6.434   5.592   1.970
 6204SOL     OW19510   0.949   6.058   4.813
 6204SOL    HW119511   0.963   6.145   4.766
 6204SOL    HW219512   1.038   6.021   4.842
 6205SOL     OW19513   4.485   4.862   1.894
 6205SOL    HW119514   4.474   4.796   1.968
 6205SOL    HW219515   4.446   4.825   1.810
 6206SOL     OW19516   4.665   2.030   3.759
 6206SOL    HW119517   4.599   2.020   3.833
 6206SOL    HW219518   4.626   2.087   3.686
 6207SOL     OW19519   1.527   5.975   4.214
 6207SOL    HW119520   1.597   5.911   4.179
 6207SOL    HW219521   1.572   6.053   4.257
 6208SOL     OW19522   3.706   2.320   6.238
 6208SOL    HW119523   3.692   2.396   6.302
 6208SOL    HW219524   3.740   2.240   6.287
 6209SOL     OW19525   3.553   4.112   0.932
 6209SOL    HW119526   3.513   4.085   0.844
 6209SOL    HW219527   3.607   4.036   0.969
 6210SOL     OW19528   5.173   3.673   3.202
 6210SOL    HW119529   5.266   3.689   3.233
 6210SOL    HW219530   5.175   3.626   3.113
 6211SOL     OW19531   4.589   5.406   5.326
 6211SOL    HW119532   4.578   5.484   5.386
 6211SOL    HW219533   4.558   5.323   5.373
 6212SOL     OW19534   2.495   4.854   4.744
 6212SOL    HW119535   2.406   4.899   4.738
 6212SOL    HW219536   2.502   4.808   4.833
 6213SOL     OW19537   4.752   6.534   0.661
 6213SOL    HW119538   4.783   6.440   0.646
 6213SOL    HW219539   4.825   6.598   0.635
 6214SOL     OW19540   5.266   5.441   5.568
 6214SOL    HW119541   5.265   5.384   5.650
 6214SOL    HW219542   5.296   5.386   5.490
 6215SOL     OW19543   5.078   3.229   6.711
 6215SOL    HW119544   5.119   3.140   6.693
 6215SOL    HW219545   5.013   3.221   6.786
 6216SOL     OW19546   5.886   3.113   3.304
 6216SOL    HW119547   5.850   3.021   3.287
 6216SOL    HW219548   5.962   3.131   3.242
 6217SOL     OW19549   0.628   4.710   2.177
 6217SOL    HW119550   0.543   4.764   2.175
 6217SOL    HW219551   0.666   4.712   2.269
 6218SOL     OW19552   4.902   5.848   7.009
 6218SOL    HW119553   4.833   5.915   0.021
 6218SOL    HW219554   4.863   5.756   7.015
 6219SOL     OW19555   1.735   0.756   5.273
 6219SOL    HW119556   1.723   0.702   5.190
 6219SOL    HW219557   1.826   0.797   5.274
 6220SOL     OW19558   3.353   0.578   0.186
 6220SOL    HW119559   3.391   0.594   0.095
 6220SOL    HW219560   3.273   0.636   0.199
 6221SOL     OW19561   6.612   6.225   6.354
 6221SOL    HW119562   6.661   6.173   6.422
 6221SOL    HW219563   6.666   6.230   6.270
 6222SOL     OW19564   5.566   1.494   2.289
 6222SOL    HW119565   5.660   1.464   2.305
 6222SOL    HW219566   5.503   1.420   2.312
 6223SOL     OW19567   0.420   5.478   4.036
 6223SOL    HW119568   0.493   5.477   4.104
 6223SOL    HW219569   0.372   5.566   4.040
 6224SOL     OW19570   4.413   0.960   5.916
 6224SOL    HW119571   4.454   1.039   5.870
 6224SOL    HW219572   4.350   0.914   5.853
 6225SOL     OW19573   4.195   1.244   6.367
 6225SOL    HW119574   4.115   1.305   6.361
 6225SOL    HW219575   4.165   1.153   6.395
 6226SOL     OW19576   1.448   1.831   4.011
 6226SOL    HW119577   1.499   1.832   3.925
 6226SOL    HW219578   1.350   1.822   3.992
 6227SOL     OW19579   3.180   4.497   5.347
 6227SOL    HW119580   3.096   4.494   5.292
 6227SOL    HW219581   3.217   4.590   5.345
 6228SOL     OW19582   1.787   2.368   3.557
 6228SOL    HW119583   1.787   2.462   3.591
 6228SOL    HW219584   1.752   2.307   3.628
 6229SOL     OW19585   0.012   3.289   4.793
 6229SOL    HW119586   7.015   3.384   4.820
 6229SOL    HW219587   6.943   3.255   4.751
 6230SOL     OW19588   0.328   1.609   2.922
 6230SOL    HW119589   0.398   1.655   2.868
 6230SOL    HW219590   0.269   1.555   2.862
 6231SOL     OW19591   5.574   4.377   0.385
 6231SOL    HW119592   5.670   4.349   0.373
 6231SOL    HW219593   5.572   4.469   0.425
 6232SOL     OW19594   5.914   0.422   0.489
 6232SOL    HW119595   5.916   0.325   0.515
 6232SOL    HW219596   5.831   0.441   0.437
 6233SOL     OW19597   0.534   3.587   1.980
 6233SOL    HW119598   0.528   3.497   2.024
 6233SOL    HW219599   0.474   3.588   1.899
 6234SOL     OW19600   0.068   6.840   4.388
 6234SOL    HW119601   0.012   6.827   4.307
 6234SOL    HW219602   0.102   6.934   4.390
 6235SOL     OW19603   0.022   0.696   2.158
 6235SOL    HW119604   6.980   0.625   2.199
 6235SOL    HW219605   0.101   0.714   2.217
 6236SOL     OW19606   0.731   4.059   0.427
 6236SOL    HW119607   0.654   4.040   0.366
 6236SOL    HW219608   0.699   4.064   0.522
 6237SOL     OW19609   3.582   6.764   0.513
 6237SOL    HW119610   3.613   6.770   0.608
 6237SOL    HW219611   3.484   6.785   0.508
 6238SOL     OW19612   3.513   6.395   3.301
 6238SOL    HW119613   3.457   6.312   3.307
 6238SOL    HW219614   3.493   6.441   3.215
 6239SOL     OW19615   3.931   6.918   2.476
 6239SOL    HW119616   4.026   6.892   2.491
 6239SOL    HW219617   3.906   6.991   2.540
 6240SOL     OW19618   2.966   3.941   4.806
 6240SOL    HW119619   3.006   4.030   4.830
 6240SOL    HW219620   2.989   3.918   4.712
 6241SOL     OW19621   3.766   0.037   3.864
 6241SOL    HW119622   3.675   0.017   3.899
 6241SOL    HW219623   3.819   6.968   3.856
 6242SOL     OW19624   2.561   2.134   2.582
 6242SOL    HW119625   2.597   2.201   2.518
 6242SOL    HW219626   2.601   2.044   2.563
 6243SOL     OW19627   6.284   0.415   6.233
 6243SOL    HW119628   6.349   0.479   6.273
 6243SOL    HW219629   6.308   0.398   6.137
 6244SOL     OW19630   4.648   4.364   2.772
 6244SOL    HW119631   4.676   4.299   2.844
 6244SOL    HW219632   4.725   4.424   2.751
 6245SOL     OW19633   0.617   4.668   2.455
 6245SOL    HW119634   0.526   4.650   2.492
 6245SOL    HW219635   0.627   4.767   2.440
 6246SOL     OW19636   1.444   0.023   4.573
 6246SOL    HW119637   1.375   0.021   4.501
 6246SOL    HW219638   1.404   7.004   4.658
 6247SOL     OW19639   0.002   5.195   3.810
 6247SOL    HW119640   6.985   5.100   3.806
 6247SOL    HW219641   6.980   5.239   3.891
 6248SOL     OW19642   4.480   3.307   6.640
 6248SOL    HW119643   4.465   3.302   6.739
 6248SOL    HW219644   4.408   3.256   6.592
 6249SOL     OW19645   6.919   3.343   1.397
 6249SOL    HW119646   7.012   3.346   1.432
 6249SOL    HW219647   6.920   3.312   1.302
 6250SOL     OW19648   0.009   6.945   0.861
 6250SOL    HW119649   0.057   6.857   0.852
 6250SOL    HW219650   6.977   6.966   0.776
 6251SOL     OW19651   3.382   6.881   4.671
 6251SOL    HW119652   3.308   6.815   4.687
 6251SOL    HW219653   3.368   6.962   4.727
 6252SOL     OW19654   2.810   5.346   6.902
 6252SOL    HW119655   2.823   5.269   6.839
 6252SOL    HW219656   2.718   5.342   6.940
 6253SOL     OW19657   3.292   4.940   4.538
 6253SOL    HW119658   3.254   4.952   4.447
 6253SOL    HW219659   3.219   4.947   4.606
 6254SOL     OW19660   0.524   5.681   1.072
 6254SOL    HW119661   0.556   5.679   1.166
 6254SOL    HW219662   0.455   5.609   1.059
 6255SOL     OW19663   2.064   1.869   1.194
 6255SOL    HW119664   2.020   1.894   1.108
 6255SOL    HW219665   2.160   1.898   1.191
 6256SOL     OW19666   5.019   5.802   2.350
 6256SOL    HW119667   5.033   5.782   2.447
 6256SOL    HW219668   5.033   5.900   2.334
 6257SOL     OW19669   4.074   3.619   0.628
 6257SOL    HW119670   4.139   3.682   0.585
 6257SOL    HW219671   4.062   3.539   0.570
 6258SOL     OW19672   4.020   6.908   6.281
 6258SOL    HW119673   4.017   6.934   6.185
 6258SOL    HW219674   4.081   6.970   6.331
 6259SOL     OW19675   1.869   6.859   5.735
 6259SOL    HW119676   1.835   6.772   5.697
 6259SOL    HW219677   1.843   6.934   5.674
 6260SOL     OW19678   1.512   0.787   0.440
 6260SOL    HW119679   1.537   0.752   0.350
 6260SOL    HW219680   1.590   0.780   0.501
 6261SOL     OW19681   4.713   6.991   1.347
 6261SOL    HW119682   4.685   6.899   1.321
 6261SOL    HW219683   4.766   6.987   1.432
 6262SOL     OW19684   6.632   6.214   2.604
 6262SOL    HW119685   6.602   6.255   2.691
 6262SOL    HW219686   6.643   6.116   2.617
 6263SOL     OW19687   6.983   6.389   4.223
 6263SOL    HW119688   7.015   6.480   4.196
 6263SOL    HW219689   6.988   6.380   4.322
 6264SOL     OW19690   0.425   0.042   1.378
 6264SOL    HW119691   0.456   6.967   1.349
 6264SOL    HW219692   0.431   0.049   1.478
 6265SOL     OW19693   3.713   3.063   0.801
 6265SOL    HW119694   3.660   2.997   0.854
 6265SOL    HW219695   3.770   3.118   0.862
 6266SOL     OW19696   3.577   5.880   3.247
 6266SOL    HW119697   3.534   5.793   3.270
 6266SOL    HW219698   3.508   5.944   3.214
 6267SOL     OW19699   1.305   6.087   5.303
 6267SOL    HW119700   1.266   6.076   5.212
 6267SOL    HW219701   1.231   6.092   5.371
 6268SOL     OW19702   3.987   0.489   1.764
 6268SOL    HW119703   3.947   0.522   1.850
 6268SOL    HW219704   3.924   0.425   1.721
 6269SOL     OW19705   5.501   6.233   1.473
 6269SOL    HW119706   5.547   6.286   1.544
 6269SOL    HW219707   5.509   6.281   1.385
 6270SOL     OW19708   1.049   6.256   0.213
 6270SOL    HW119709   0.993   6.173   0.217
 6270SOL    HW219710   1.144   6.231   0.195
 6271SOL     OW19711   6.079   2.790   6.905
 6271SOL    HW119712   6.061   2.734   6.824
 6271SOL    HW219713   6.030   2.877   6.898
 6272SOL     OW19714   6.620   0.456   6.824
 6272SOL    HW119715   6.656   0.488   6.911
 6272SOL    HW219716   6.523   0.481   6.817
 6273SOL     OW19717   0.183   6.804   2.256
 6273SOL    HW119718   0.200   6.876   2.323
 6273SOL    HW219719   0.151   6.845   2.170
 6274SOL     OW19720   3.346   6.545   4.839
 6274SOL    HW119721   3.352   6.487   4.758
 6274SOL    HW219722   3.259   6.593   4.840
 6275SOL     OW19723   2.495   6.125   0.505
 6275SOL    HW119724   2.561   6.178   0.452
 6275SOL    HW219725   2.536   6.099   0.593
 6276SOL     OW19726   3.241   5.722   3.326
 6276SOL    HW119727   3.325   5.667   3.322
 6276SOL    HW219728   3.223   5.760   3.235
 6277SOL     OW19729   5.086   2.059   1.772
 6277SOL    HW119730   5.181   2.090   1.776
 6277SOL    HW219731   5.069   1.996   1.848
 6278SOL     OW19732   3.344   0.093   5.642
 6278SOL    HW119733   3.422   0.030   5.645
 6278SOL    HW219734   3.260   0.043   5.662
 6279SOL     OW19735   3.076   5.510   0.820
 6279SOL    HW119736   3.169   5.478   0.803
 6279SOL    HW219737   3.072   5.609   0.803
 6280SOL     OW19738   6.375   1.758   6.866
 6280SOL    HW119739   6.426   1.686   6.818
 6280SOL    HW219740   6.433   1.800   6.936
 6281SOL     OW19741   6.346   3.928   4.252
 6281SOL    HW119742   6.258   3.976   4.249
 6281SOL    HW219743   6.397   3.957   4.333
 6282SOL     OW19744   0.163   4.051   5.769
 6282SOL    HW119745   0.139   4.000   5.686
 6282SOL    HW219746   0.134   4.146   5.757
 6283SOL     OW19747   0.937   5.825   5.156
 6283SOL    HW119748   1.023   5.798   5.199
 6283SOL    HW219749   0.941   5.921   5.131
 6284SOL     OW19750   1.885   4.414   0.010
 6284SOL    HW119751   1.915   4.501   0.049
 6284SOL    HW219752   1.824   4.432   6.947
 6285SOL     OW19753   1.769   3.951   3.053
 6285SOL    HW119754   1.800   3.931   2.960
 6285SOL    HW219755   1.679   3.995   3.049
 6286SOL     OW19756   0.355   3.496   4.743
 6286SOL    HW119757   0.397   3.422   4.692
 6286SOL    HW219758   0.265   3.517   4.704
 6287SOL     OW19759   4.272   4.546   5.430
 6287SOL    HW119760   4.181   4.544   5.388
 6287SOL    HW219761   4.267   4.591   5.519
 6288SOL     OW19762   4.178   3.526   6.691
 6288SOL    HW119763   4.156   3.488   6.601
 6288SOL    HW219764   4.114   3.599   6.713
 6289SOL     OW19765   2.299   4.357   6.689
 6289SOL    HW119766   2.331   4.321   6.777
 6289SOL    HW219767   2.367   4.421   6.653
 6290SOL     OW19768   6.545   5.127   6.220
 6290SOL    HW119769   6.574   5.138   6.315
 6290SOL    HW219770   6.523   5.217   6.182
 6291SOL     OW19771   3.228   3.554   2.884
 6291SOL    HW119772   3.279   3.470   2.901
 6291SOL    HW219773   3.184   3.550   2.795
 6292SOL     OW19774   2.098   2.602   4.678
 6292SOL    HW119775   2.047   2.676   4.721
 6292SOL    HW219776   2.193   2.629   4.666
 6293SOL     OW19777   5.178   1.314   0.196
 6293SOL    HW119778   5.254   1.252   0.181
 6293SOL    HW219779   5.210   1.395   0.246
 6294SOL     OW19780   3.471   0.923   3.933
 6294SOL    HW119781   3.566   0.903   3.911
 6294SOL    HW219782   3.462   0.939   4.031
 6295SOL     OW19783   5.122   4.877   4.665
 6295SOL    HW119784   5.156   4.858   4.757
 6295SOL    HW219785   5.061   4.803   4.636
 6296SOL     OW19786   0.512   3.677   6.124
 6296SOL    HW119787   0.469   3.604   6.072
 6296SOL    HW219788   0.448   3.753   6.134
 6297SOL     OW19789   6.173   0.258   4.564
 6297SOL    HW119790   6.119   0.179   4.535
 6297SOL    HW219791   6.113   0.330   4.598
 6298SOL     OW19792   5.637   4.386   0.008
 6298SOL    HW119793   5.734   4.379   0.035
 6298SOL    HW219794   5.580   4.345   0.079
 6299SOL     OW19795   5.047   2.356   2.886
 6299SOL    HW119796   5.119   2.405   2.933
 6299SOL    HW219797   4.977   2.420   2.854
 6300SOL     OW19798   4.257   1.483   6.201
 6300SOL    HW119799   4.263   1.383   6.209
 6300SOL    HW219800   4.174   1.515   6.247
 6301SOL     OW19801   3.235   6.357   6.640
 6301SOL    HW119802   3.145   6.322   6.615
 6301SOL    HW219803   3.263   6.426   6.573
 6302SOL     OW19804   2.396   1.522   5.571
 6302SOL    HW119805   2.438   1.457   5.508
 6302SOL    HW219806   2.467   1.572   5.620
 6303SOL     OW19807   1.153   6.320   5.562
 6303SOL    HW119808   1.082   6.256   5.533
 6303SOL    HW219809   1.227   6.269   5.607
 6304SOL     OW19810   4.257   0.978   3.247
 6304SOL    HW119811   4.158   0.993   3.249
 6304SOL    HW219812   4.283   0.936   3.160
 6305SOL     OW19813   6.719   5.624   5.325
 6305SOL    HW119814   6.812   5.633   5.360
 6305SOL    HW219815   6.657   5.682   5.378
 6306SOL     OW19816   0.717   3.994   3.837
 6306SOL    HW119817   0.776   3.935   3.892
 6306SOL    HW219818   0.716   4.086   3.877
 6307SOL     OW19819   4.124   3.717   3.925
 6307SOL    HW119820   4.215   3.755   3.944
 6307SOL    HW219821   4.078   3.695   4.011
 6308SOL     OW19822   0.352   2.330   5.924
 6308SOL    HW119823   0.278   2.395   5.940
 6308SOL    HW219824   0.371   2.279   6.008
 6309SOL     OW19825   0.911   6.793   4.370
 6309SOL    HW119826   0.950   6.810   4.280
 6309SOL    HW219827   0.823   6.747   4.361
 6310SOL     OW19828   1.539   6.956   3.376
 6310SOL    HW119829   1.493   7.013   3.307
 6310SOL    HW219830   1.618   6.911   3.335
 6311SOL     OW19831   5.182   1.106   6.167
 6311SOL    HW119832   5.145   1.181   6.222
 6311SOL    HW219833   5.282   1.105   6.175
 6312SOL     OW19834   2.928   6.720   6.749
 6312SOL    HW119835   2.978   6.673   6.676
 6312SOL    HW219836   2.851   6.662   6.778
 6313SOL     OW19837   5.129   6.257   3.361
 6313SOL    HW119838   5.073   6.252   3.278
 6313SOL    HW219839   5.070   6.252   3.441
 6314SOL     OW19840   2.890   0.483   1.643
 6314SOL    HW119841   2.949   0.403   1.632
 6314SOL    HW219842   2.879   0.503   1.740
 6315SOL     OW19843   1.731   2.469   4.237
 6315SOL    HW119844   1.733   2.476   4.137
 6315SOL    HW219845   1.821   2.491   4.274
 6316SOL     OW19846   5.039   1.983   5.618
 6316SOL    HW119847   5.084   1.895   5.610
 6316SOL    HW219848   4.940   1.972   5.605
 6317SOL     OW19849   5.102   4.446   2.440
 6317SOL    HW119850   5.161   4.500   2.501
 6317SOL    HW219851   5.108   4.349   2.464
 6318SOL     OW19852   6.478   0.203   6.574
 6318SOL    HW119853   6.540   0.281   6.579
 6318SOL    HW219854   6.385   0.235   6.563
 6319SOL     OW19855   5.544   2.687   5.102
 6319SOL    HW119856   5.476   2.741   5.053
 6319SOL    HW219857   5.508   2.596   5.121
 6320SOL     OW19858   0.516   0.936   3.850
 6320SOL    HW119859   0.535   0.983   3.937
 6320SOL    HW219860   0.422   0.955   3.823
 6321SOL     OW19861   5.309   2.347   0.599
 6321SOL    HW119862   5.283   2.339   0.695
 6321SOL    HW219863   5.252   2.286   0.543
 6322SOL     OW19864   2.062   1.252   0.525
 6322SOL    HW119865   1.979   1.207   0.492
 6322SOL    HW219866   2.060   1.256   0.625
 6323SOL     OW19867   2.687   2.546   1.055
 6323SOL    HW119868   2.664   2.467   0.998
 6323SOL    HW219869   2.607   2.575   1.106
 6324SOL     OW19870   4.769   1.245   0.977
 6324SOL    HW119871   4.727   1.160   0.945
 6324SOL    HW219872   4.771   1.246   1.077
 6325SOL     OW19873   1.525   2.321   2.242
 6325SOL    HW119874   1.523   2.412   2.284
 6325SOL    HW219875   1.558   2.254   2.309
 6326SOL     OW19876   4.718   4.781   5.934
 6326SOL    HW119877   4.774   4.854   5.897
 6326SOL    HW219878   4.753   4.754   6.024
 6327SOL     OW19879   0.226   1.977   3.612
 6327SOL    HW119880   0.263   2.023   3.531
 6327SOL    HW219881   0.169   2.041   3.663
 6328SOL     OW19882   4.705   3.338   5.955
 6328SOL    HW119883   4.792   3.311   5.913
 6328SOL    HW219884   4.646   3.379   5.886
 6329SOL     OW19885   0.960   2.736   5.150
 6329SOL    HW119886   0.939   2.664   5.084
 6329SOL    HW219887   0.915   2.716   5.237
 6330SOL     OW19888   6.025   1.335   3.014
 6330SOL    HW119889   6.029   1.271   3.090
 6330SOL    HW219890   5.964   1.411   3.038
 6331SOL     OW19891   6.604   2.836   4.510
 6331SOL    HW119892   6.511   2.862   4.483
 6331SOL    HW219893   6.627   2.882   4.596
 6332SOL     OW19894   1.714   1.754   1.253
 6332SOL    HW119895   1.686   1.738   1.347
 6332SOL    HW219896   1.732   1.667   1.207
 6333SOL     OW19897   4.979   6.673   0.518
 6333SOL    HW119898   5.027   6.736   0.457
 6333SOL    HW219899   4.971   6.715   0.609
 6334SOL     OW19900   2.710   1.687   1.899
 6334SOL    HW119901   2.704   1.775   1.851
 6334SOL    HW219902   2.794   1.685   1.953
 6335SOL     OW19903   5.519   0.546   1.207
 6335SOL    HW119904   5.603   0.509   1.167
 6335SOL    HW219905   5.466   0.592   1.136
 6336SOL     OW19906   0.118   4.686   5.918
 6336SOL    HW119907   0.163   4.775   5.931
 6336SOL    HW219908   0.129   4.657   5.824
 6337SOL     OW19909   4.309   5.834   5.032
 6337SOL    HW119910   4.323   5.925   5.071
 6337SOL    HW219911   4.373   5.820   4.957
 6338SOL     OW19912   3.183   2.096   4.335
 6338SOL    HW119913   3.243   2.050   4.269
 6338SOL    HW219914   3.110   2.144   4.286
 6339SOL     OW19915   0.871   3.884   2.534
 6339SOL    HW119916   0.789   3.890   2.590
 6339SOL    HW219917   0.876   3.793   2.491
 6340SOL     OW19918   2.577   3.878   1.317
 6340SOL    HW119919   2.621   3.899   1.405
 6340SOL    HW219920   2.482   3.851   1.334
 6341SOL     OW19921   1.510   4.270   3.698
 6341SOL    HW119922   1.498   4.293   3.795
 6341SOL    HW219923   1.561   4.343   3.652
 6342SOL     OW19924   1.794   0.880   2.109
 6342SOL    HW119925   1.719   0.932   2.149
 6342SOL    HW219926   1.875   0.938   2.100
 6343SOL     OW19927   3.500   6.280   0.079
 6343SOL    HW119928   3.526   6.194   0.035
 6343SOL    HW219929   3.403   6.277   0.101
 6344SOL     OW19930   5.604   2.628   3.759
 6344SOL    HW119931   5.686   2.658   3.808
 6344SOL    HW219932   5.628   2.599   3.667
 6345SOL     OW19933   4.951   3.286   1.889
 6345SOL    HW119934   4.879   3.285   1.820
 6345SOL    HW219935   4.997   3.375   1.888
 6346SOL     OW19936   0.402   4.355   5.687
 6346SOL    HW119937   0.389   4.432   5.625
 6346SOL    HW219938   0.483   4.304   5.659
 6347SOL     OW19939   2.724   2.366   2.463
 6347SOL    HW119940   2.629   2.378   2.432
 6347SOL    HW219941   2.760   2.454   2.493
 6348SOL     OW19942   0.216   1.615   5.854
 6348SOL    HW119943   0.149   1.548   5.887
 6348SOL    HW219944   0.306   1.593   5.890
 6349SOL     OW19945   1.185   0.339   0.113
 6349SOL    HW119946   1.219   0.246   0.127
 6349SOL    HW219947   1.093   0.336   0.075
 6350SOL     OW19948   1.237   4.902   2.167
 6350SOL    HW119949   1.225   4.867   2.074
 6350SOL    HW219950   1.219   4.829   2.233
 6351SOL     OW19951   6.560   3.929   3.121
 6351SOL    HW119952   6.478   3.872   3.125
 6351SOL    HW219953   6.627   3.896   3.187
 6352SOL     OW19954   2.531   0.912   4.260
 6352SOL    HW119955   2.548   0.916   4.359
 6352SOL    HW219956   2.524   0.816   4.232
 6353SOL     OW19957   2.709   5.721   6.844
 6353SOL    HW119958   2.674   5.642   6.896
 6353SOL    HW219959   2.658   5.803   6.869
 6354SOL     OW19960   4.963   5.065   2.870
 6354SOL    HW119961   4.956   4.968   2.849
 6354SOL    HW219962   4.906   5.087   2.949
 6355SOL     OW19963   2.527   4.853   0.496
 6355SOL    HW119964   2.438   4.876   0.535
 6355SOL    HW219965   2.597   4.911   0.537
 6356SOL     OW19966   5.115   4.965   6.547
 6356SOL    HW119967   5.042   4.897   6.549
 6356SOL    HW219968   5.150   4.973   6.454
 6357SOL     OW19969   5.923   2.252   1.241
 6357SOL    HW119970   5.852   2.193   1.202
 6357SOL    HW219971   6.013   2.218   1.214
 6358SOL     OW19972   0.820   1.615   6.184
 6358SOL    HW119973   0.824   1.669   6.099
 6358SOL    HW219974   0.727   1.583   6.199
 6359SOL     OW19975   5.958   6.676   0.908
 6359SOL    HW119976   5.938   6.698   0.813
 6359SOL    HW219977   6.047   6.631   0.914
 6360SOL     OW19978   6.928   2.660   3.804
 6360SOL    HW119979   6.916   2.755   3.831
 6360SOL    HW219980   6.852   2.606   3.841
 6361SOL     OW19981   0.066   0.764   0.120
 6361SOL    HW119982   7.003   0.782   0.179
 6361SOL    HW219983   0.091   0.847   0.070
 6362SOL     OW19984   1.311   5.594   6.665
 6362SOL    HW119985   1.289   5.667   6.600
 6362SOL    HW219986   1.403   5.610   6.702
 6363SOL     OW19987   2.528   4.917   3.774
 6363SOL    HW119988   2.566   4.956   3.857
 6363SOL    HW219989   2.552   4.975   3.696
 6364SOL     OW19990   2.540   2.282   4.647
 6364SOL    HW119991   2.512   2.340   4.723
 6364SOL    HW219992   2.594   2.205   4.682
 6365SOL     OW19993   6.403   5.853   4.487
 6365SOL    HW119994   6.334   5.880   4.555
 6365SOL    HW219995   6.366   5.867   4.395
 6366SOL     OW19996   5.917   6.520   5.132
 6366SOL    HW119997   5.843   6.486   5.074
 6366SOL    HW219998   5.880   6.573   5.208
 6367SOL     OW19999   3.034   2.053   2.981
 6367SOL    HW120000   2.963   2.124   2.979
 6367SOL    HW220001   3.101   2.072   2.910
 6368SOL     OW20002   4.632   4.418   3.756
 6368SOL    HW120003   4.703   4.428   3.686
 6368SOL    HW220004   4.672   4.373   3.837
 6369SOL     OW20005   3.138   6.045   5.885
 6369SOL    HW120006   3.183   6.102   5.954
 6369SOL    HW220007   3.148   6.086   5.795
 6370SOL     OW20008   5.052   3.824   3.419
 6370SOL    HW120009   5.104   3.784   3.495
 6370SOL    HW220010   5.082   3.783   3.333
 6371SOL     OW20011   5.208   4.228   1.862
 6371SOL    HW120012   5.292   4.191   1.822
 6371SOL    HW220013   5.170   4.297   1.800
 6372SOL     OW20014   0.150   1.474   2.778
 6372SOL    HW120015   0.065   1.509   2.817
 6372SOL    HW220016   0.133   1.385   2.735
 6373SOL     OW20017   5.488   4.380   1.492
 6373SOL    HW120018   5.495   4.473   1.528
 6373SOL    HW220019   5.529   4.316   1.556
 6374SOL     OW20020   4.922   2.768   0.129
 6374SOL    HW120021   4.989   2.789   0.057
 6374SOL    HW220022   4.952   2.809   0.215
 6375SOL     OW20023   6.968   2.732   2.302
 6375SOL    HW120024   0.032   2.783   2.267
 6375SOL    HW220025   6.975   2.725   2.401
 6376SOL     OW20026   4.752   0.793   5.374
 6376SOL    HW120027   4.753   0.815   5.472
 6376SOL    HW220028   4.845   0.771   5.344
 6377SOL     OW20029   6.881   0.416   0.143
 6377SOL    HW120030   6.927   0.341   0.192
 6377SOL    HW220031   6.894   0.405   0.045
 6378SOL     OW20032   5.054   5.820   2.639
 6378SOL    HW120033   5.001   5.756   2.695
 6378SOL    HW220034   5.148   5.826   2.674
 6379SOL     OW20035   2.289   5.479   6.231
 6379SOL    HW120036   2.385   5.505   6.220
 6379SOL    HW220037   2.283   5.381   6.248
 6380SOL     OW20038   0.536   3.552   5.042
 6380SOL    HW120039   0.528   3.543   5.141
 6380SOL    HW220040   0.558   3.463   5.002
 6381SOL     OW20041   4.142   3.132   0.521
 6381SOL    HW120042   4.093   3.044   0.517
 6381SOL    HW220043   4.235   3.117   0.554
 6382SOL     OW20044   2.682   1.592   1.413
 6382SOL    HW120045   2.771   1.546   1.401
 6382SOL    HW220046   2.650   1.578   1.506
 6383SOL     OW20047   1.969   2.890   2.774
 6383SOL    HW120048   2.046   2.909   2.714
 6383SOL    HW220049   1.995   2.908   2.869
 6384SOL     OW20050   6.038   2.464   1.900
 6384SOL    HW120051   6.031   2.482   1.998
 6384SOL    HW220052   6.039   2.551   1.850
 6385SOL     OW20053   0.195   3.518   1.173
 6385SOL    HW120054   0.130   3.559   1.108
 6385SOL    HW220055   0.211   3.581   1.249
 6386SOL     OW20056   2.190   3.636   0.602
 6386SOL    HW120057   2.197   3.606   0.697
 6386SOL    HW220058   2.249   3.715   0.587
 6387SOL     OW20059   6.116   0.912   0.081
 6387SOL    HW120060   6.018   0.920   0.100
 6387SOL    HW220061   6.146   0.994   0.033
 6388SOL     OW20062   6.594   5.164   2.985
 6388SOL    HW120063   6.626   5.086   2.932
 6388SOL    HW220064   6.536   5.221   2.927
 6389SOL     OW20065   1.604   6.938   0.256
 6389SOL    HW120066   1.590   6.977   0.347
 6389SOL    HW220067   1.526   6.960   0.198
 6390SOL     OW20068   5.674   0.497   0.371
 6390SOL    HW120069   5.663   0.592   0.402
 6390SOL    HW220070   5.625   0.485   0.285
 6391SOL     OW20071   0.927   1.049   5.427
 6391SOL    HW120072   1.011   0.995   5.429
 6391SOL    HW220073   0.944   1.134   5.376
 6392SOL     OW20074   3.784   5.784   3.607
 6392SOL    HW120075   3.817   5.693   3.630
 6392SOL    HW220076   3.757   5.832   3.691
 6393SOL     OW20077   5.506   6.686   1.680
 6393SOL    HW120078   5.517   6.661   1.776
 6393SOL    HW220079   5.455   6.772   1.673
 6394SOL     OW20080   0.827   4.570   1.002
 6394SOL    HW120081   0.860   4.477   0.986
 6394SOL    HW220082   0.867   4.632   0.934
 6395SOL     OW20083   0.341   3.911   3.012
 6395SOL    HW120084   0.373   3.992   3.061
 6395SOL    HW220085   0.402   3.834   3.031
 6396SOL     OW20086   6.642   3.467   0.335
 6396SOL    HW120087   6.566   3.408   0.361
 6396SOL    HW220088   6.640   3.482   0.236
 6397SOL     OW20089   6.078   2.207   3.023
 6397SOL    HW120090   6.110   2.145   2.952
 6397SOL    HW220091   6.147   2.277   3.040
 6398SOL     OW20092   0.955   6.129   1.380
 6398SOL    HW120093   0.940   6.207   1.440
 6398SOL    HW220094   0.871   6.076   1.372
 6399SOL     OW20095   2.081   6.969   6.686
 6399SOL    HW120096   2.021   6.957   6.607
 6399SOL    HW220097   2.141   6.889   6.694
 6400SOL     OW20098   1.398   6.145   3.223
 6400SOL    HW120099   1.400   6.056   3.177
 6400SOL    HW220100   1.390   6.218   3.155
 6401SOL     OW20101   4.266   5.010   2.754
 6401SOL    HW120102   4.184   5.055   2.788
 6401SOL    HW220103   4.336   5.010   2.825
 6402SOL     OW20104   2.025   4.512   3.702
 6402SOL    HW120105   2.057   4.546   3.791
 6402SOL    HW220106   2.026   4.412   3.702
 6403SOL     OW20107   5.617   6.164   4.961
 6403SOL    HW120108   5.699   6.173   5.018
 6403SOL    HW220109   5.639   6.186   4.866
 6404SOL     OW20110   3.717   1.170   2.509
 6404SOL    HW120111   3.677   1.080   2.496
 6404SOL    HW220112   3.714   1.195   2.606
 6405SOL     OW20113   5.045   1.163   2.893
 6405SOL    HW120114   5.098   1.219   2.829
 6405SOL    HW220115   5.101   1.086   2.924
 6406SOL     OW20116   1.121   2.653   2.508
 6406SOL    HW120117   1.122   2.710   2.591
 6406SOL    HW220118   1.207   2.604   2.500
 6407SOL     OW20119   2.113   6.437   3.648
 6407SOL    HW120120   2.064   6.517   3.683
 6407SOL    HW220121   2.083   6.419   3.554
 6408SOL     OW20122   6.790   0.505   0.893
 6408SOL    HW120123   6.811   0.486   0.797
 6408SOL    HW220124   6.696   0.537   0.901
 6409SOL     OW20125   6.579   5.088   4.029
 6409SOL    HW120126   6.675   5.061   4.037
 6409SOL    HW220127   6.557   5.153   4.102
 6410SOL     OW20128   2.707   1.130   5.438
 6410SOL    HW120129   2.659   1.217   5.446
 6410SOL    HW220130   2.672   1.080   5.358
 6411SOL     OW20131   0.228   3.410   2.049
 6411SOL    HW120132   0.228   3.497   2.097
 6411SOL    HW220133   0.297   3.349   2.089
 6412SOL     OW20134   3.358   0.803   6.281
 6412SOL    HW120135   3.296   0.805   6.202
 6412SOL    HW220136   3.426   0.732   6.267
 6413SOL     OW20137   4.361   4.851   4.510
 6413SOL    HW120138   4.270   4.851   4.470
 6413SOL    HW220139   4.424   4.799   4.451
 6414SOL     OW20140   0.759   0.079   0.128
 6414SOL    HW120141   0.700   0.033   0.062
 6414SOL    HW220142   0.730   0.056   0.221
 6415SOL     OW20143   1.622   3.379   3.251
 6415SOL    HW120144   1.571   3.437   3.314
 6415SOL    HW220145   1.719   3.406   3.251
 6416SOL     OW20146   3.141   6.922   6.844
 6416SOL    HW120147   3.166   6.892   6.936
 6416SOL    HW220148   3.087   6.851   6.800
 6417SOL     OW20149   4.856   1.878   0.887
 6417SOL    HW120150   4.798   1.797   0.881
 6417SOL    HW220151   4.890   1.889   0.980
 6418SOL     OW20152   4.072   4.894   1.515
 6418SOL    HW120153   4.091   4.798   1.533
 6418SOL    HW220154   4.015   4.931   1.589
 6419SOL     OW20155   0.969   6.425   6.560
 6419SOL    HW120156   0.941   6.497   6.497
 6419SOL    HW220157   0.891   6.400   6.619
 6420SOL     OW20158   1.577   3.279   3.940
 6420SOL    HW120159   1.519   3.341   3.886
 6420SOL    HW220160   1.524   3.200   3.969
 6421SOL     OW20161   5.396   6.989   1.341
 6421SOL    HW120162   5.346   6.927   1.280
 6421SOL    HW220163   5.381   0.069   1.311
 6422SOL     OW20164   0.200   2.587   5.373
 6422SOL    HW120165   0.123   2.542   5.418
 6422SOL    HW220166   0.209   2.680   5.407
 6423SOL     OW20167   2.624   5.566   4.719
 6423SOL    HW120168   2.666   5.589   4.630
 6423SOL    HW220169   2.679   5.495   4.763
 6424SOL     OW20170   0.269   3.146   4.764
 6424SOL    HW120171   0.178   3.183   4.749
 6424SOL    HW220172   0.278   3.119   4.860
 6425SOL     OW20173   6.993   5.660   3.329
 6425SOL    HW120174   6.997   5.644   3.427
 6425SOL    HW220175   6.996   5.573   3.281
 6426SOL     OW20176   4.562   4.527   4.894
 6426SOL    HW120177   4.519   4.578   4.819
 6426SOL    HW220178   4.493   4.501   4.961
 6427SOL     OW20179   3.378   3.742   3.043
 6427SOL    HW120180   3.318   3.679   2.995
 6427SOL    HW220181   3.324   3.804   3.099
 6428SOL     OW20182   5.133   2.283   0.244
 6428SOL    HW120183   5.049   2.238   0.214
 6428SOL    HW220184   5.165   2.240   0.329
 6429SOL     OW20185   1.925   0.764   4.909
 6429SOL    HW120186   1.886   0.842   4.860
 6429SOL    HW220187   1.889   0.679   4.871
 6430SOL     OW20188   0.121   0.963   5.227
 6430SOL    HW120189   0.218   0.950   5.245
 6430SOL    HW220190   0.099   0.933   5.135
 6431SOL     OW20191   4.813   5.705   2.769
 6431SOL    HW120192   4.798   5.682   2.673
 6431SOL    HW220193   4.724   5.722   2.813
 6432SOL     OW20194   3.208   3.964   6.512
 6432SOL    HW120195   3.260   4.017   6.445
 6432SOL    HW220196   3.264   3.950   6.594
 6433SOL     OW20197   3.065   5.767   0.012
 6433SOL    HW120198   3.032   5.851   6.983
 6433SOL    HW220199   3.047   5.689   6.968
 6434SOL     OW20200   3.001   6.125   6.371
 6434SOL    HW120201   2.995   6.210   6.319
 6434SOL    HW220202   2.939   6.057   6.331
 6435SOL     OW20203   5.524   0.010   6.954
 6435SOL    HW120204   5.563   0.091   6.997
 6435SOL    HW220205   5.484   0.036   6.866
 6436SOL     OW20206   0.790   4.280   3.855
 6436SOL    HW120207   0.861   4.313   3.918
 6436SOL    HW220208   0.765   4.352   3.791
 6437SOL     OW20209   0.893   1.333   5.353
 6437SOL    HW120210   0.805   1.357   5.394
 6437SOL    HW220211   0.946   1.417   5.337
 6438SOL     OW20212   0.453   5.323   6.817
 6438SOL    HW120213   0.512   5.382   6.872
 6438SOL    HW220214   0.388   5.275   6.877
 6439SOL     OW20215   6.244   1.001   4.300
 6439SOL    HW120216   6.333   1.046   4.307
 6439SOL    HW220217   6.192   1.043   4.225
 6440SOL     OW20218   2.120   0.391   6.330
 6440SOL    HW120219   2.096   0.433   6.417
 6440SOL    HW220220   2.083   0.298   6.327
 6441SOL     OW20221   0.216   0.256   3.639
 6441SOL    HW120222   0.263   0.223   3.721
 6441SOL    HW220223   0.267   0.332   3.599
 6442SOL     OW20224   2.364   2.063   5.074
 6442SOL    HW120225   2.343   1.972   5.041
 6442SOL    HW220226   2.453   2.092   5.037
 6443SOL     OW20227   3.953   1.868   0.741
 6443SOL    HW120228   3.994   1.812   0.813
 6443SOL    HW220229   4.021   1.886   0.670
 6444SOL     OW20230   6.937   2.168   5.562
 6444SOL    HW120231   6.967   2.168   5.467
 6444SOL    HW220232   6.837   2.179   5.565
 6445SOL     OW20233   3.288   3.404   3.576
 6445SOL    HW120234   3.327   3.319   3.613
 6445SOL    HW220235   3.345   3.436   3.501
 6446SOL     OW20236   1.642   1.752   6.481
 6446SOL    HW120237   1.714   1.804   6.435
 6446SOL    HW220238   1.683   1.676   6.531
 6447SOL     OW20239   6.463   4.415   1.191
 6447SOL    HW120240   6.378   4.434   1.142
 6447SOL    HW220241   6.444   4.357   1.270
 6448SOL     OW20242   4.591   5.329   1.798
 6448SOL    HW120243   4.574   5.250   1.739
 6448SOL    HW220244   4.630   5.403   1.743
 6449SOL     OW20245   2.663   5.749   1.526
 6449SOL    HW120246   2.563   5.762   1.525
 6449SOL    HW220247   2.706   5.829   1.568
 6450SOL     OW20248   0.678   4.135   1.096
 6450SOL    HW120249   0.641   4.196   1.026
 6450SOL    HW220250   0.603   4.091   1.146
 6451SOL     OW20251   3.993   1.980   7.002
 6451SOL    HW120252   4.047   1.976   0.071
 6451SOL    HW220253   4.046   2.026   6.931
 6452SOL     OW20254   5.505   3.423   3.365
 6452SOL    HW120255   5.578   3.372   3.320
 6452SOL    HW220256   5.417   3.395   3.328
 6453SOL     OW20257   3.524   0.328   1.047
 6453SOL    HW120258   3.453   0.280   1.098
 6453SOL    HW220259   3.560   0.403   1.103
 6454SOL     OW20260   6.685   2.138   2.665
 6454SOL    HW120261   6.622   2.190   2.722
 6454SOL    HW220262   6.718   2.058   2.716
 6455SOL     OW20263   6.578   4.603   3.143
 6455SOL    HW120264   6.625   4.682   3.181
 6455SOL    HW220265   6.481   4.623   3.131
 6456SOL     OW20266   0.392   1.198   2.634
 6456SOL    HW120267   0.424   1.135   2.705
 6456SOL    HW220268   0.447   1.187   2.552
 6457SOL     OW20269   5.007   6.890   1.492
 6457SOL    HW120270   5.000   6.813   1.429
 6457SOL    HW220271   5.041   6.859   1.581
 6458SOL     OW20272   1.079   4.979   4.373
 6458SOL    HW120273   1.104   4.884   4.351
 6458SOL    HW220274   1.041   5.023   4.292
 6459SOL     OW20275   5.831   2.861   3.249
 6459SOL    HW120276   5.833   2.817   3.338
 6459SOL    HW220277   5.752   2.829   3.197
 6460SOL     OW20278   6.731   5.571   5.031
 6460SOL    HW120279   6.752   5.574   5.129
 6460SOL    HW220280   6.640   5.531   5.018
 6461SOL     OW20281   3.034   4.525   0.832
 6461SOL    HW120282   2.972   4.481   0.897
 6461SOL    HW220283   3.126   4.529   0.871
 6462SOL     OW20284   1.803   3.842   4.442
 6462SOL    HW120285   1.765   3.932   4.466
 6462SOL    HW220286   1.764   3.773   4.503
 6463SOL     OW20287   5.402   0.764   1.048
 6463SOL    HW120288   5.466   0.838   1.071
 6463SOL    HW220289   5.325   0.802   0.996
 6464SOL     OW20290   0.888   6.180   4.432
 6464SOL    HW120291   0.871   6.089   4.393
 6464SOL    HW220292   0.981   6.209   4.410
 6465SOL     OW20293   5.758   2.659   1.995
 6465SOL    HW120294   5.836   2.622   2.045
 6465SOL    HW220295   5.673   2.637   2.043
 6466SOL     OW20296   6.995   3.419   6.259
 6466SOL    HW120297   0.073   3.447   6.281
 6466SOL    HW220298   6.938   3.500   6.248
 6467SOL     OW20299   3.188   0.949   0.712
 6467SOL    HW120300   3.239   0.942   0.627
 6467SOL    HW220301   3.115   1.017   0.702
 6468SOL     OW20302   3.782   6.606   0.223
 6468SOL    HW120303   3.806   6.596   0.320
 6468SOL    HW220304   3.794   6.701   0.195
 6469SOL     OW20305   2.845   1.913   3.729
 6469SOL    HW120306   2.807   1.878   3.644
 6469SOL    HW220307   2.829   1.849   3.803
 6470SOL     OW20308   6.911   2.370   0.142
 6470SOL    HW120309   6.950   2.430   0.073
 6470SOL    HW220310   6.814   2.388   0.151
 6471SOL     OW20311   0.154   6.361   4.952
 6471SOL    HW120312   0.115   6.269   4.947
 6471SOL    HW220313   0.097   6.418   5.012
 6472SOL     OW20314   0.181   6.559   2.650
 6472SOL    HW120315   0.238   6.499   2.596
 6472SOL    HW220316   0.084   6.537   2.635
 6473SOL     OW20317   1.944   1.417   4.192
 6473SOL    HW120318   1.881   1.343   4.168
 6473SOL    HW220319   1.907   1.504   4.160
 6474SOL     OW20320   4.304   4.947   5.161
 6474SOL    HW120321   4.342   5.039   5.151
 6474SOL    HW220322   4.204   4.953   5.170
 6475SOL     OW20323   5.625   5.395   3.410
 6475SOL    HW120324   5.599   5.459   3.337
 6475SOL    HW220325   5.725   5.394   3.419
 6476SOL     OW20326   3.817   2.414   6.818
 6476SOL    HW120327   3.887   2.478   6.786
 6476SOL    HW220328   3.764   2.456   6.891
 6477SOL     OW20329   0.133   6.027   1.112
 6477SOL    HW120330   0.222   5.991   1.082
 6477SOL    HW220331   0.094   6.085   1.040
 6478SOL     OW20332   2.526   6.130   1.565
 6478SOL    HW120333   2.582   6.060   1.608
 6478SOL    HW220334   2.490   6.095   1.478
 6479SOL     OW20335   3.607   5.962   3.762
 6479SOL    HW120336   3.584   6.016   3.842
 6479SOL    HW220337   3.691   5.997   3.721
 6480SOL     OW20338   2.407   0.937   6.145
 6480SOL    HW120339   2.481   0.982   6.195
 6480SOL    HW220340   2.360   1.005   6.088
 6481SOL     OW20341   2.859   2.314   1.634
 6481SOL    HW120342   2.885   2.361   1.718
 6481SOL    HW220343   2.819   2.225   1.656
 6482SOL     OW20344   6.807   2.608   5.661
 6482SOL    HW120345   6.718   2.614   5.615
 6482SOL    HW220346   6.856   2.694   5.651
 6483SOL     OW20347   1.118   5.691   4.416
 6483SOL    HW120348   1.191   5.739   4.368
 6483SOL    HW220349   1.031   5.707   4.370
 6484SOL     OW20350   3.106   1.221   3.067
 6484SOL    HW120351   3.074   1.163   2.991
 6484SOL    HW220352   3.118   1.164   3.149
 6485SOL     OW20353   2.394   6.574   4.975
 6485SOL    HW120354   2.338   6.514   5.033
 6485SOL    HW220355   2.334   6.621   4.910
 6486SOL     OW20356   1.096   4.903   2.789
 6486SOL    HW120357   1.166   4.937   2.851
 6486SOL    HW220358   1.048   4.826   2.833
 6487SOL     OW20359   1.099   5.287   4.562
 6487SOL    HW120360   1.176   5.224   4.563
 6487SOL    HW220361   1.128   5.376   4.597
 6488SOL     OW20362   4.930   5.203   4.310
 6488SOL    HW120363   5.015   5.180   4.358
 6488SOL    HW220364   4.913   5.302   4.318
 6489SOL     OW20365   3.792   2.898   6.504
 6489SOL    HW120366   3.890   2.887   6.520
 6489SOL    HW220367   3.768   2.860   6.415
 6490SOL     OW20368   1.751   1.552   6.643
 6490SOL    HW120369   1.748   1.556   6.742
 6490SOL    HW220370   1.690   1.480   6.610
 6491SOL     OW20371   1.872   0.433   1.070
 6491SOL    HW120372   1.814   0.376   1.128
 6491SOL    HW220373   1.865   0.402   0.975
 6492SOL     OW20374   3.436   4.152   4.352
 6492SOL    HW120375   3.440   4.134   4.450
 6492SOL    HW220376   3.528   4.157   4.315
 6493SOL     OW20377   1.676   4.527   6.209
 6493SOL    HW120378   1.687   4.617   6.251
 6493SOL    HW220379   1.579   4.512   6.187
 6494SOL     OW20380   5.707   6.562   2.261
 6494SOL    HW120381   5.642   6.546   2.335
 6494SOL    HW220382   5.749   6.475   2.233
 6495SOL     OW20383   6.455   0.021   4.516
 6495SOL    HW120384   6.416   0.002   4.426
 6495SOL    HW220385   6.436   6.960   4.578
 6496SOL     OW20386   4.716   6.434   1.809
 6496SOL    HW120387   4.793   6.496   1.827
 6496SOL    HW220388   4.750   6.339   1.807
 6497SOL     OW20389   0.327   1.529   1.156
 6497SOL    HW120390   0.250   1.543   1.094
 6497SOL    HW220391   0.303   1.459   1.223
 6498SOL     OW20392   1.020   4.604   4.500
 6498SOL    HW120393   1.049   4.654   4.419
 6498SOL    HW220394   1.099   4.581   4.556
 6499SOL     OW20395   5.696   4.042   4.134
 6499SOL    HW120396   5.666   4.003   4.221
 6499SOL    HW220397   5.783   4.001   4.108
 6500SOL     OW20398   0.642   3.834   2.006
 6500SOL    HW120399   0.717   3.869   1.949
 6500SOL    HW220400   0.610   3.747   1.968
 6501SOL     OW20401   6.884   1.692   0.798
 6501SOL    HW120402   6.846   1.784   0.798
 6501SOL    HW220403   6.856   1.644   0.715
 6502SOL     OW20404   6.156   3.806   1.271
 6502SOL    HW120405   6.132   3.791   1.175
 6502SOL    HW220406   6.179   3.718   1.313
 6503SOL     OW20407   6.341   2.429   6.052
 6503SOL    HW120408   6.438   2.424   6.074
 6503SOL    HW220409   6.329   2.455   5.956
 6504SOL     OW20410   4.805   6.831   6.466
 6504SOL    HW120411   4.885   6.879   6.429
 6504SOL    HW220412   4.832   6.783   6.550
 6505SOL     OW20413   5.824   6.199   0.330
 6505SOL    HW120414   5.757   6.248   0.386
 6505SOL    HW220415   5.884   6.146   0.389
 6506SOL     OW20416   0.006   3.320   3.438
 6506SOL    HW120417   0.074   3.287   3.503
 6506SOL    HW220418   6.949   3.252   3.427
 6507SOL     OW20419   3.395   5.820   6.479
 6507SOL    HW120420   3.326   5.848   6.546
 6507SOL    HW220421   3.483   5.808   6.525
 6508SOL     OW20422   1.402   6.814   1.926
 6508SOL    HW120423   1.313   6.815   1.882
 6508SOL    HW220424   1.452   6.733   1.897
 6509SOL     OW20425   3.920   1.471   5.359
 6509SOL    HW120426   3.962   1.549   5.406
 6509SOL    HW220427   3.903   1.398   5.425
 6510SOL     OW20428   4.371   5.831   5.677
 6510SOL    HW120429   4.419   5.795   5.757
 6510SOL    HW220430   4.431   5.828   5.598
 6511SOL     OW20431   4.430   1.185   5.688
 6511SOL    HW120432   4.479   1.259   5.734
 6511SOL    HW220433   4.331   1.196   5.704
 6512SOL     OW20434   2.902   0.159   2.227
 6512SOL    HW120435   2.998   0.156   2.202
 6512SOL    HW220436   2.875   0.253   2.248
 6513SOL     OW20437   2.753   5.806   4.851
 6513SOL    HW120438   2.806   5.727   4.819
 6513SOL    HW220439   2.656   5.789   4.838
 6514SOL     OW20440   5.957   0.428   5.391
 6514SOL    HW120441   5.895   0.360   5.431
 6514SOL    HW220442   5.918   0.462   5.305
 6515SOL     OW20443   2.399   4.855   2.255
 6515SOL    HW120444   2.397   4.840   2.353
 6515SOL    HW220445   2.330   4.798   2.210
 6516SOL     OW20446   6.766   3.344   2.045
 6516SOL    HW120447   6.853   3.305   2.015
 6516SOL    HW220448   6.691   3.298   1.998
 6517SOL     OW20449   6.636   1.891   0.419
 6517SOL    HW120450   6.558   1.845   0.377
 6517SOL    HW220451   6.614   1.987   0.434
 6518SOL     OW20452   0.057   0.973   2.284
 6518SOL    HW120453   0.101   0.887   2.311
 6518SOL    HW220454   7.014   0.956   2.204
 6519SOL     OW20455   0.804   1.066   3.182
 6519SOL    HW120456   0.721   1.040   3.132
 6519SOL    HW220457   0.779   1.115   3.265
 6520SOL     OW20458   6.855   5.708   6.925
 6520SOL    HW120459   6.867   5.807   6.933
 6520SOL    HW220460   6.757   5.686   6.923
 6521SOL     OW20461   1.419   3.125   3.425
 6521SOL    HW120462   1.389   3.220   3.414
 6521SOL    HW220463   1.453   3.111   3.518
 6522SOL     OW20464   2.872   4.196   5.629
 6522SOL    HW120465   2.868   4.235   5.537
 6522SOL    HW220466   2.786   4.216   5.676
 6523SOL     OW20467   5.598   0.194   0.137
 6523SOL    HW120468   5.587   0.292   0.122
 6523SOL    HW220469   5.595   0.175   0.235
 6524SOL     OW20470   2.639   2.482   1.853
 6524SOL    HW120471   2.735   2.462   1.874
 6524SOL    HW220472   2.603   2.546   1.921
 6525SOL     OW20473   2.008   5.360   3.943
 6525SOL    HW120474   1.910   5.343   3.934
 6525SOL    HW220475   2.038   5.421   3.870
 6526SOL     OW20476   6.950   0.318   1.199
 6526SOL    HW120477   6.859   0.352   1.176
 6526SOL    HW220478   6.970   0.237   1.144
 6527SOL     OW20479   0.313   2.818   0.540
 6527SOL    HW120480   0.372   2.738   0.542
 6527SOL    HW220481   0.221   2.791   0.513
 6528SOL     OW20482   6.175   1.425   6.033
 6528SOL    HW120483   6.210   1.343   6.079
 6528SOL    HW220484   6.135   1.486   6.102
 6529SOL     OW20485   0.653   1.469   2.169
 6529SOL    HW120486   0.720   1.529   2.213
 6529SOL    HW220487   0.568   1.470   2.221
 6530SOL     OW20488   0.515   2.452   2.160
 6530SOL    HW120489   0.539   2.365   2.116
 6530SOL    HW220490   0.456   2.435   2.238
 6531SOL     OW20491   3.892   3.316   5.623
 6531SOL    HW120492   3.960   3.251   5.655
 6531SOL    HW220493   3.888   3.316   5.523
 6532SOL     OW20494   1.713   1.087   0.718
 6532SOL    HW120495   1.694   1.039   0.804
 6532SOL    HW220496   1.730   1.183   0.737
 6533SOL     OW20497   4.677   5.184   0.248
 6533SOL    HW120498   4.753   5.119   0.254
 6533SOL    HW220499   4.663   5.228   0.336
 6534SOL     OW20500   5.326   5.065   1.837
 6534SOL    HW120501   5.397   5.049   1.906
 6534SOL    HW220502   5.352   5.143   1.780
 6535SOL     OW20503   5.570   4.145   4.681
 6535SOL    HW120504   5.502   4.198   4.632
 6535SOL    HW220505   5.640   4.206   4.718
 6536SOL     OW20506   0.725   2.289   5.023
 6536SOL    HW120507   0.822   2.292   5.048
 6536SOL    HW220508   0.712   2.331   4.933
 6537SOL     OW20509   6.058   4.403   5.335
 6537SOL    HW120510   6.122   4.459   5.283
 6537SOL    HW220511   6.067   4.307   5.309
 6538SOL     OW20512   1.989   3.718   5.261
 6538SOL    HW120513   1.918   3.700   5.194
 6538SOL    HW220514   2.003   3.637   5.318
 6539SOL     OW20515   5.690   1.082   7.015
 6539SOL    HW120516   5.690   1.180   0.020
 6539SOL    HW220517   5.599   1.056   6.980
 6540SOL     OW20518   3.217   2.555   5.710
 6540SOL    HW120519   3.294   2.551   5.647
 6540SOL    HW220520   3.155   2.478   5.691
 6541SOL     OW20521   5.561   2.640   5.753
 6541SOL    HW120522   5.587   2.734   5.779
 6541SOL    HW220523   5.474   2.617   5.795
 6542SOL     OW20524   1.317   3.844   4.680
 6542SOL    HW120525   1.312   3.808   4.587
 6542SOL    HW220526   1.400   3.900   4.689
 6543SOL     OW20527   3.240   2.039   5.146
 6543SOL    HW120528   3.177   1.983   5.200
 6543SOL    HW220529   3.203   2.131   5.137
 6544SOL     OW20530   0.257   0.113   2.290
 6544SOL    HW120531   0.357   0.120   2.295
 6544SOL    HW220532   0.218   0.205   2.279
 6545SOL     OW20533   4.403   6.855   1.044
 6545SOL    HW120534   4.475   6.877   0.978
 6545SOL    HW220535   4.411   6.916   1.123
 6546SOL     OW20536   4.534   4.640   6.534
 6546SOL    HW120537   4.439   4.661   6.508
 6546SOL    HW220538   4.573   4.719   6.580
 6547SOL     OW20539   5.160   6.790   6.061
 6547SOL    HW120540   5.162   6.889   6.075
 6547SOL    HW220541   5.178   6.744   6.148
 6548SOL     OW20542   0.855   2.418   6.400
 6548SOL    HW120543   0.832   2.390   6.493
 6548SOL    HW220544   0.825   2.512   6.385
 6549SOL     OW20545   4.799   0.099   1.830
 6549SOL    HW120546   4.871   0.136   1.888
 6549SOL    HW220547   4.714   0.149   1.846
 6550SOL     OW20548   6.704   0.744   3.356
 6550SOL    HW120549   6.653   0.685   3.419
 6550SOL    HW220550   6.707   0.701   3.265
 6551SOL     OW20551   2.883   3.332   1.794
 6551SOL    HW120552   2.789   3.366   1.796
 6551SOL    HW220553   2.890   3.258   1.726
 6552SOL     OW20554   2.232   6.588   0.792
 6552SOL    HW120555   2.301   6.518   0.772
 6552SOL    HW220556   2.160   6.548   0.849
 6553SOL     OW20557   0.496   1.423   3.069
 6553SOL    HW120558   0.446   1.359   3.127
 6553SOL    HW220559   0.430   1.479   3.019
 6554SOL     OW20560   2.766   0.966   4.930
 6554SOL    HW120561   2.831   0.896   4.959
 6554SOL    HW220562   2.814   1.038   4.881
 6555SOL     OW20563   6.397   1.919   4.445
 6555SOL    HW120564   6.332   1.843   4.449
 6555SOL    HW220565   6.374   1.986   4.517
 6556SOL     OW20566   6.278   3.277   2.624
 6556SOL    HW120567   6.360   3.227   2.652
 6556SOL    HW220568   6.203   3.255   2.686
 6557SOL     OW20569   1.900   0.212   2.721
 6557SOL    HW120570   1.874   0.307   2.739
 6557SOL    HW220571   1.937   0.172   2.805
 6558SOL     OW20572   5.765   5.110   0.219
 6558SOL    HW120573   5.839   5.043   0.226
 6558SOL    HW220574   5.769   5.156   0.131
 6559SOL     OW20575   6.906   3.274   6.864
 6559SOL    HW120576   6.914   3.361   6.816
 6559SOL    HW220577   6.831   3.280   6.930
 6560SOL     OW20578   3.813   4.576   0.366
 6560SOL    HW120579   3.838   4.618   0.454
 6560SOL    HW220580   3.751   4.637   0.317
 6561SOL     OW20581   4.063   4.827   0.625
 6561SOL    HW120582   4.014   4.912   0.605
 6561SOL    HW220583   3.999   4.751   0.622
 6562SOL     OW20584   5.456   2.995   1.195
 6562SOL    HW120585   5.441   2.897   1.196
 6562SOL    HW220586   5.392   3.040   1.257
 6563SOL     OW20587   4.781   0.288   5.961
 6563SOL    HW120588   4.781   0.387   5.947
 6563SOL    HW220589   4.834   0.244   5.888
 6564SOL     OW20590   6.194   4.029   1.903
 6564SOL    HW120591   6.246   3.950   1.936
 6564SOL    HW220592   6.256   4.094   1.859
 6565SOL     OW20593   5.806   6.806   2.913
 6565SOL    HW120594   5.780   6.903   2.918
 6565SOL    HW220595   5.757   6.755   2.984
 6566SOL     OW20596   3.194   5.706   2.147
 6566SOL    HW120597   3.185   5.616   2.104
 6566SOL    HW220598   3.286   5.717   2.185
 6567SOL     OW20599   4.091   0.736   1.727
 6567SOL    HW120600   4.062   0.803   1.795
 6567SOL    HW220601   4.023   0.663   1.720
 6568SOL     OW20602   4.593   1.366   2.597
 6568SOL    HW120603   4.662   1.382   2.527
 6568SOL    HW220604   4.551   1.276   2.583
 6569SOL     OW20605   0.747   2.843   6.101
 6569SOL    HW120606   0.805   2.881   6.173
 6569SOL    HW220607   0.788   2.860   6.012
 6570SOL     OW20608   3.990   0.973   2.437
 6570SOL    HW120609   4.049   0.892   2.435
 6570SOL    HW220610   3.966   0.995   2.531
 6571SOL     OW20611   2.347   5.133   3.354
 6571SOL    HW120612   2.399   5.122   3.439
 6571SOL    HW220613   2.291   5.215   3.360
 6572SOL     OW20614   0.806   4.394   4.414
 6572SOL    HW120615   0.878   4.464   4.406
 6572SOL    HW220616   0.833   4.326   4.482
 6573SOL     OW20617   1.660   0.809   3.251
 6573SOL    HW120618   1.582   0.859   3.213
 6573SOL    HW220619   1.728   0.875   3.285
 6574SOL     OW20620   2.661   6.538   3.658
 6574SOL    HW120621   2.600   6.588   3.718
 6574SOL    HW220622   2.714   6.602   3.602
 6575SOL     OW20623   0.298   0.122   2.781
 6575SOL    HW120624   0.317   0.029   2.812
 6575SOL    HW220625   0.353   0.142   2.700
 6576SOL     OW20626   3.253   4.742   0.370
 6576SOL    HW120627   3.294   4.798   0.299
 6576SOL    HW220628   3.323   4.682   0.410
 6577SOL     OW20629   1.847   2.763   3.273
 6577SOL    HW120630   1.905   2.733   3.348
 6577SOL    HW220631   1.771   2.818   3.308
 6578SOL     OW20632   1.094   6.241   1.608
 6578SOL    HW120633   1.014   6.298   1.591
 6578SOL    HW220634   1.064   6.152   1.643
 6579SOL     OW20635   0.487   1.718   4.113
 6579SOL    HW120636   0.497   1.817   4.102
 6579SOL    HW220637   0.527   1.672   4.034
 6580SOL     OW20638   0.928   0.657   0.574
 6580SOL    HW120639   0.930   0.558   0.560
 6580SOL    HW220640   0.954   0.703   0.489
 6581SOL     OW20641   1.426   1.091   0.580
 6581SOL    HW120642   1.520   1.058   0.588
 6581SOL    HW220643   1.392   1.072   0.488
 6582SOL     OW20644   0.032   0.690   2.553
 6582SOL    HW120645   6.966   0.721   2.503
 6582SOL    HW220646   0.041   0.591   2.542
 6583SOL     OW20647   4.965   6.592   5.472
 6583SOL    HW120648   4.889   6.587   5.407
 6583SOL    HW220649   4.930   6.602   5.565
 6584SOL     OW20650   3.752   2.598   0.765
 6584SOL    HW120651   3.806   2.537   0.708
 6584SOL    HW220652   3.782   2.693   0.751
 6585SOL     OW20653   6.936   6.615   0.578
 6585SOL    HW120654   6.901   6.681   0.644
 6585SOL    HW220655   7.012   6.655   0.528
 6586SOL     OW20656   6.410   1.936   6.012
 6586SOL    HW120657   6.434   1.860   6.073
 6586SOL    HW220658   6.345   1.904   5.942
 6587SOL     OW20659   1.416   4.458   5.999
 6587SOL    HW120660   1.366   4.386   5.952
 6587SOL    HW220661   1.366   4.544   5.993
 6588SOL     OW20662   0.835   3.125   0.508
 6588SOL    HW120663   0.854   3.151   0.413
 6588SOL    HW220664   0.786   3.038   0.509
 6589SOL     OW20665   5.573   0.586   1.854
 6589SOL    HW120666   5.649   0.584   1.789
 6589SOL    HW220667   5.489   0.612   1.807
 6590SOL     OW20668   0.591   0.221   5.111
 6590SOL    HW120669   0.541   0.159   5.172
 6590SOL    HW220670   0.670   0.173   5.073
 6591SOL     OW20671   5.273   5.773   4.137
 6591SOL    HW120672   5.339   5.700   4.124
 6591SOL    HW220673   5.283   5.841   4.065
 6592SOL     OW20674   5.074   0.381   2.945
 6592SOL    HW120675   4.990   0.420   2.906
 6592SOL    HW220676   5.113   0.445   3.011
 6593SOL     OW20677   2.895   2.220   2.304
 6593SOL    HW120678   2.821   2.254   2.362
 6593SOL    HW220679   2.903   2.278   2.223
 6594SOL     OW20680   3.331   1.816   5.980
 6594SOL    HW120681   3.379   1.898   6.012
 6594SOL    HW220682   3.234   1.824   6.002
 6595SOL     OW20683   1.283   3.026   4.892
 6595SOL    HW120684   1.364   3.019   4.951
 6595SOL    HW220685   1.269   2.940   4.844
 6596SOL     OW20686   4.250   5.802   2.929
 6596SOL    HW120687   4.169   5.858   2.911
 6596SOL    HW220688   4.309   5.849   2.996
 6597SOL     OW20689   1.397   5.343   1.826
 6597SOL    HW120690   1.327   5.350   1.755
 6597SOL    HW220691   1.445   5.430   1.833
 6598SOL     OW20692   1.949   4.257   3.392
 6598SOL    HW120693   1.931   4.237   3.295
 6598SOL    HW220694   2.044   4.287   3.403
 6599SOL     OW20695   5.446   5.592   6.597
 6599SOL    HW120696   5.472   5.571   6.691
 6599SOL    HW220697   5.353   5.560   6.580
 6600SOL     OW20698   4.308   0.032   4.712
 6600SOL    HW120699   4.307   6.961   4.662
 6600SOL    HW220700   4.236   0.031   4.782
 6601SOL     OW20701   0.968   2.737   2.892
 6601SOL    HW120702   0.989   2.670   2.964
 6601SOL    HW220703   0.869   2.744   2.882
 6602SOL     OW20704   2.638   0.141   1.474
 6602SOL    HW120705   2.696   0.059   1.477
 6602SOL    HW220706   2.611   0.159   1.380
 6603SOL     OW20707   0.507   2.984   3.599
 6603SOL    HW120708   0.499   2.884   3.599
 6603SOL    HW220709   0.431   3.023   3.547
 6604SOL     OW20710   2.055   0.531   1.646
 6604SOL    HW120711   2.045   0.629   1.662
 6604SOL    HW220712   2.061   0.514   1.547
 6605SOL     OW20713   5.800   5.701   1.967
 6605SOL    HW120714   5.858   5.757   1.908
 6605SOL    HW220715   5.774   5.617   1.919
 6606SOL     OW20716   0.187   3.735   3.245
 6606SOL    HW120717   0.256   3.771   3.307
 6606SOL    HW220718   0.231   3.683   3.172
 6607SOL     OW20719   6.452   4.847   4.079
 6607SOL    HW120720   6.503   4.931   4.067
 6607SOL    HW220721   6.476   4.805   4.167
 6608SOL     OW20722   6.833   0.429   0.610
 6608SOL    HW120723   6.866   0.340   0.579
 6608SOL    HW220724   6.840   0.495   0.536
 6609SOL     OW20725   4.911   1.024   6.194
 6609SOL    HW120726   4.881   0.935   6.158
 6609SOL    HW220727   5.008   1.037   6.175
 6610SOL     OW20728   2.421   5.752   0.276
 6610SOL    HW120729   2.442   5.849   0.273
 6610SOL    HW220730   2.323   5.738   0.262
 6611SOL     OW20731   5.007   2.826   3.952
 6611SOL    HW120732   5.073   2.899   3.967
 6611SOL    HW220733   5.047   2.757   3.891
 6612SOL     OW20734   6.757   2.104   6.086
 6612SOL    HW120735   6.731   2.059   6.172
 6612SOL    HW220736   6.811   2.185   6.105
 6613SOL     OW20737   5.547   6.799   6.185
 6613SOL    HW120738   5.599   6.815   6.101
 6613SOL    HW220739   5.610   6.775   6.259
 6614SOL     OW20740   4.529   6.527   1.035
 6614SOL    HW120741   4.544   6.467   0.956
 6614SOL    HW220742   4.551   6.621   1.009
 6615SOL     OW20743   1.877   5.605   0.653
 6615SOL    HW120744   1.783   5.573   0.641
 6615SOL    HW220745   1.898   5.612   0.750
 6616SOL     OW20746   4.028   6.943   6.016
 6616SOL    HW120747   4.099   6.873   6.012
 6616SOL    HW220748   3.949   6.914   5.961
 6617SOL     OW20749   4.094   6.741   3.690
 6617SOL    HW120750   4.024   6.723   3.621
 6617SOL    HW220751   4.051   6.781   3.771
 6618SOL     OW20752   0.636   1.286   2.886
 6618SOL    HW120753   0.595   1.195   2.880
 6618SOL    HW220754   0.588   1.340   2.955
 6619SOL     OW20755   4.324   6.870   3.936
 6619SOL    HW120756   4.306   6.798   4.002
 6619SOL    HW220757   4.367   6.831   3.854
 6620SOL     OW20758   1.921   3.625   3.715
 6620SOL    HW120759   1.988   3.581   3.655
 6620SOL    HW220760   1.829   3.596   3.690
 6621SOL     OW20761   3.827   3.019   5.239
 6621SOL    HW120762   3.742   2.970   5.261
 6621SOL    HW220763   3.853   2.998   5.145
 6622SOL     OW20764   5.979   5.867   1.373
 6622SOL    HW120765   6.039   5.916   1.435
 6622SOL    HW220766   6.029   5.791   1.331
 6623SOL     OW20767   3.795   3.971   4.850
 6623SOL    HW120768   3.764   4.060   4.817
 6623SOL    HW220769   3.728   3.901   4.824
 6624SOL     OW20770   0.396   3.152   5.558
 6624SOL    HW120771   0.449   3.069   5.576
 6624SOL    HW220772   0.421   3.223   5.624
 6625SOL     OW20773   5.925   2.479   5.516
 6625SOL    HW120774   5.850   2.431   5.471
 6625SOL    HW220775   6.000   2.493   5.451
 6626SOL     OW20776   3.449   0.292   5.302
 6626SOL    HW120777   3.474   0.226   5.372
 6626SOL    HW220778   3.389   0.361   5.341
 6627SOL     OW20779   1.603   6.378   4.093
 6627SOL    HW120780   1.521   6.333   4.060
 6627SOL    HW220781   1.684   6.334   4.054
 6628SOL     OW20782   5.432   5.567   4.075
 6628SOL    HW120783   5.532   5.560   4.079
 6628SOL    HW220784   5.392   5.477   4.088
 6629SOL     OW20785   4.697   4.854   6.539
 6629SOL    HW120786   4.747   4.858   6.625
 6629SOL    HW220787   4.761   4.858   6.462
 6630SOL     OW20788   3.933   1.668   1.696
 6630SOL    HW120789   3.933   1.621   1.784
 6630SOL    HW220790   4.023   1.656   1.652
 6631SOL     OW20791   2.289   5.391   4.872
 6631SOL    HW120792   2.316   5.297   4.889
 6631SOL    HW220793   2.210   5.392   4.810
 6632SOL     OW20794   1.411   1.273   1.037
 6632SOL    HW120795   1.408   1.195   0.975
 6632SOL    HW220796   1.321   1.316   1.041
 6633SOL     OW20797   3.273   4.922   5.919
 6633SOL    HW120798   3.187   4.872   5.935
 6633SOL    HW220799   3.312   4.894   5.832
 6634SOL     OW20800   4.786   2.190   5.060
 6634SOL    HW120801   4.754   2.097   5.080
 6634SOL    HW220802   4.871   2.207   5.111
 6635SOL     OW20803   4.788   4.065   2.747
 6635SOL    HW120804   4.811   3.976   2.707
 6635SOL    HW220805   4.703   4.058   2.799
 6636SOL     OW20806   3.090   0.781   2.694
 6636SOL    HW120807   3.010   0.767   2.635
 6636SOL    HW220808   3.063   0.836   2.773
 6637SOL     OW20809   2.415   0.400   0.373
 6637SOL    HW120810   2.486   0.395   0.302
 6637SOL    HW220811   2.369   0.489   0.369
 6638SOL     OW20812   2.917   3.698   3.584
 6638SOL    HW120813   2.916   3.598   3.574
 6638SOL    HW220814   2.872   3.723   3.669
 6639SOL     OW20815   3.857   3.168   6.657
 6639SOL    HW120816   3.770   3.216   6.649
 6639SOL    HW220817   3.866   3.102   6.582
 6640SOL     OW20818   6.684   2.175   5.582
 6640SOL    HW120819   6.651   2.081   5.576
 6640SOL    HW220820   6.614   2.237   5.549
 6641SOL     OW20821   3.457   1.565   0.711
 6641SOL    HW120822   3.429   1.656   0.680
 6641SOL    HW220823   3.530   1.574   0.780
 6642SOL     OW20824   2.301   5.052   6.841
 6642SOL    HW120825   2.256   5.021   6.925
 6642SOL    HW220826   2.281   4.989   6.767
 6643SOL     OW20827   6.361   6.690   0.818
 6643SOL    HW120828   6.284   6.753   0.802
 6643SOL    HW220829   6.327   6.607   0.863
 6644SOL     OW20830   1.796   6.573   3.264
 6644SOL    HW120831   1.700   6.558   3.287
 6644SOL    HW220832   1.812   6.671   3.253
 6645SOL     OW20833   5.783   2.876   0.569
 6645SOL    HW120834   5.686   2.901   0.567
 6645SOL    HW220835   5.793   2.779   0.548
 6646SOL     OW20836   4.219   0.862   6.101
 6646SOL    HW120837   4.294   0.902   6.049
 6646SOL    HW220838   4.178   0.788   6.049
 6647SOL     OW20839   4.198   6.202   1.070
 6647SOL    HW120840   4.240   6.112   1.056
 6647SOL    HW220841   4.099   6.191   1.081
 6648SOL     OW20842   3.722   5.777   4.501
 6648SOL    HW120843   3.664   5.716   4.447
 6648SOL    HW220844   3.818   5.756   4.484
 6649SOL     OW20845   6.170   3.034   6.715
 6649SOL    HW120846   6.126   2.968   6.654
 6649SOL    HW220847   6.251   2.992   6.756
 6650SOL     OW20848   3.883   1.567   4.766
 6650SOL    HW120849   3.897   1.568   4.865
 6650SOL    HW220850   3.885   1.473   4.732
 6651SOL     OW20851   1.736   2.060   0.160
 6651SOL    HW120852   1.703   2.108   0.079
 6651SOL    HW220853   1.666   1.996   0.191
 6652SOL     OW20854   1.074   4.680   0.272
 6652SOL    HW120855   1.013   4.724   0.206
 6652SOL    HW220856   1.094   4.587   0.241
 6653SOL     OW20857   4.906   2.985   0.834
 6653SOL    HW120858   4.819   2.993   0.785
 6653SOL    HW220859   4.960   2.911   0.794
 6654SOL     OW20860   0.182   5.153   2.783
 6654SOL    HW120861   0.152   5.191   2.870
 6654SOL    HW220862   0.186   5.053   2.790
 6655SOL     OW20863   0.183   6.210   2.125
 6655SOL    HW120864   0.207   6.244   2.034
 6655SOL    HW220865   0.099   6.156   2.120
 6656SOL     OW20866   4.525   1.710   2.703
 6656SOL    HW120867   4.568   1.747   2.621
 6656SOL    HW220868   4.545   1.612   2.710
 6657SOL     OW20869   5.856   2.606   4.818
 6657SOL    HW120870   5.860   2.672   4.893
 6657SOL    HW220871   5.833   2.516   4.854
 6658SOL     OW20872   6.809   0.154   5.286
 6658SOL    HW120873   6.862   0.171   5.203
 6658SOL    HW220874   6.872   0.128   5.360
 6659SOL     OW20875   1.206   4.267   1.587
 6659SOL    HW120876   1.276   4.336   1.567
 6659SOL    HW220877   1.137   4.307   1.647
 6660SOL     OW20878   1.821   5.031   1.957
 6660SOL    HW120879   1.781   5.121   1.938
 6660SOL    HW220880   1.917   5.043   1.983
 6661SOL     OW20881   2.733   0.319   4.709
 6661SOL    HW120882   2.687   0.340   4.795
 6661SOL    HW220883   2.832   0.311   4.726
 6662SOL     OW20884   2.278   0.697   1.112
 6662SOL    HW120885   2.228   0.614   1.091
 6662SOL    HW220886   2.274   0.715   1.211
 6663SOL     OW20887   1.154   5.794   5.598
 6663SOL    HW120888   1.217   5.754   5.664
 6663SOL    HW220889   1.181   5.888   5.580
 6664SOL     OW20890   2.266   0.735   1.390
 6664SOL    HW120891   2.217   0.652   1.418
 6664SOL    HW220892   2.349   0.744   1.445
 6665SOL     OW20893   1.958   6.370   5.982
 6665SOL    HW120894   1.990   6.444   5.923
 6665SOL    HW220895   1.874   6.398   6.028
 6666SOL     OW20896   6.466   5.551   4.909
 6666SOL    HW120897   6.488   5.509   4.821
 6666SOL    HW220898   6.368   5.548   4.924
 6667SOL     OW20899   6.942   6.522   5.970
 6667SOL    HW120900   6.925   6.472   6.055
 6667SOL    HW220901   6.903   6.471   5.893
 6668SOL     OW20902   6.850   6.112   1.105
 6668SOL    HW120903   6.802   6.169   1.172
 6668SOL    HW220904   6.815   6.132   1.014
 6669SOL     OW20905   3.716   2.126   1.538
 6669SOL    HW120906   3.792   2.143   1.601
 6669SOL    HW220907   3.630   2.143   1.585
 6670SOL     OW20908   3.043   1.194   6.512
 6670SOL    HW120909   3.023   1.117   6.572
 6670SOL    HW220910   2.989   1.186   6.428
 6671SOL     OW20911   5.422   6.654   0.628
 6671SOL    HW120912   5.476   6.669   0.545
 6671SOL    HW220913   5.350   6.587   0.608
 6672SOL     OW20914   1.488   2.152   0.336
 6672SOL    HW120915   1.581   2.185   0.318
 6672SOL    HW220916   1.491   2.082   0.408
 6673SOL     OW20917   4.965   3.909   3.964
 6673SOL    HW120918   5.022   3.852   4.023
 6673SOL    HW220919   4.905   3.966   4.021
 6674SOL     OW20920   0.264   3.073   6.690
 6674SOL    HW120921   0.292   2.982   6.661
 6674SOL    HW220922   0.264   3.077   6.790
 6675SOL     OW20923   4.779   2.159   6.969
 6675SOL    HW120924   4.743   2.125   6.883
 6675SOL    HW220925   4.802   2.256   6.959
 6676SOL     OW20926   1.114   3.569   2.628
 6676SOL    HW120927   1.056   3.611   2.559
 6676SOL    HW220928   1.197   3.623   2.639
 6677SOL     OW20929   0.645   0.523   6.583
 6677SOL    HW120930   0.711   0.588   6.545
 6677SOL    HW220931   0.564   0.519   6.525
 6678SOL     OW20932   1.906   4.283   0.926
 6678SOL    HW120933   1.886   4.307   0.831
 6678SOL    HW220934   1.934   4.187   0.930
 6679SOL     OW20935   4.003   0.970   3.957
 6679SOL    HW120936   3.995   0.871   3.947
 6679SOL    HW220937   3.927   1.014   3.909
 6680SOL     OW20938   4.386   6.286   6.594
 6680SOL    HW120939   4.390   6.345   6.514
 6680SOL    HW220940   4.311   6.220   6.583
 6681SOL     OW20941   4.913   5.576   1.796
 6681SOL    HW120942   4.991   5.618   1.750
 6681SOL    HW220943   4.830   5.629   1.776
 6682SOL     OW20944   2.454   4.730   6.822
 6682SOL    HW120945   2.503   4.797   6.767
 6682SOL    HW220946   2.357   4.756   6.829
 6683SOL     OW20947   5.776   3.253   6.077
 6683SOL    HW120948   5.747   3.226   6.168
 6683SOL    HW220949   5.828   3.339   6.082
 6684SOL     OW20950   3.840   6.851   2.190
 6684SOL    HW120951   3.750   6.821   2.221
 6684SOL    HW220952   3.902   6.858   2.268
 6685SOL     OW20953   4.830   3.047   6.535
 6685SOL    HW120954   4.820   3.053   6.436
 6685SOL    HW220955   4.804   3.134   6.577
 6686SOL     OW20956   6.241   5.910   3.481
 6686SOL    HW120957   6.227   5.919   3.382
 6686SOL    HW220958   6.237   6.000   3.524
 6687SOL     OW20959   0.573   2.676   1.769
 6687SOL    HW120960   0.629   2.717   1.696
 6687SOL    HW220961   0.596   2.579   1.778
 6688SOL     OW20962   4.005   4.215   0.695
 6688SOL    HW120963   3.976   4.131   0.740
 6688SOL    HW220964   4.076   4.259   0.751
 6689SOL     OW20965   4.063   3.798   5.966
 6689SOL    HW120966   4.123   3.870   6.000
 6689SOL    HW220967   3.968   3.818   5.992
 6690SOL     OW20968   1.277   6.577   6.975
 6690SOL    HW120969   1.354   6.561   0.021
 6690SOL    HW220970   1.220   6.494   6.971
 6691SOL     OW20971   1.303   0.310   2.736
 6691SOL    HW120972   1.396   0.322   2.700
 6691SOL    HW220973   1.302   0.234   2.801
 6692SOL     OW20974   4.249   3.807   1.719
 6692SOL    HW120975   4.246   3.722   1.772
 6692SOL    HW220976   4.157   3.848   1.716
 6693SOL     OW20977   4.594   1.804   4.752
 6693SOL    HW120978   4.656   1.853   4.690
 6693SOL    HW220979   4.517   1.863   4.776
 6694SOL     OW20980   4.387   5.616   1.081
 6694SOL    HW120981   4.292   5.583   1.074
 6694SOL    HW220982   4.427   5.623   0.990
 6695SOL     OW20983   2.633   1.883   6.855
 6695SOL    HW120984   2.586   1.795   6.864
 6695SOL    HW220985   2.709   1.873   6.790
 6696SOL     OW20986   4.028   3.786   3.216
 6696SOL    HW120987   3.950   3.726   3.238
 6696SOL    HW220988   3.994   3.870   3.173
 6697SOL     OW20989   4.758   2.235   2.888
 6697SOL    HW120990   4.725   2.194   2.803
 6697SOL    HW220991   4.858   2.241   2.885
 6698SOL     OW20992   2.916   3.493   1.182
 6698SOL    HW120993   2.868   3.576   1.211
 6698SOL    HW220994   2.927   3.431   1.260
 6699SOL     OW20995   2.300   6.494   5.482
 6699SOL    HW120996   2.249   6.412   5.455
 6699SOL    HW220997   2.385   6.499   5.429
 6700SOL     OW20998   5.765   0.568   1.016
 6700SOL    HW120999   5.721   0.586   0.928
 6700SOL    HW221000   5.818   0.483   1.009
 6701SOL     OW21001   5.586   6.539   2.500
 6701SOL    HW121002   5.665   6.581   2.543
 6701SOL    HW221003   5.580   6.443   2.528
 6702SOL     OW21004   2.149   2.346   1.836
 6702SOL    HW121005   2.135   2.316   1.930
 6702SOL    HW221006   2.213   2.423   1.833
 6703SOL     OW21007   1.122   1.111   6.886
 6703SOL    HW121008   1.082   1.199   6.862
 6703SOL    HW221009   1.076   1.073   6.966
 6704SOL     OW21010   4.103   1.599   4.406
 6704SOL    HW121011   4.114   1.669   4.336
 6704SOL    HW221012   4.107   1.641   4.497
 6705SOL     OW21013   6.256   2.592   0.951
 6705SOL    HW121014   6.280   2.632   0.863
 6705SOL    HW221015   6.210   2.660   1.007
 6706SOL     OW21016   1.274   6.326   0.552
 6706SOL    HW121017   1.339   6.389   0.595
 6706SOL    HW221018   1.306   6.303   0.460
 6707SOL     OW21019   5.297   0.247   3.174
 6707SOL    HW121020   5.298   0.321   3.241
 6707SOL    HW221021   5.206   0.206   3.173
 6708SOL     OW21022   5.970   5.214   1.359
 6708SOL    HW121023   5.948   5.119   1.378
 6708SOL    HW221024   6.041   5.218   1.288
 6709SOL     OW21025   0.233   4.851   2.694
 6709SOL    HW121026   0.325   4.890   2.696
 6709SOL    HW221027   0.206   4.832   2.600
 6710SOL     OW21028   4.518   1.391   1.255
 6710SOL    HW121029   4.479   1.356   1.169
 6710SOL    HW221030   4.568   1.318   1.301
 6711SOL     OW21031   4.604   6.782   5.669
 6711SOL    HW121032   4.588   6.850   5.598
 6711SOL    HW221033   4.551   6.700   5.650
 6712SOL     OW21034   6.023   3.167   1.261
 6712SOL    HW121035   6.107   3.151   1.209
 6712SOL    HW221036   5.973   3.080   1.272
 6713SOL     OW21037   1.258   1.225   3.414
 6713SOL    HW121038   1.335   1.238   3.352
 6713SOL    HW221039   1.211   1.312   3.427
 6714SOL     OW21040   5.717   0.827   0.753
 6714SOL    HW121041   5.695   0.779   0.668
 6714SOL    HW221042   5.816   0.827   0.767
 6715SOL     OW21043   1.592   1.093   1.458
 6715SOL    HW121044   1.496   1.111   1.476
 6715SOL    HW221045   1.638   1.067   1.543
 6716SOL     OW21046   6.672   5.966   2.708
 6716SOL    HW121047   6.742   5.944   2.776
 6716SOL    HW221048   6.582   5.968   2.751
 6717SOL     OW21049   2.803   2.140   6.238
 6717SOL    HW121050   2.822   2.238   6.243
 6717SOL    HW221051   2.887   2.089   6.256
 6718SOL     OW21052   3.702   1.072   1.012
 6718SOL    HW121053   3.624   1.122   0.974
 6718SOL    HW221054   3.674   1.023   1.095
 6719SOL     OW21055   2.066   6.705   0.218
 6719SOL    HW121056   1.973   6.727   0.250
 6719SOL    HW221057   2.123   6.681   0.297
 6720SOL     OW21058   2.798   1.406   5.132
 6720SOL    HW121059   2.755   1.320   5.159
 6720SOL    HW221060   2.895   1.404   5.156
 6721SOL     OW21061   6.743   6.805   0.495
 6721SOL    HW121062   6.754   6.800   0.395
 6721SOL    HW221063   6.685   6.729   0.525
 6722SOL     OW21064   0.381   2.238   0.476
 6722SOL    HW121065   0.308   2.294   0.516
 6722SOL    HW221066   0.436   2.198   0.548
 6723SOL     OW21067   1.783   0.013   6.255
 6723SOL    HW121068   1.808   0.085   6.190
 6723SOL    HW221069   1.686   7.007   6.246
 6724SOL     OW21070   2.320   2.242   6.173
 6724SOL    HW121071   2.399   2.188   6.146
 6724SOL    HW221072   2.330   2.273   6.268
 6725SOL     OW21073   6.613   2.870   2.435
 6725SOL    HW121074   6.608   2.771   2.423
 6725SOL    HW221075   6.561   2.915   2.363
 6726SOL     OW21076   0.519   1.659   4.373
 6726SOL    HW121077   0.481   1.668   4.281
 6726SOL    HW221078   0.515   1.747   4.420
 6727SOL     OW21079   0.829   4.383   5.781
 6727SOL    HW121080   0.910   4.386   5.840
 6727SOL    HW221081   0.840   4.311   5.713
 6728SOL     OW21082   3.364   1.151   3.545
 6728SOL    HW121083   3.319   1.128   3.631
 6728SOL    HW221084   3.300   1.139   3.469
 6729SOL     OW21085   6.783   1.834   0.185
 6729SOL    HW121086   6.858   1.900   0.192
 6729SOL    HW221087   6.719   1.849   0.260
 6730SOL     OW21088   1.606   0.630   1.328
 6730SOL    HW121089   1.640   0.713   1.284
 6730SOL    HW221090   1.602   0.556   1.261
 6731SOL     OW21091   1.724   6.753   1.410
 6731SOL    HW121092   1.687   6.846   1.423
 6731SOL    HW221093   1.801   6.739   1.472
 6732SOL     OW21094   5.145   4.393   4.169
 6732SOL    HW121095   5.060   4.409   4.119
 6732SOL    HW221096   5.199   4.325   4.121
 6733SOL     OW21097   3.888   5.379   6.285
 6733SOL    HW121098   3.889   5.289   6.330
 6733SOL    HW221099   3.976   5.424   6.298
 6734SOL     OW21100   5.429   2.241   6.267
 6734SOL    HW121101   5.333   2.265   6.278
 6734SOL    HW221102   5.479   2.260   6.351
 6735SOL     OW21103   5.220   3.579   4.243
 6735SOL    HW121104   5.227   3.480   4.232
 6735SOL    HW221105   5.166   3.617   4.168
 6736SOL     OW21106   3.192   3.642   6.516
 6736SOL    HW121107   3.207   3.740   6.530
 6736SOL    HW221108   3.095   3.625   6.496
 6737SOL     OW21109   1.424   3.146   1.318
 6737SOL    HW121110   1.466   3.234   1.295
 6737SOL    HW221111   1.378   3.153   1.406
 6738SOL     OW21112   1.326   5.646   4.066
 6738SOL    HW121113   1.387   5.644   3.987
 6738SOL    HW221114   1.298   5.553   4.089
 6739SOL     OW21115   6.527   5.847   3.735
 6739SOL    HW121116   6.603   5.864   3.673
 6739SOL    HW221117   6.458   5.919   3.723
 6740SOL     OW21118   6.502   6.899   4.944
 6740SOL    HW121119   6.468   6.832   5.010
 6740SOL    HW221120   6.476   6.991   4.974
 6741SOL     OW21121   3.839   2.047   6.313
 6741SOL    HW121122   3.909   2.000   6.368
 6741SOL    HW221123   3.750   2.034   6.355
 6742SOL     OW21124   5.789   5.255   4.009
 6742SOL    HW121125   5.775   5.178   3.948
 6742SOL    HW221126   5.886   5.269   4.026
 6743SOL     OW21127   3.480   3.922   6.324
 6743SOL    HW121128   3.439   3.929   6.234
 6743SOL    HW221129   3.523   4.009   6.348
 6744SOL     OW21130   0.386   6.607   6.084
 6744SOL    HW121131   0.306   6.652   6.124
 6744SOL    HW221132   0.408   6.651   5.997
 6745SOL     OW21133   6.726   6.500   3.293
 6745SOL    HW121134   6.810   6.479   3.343
 6745SOL    HW221135   6.648   6.499   3.356
 6746SOL     OW21136   1.813   0.580   3.109
 6746SOL    HW121137   1.827   0.676   3.132
 6746SOL    HW221138   1.731   0.571   3.052
 6747SOL     OW21139   6.189   0.217   6.895
 6747SOL    HW121140   6.170   0.235   6.992
 6747SOL    HW221141   6.102   0.202   6.847
 6748SOL     OW21142   2.939   1.804   3.273
 6748SOL    HW121143   2.991   1.723   3.249
 6748SOL    HW221144   2.983   1.850   3.351
 6749SOL     OW21145   3.465   4.369   0.952
 6749SOL    HW121146   3.484   4.273   0.932
 6749SOL    HW221147   3.547   4.424   0.937
 6750SOL     OW21148   3.133   1.725   4.177
 6750SOL    HW121149   3.168   1.729   4.083
 6750SOL    HW221150   3.034   1.712   4.175
 6751SOL     OW21151   4.773   0.646   3.171
 6751SOL    HW121152   4.864   0.619   3.203
 6751SOL    HW221153   4.752   0.738   3.204
 6752SOL     OW21154   2.048   0.274   3.410
 6752SOL    HW121155   2.027   0.368   3.440
 6752SOL    HW221156   2.070   0.218   3.490
 6753SOL     OW21157   3.275   2.079   5.690
 6753SOL    HW121158   3.244   2.097   5.783
 6753SOL    HW221159   3.299   2.166   5.646
 6754SOL     OW21160   6.354   1.255   0.838
 6754SOL    HW121161   6.297   1.329   0.801
 6754SOL    HW221162   6.421   1.293   0.902
 6755SOL     OW21163   3.754   3.950   1.094
 6755SOL    HW121164   3.803   3.943   1.181
 6755SOL    HW221165   3.694   3.870   1.083
 6756SOL     OW21166   3.703   0.560   5.403
 6756SOL    HW121167   3.747   0.474   5.426
 6756SOL    HW221168   3.740   0.595   5.317
 6757SOL     OW21169   3.695   2.122   1.012
 6757SOL    HW121170   3.638   2.184   0.958
 6757SOL    HW221171   3.698   2.153   1.107
 6758SOL     OW21172   5.948   3.127   1.629
 6758SOL    HW121173   6.007   3.102   1.705
 6758SOL    HW221174   5.889   3.204   1.655
 6759SOL     OW21175   0.044   3.164   2.813
 6759SOL    HW121176   0.042   3.082   2.756
 6759SOL    HW221177   0.061   3.244   2.755
 6760SOL     OW21178   6.352   3.983   2.219
 6760SOL    HW121179   6.321   3.888   2.207
 6760SOL    HW221180   6.390   3.993   2.311
 6761SOL     OW21181   6.132   3.074   4.568
 6761SOL    HW121182   6.096   3.167   4.572
 6761SOL    HW221183   6.091   3.019   4.641
 6762SOL     OW21184   0.757   4.687   4.569
 6762SOL    HW121185   0.844   4.638   4.569
 6762SOL    HW221186   0.708   4.668   4.484
 6763SOL     OW21187   5.105   5.467   4.593
 6763SOL    HW121188   5.046   5.536   4.635
 6763SOL    HW221189   5.198   5.478   4.626
 6764SOL     OW21190   1.963   5.296   2.099
 6764SOL    HW121191   1.986   5.277   2.003
 6764SOL    HW221192   1.947   5.210   2.147
 6765SOL     OW21193   5.797   4.579   2.612
 6765SOL    HW121194   5.703   4.607   2.629
 6765SOL    HW221195   5.849   4.655   2.574
 6766SOL     OW21196   4.840   6.668   5.717
 6766SOL    HW121197   4.870   6.672   5.812
 6766SOL    HW221198   4.745   6.698   5.710
 6767SOL     OW21199   3.405   0.000   1.020
 6767SOL    HW121200   3.359   0.077   1.064
 6767SOL    HW221201   3.371   7.006   0.926
 6768SOL     OW21202   2.090   0.086   5.588
 6768SOL    HW121203   2.124   0.036   5.667
 6768SOL    HW221204   2.155   0.076   5.512
 6769SOL     OW21205   3.106   1.620   0.488
 6769SOL    HW121206   3.104   1.530   0.532
 6769SOL    HW221207   3.013   1.644   0.459
 6770SOL     OW21208   6.970   1.246   2.015
 6770SOL    HW121209   6.996   1.159   1.975
 6770SOL    HW221210   0.031   1.310   2.008
 6771SOL     OW21211   4.833   2.444   3.227
 6771SOL    HW121212   4.737   2.466   3.247
 6771SOL    HW221213   4.838   2.352   3.188
 6772SOL     OW21214   3.435   1.104   3.202
 6772SOL    HW121215   3.484   1.035   3.256
 6772SOL    HW221216   3.349   1.127   3.248
 6773SOL     OW21217   0.298   5.262   1.826
 6773SOL    HW121218   0.276   5.312   1.909
 6773SOL    HW221219   0.220   5.203   1.801
 6774SOL     OW21220   0.325   2.184   5.326
 6774SOL    HW121221   0.386   2.167   5.404
 6774SOL    HW221222   0.377   2.225   5.251
 6775SOL     OW21223   2.581   2.933   1.703
 6775SOL    HW121224   2.675   2.900   1.711
 6775SOL    HW221225   2.555   2.939   1.606
 6776SOL     OW21226   4.017   4.609   6.895
 6776SOL    HW121227   3.981   4.554   6.970
 6776SOL    HW221228   4.096   4.661   6.926
 6777SOL     OW21229   4.247   4.106   6.958
 6777SOL    HW121230   4.296   4.088   6.873
 6777SOL    HW221231   4.182   4.181   6.944
 6778SOL     OW21232   5.916   4.725   2.218
 6778SOL    HW121233   5.919   4.690   2.124
 6778SOL    HW221234   5.824   4.759   2.238
 6779SOL     OW21235   0.132   5.082   6.166
 6779SOL    HW121236   0.062   5.011   6.176
 6779SOL    HW221237   0.122   5.150   6.239
 6780SOL     OW21238   1.428   2.463   1.918
 6780SOL    HW121239   1.521   2.427   1.910
 6780SOL    HW221240   1.429   2.561   1.899
 6781SOL     OW21241   6.174   0.230   4.977
 6781SOL    HW121242   6.237   0.212   4.901
 6781SOL    HW221243   6.225   0.228   5.063
 6782SOL     OW21244   6.665   0.110   3.703
 6782SOL    HW121245   6.657   0.209   3.694
 6782SOL    HW221246   6.576   0.070   3.723
 6783SOL     OW21247   6.136   0.991   6.020
 6783SOL    HW121248   6.115   1.034   5.933
 6783SOL    HW221249   6.051   0.967   6.068
 6784SOL     OW21250   2.610   3.540   0.684
 6784SOL    HW121251   2.688   3.563   0.625
 6784SOL    HW221252   2.540   3.495   0.629
 6785SOL     OW21253   5.429   4.731   3.257
 6785SOL    HW121254   5.472   4.673   3.326
 6785SOL    HW221255   5.347   4.686   3.222
 6786SOL     OW21256   1.261   2.170   0.216
 6786SOL    HW121257   1.348   2.172   0.264
 6786SOL    HW221258   1.249   2.081   0.172
 6787SOL     OW21259   1.433   2.688   1.296
 6787SOL    HW121260   1.336   2.699   1.316
 6787SOL    HW221261   1.485   2.761   1.342
 6788SOL     OW21262   2.604   3.394   1.261
 6788SOL    HW121263   2.684   3.359   1.309
 6788SOL    HW221264   2.574   3.326   1.194
 6789SOL     OW21265   6.515   6.310   2.833
 6789SOL    HW121266   6.425   6.282   2.867
 6789SOL    HW221267   6.565   6.355   2.907
 6790SOL     OW21268   1.050   3.823   1.045
 6790SOL    HW121269   1.003   3.910   1.055
 6790SOL    HW221270   1.099   3.802   1.130
 6791SOL     OW21271   4.264   2.666   1.657
 6791SOL    HW121272   4.261   2.610   1.740
 6791SOL    HW221273   4.312   2.752   1.676
 6792SOL     OW21274   6.482   6.022   5.537
 6792SOL    HW121275   6.476   5.923   5.529
 6792SOL    HW221276   6.568   6.047   5.583
 6793SOL     OW21277   0.915   1.672   0.309
 6793SOL    HW121278   0.931   1.767   0.283
 6793SOL    HW221279   0.817   1.653   0.310
 6794SOL     OW21280   4.904   1.674   6.198
 6794SOL    HW121281   4.876   1.578   6.199
 6794SOL    HW221282   4.860   1.721   6.122
 6795SOL     OW21283   2.641   6.574   1.070
 6795SOL    HW121284   2.649   6.498   1.135
 6795SOL    HW221285   2.593   6.650   1.114
 6796SOL     OW21286   6.510   0.984   2.274
 6796SOL    HW121287   6.420   0.995   2.233
 6796SOL    HW221288   6.569   0.932   2.212
 6797SOL     OW21289   5.500   3.295   1.821
 6797SOL    HW121290   5.455   3.208   1.802
 6797SOL    HW221291   5.480   3.322   1.915
 6798SOL     OW21292   5.066   6.581   2.784
 6798SOL    HW121293   5.108   6.647   2.722
 6798SOL    HW221294   5.135   6.548   2.849
 6799SOL     OW21295   6.558   6.234   0.792
 6799SOL    HW121296   6.591   6.144   0.820
 6799SOL    HW221297   6.604   6.305   0.845
 6800SOL     OW21298   2.262   3.983   1.087
 6800SOL    HW121299   2.357   4.011   1.080
 6800SOL    HW221300   2.253   3.889   1.052
 6801SOL     OW21301   0.806   0.453   2.908
 6801SOL    HW121302   0.822   0.549   2.933
 6801SOL    HW221303   0.893   0.407   2.892
 6802SOL     OW21304   3.423   5.961   0.967
 6802SOL    HW121305   3.503   6.009   0.931
 6802SOL    HW221306   3.351   6.028   0.987
 6803SOL     OW21307   5.183   2.635   6.091
 6803SOL    HW121308   5.281   2.637   6.109
 6803SOL    HW221309   5.140   2.717   6.127
 6804SOL     OW21310   3.180   5.093   3.850
 6804SOL    HW121311   3.200   5.051   3.762
 6804SOL    HW221312   3.092   5.059   3.884
 6805SOL     OW21313   6.228   5.148   6.232
 6805SOL    HW121314   6.318   5.111   6.257
 6805SOL    HW221315   6.220   5.151   6.132
 6806SOL     OW21316   6.129   0.727   3.276
 6806SOL    HW121317   6.122   0.657   3.347
 6806SOL    HW221318   6.184   0.803   3.309
 6807SOL     OW21319   3.533   2.711   0.572
 6807SOL    HW121320   3.537   2.683   0.476
 6807SOL    HW221321   3.488   2.800   0.578
 6808SOL     OW21322   0.142   1.717   5.046
 6808SOL    HW121323   0.171   1.623   5.058
 6808SOL    HW221324   0.222   1.776   5.032
 6809SOL     OW21325   1.310   3.198   1.564
 6809SOL    HW121326   1.297   3.116   1.620
 6809SOL    HW221327   1.352   3.270   1.619
 6810SOL     OW21328   2.117   0.080   1.977
 6810SOL    HW121329   2.106   0.166   1.928
 6810SOL    HW221330   2.171   0.017   1.921
 6811SOL     OW21331   4.832   4.159   0.775
 6811SOL    HW121332   4.843   4.216   0.694
 6811SOL    HW221333   4.864   4.209   0.855
 6812SOL     OW21334   2.952   3.365   3.275
 6812SOL    HW121335   2.939   3.391   3.371
 6812SOL    HW221336   3.023   3.295   3.268
 6813SOL     OW21337   4.686   2.142   2.363
 6813SOL    HW121338   4.675   2.085   2.281
 6813SOL    HW221339   4.743   2.221   2.340
 6814SOL     OW21340   3.479   1.778   0.219
 6814SOL    HW121341   3.388   1.778   0.260
 6814SOL    HW221342   3.538   1.841   0.269
 6815SOL     OW21343   2.722   0.170   1.737
 6815SOL    HW121344   2.693   0.164   1.642
 6815SOL    HW221345   2.800   0.109   1.752
 6816SOL     OW21346   0.503   6.872   6.666
 6816SOL    HW121347   0.582   6.822   6.703
 6816SOL    HW221348   0.429   6.873   6.734
 6817SOL     OW21349   1.272   2.273   4.151
 6817SOL    HW121350   1.355   2.225   4.119
 6817SOL    HW221351   1.232   2.223   4.227
 6818SOL     OW21352   3.095   4.917   1.630
 6818SOL    HW121353   3.002   4.950   1.647
 6818SOL    HW221354   3.111   4.834   1.682
 6819SOL     OW21355   5.076   0.851   4.479
 6819SOL    HW121356   5.066   0.937   4.429
 6819SOL    HW221357   5.010   0.784   4.443
 6820SOL     OW21358   1.832   5.491   3.207
 6820SOL    HW121359   1.853   5.474   3.303
 6820SOL    HW221360   1.733   5.489   3.194
 6821SOL     OW21361   3.091   1.000   4.911
 6821SOL    HW121362   3.093   0.976   5.009
 6821SOL    HW221363   3.172   1.053   4.888
 6822SOL     OW21364   5.763   2.541   6.373
 6822SOL    HW121365   5.769   2.457   6.320
 6822SOL    HW221366   5.825   2.610   6.333
 6823SOL     OW21367   3.356   3.228   4.103
 6823SOL    HW121368   3.316   3.145   4.065
 6823SOL    HW221369   3.420   3.204   4.175
 6824SOL     OW21370   1.050   2.570   6.242
 6824SOL    HW121371   1.097   2.591   6.328
 6824SOL    HW221372   0.985   2.495   6.257
 6825SOL     OW21373   4.763   6.544   2.541
 6825SOL    HW121374   4.838   6.599   2.576
 6825SOL    HW221375   4.726   6.487   2.614
 6826SOL     OW21376   2.088   4.113   2.235
 6826SOL    HW121377   2.093   4.025   2.189
 6826SOL    HW221378   2.012   4.166   2.198
 6827SOL     OW21379   4.672   5.509   6.641
 6827SOL    HW121380   4.745   5.471   6.698
 6827SOL    HW221381   4.651   5.602   6.670
 6828SOL     OW21382   2.717   2.080   1.723
 6828SOL    HW121383   2.646   2.113   1.785
 6828SOL    HW221384   2.756   1.995   1.759
 6829SOL     OW21385   4.701   6.265   4.136
 6829SOL    HW121386   4.633   6.283   4.207
 6829SOL    HW221387   4.714   6.348   4.081
 6830SOL     OW21388   5.029   1.354   4.156
 6830SOL    HW121389   5.100   1.415   4.191
 6830SOL    HW221390   5.065   1.302   4.079
 6831SOL     OW21391   0.947   0.411   6.697
 6831SOL    HW121392   0.925   0.473   6.621
 6831SOL    HW221393   0.869   0.406   6.759
 6832SOL     OW21394   2.331   3.673   1.067
 6832SOL    HW121395   2.429   3.682   1.087
 6832SOL    HW221396   2.320   3.622   0.982
 6833SOL     OW21397   4.141   3.944   6.314
 6833SOL    HW121398   4.198   3.921   6.235
 6833SOL    HW221399   4.077   4.017   6.289
 6834SOL     OW21400   5.236   6.821   1.163
 6834SOL    HW121401   5.295   6.808   1.083
 6834SOL    HW221402   5.151   6.864   1.135
 6835SOL     OW21403   3.586   0.586   4.848
 6835SOL    HW121404   3.638   0.624   4.924
 6835SOL    HW221405   3.506   0.538   4.883
 6836SOL     OW21406   2.934   5.689   0.502
 6836SOL    HW121407   2.849   5.707   0.453
 6836SOL    HW221408   2.923   5.609   0.561
 6837SOL     OW21409   1.781   1.762   2.435
 6837SOL    HW121410   1.721   1.683   2.421
 6837SOL    HW221411   1.785   1.816   2.351
 6838SOL     OW21412   2.658   6.502   0.581
 6838SOL    HW121413   2.628   6.478   0.674
 6838SOL    HW221414   2.645   6.423   0.521
 6839SOL     OW21415   5.302   0.566   6.665
 6839SOL    HW121416   5.339   0.653   6.697
 6839SOL    HW221417   5.212   0.551   6.705
 6840SOL     OW21418   2.919   1.200   4.877
 6840SOL    HW121419   2.945   1.296   4.890
 6840SOL    HW221420   2.997   1.142   4.900
 6841SOL     OW21421   4.889   4.046   6.462
 6841SOL    HW121422   4.887   4.135   6.417
 6841SOL    HW221423   4.984   4.020   6.482
 6842SOL     OW21424   3.042   4.351   1.307
 6842SOL    HW121425   3.001   4.270   1.350
 6842SOL    HW221426   3.027   4.431   1.365
 6843SOL     OW21427   5.681   6.228   0.658
 6843SOL    HW121428   5.767   6.186   0.687
 6843SOL    HW221429   5.656   6.301   0.722
 6844SOL     OW21430   5.903   1.079   4.559
 6844SOL    HW121431   5.812   1.041   4.572
 6844SOL    HW221432   5.953   1.079   4.646
 6845SOL     OW21433   6.316   3.791   3.128
 6845SOL    HW121434   6.336   3.704   3.082
 6845SOL    HW221435   6.227   3.826   3.096
 6846SOL     OW21436   3.718   3.575   0.190
 6846SOL    HW121437   3.812   3.604   0.175
 6846SOL    HW221438   3.711   3.529   0.278
 6847SOL     OW21439   6.817   3.714   5.301
 6847SOL    HW121440   6.877   3.663   5.238
 6847SOL    HW221441   6.873   3.766   5.365
 6848SOL     OW21442   5.175   4.607   3.191
 6848SOL    HW121443   5.141   4.513   3.186
 6848SOL    HW221444   5.142   4.650   3.275
 6849SOL     OW21445   4.410   3.977   5.709
 6849SOL    HW121446   4.316   3.990   5.676
 6849SOL    HW221447   4.457   3.913   5.649
 6850SOL     OW21448   5.196   2.993   2.740
 6850SOL    HW121449   5.267   3.059   2.765
 6850SOL    HW221450   5.153   2.957   2.823
 6851SOL     OW21451   0.494   2.417   2.685
 6851SOL    HW121452   0.498   2.322   2.717
 6851SOL    HW221453   0.547   2.474   2.748
 6852SOL     OW21454   2.755   4.636   1.018
 6852SOL    HW121455   2.813   4.563   1.054
 6852SOL    HW221456   2.720   4.691   1.094
 6853SOL     OW21457   5.314   4.176   6.339
 6853SOL    HW121458   5.384   4.181   6.410
 6853SOL    HW221459   5.286   4.269   6.312
 6854SOL     OW21460   5.489   0.040   5.902
 6854SOL    HW121461   5.425   0.113   5.926
 6854SOL    HW221462   5.446   6.994   5.835
 6855SOL     OW21463   4.261   5.480   3.427
 6855SOL    HW121464   4.271   5.507   3.523
 6855SOL    HW221465   4.313   5.544   3.369
 6856SOL     OW21466   0.555   2.391   4.712
 6856SOL    HW121467   0.611   2.368   4.633
 6856SOL    HW221468   0.517   2.308   4.752
 6857SOL     OW21469   1.138   2.937   6.364
 6857SOL    HW121470   1.190   3.022   6.357
 6857SOL    HW221471   1.176   2.880   6.437
 6858SOL     OW21472   4.005   3.959   1.703
 6858SOL    HW121473   3.995   4.008   1.617
 6858SOL    HW221474   3.957   4.008   1.776
 6859SOL     OW21475   0.646   0.745   1.248
 6859SOL    HW121476   0.696   0.817   1.199
 6859SOL    HW221477   0.649   0.660   1.195
 6860SOL     OW21478   6.951   4.543   1.181
 6860SOL    HW121479   6.855   4.531   1.158
 6860SOL    HW221480   6.983   4.632   1.149
 6861SOL     OW21481   5.325   3.933   6.702
 6861SOL    HW121482   5.297   3.984   6.783
 6861SOL    HW221483   5.272   3.963   6.623
 6862SOL     OW21484   0.006   5.746   5.915
 6862SOL    HW121485   6.969   5.709   5.839
 6862SOL    HW221486   6.963   5.751   5.996
 6863SOL     OW21487   6.802   6.414   5.737
 6863SOL    HW121488   6.774   6.320   5.721
 6863SOL    HW221489   6.775   6.471   5.660
 6864SOL     OW21490   1.905   4.751   5.351
 6864SOL    HW121491   1.816   4.767   5.394
 6864SOL    HW221492   1.964   4.830   5.366
 6865SOL     OW21493   0.808   0.060   5.020
 6865SOL    HW121494   0.765   0.034   4.933
 6865SOL    HW221495   0.811   6.996   5.081
 6866SOL     OW21496   5.312   4.747   2.872
 6866SOL    HW121497   5.232   4.773   2.927
 6866SOL    HW221498   5.395   4.774   2.921
 6867SOL     OW21499   2.452   3.236   1.631
 6867SOL    HW121500   2.414   3.290   1.706
 6867SOL    HW221501   2.522   3.174   1.667
 6868SOL     OW21502   2.060   6.716   5.116
 6868SOL    HW121503   2.126   6.790   5.130
 6868SOL    HW221504   2.110   6.631   5.099
 6869SOL     OW21505   5.251   1.148   5.883
 6869SOL    HW121506   5.197   1.133   5.965
 6869SOL    HW221507   5.193   1.186   5.811
 6870SOL     OW21508   0.510   4.356   1.220
 6870SOL    HW121509   0.494   4.414   1.139
 6870SOL    HW221510   0.606   4.330   1.224
 6871SOL     OW21511   6.252   4.193   2.677
 6871SOL    HW121512   6.172   4.237   2.636
 6871SOL    HW221513   6.302   4.260   2.732
 6872SOL     OW21514   0.312   3.130   1.496
 6872SOL    HW121515   0.378   3.186   1.446
 6872SOL    HW221516   0.324   3.034   1.471
 6873SOL     OW21517   1.138   3.814   3.779
 6873SOL    HW121518   1.062   3.750   3.772
 6873SOL    HW221519   1.113   3.901   3.738
 6874SOL     OW21520   6.478   5.141   3.775
 6874SOL    HW121521   6.508   5.104   3.863
 6874SOL    HW221522   6.400   5.202   3.789
 6875SOL     OW21523   2.263   1.692   2.211
 6875SOL    HW121524   2.189   1.760   2.213
 6875SOL    HW221525   2.272   1.656   2.118
 6876SOL     OW21526   3.515   0.006   4.002
 6876SOL    HW121527   3.442   6.973   4.051
 6876SOL    HW221528   3.536   0.091   4.049
 6877SOL     OW21529   3.423   4.095   1.762
 6877SOL    HW121530   3.410   4.092   1.861
 6877SOL    HW221531   3.336   4.118   1.718
 6878SOL     OW21532   2.736   1.870   3.477
 6878SOL    HW121533   2.670   1.926   3.428
 6878SOL    HW221534   2.797   1.825   3.411
 6879SOL     OW21535   2.186   2.261   0.043
 6879SOL    HW121536   2.148   2.193   6.996
 6879SOL    HW221537   2.264   2.306   7.015
 6880SOL     OW21538   1.006   6.113   5.803
 6880SOL    HW121539   0.960   6.031   5.836
 6880SOL    HW221540   1.043   6.096   5.711
 6881SOL     OW21541   1.708   3.151   1.203
 6881SOL    HW121542   1.656   3.111   1.278
 6881SOL    HW221543   1.771   3.221   1.238
 6882SOL     OW21544   2.713   0.745   0.429
 6882SOL    HW121545   2.806   0.732   0.395
 6882SOL    HW221546   2.711   0.727   0.527
 6883SOL     OW21547   5.383   1.389   6.634
 6883SOL    HW121548   5.320   1.327   6.682
 6883SOL    HW221549   5.452   1.423   6.698
 6884SOL     OW21550   0.719   4.286   2.977
 6884SOL    HW121551   0.722   4.186   2.981
 6884SOL    HW221552   0.705   4.322   3.069
 6885SOL     OW21553   4.651   5.244   3.661
 6885SOL    HW121554   4.618   5.174   3.724
 6885SOL    HW221555   4.746   5.224   3.636
 6886SOL     OW21556   0.021   1.515   4.624
 6886SOL    HW121557   0.070   1.439   4.581
 6886SOL    HW221558   0.044   1.600   4.578
 6887SOL     OW21559   4.685   5.763   6.700
 6887SOL    HW121560   4.741   5.840   6.667
 6887SOL    HW221561   4.633   5.793   6.781
 6888SOL     OW21562   5.678   4.790   6.715
 6888SOL    HW121563   5.743   4.748   6.651
 6888SOL    HW221564   5.601   4.827   6.663
 6889SOL     OW21565   1.642   2.762   5.725
 6889SOL    HW121566   1.565   2.740   5.785
 6889SOL    HW221567   1.711   2.690   5.731
 6890SOL     OW21568   3.904   5.857   2.414
 6890SOL    HW121569   3.825   5.893   2.363
 6890SOL    HW221570   3.877   5.773   2.461
 6891SOL     OW21571   2.336   3.286   1.367
 6891SOL    HW121572   2.368   3.314   1.457
 6891SOL    HW221573   2.408   3.304   1.299
 6892SOL     OW21574   3.404   1.593   4.058
 6892SOL    HW121575   3.350   1.638   3.986
 6892SOL    HW221576   3.457   1.661   4.107
 6893SOL     OW21577   5.355   3.742   0.030
 6893SOL    HW121578   5.312   3.653   0.013
 6893SOL    HW221579   5.316   3.810   6.984
 6894SOL     OW21580   6.265   5.122   1.162
 6894SOL    HW121581   6.332   5.162   1.224
 6894SOL    HW221582   6.294   5.029   1.137
 6895SOL     OW21583   1.966   5.216   1.393
 6895SOL    HW121584   1.962   5.148   1.320
 6895SOL    HW221585   1.933   5.304   1.358
 6896SOL     OW21586   2.660   2.190   3.577
 6896SOL    HW121587   2.743   2.230   3.537
 6896SOL    HW221588   2.614   2.133   3.509
 6897SOL     OW21589   4.898   3.349   5.247
 6897SOL    HW121590   4.862   3.407   5.173
 6897SOL    HW221591   4.993   3.325   5.227
 6898SOL     OW21592   3.569   1.440   1.658
 6898SOL    HW121593   3.566   1.347   1.624
 6898SOL    HW221594   3.536   1.503   1.588
 6899SOL     OW21595   4.585   6.045   2.385
 6899SOL    HW121596   4.674   6.077   2.418
 6899SOL    HW221597   4.570   5.951   2.416
 6900SOL     OW21598   0.073   4.317   5.090
 6900SOL    HW121599   0.027   4.384   5.033
 6900SOL    HW221600   0.096   4.358   5.178
 6901SOL     OW21601   5.354   5.757   6.371
 6901SOL    HW121602   5.401   5.753   6.282
 6901SOL    HW221603   5.406   5.705   6.438
 6902SOL     OW21604   6.713   5.468   5.611
 6902SOL    HW121605   6.763   5.398   5.560
 6902SOL    HW221606   6.777   5.532   5.653
 6903SOL     OW21607   3.135   5.024   5.095
 6903SOL    HW121608   3.205   4.977   5.042
 6903SOL    HW221609   3.100   4.963   5.167
 6904SOL     OW21610   6.475   6.892   6.120
 6904SOL    HW121611   6.449   6.967   6.181
 6904SOL    HW221612   6.393   6.856   6.074
 6905SOL     OW21613   5.290   5.320   6.961
 6905SOL    HW121614   5.273   5.222   6.953
 6905SOL    HW221615   5.203   5.370   6.955
 6906SOL     OW21616   3.739   0.968   3.807
 6906SOL    HW121617   3.676   0.977   3.730
 6906SOL    HW221618   3.817   0.911   3.780
 6907SOL     OW21619   6.301   2.415   1.496
 6907SOL    HW121620   6.371   2.440   1.563
 6907SOL    HW221621   6.261   2.327   1.521
 6908SOL     OW21622   2.284   4.906   6.550
 6908SOL    HW121623   2.321   4.815   6.532
 6908SOL    HW221624   2.333   4.974   6.494
 6909SOL     OW21625   4.818   4.335   1.014
 6909SOL    HW121626   4.726   4.296   1.019
 6909SOL    HW221627   4.873   4.299   1.089
 6910SOL     OW21628   1.208   2.788   2.739
 6910SOL    HW121629   1.137   2.757   2.801
 6910SOL    HW221630   1.289   2.815   2.792
 6911SOL     OW21631   4.455   0.106   4.360
 6911SOL    HW121632   4.474   0.035   4.292
 6911SOL    HW221633   4.541   0.136   4.401
 6912SOL     OW21634   2.811   3.067   6.304
 6912SOL    HW121635   2.726   3.082   6.252
 6912SOL    HW221636   2.889   3.066   6.242
 6913SOL     OW21637   5.219   6.236   5.250
 6913SOL    HW121638   5.219   6.333   5.275
 6913SOL    HW221639   5.131   6.195   5.273
 6914SOL     OW21640   5.792   4.540   3.759
 6914SOL    HW121641   5.864   4.500   3.817
 6914SOL    HW221642   5.714   4.566   3.816
 6915SOL     OW21643   0.228   2.543   2.363
 6915SOL    HW121644   0.187   2.626   2.325
 6915SOL    HW221645   0.275   2.566   2.449
 6916SOL     OW21646   5.556   0.699   6.633
 6916SOL    HW121647   5.504   0.650   6.562
 6916SOL    HW221648   5.623   0.759   6.590
 6917SOL     OW21649   4.120   6.275   1.810
 6917SOL    HW121650   4.191   6.305   1.746
 6917SOL    HW221651   4.150   6.192   1.857
 6918SOL     OW21652   6.937   2.782   4.091
 6918SOL    HW121653   6.911   2.775   4.187
 6918SOL    HW221654   6.995   2.705   4.066
 6919SOL     OW21655   6.708   6.046   3.608
 6919SOL    HW121656   6.726   6.105   3.687
 6919SOL    HW221657   6.794   6.005   3.577
 6920SOL     OW21658   4.251   0.135   5.279
 6920SOL    HW121659   4.222   0.227   5.304
 6920SOL    HW221660   4.220   0.070   5.348
 6921SOL     OW21661   4.377   6.758   3.647
 6921SOL    HW121662   4.380   6.830   3.578
 6921SOL    HW221663   4.283   6.727   3.659
 6922SOL     OW21664   1.567   6.124   5.392
 6922SOL    HW121665   1.613   6.036   5.383
 6922SOL    HW221666   1.469   6.113   5.372
 6923SOL     OW21667   5.447   5.881   2.650
 6923SOL    HW121668   5.420   5.970   2.685
 6923SOL    HW221669   5.447   5.814   2.724
 6924SOL     OW21670   3.001   4.442   0.154
 6924SOL    HW121671   3.027   4.400   0.241
 6924SOL    HW221672   3.048   4.530   0.144
 6925SOL     OW21673   4.723   5.630   4.791
 6925SOL    HW121674   4.664   5.554   4.765
 6925SOL    HW221675   4.759   5.673   4.708
 6926SOL     OW21676   2.115   1.638   0.618
 6926SOL    HW121677   2.063   1.602   0.540
 6926SOL    HW221678   2.204   1.592   0.623
 6927SOL     OW21679   3.809   1.885   6.583
 6927SOL    HW121680   3.880   1.892   6.513
 6927SOL    HW221681   3.837   1.939   6.663
 6928SOL     OW21682   5.541   6.056   0.839
 6928SOL    HW121683   5.603   6.119   0.792
 6928SOL    HW221684   5.595   5.985   0.885
 6929SOL     OW21685   5.366   5.864   2.395
 6929SOL    HW121686   5.404   5.881   2.486
 6929SOL    HW221687   5.324   5.773   2.394
 6930SOL     OW21688   1.048   0.984   0.980
 6930SOL    HW121689   1.014   0.925   0.908
 6930SOL    HW221690   1.084   0.928   1.055
 6931SOL     OW21691   1.661   2.019   1.807
 6931SOL    HW121692   1.699   2.032   1.716
 6931SOL    HW221693   1.732   1.982   1.868
 6932SOL     OW21694   4.441   5.937   0.856
 6932SOL    HW121695   4.516   5.885   0.815
 6932SOL    HW221696   4.436   6.027   0.814
 6933SOL     OW21697   3.489   6.880   5.645
 6933SOL    HW121698   3.541   6.798   5.671
 6933SOL    HW221699   3.403   6.852   5.601
 6934SOL     OW21700   4.374   3.629   6.156
 6934SOL    HW121701   4.444   3.669   6.214
 6934SOL    HW221702   4.296   3.691   6.150
 6935SOL     OW21703   4.180   5.801   2.651
 6935SOL    HW121704   4.248   5.818   2.722
 6935SOL    HW221705   4.118   5.880   2.645
 6936SOL     OW21706   6.835   2.525   4.575
 6936SOL    HW121707   6.861   2.578   4.494
 6936SOL    HW221708   6.838   2.584   4.655
 6937SOL     OW21709   6.175   6.213   0.540
 6937SOL    HW121710   6.164   6.277   0.464
 6937SOL    HW221711   6.095   6.154   0.546
 6938SOL     OW21712   0.298   2.571   4.303
 6938SOL    HW121713   0.292   2.638   4.376
 6938SOL    HW221714   0.207   2.541   4.277
 6939SOL     OW21715   6.947   5.233   2.404
 6939SOL    HW121716   6.974   5.141   2.376
 6939SOL    HW221717   6.937   5.235   2.504
 6940SOL     OW21718   4.516   6.597   0.327
 6940SOL    HW121719   4.512   6.688   0.284
 6940SOL    HW221720   4.605   6.585   0.370
 6941SOL     OW21721   3.100   3.699   1.980
 6941SOL    HW121722   3.045   3.673   1.900
 6941SOL    HW221723   3.072   3.644   2.059
 6942SOL     OW21724   5.492   6.872   2.640
 6942SOL    HW121725   5.460   6.962   2.670
 6942SOL    HW221726   5.589   6.863   2.660
 6943SOL     OW21727   3.578   5.206   0.620
 6943SOL    HW121728   3.625   5.293   0.636
 6943SOL    HW221729   3.525   5.213   0.535
 6944SOL     OW21730   1.416   5.075   6.221
 6944SOL    HW121731   1.318   5.060   6.210
 6944SOL    HW221732   1.446   5.036   6.309
 6945SOL     OW21733   6.817   2.319   1.285
 6945SOL    HW121734   6.765   2.270   1.355
 6945SOL    HW221735   6.783   2.295   1.194
 6946SOL     OW21736   4.149   6.435   1.426
 6946SOL    HW121737   4.215   6.380   1.476
 6946SOL    HW221738   4.192   6.473   1.343
 6947SOL     OW21739   4.361   5.310   6.175
 6947SOL    HW121740   4.416   5.255   6.237
 6947SOL    HW221741   4.300   5.251   6.123
 6948SOL     OW21742   0.946   5.772   1.180
 6948SOL    HW121743   0.928   5.731   1.269
 6948SOL    HW221744   0.868   5.756   1.119
 6949SOL     OW21745   2.410   1.383   3.510
 6949SOL    HW121746   2.426   1.350   3.417
 6949SOL    HW221747   2.342   1.457   3.508
 6950SOL     OW21748   1.267   0.795   4.934
 6950SOL    HW121749   1.169   0.775   4.931
 6950SOL    HW221750   1.303   0.770   5.024
 6951SOL     OW21751   0.387   6.089   6.510
 6951SOL    HW121752   0.337   6.135   6.584
 6951SOL    HW221753   0.478   6.064   6.542
 6952SOL     OW21754   1.508   5.038   3.441
 6952SOL    HW121755   1.511   5.135   3.419
 6952SOL    HW221756   1.599   4.998   3.428
 6953SOL     OW21757   5.312   0.142   0.247
 6953SOL    HW121758   5.301   0.129   0.149
 6953SOL    HW221759   5.348   0.233   0.266
 6954SOL     OW21760   0.905   4.374   1.247
 6954SOL    HW121761   0.893   4.359   1.345
 6954SOL    HW221762   0.867   4.463   1.222
 6955SOL     OW21763   4.708   1.097   2.950
 6955SOL    HW121764   4.766   1.058   2.879
 6955SOL    HW221765   4.732   1.058   3.039
 6956SOL     OW21766   4.841   5.941   3.184
 6956SOL    HW121767   4.798   5.850   3.191
 6956SOL    HW221768   4.891   5.960   3.269
 6957SOL     OW21769   6.118   5.538   6.926
 6957SOL    HW121770   6.134   5.591   6.843
 6957SOL    HW221771   6.022   5.548   6.954
 6958SOL     OW21772   4.038   3.281   4.978
 6958SOL    HW121773   4.086   3.338   4.910
 6958SOL    HW221774   4.025   3.189   4.940
 6959SOL     OW21775   1.701   4.203   3.245
 6959SOL    HW121776   1.721   4.147   3.325
 6959SOL    HW221777   1.785   4.220   3.193
 6960SOL     OW21778   1.911   4.042   0.668
 6960SOL    HW121779   1.984   4.007   0.608
 6960SOL    HW221780   1.892   4.137   0.645
 6961SOL     OW21781   5.855   1.318   4.772
 6961SOL    HW121782   5.909   1.270   4.703
 6961SOL    HW221783   5.884   1.414   4.776
 6962SOL     OW21784   4.243   5.741   0.813
 6962SOL    HW121785   4.160   5.764   0.863
 6962SOL    HW221786   4.314   5.809   0.833
 6963SOL     OW21787   5.418   5.102   0.900
 6963SOL    HW121788   5.437   5.194   0.935
 6963SOL    HW221789   5.447   5.034   0.967
 6964SOL     OW21790   3.269   0.462   6.149
 6964SOL    HW121791   3.226   0.550   6.166
 6964SOL    HW221792   3.356   0.476   6.101
 6965SOL     OW21793   1.991   1.518   6.974
 6965SOL    HW121794   1.997   1.432   6.922
 6965SOL    HW221795   1.901   1.558   6.959
 6966SOL     OW21796   0.302   0.668   2.619
 6966SOL    HW121797   0.343   0.667   2.710
 6966SOL    HW221798   0.204   0.688   2.626
 6967SOL     OW21799   3.372   1.331   5.748
 6967SOL    HW121800   3.416   1.385   5.676
 6967SOL    HW221801   3.283   1.300   5.716
 6968SOL     OW21802   2.834   0.783   3.766
 6968SOL    HW121803   2.843   0.879   3.792
 6968SOL    HW221804   2.744   0.749   3.792
 6969SOL     OW21805   3.008   1.741   1.316
 6969SOL    HW121806   2.946   1.801   1.368
 6969SOL    HW221807   3.060   1.796   1.251
 6970SOL     OW21808   4.170   3.622   5.282
 6970SOL    HW121809   4.105   3.560   5.238
 6970SOL    HW221810   4.160   3.714   5.243
 6971SOL     OW21811   5.871   5.020   1.105
 6971SOL    HW121812   5.940   5.078   1.064
 6971SOL    HW221813   5.839   4.953   1.037
 6972SOL     OW21814   5.297   3.867   2.508
 6972SOL    HW121815   5.383   3.914   2.527
 6972SOL    HW221816   5.237   3.926   2.454
 6973SOL     OW21817   0.247   2.366   3.556
 6973SOL    HW121818   0.306   2.342   3.479
 6973SOL    HW221819   0.290   2.335   3.641
 6974SOL     OW21820   3.242   3.902   3.214
 6974SOL    HW121821   3.222   3.967   3.141
 6974SOL    HW221822   3.164   3.898   3.277
 6975SOL     OW21823   1.684   6.870   4.525
 6975SOL    HW121824   1.698   6.868   4.426
 6975SOL    HW221825   1.596   6.913   4.544
 6976SOL     OW21826   6.494   4.232   5.978
 6976SOL    HW121827   6.574   4.183   5.941
 6976SOL    HW221828   6.515   4.265   6.070
 6977SOL     OW21829   3.176   3.202   1.190
 6977SOL    HW121830   3.265   3.213   1.145
 6977SOL    HW221831   3.105   3.189   1.121
 6978SOL     OW21832   5.430   2.481   1.737
 6978SOL    HW121833   5.492   2.559   1.744
 6978SOL    HW221834   5.413   2.460   1.640
 6979SOL     OW21835   1.133   3.347   1.080
 6979SOL    HW121836   1.043   3.308   1.063
 6979SOL    HW221837   1.132   3.397   1.167
 6980SOL     OW21838   1.501   1.398   3.538
 6980SOL    HW121839   1.511   1.308   3.579
 6980SOL    HW221840   1.572   1.459   3.574
 6981SOL     OW21841   3.866   3.007   6.138
 6981SOL    HW121842   3.903   2.967   6.054
 6981SOL    HW221843   3.936   3.064   6.181
 6982SOL     OW21844   0.678   1.106   4.002
 6982SOL    HW121845   0.750   1.041   4.027
 6982SOL    HW221846   0.707   1.160   3.923
 6983SOL     OW21847   5.240   1.236   5.060
 6983SOL    HW121848   5.191   1.153   5.084
 6983SOL    HW221849   5.174   1.308   5.037
 6984SOL     OW21850   1.823   1.470   2.644
 6984SOL    HW121851   1.724   1.479   2.650
 6984SOL    HW221852   1.850   1.456   2.548
 6985SOL     OW21853   6.620   5.361   0.976
 6985SOL    HW121854   6.620   5.392   1.071
 6985SOL    HW221855   6.662   5.270   0.970
 6986SOL     OW21856   3.263   6.491   6.393
 6986SOL    HW121857   3.333   6.521   6.328
 6986SOL    HW221858   3.244   6.394   6.379
 6987SOL     OW21859   6.712   1.510   6.268
 6987SOL    HW121860   6.680   1.600   6.298
 6987SOL    HW221861   6.643   1.467   6.210
 6988SOL     OW21862   1.761   6.667   5.963
 6988SOL    HW121863   1.688   6.617   5.917
 6988SOL    HW221864   1.836   6.684   5.898
 6989SOL     OW21865   6.965   4.543   2.839
 6989SOL    HW121866   0.014   4.604   2.885
 6989SOL    HW221867   6.925   4.480   2.906
 6990SOL     OW21868   3.900   2.564   1.258
 6990SOL    HW121869   3.864   2.537   1.168
 6990SOL    HW221870   3.852   2.513   1.329
 6991SOL     OW21871   5.546   4.556   3.432
 6991SOL    HW121872   5.609   4.627   3.400
 6991SOL    HW221873   5.518   4.576   3.526
 6992SOL     OW21874   6.522   6.357   6.592
 6992SOL    HW121875   6.534   6.330   6.497
 6992SOL    HW221876   6.597   6.417   6.620
 6993SOL     OW21877   6.194   0.614   1.713
 6993SOL    HW121878   6.208   0.696   1.770
 6993SOL    HW221879   6.147   0.640   1.629
 6994SOL     OW21880   1.186   1.080   4.174
 6994SOL    HW121881   1.104   1.068   4.230
 6994SOL    HW221882   1.221   0.991   4.146
 6995SOL     OW21883   0.132   3.831   6.953
 6995SOL    HW121884   0.149   3.920   6.910
 6995SOL    HW221885   0.215   3.776   6.949
 6996SOL     OW21886   1.515   0.552   0.225
 6996SOL    HW121887   1.502   0.502   0.139
 6996SOL    HW221888   1.610   0.544   0.254
 6997SOL     OW21889   0.199   4.792   5.085
 6997SOL    HW121890   0.153   4.717   5.132
 6997SOL    HW221891   0.158   4.806   4.995
 6998SOL     OW21892   1.283   1.797   1.373
 6998SOL    HW121893   1.348   1.871   1.356
 6998SOL    HW221894   1.301   1.721   1.311
 6999SOL     OW21895   1.823   1.909   6.357
 6999SOL    HW121896   1.880   1.990   6.370
 6999SOL    HW221897   1.867   1.847   6.292
 7000SOL     OW21898   5.997   0.225   2.421
 7000SOL    HW121899   6.083   0.273   2.401
 7000SOL    HW221900   5.941   0.281   2.481
 7001SOL     OW21901   0.983   2.545   4.928
 7001SOL    HW121902   0.978   2.619   4.860
 7001SOL    HW221903   0.982   2.457   4.881
 7002SOL     OW21904   1.947   4.894   4.006
 7002SOL    HW121905   2.045   4.898   4.026
 7002SOL    HW221906   1.899   4.960   4.064
 7003SOL     OW21907   4.372   5.664   1.351
 7003SOL    HW121908   4.359   5.648   1.253
 7003SOL    HW221909   4.466   5.641   1.376
 7004SOL     OW21910   0.590   5.956   0.604
 7004SOL    HW121911   0.630   6.047   0.619
 7004SOL    HW221912   0.658   5.895   0.564
 7005SOL     OW21913   0.704   0.744   0.268
 7005SOL    HW121914   0.800   0.771   0.275
 7005SOL    HW221915   0.699   0.646   0.246
 7006SOL     OW21916   5.482   6.044   3.386
 7006SOL    HW121917   5.557   5.990   3.424
 7006SOL    HW221918   5.398   6.025   3.438
 7007SOL     OW21919   3.925   0.719   4.800
 7007SOL    HW121920   3.861   0.790   4.768
 7007SOL    HW221921   3.990   0.760   4.865
 7008SOL     OW21922   0.590   4.609   4.355
 7008SOL    HW121923   0.620   4.653   4.271
 7008SOL    HW221924   0.594   4.509   4.344
 7009SOL     OW21925   4.363   7.005   2.070
 7009SOL    HW121926   4.412   0.062   2.119
 7009SOL    HW221927   4.326   6.939   2.135
 7010SOL     OW21928   5.900   4.689   3.568
 7010SOL    HW121929   5.989   4.648   3.548
 7010SOL    HW221930   5.855   4.638   3.642
 7011SOL     OW21931   3.851   6.960   0.943
 7011SOL    HW121932   3.843   6.962   0.843
 7011SOL    HW221933   3.907   6.883   0.971
 7012SOL     OW21934   0.747   2.114   1.183
 7012SOL    HW121935   0.747   2.036   1.246
 7012SOL    HW221936   0.707   2.194   1.228
 7013SOL     OW21937   1.668   6.877   6.706
 7013SOL    HW121938   1.598   6.910   6.642
 7013SOL    HW221939   1.630   6.804   6.762
 7014SOL     OW21940   5.591   3.528   0.688
 7014SOL    HW121941   5.520   3.561   0.626
 7014SOL    HW221942   5.572   3.432   0.711
 7015SOL     OW21943   5.490   4.871   1.981
 7015SOL    HW121944   5.446   4.784   1.960
 7015SOL    HW221945   5.589   4.862   1.968
 7016SOL     OW21946   3.823   5.018   1.420
 7016SOL    HW121947   3.770   5.095   1.383
 7016SOL    HW221948   3.919   5.031   1.399
 7017SOL     OW21949   2.813   5.091   3.142
 7017SOL    HW121950   2.739   5.046   3.092
 7017SOL    HW221951   2.785   5.183   3.170
 7018SOL     OW21952   5.215   3.997   4.214
 7018SOL    HW121953   5.248   4.079   4.166
 7018SOL    HW221954   5.117   3.987   4.199
 7019SOL     OW21955   3.982   4.926   1.786
 7019SOL    HW121956   3.925   4.885   1.856
 7019SOL    HW221957   3.966   5.025   1.782
 7020SOL     OW21958   0.397   4.001   6.320
 7020SOL    HW121959   0.351   4.075   6.271
 7020SOL    HW221960   0.492   3.994   6.289
 7021SOL     OW21961   1.829   2.888   4.224
 7021SOL    HW121962   1.857   2.878   4.129
 7021SOL    HW221963   1.910   2.885   4.283
 7022SOL     OW21964   4.773   6.849   0.207
 7022SOL    HW121965   4.705   6.905   0.255
 7022SOL    HW221966   4.842   6.908   0.166
 7023SOL     OW21967   0.367   2.663   1.189
 7023SOL    HW121968   0.395   2.623   1.102
 7023SOL    HW221969   0.335   2.591   1.250
 7024SOL     OW21970   3.372   3.693   4.335
 7024SOL    HW121971   3.370   3.769   4.269
 7024SOL    HW221972   3.343   3.609   4.290
 7025SOL     OW21973   3.428   0.730   0.942
 7025SOL    HW121974   3.404   0.826   0.956
 7025SOL    HW221975   3.518   0.724   0.900
 7026SOL     OW21976   3.906   2.095   2.126
 7026SOL    HW121977   3.822   2.144   2.105
 7026SOL    HW221978   3.888   2.027   2.197
 7027SOL     OW21979   2.318   6.101   4.187
 7027SOL    HW121980   2.382   6.079   4.261
 7027SOL    HW221981   2.234   6.048   4.200
 7028SOL     OW21982   3.383   0.407   4.019
 7028SOL    HW121983   3.373   0.415   3.920
 7028SOL    HW221984   3.422   0.491   4.056
 7029SOL     OW21985   4.023   3.817   5.571
 7029SOL    HW121986   4.087   3.849   5.641
 7029SOL    HW221987   4.074   3.772   5.497
 7030SOL     OW21988   0.734   1.230   4.430
 7030SOL    HW121989   0.681   1.285   4.366
 7030SOL    HW221990   0.693   1.138   4.436
 7031SOL     OW21991   4.082   6.032   0.154
 7031SOL    HW121992   4.132   6.117   0.139
 7031SOL    HW221993   4.040   6.003   0.067
 7032SOL     OW21994   4.114   1.293   3.334
 7032SOL    HW121995   4.089   1.390   3.334
 7032SOL    HW221996   4.193   1.279   3.274
 7033SOL     OW21997   1.397   2.810   3.619
 7033SOL    HW121998   1.320   2.749   3.638
 7033SOL    HW221999   1.389   2.847   3.527
 7034SOL     OW22000   6.839   2.303   2.999
 7034SOL    HW122001   6.823   2.204   3.001
 7034SOL    HW222002   6.752   2.350   2.986
 7035SOL     OW22003   1.741   0.295   1.295
 7035SOL    HW122004   1.791   0.362   1.349
 7035SOL    HW222005   1.749   0.205   1.339
 7036SOL     OW22006   6.890   1.983   2.291
 7036SOL    HW122007   6.922   1.946   2.204
 7036SOL    HW222008   6.810   1.932   2.322
 7037SOL     OW22009   0.624   1.148   6.115
 7037SOL    HW122010   0.678   1.077   6.069
 7037SOL    HW222011   0.527   1.134   6.094
 7038SOL     OW22012   2.156   4.500   5.090
 7038SOL    HW122013   2.232   4.471   5.148
 7038SOL    HW222014   2.155   4.445   5.006
 7039SOL     OW22015   0.317   6.209   3.527
 7039SOL    HW122016   0.398   6.238   3.577
 7039SOL    HW222017   0.302   6.270   3.450
 7040SOL     OW22018   4.944   2.714   5.743
 7040SOL    HW122019   4.944   2.615   5.728
 7040SOL    HW222020   5.036   2.750   5.724
 7041SOL     OW22021   0.649   1.846   3.125
 7041SOL    HW122022   0.558   1.886   3.119
 7041SOL    HW222023   0.705   1.899   3.188
 7042SOL     OW22024   4.688   5.887   4.360
 7042SOL    HW122025   4.717   5.825   4.288
 7042SOL    HW222026   4.755   5.960   4.370
 7043SOL     OW22027   2.982   4.888   3.593
 7043SOL    HW122028   3.068   4.938   3.605
 7043SOL    HW222029   2.941   4.912   3.505
 7044SOL     OW22030   4.750   6.718   5.057
 7044SOL    HW122031   4.707   6.791   5.110
 7044SOL    HW222032   4.764   6.750   4.963
 7045SOL     OW22033   5.516   5.754   2.123
 7045SOL    HW122034   5.444   5.689   2.097
 7045SOL    HW222035   5.595   5.743   2.062
 7046SOL     OW22036   2.873   1.707   3.927
 7046SOL    HW122037   2.919   1.619   3.914
 7046SOL    HW222038   2.863   1.725   4.025
 7047SOL     OW22039   6.904   1.224   1.429
 7047SOL    HW122040   6.826   1.246   1.489
 7047SOL    HW222041   6.979   1.286   1.449
 7048SOL     OW22042   6.061   6.195   4.878
 7048SOL    HW122043   6.100   6.115   4.923
 7048SOL    HW222044   6.006   6.165   4.799
 7049SOL     OW22045   3.316   1.587   2.162
 7049SOL    HW122046   3.302   1.686   2.171
 7049SOL    HW222047   3.307   1.561   2.066
 7050SOL     OW22048   3.688   4.525   0.928
 7050SOL    HW122049   3.755   4.596   0.947
 7050SOL    HW222050   3.719   4.438   0.965
 7051SOL     OW22051   6.744   6.395   0.914
 7051SOL    HW122052   6.800   6.477   0.929
 7051SOL    HW222053   6.793   6.333   0.853
 7052SOL     OW22054   5.666   0.598   3.333
 7052SOL    HW122055   5.723   0.517   3.318
 7052SOL    HW222056   5.570   0.573   3.322
 7053SOL     OW22057   1.939   4.153   4.340
 7053SOL    HW122058   1.944   4.245   4.301
 7053SOL    HW222059   2.012   4.096   4.301
 7054SOL     OW22060   0.145   0.150   1.548
 7054SOL    HW122061   0.210   0.169   1.622
 7054SOL    HW222062   0.195   0.111   1.470
 7055SOL     OW22063   2.942   6.942   0.424
 7055SOL    HW122064   2.898   0.014   0.445
 7055SOL    HW222065   3.003   6.916   0.499
 7056SOL     OW22066   6.912   5.824   1.174
 7056SOL    HW122067   6.954   5.914   1.165
 7056SOL    HW222068   6.965   5.758   1.121
 7057SOL     OW22069   3.222   5.945   4.153
 7057SOL    HW122070   3.146   5.979   4.208
 7057SOL    HW222071   3.304   6.000   4.171
 7058SOL     OW22072   5.241   1.739   6.317
 7058SOL    HW122073   5.147   1.771   6.327
 7058SOL    HW222074   5.255   1.658   6.373
 7059SOL     OW22075   1.296   0.830   4.124
 7059SOL    HW122076   1.338   0.855   4.211
 7059SOL    HW222077   1.359   0.849   4.049
 7060SOL     OW22078   3.734   6.484   1.454
 7060SOL    HW122079   3.799   6.557   1.435
 7060SOL    HW222080   3.723   6.473   1.553
 7061SOL     OW22081   0.267   2.971   2.945
 7061SOL    HW122082   0.259   3.067   2.973
 7061SOL    HW222083   0.195   2.917   2.989
 7062SOL     OW22084   4.067   2.124   4.807
 7062SOL    HW122085   4.007   2.188   4.855
 7062SOL    HW222086   4.024   2.096   4.722
 7063SOL     OW22087   0.717   0.332   1.833
 7063SOL    HW122088   0.623   0.333   1.800
 7063SOL    HW222089   0.780   0.334   1.755
 7064SOL     OW22090   4.693   1.722   6.441
 7064SOL    HW122091   4.599   1.700   6.416
 7064SOL    HW222092   4.718   1.811   6.402
 7065SOL     OW22093   3.709   4.420   5.297
 7065SOL    HW122094   3.627   4.453   5.250
 7065SOL    HW222095   3.703   4.321   5.308
 7066SOL     OW22096   4.493   0.187   5.833
 7066SOL    HW122097   4.472   0.268   5.780
 7066SOL    HW222098   4.583   0.198   5.876
 7067SOL     OW22099   1.217   3.235   6.317
 7067SOL    HW122100   1.222   3.299   6.241
 7067SOL    HW222101   1.305   3.234   6.366
 7068SOL     OW22102   5.894   4.344   4.234
 7068SOL    HW122103   5.842   4.320   4.316
 7068SOL    HW222104   5.907   4.443   4.231
 7069SOL     OW22105   5.663   2.148   5.403
 7069SOL    HW122106   5.616   2.163   5.489
 7069SOL    HW222107   5.720   2.227   5.381
 7070SOL     OW22108   1.080   6.553   4.144
 7070SOL    HW122109   1.059   6.646   4.172
 7070SOL    HW222110   1.148   6.554   4.071
 7071SOL     OW22111   4.539   6.077   6.676
 7071SOL    HW122112   4.626   6.051   6.633
 7071SOL    HW222113   4.489   6.138   6.615
 7072SOL     OW22114   1.938   4.948   0.174
 7072SOL    HW122115   1.954   4.966   0.271
 7072SOL    HW222116   1.860   5.002   0.143
 7073SOL     OW22117   3.828   0.066   3.239
 7073SOL    HW122118   3.847   0.125   3.317
 7073SOL    HW222119   3.914   0.038   3.196
 7074SOL     OW22120   6.354   3.531   3.324
 7074SOL    HW122121   6.401   3.561   3.241
 7074SOL    HW222122   6.257   3.552   3.317
 7075SOL     OW22123   3.125   4.839   4.736
 7075SOL    HW122124   3.143   4.768   4.668
 7075SOL    HW222125   3.046   4.813   4.791
 7076SOL     OW22126   5.709   2.739   1.308
 7076SOL    HW122127   5.799   2.707   1.279
 7076SOL    HW222128   5.711   2.838   1.322
 7077SOL     OW22129   2.384   4.351   2.506
 7077SOL    HW122130   2.346   4.344   2.413
 7077SOL    HW222131   2.467   4.405   2.503
 7078SOL     OW22132   5.955   6.046   0.530
 7078SOL    HW122133   5.949   6.074   0.626
 7078SOL    HW222134   5.969   5.947   0.525
 7079SOL     OW22135   1.045   0.159   4.282
 7079SOL    HW122136   1.091   0.188   4.198
 7079SOL    HW222137   1.005   0.238   4.328
 7080SOL     OW22138   3.599   2.089   4.121
 7080SOL    HW122139   3.688   2.045   4.114
 7080SOL    HW222140   3.595   2.142   4.206
 7081SOL     OW22141   1.308   6.171   0.179
 7081SOL    HW122142   1.353   6.153   0.091
 7081SOL    HW222143   1.350   6.114   0.249
 7082SOL     OW22144   6.956   3.798   1.366
 7082SOL    HW122145   6.884   3.752   1.417
 7082SOL    HW222146   6.941   3.897   1.369
 7083SOL     OW22147   6.930   1.680   2.693
 7083SOL    HW122148   6.964   1.737   2.618
 7083SOL    HW222149   6.862   1.615   2.657
 7084SOL     OW22150   0.727   5.777   5.383
 7084SOL    HW122151   0.635   5.802   5.412
 7084SOL    HW222152   0.749   5.823   5.297
 7085SOL     OW22153   6.327   2.676   2.502
 7085SOL    HW122154   6.396   2.604   2.497
 7085SOL    HW222155   6.354   2.751   2.441
 7086SOL     OW22156   5.678   0.283   6.746
 7086SOL    HW122157   5.612   0.286   6.671
 7086SOL    HW222158   5.734   0.200   6.738
 7087SOL     OW22159   5.261   3.388   2.329
 7087SOL    HW122160   5.292   3.483   2.335
 7087SOL    HW222161   5.266   3.357   2.234
 7088SOL     OW22162   5.299   2.509   5.844
 7088SOL    HW122163   5.236   2.581   5.874
 7088SOL    HW222164   5.347   2.473   5.924
 7089SOL     OW22165   2.673   4.882   2.186
 7089SOL    HW122166   2.574   4.883   2.198
 7089SOL    HW222167   2.711   4.971   2.211
 7090SOL     OW22168   2.416   1.765   0.915
 7090SOL    HW122169   2.323   1.797   0.934
 7090SOL    HW222170   2.443   1.794   0.824
 7091SOL     OW22171   0.879   0.946   1.572
 7091SOL    HW122172   0.928   0.932   1.658
 7091SOL    HW222173   0.941   0.984   1.504
 7092SOL     OW22174   3.704   2.824   6.263
 7092SOL    HW122175   3.763   2.882   6.208
 7092SOL    HW222176   3.668   2.749   6.207
 7093SOL     OW22177   3.601   3.547   1.545
 7093SOL    HW122178   3.535   3.602   1.595
 7093SOL    HW222179   3.636   3.474   1.604
 7094SOL     OW22180   1.500   6.854   5.390
 7094SOL    HW122181   1.430   6.793   5.353
 7094SOL    HW222182   1.589   6.808   5.389
 7095SOL     OW22183   3.634   5.229   5.797
 7095SOL    HW122184   3.552   5.279   5.824
 7095SOL    HW222185   3.685   5.203   5.879
 7096SOL     OW22186   6.930   0.495   2.336
 7096SOL    HW122187   7.013   0.450   2.302
 7096SOL    HW222188   6.851   0.434   2.320
 7097SOL     OW22189   4.518   0.821   2.196
 7097SOL    HW122190   4.575   0.903   2.189
 7097SOL    HW222191   4.451   0.820   2.121
 7098SOL     OW22192   1.394   6.074   5.915
 7098SOL    HW122193   1.472   6.136   5.924
 7098SOL    HW222194   1.426   5.980   5.904
 7099SOL     OW22195   3.345   2.014   4.148
 7099SOL    HW122196   3.314   1.938   4.091
 7099SOL    HW222197   3.439   2.037   4.124
 7100SOL     OW22198   6.958   3.373   0.706
 7100SOL    HW122199   6.903   3.369   0.623
 7100SOL    HW222200   0.027   3.423   0.689
 7101SOL     OW22201   2.503   0.072   5.382
 7101SOL    HW122202   2.555   0.123   5.314
 7101SOL    HW222203   2.565   0.030   5.448
 7102SOL     OW22204   5.254   0.362   1.532
 7102SOL    HW122205   5.182   0.429   1.518
 7102SOL    HW222206   5.219   0.286   1.586
 7103SOL     OW22207   5.068   5.154   1.849
 7103SOL    HW122208   5.016   5.106   1.919
 7103SOL    HW222209   5.156   5.108   1.835
 7104SOL     OW22210   5.592   3.460   2.796
 7104SOL    HW122211   5.597   3.404   2.713
 7104SOL    HW222212   5.528   3.419   2.860
 7105SOL     OW22213   4.023   3.833   4.373
 7105SOL    HW122214   4.001   3.892   4.451
 7105SOL    HW222215   4.077   3.755   4.404
 7106SOL     OW22216   2.888   2.720   0.988
 7106SOL    HW122217   2.823   2.653   1.022
 7106SOL    HW222218   2.978   2.702   1.028
 7107SOL     OW22219   3.855   0.359   0.249
 7107SOL    HW122220   3.758   0.370   0.228
 7107SOL    HW222221   3.900   0.313   0.172
 7108SOL     OW22222   2.713   6.267   2.278
 7108SOL    HW122223   2.624   6.223   2.268
 7108SOL    HW222224   2.749   6.289   2.187
 7109SOL     OW22225   1.622   0.553   6.771
 7109SOL    HW122226   1.565   0.630   6.799
 7109SOL    HW222227   1.567   0.470   6.766
 7110SOL     OW22228   3.543   6.359   4.159
 7110SOL    HW122229   3.548   6.394   4.252
 7110SOL    HW222230   3.536   6.436   4.095
 7111SOL     OW22231   1.556   1.866   3.743
 7111SOL    HW122232   1.551   1.965   3.737
 7111SOL    HW222233   1.516   1.826   3.660
 7112SOL     OW22234   2.208   4.300   4.892
 7112SOL    HW122235   2.252   4.218   4.929
 7112SOL    HW222236   2.239   4.315   4.799
 7113SOL     OW22237   3.269   4.735   5.296
 7113SOL    HW122238   3.201   4.761   5.228
 7113SOL    HW222239   3.358   4.774   5.271
 7114SOL     OW22240   4.034   5.524   1.385
 7114SOL    HW122241   4.108   5.558   1.443
 7114SOL    HW222242   3.997   5.440   1.423
 7115SOL     OW22243   5.670   4.140   6.814
 7115SOL    HW122244   5.689   4.065   6.750
 7115SOL    HW222245   5.681   4.108   6.908
 7116SOL     OW22246   5.655   4.008   3.478
 7116SOL    HW122247   5.662   3.936   3.409
 7116SOL    HW222248   5.701   3.977   3.562
 7117SOL     OW22249   6.454   6.914   4.010
 7117SOL    HW122250   6.427   6.898   3.915
 7117SOL    HW222251   6.470   7.011   4.024
 7118SOL     OW22252   4.032   4.513   5.328
 7118SOL    HW122253   4.093   4.468   5.263
 7118SOL    HW222254   3.939   4.479   5.316
 7119SOL     OW22255   5.265   0.887   4.969
 7119SOL    HW122256   5.261   0.923   4.876
 7119SOL    HW222257   5.292   0.791   4.966
 7120SOL     OW22258   5.024   1.493   1.270
 7120SOL    HW122259   4.992   1.535   1.355
 7120SOL    HW222260   4.985   1.542   1.192
 7121SOL     OW22261   0.562   6.131   3.310
 7121SOL    HW122262   0.519   6.216   3.279
 7121SOL    HW222263   0.658   6.131   3.282
 7122SOL     OW22264   1.976   6.924   5.996
 7122SOL    HW122265   1.931   6.911   5.908
 7122SOL    HW222266   1.931   6.867   6.065
 7123SOL     OW22267   6.799   4.823   4.301
 7123SOL    HW122268   6.794   4.907   4.246
 7123SOL    HW222269   6.831   4.845   4.393
 7124SOL     OW22270   0.664   2.249   1.414
 7124SOL    HW122271   0.651   2.348   1.409
 7124SOL    HW222272   0.680   2.223   1.509
 7125SOL     OW22273   1.456   0.994   1.755
 7125SOL    HW122274   1.423   0.901   1.771
 7125SOL    HW222275   1.417   1.028   1.669
 7126SOL     OW22276   4.070   6.039   0.419
 7126SOL    HW122277   3.992   5.979   0.437
 7126SOL    HW222278   4.097   6.030   0.324
 7127SOL     OW22279   3.065   6.358   5.678
 7127SOL    HW122280   3.083   6.427   5.608
 7127SOL    HW222281   3.121   6.277   5.661
 7128SOL     OW22282   3.834   3.899   6.983
 7128SOL    HW122283   3.868   3.992   6.996
 7128SOL    HW222284   3.877   3.838   0.035
 7129SOL     OW22285   0.577   1.357   1.377
 7129SOL    HW122286   0.614   1.275   1.420
 7129SOL    HW222287   0.552   1.337   1.282
 7130SOL     OW22288   3.771   0.319   4.475
 7130SOL    HW122289   3.686   0.289   4.518
 7130SOL    HW222290   3.841   0.250   4.489
 7131SOL     OW22291   3.223   1.235   2.209
 7131SOL    HW122292   3.231   1.136   2.197
 7131SOL    HW222293   3.314   1.277   2.200
 7132SOL     OW22294   5.119   4.092   0.154
 7132SOL    HW122295   5.052   4.163   0.132
 7132SOL    HW222296   5.159   4.110   0.244
 7133SOL     OW22297   4.330   4.917   4.163
 7133SOL    HW122298   4.287   4.929   4.073
 7133SOL    HW222299   4.362   4.823   4.173
 7134SOL     OW22300   5.384   6.172   1.775
 7134SOL    HW122301   5.428   6.262   1.781
 7134SOL    HW222302   5.442   6.104   1.820
 7135SOL     OW22303   2.241   2.814   2.460
 7135SOL    HW122304   2.257   2.893   2.400
 7135SOL    HW222305   2.144   2.788   2.455
 7136SOL     OW22306   2.034   1.600   1.201
 7136SOL    HW122307   2.043   1.700   1.196
 7136SOL    HW222308   2.090   1.558   1.129
 7137SOL     OW22309   2.828   1.498   0.485
 7137SOL    HW122310   2.747   1.556   0.496
 7137SOL    HW222311   2.839   1.441   0.567
 7138SOL     OW22312   2.420   1.192   1.431
 7138SOL    HW122313   2.393   1.281   1.396
 7138SOL    HW222314   2.519   1.192   1.448
 7139SOL     OW22315   4.763   4.987   1.697
 7139SOL    HW122316   4.778   4.921   1.771
 7139SOL    HW222317   4.850   5.031   1.675
 7140SOL     OW22318   6.147   4.710   1.040
 7140SOL    HW122319   6.127   4.729   1.136
 7140SOL    HW222320   6.070   4.739   0.983
 7141SOL     OW22321   4.272   6.756   1.358
 7141SOL    HW122322   4.248   6.665   1.326
 7141SOL    HW222323   4.248   6.765   1.454
 7142SOL     OW22324   3.413   0.359   4.341
 7142SOL    HW122325   3.471   0.314   4.273
 7142SOL    HW222326   3.463   0.435   4.383
 7143SOL     OW22327   1.738   3.961   6.806
 7143SOL    HW122328   1.763   3.951   6.902
 7143SOL    HW222329   1.639   3.952   6.797
 7144SOL     OW22330   0.316   1.078   4.341
 7144SOL    HW122331   0.350   1.169   4.363
 7144SOL    HW222332   0.245   1.084   4.272
 7145SOL     OW22333   4.443   0.879   6.811
 7145SOL    HW122334   4.541   0.858   6.818
 7145SOL    HW222335   4.417   0.940   6.886
 7146SOL     OW22336   1.958   1.584   5.743
 7146SOL    HW122337   1.934   1.492   5.712
 7146SOL    HW222338   1.896   1.612   5.816
 7147SOL     OW22339   6.001   5.503   3.169
 7147SOL    HW122340   5.912   5.514   3.125
 7147SOL    HW222341   5.988   5.472   3.263
 7148SOL     OW22342   6.423   5.541   1.433
 7148SOL    HW122343   6.428   5.542   1.333
 7148SOL    HW222344   6.386   5.628   1.465
 7149SOL     OW22345   6.791   4.964   3.585
 7149SOL    HW122346   6.797   4.864   3.575
 7149SOL    HW222347   6.756   4.986   3.677
 7150SOL     OW22348   4.544   3.031   0.232
 7150SOL    HW122349   4.493   2.992   0.308
 7150SOL    HW222350   4.640   3.044   0.259
 7151SOL     OW22351   3.061   6.872   0.646
 7151SOL    HW122352   2.986   6.806   0.654
 7151SOL    HW222353   3.100   6.888   0.737
 7152SOL     OW22354   6.478   0.710   6.624
 7152SOL    HW122355   6.577   0.705   6.609
 7152SOL    HW222356   6.446   0.625   6.664
 7153SOL     OW22357   3.620   5.433   1.757
 7153SOL    HW122358   3.708   5.480   1.754
 7153SOL    HW222359   3.627   5.347   1.707
 7154SOL     OW22360   3.971   1.001   2.744
 7154SOL    HW122361   4.056   0.960   2.776
 7154SOL    HW222362   3.894   0.940   2.766
 7155SOL     OW22363   2.851   2.112   1.035
 7155SOL    HW122364   2.815   2.170   1.109
 7155SOL    HW222365   2.820   2.018   1.049
 7156SOL     OW22366   5.291   3.657   2.333
 7156SOL    HW122367   5.286   3.696   2.425
 7156SOL    HW222368   5.332   3.723   2.270
 7157SOL     OW22369   6.218   4.437   1.058
 7157SOL    HW122370   6.131   4.390   1.073
 7157SOL    HW222371   6.206   4.535   1.071
 7158SOL     OW22372   6.318   0.620   3.553
 7158SOL    HW122373   6.392   0.686   3.562
 7158SOL    HW222374   6.356   0.528   3.540
 7159SOL     OW22375   0.677   4.785   4.142
 7159SOL    HW122376   0.671   4.885   4.151
 7159SOL    HW222377   0.766   4.760   4.105
 7160SOL     OW22378   5.812   6.209   2.821
 7160SOL    HW122379   5.777   6.117   2.802
 7160SOL    HW222380   5.736   6.272   2.836
 7161SOL     OW22381   3.588   3.631   2.776
 7161SOL    HW122382   3.505   3.587   2.742
 7161SOL    HW222383   3.564   3.719   2.818
 7162SOL     OW22384   0.084   4.621   0.589
 7162SOL    HW122385   0.051   4.538   0.634
 7162SOL    HW222386   0.183   4.613   0.573
 7163SOL     OW22387   1.866   1.163   2.935
 7163SOL    HW122388   1.962   1.192   2.934
 7163SOL    HW222389   1.834   1.154   2.840
 7164SOL     OW22390   1.906   1.247   5.178
 7164SOL    HW122391   2.004   1.263   5.166
 7164SOL    HW222392   1.890   1.150   5.195
 7165SOL     OW22393   6.085   6.289   1.198
 7165SOL    HW122394   6.080   6.236   1.282
 7165SOL    HW222395   6.171   6.340   1.195
 7166SOL     OW22396   5.440   0.174   6.266
 7166SOL    HW122397   5.438   0.274   6.262
 7166SOL    HW222398   5.347   0.139   6.281
 7167SOL     OW22399   5.566   2.183   5.655
 7167SOL    HW122400   5.560   2.091   5.694
 7167SOL    HW222401   5.616   2.242   5.718
 7168SOL     OW22402   3.262   1.143   2.514
 7168SOL    HW122403   3.205   1.136   2.432
 7168SOL    HW222404   3.203   1.146   2.595
 7169SOL     OW22405   1.286   4.193   5.180
 7169SOL    HW122406   1.295   4.138   5.097
 7169SOL    HW222407   1.378   4.212   5.216
 7170SOL     OW22408   4.727   0.052   2.442
 7170SOL    HW122409   4.779   0.119   2.495
 7170SOL    HW222410   4.762   0.051   2.348
 7171SOL     OW22411   5.905   4.789   0.896
 7171SOL    HW122412   5.958   4.851   0.839
 7171SOL    HW222413   5.807   4.804   0.881
 7172SOL     OW22414   1.881   1.747   5.175
 7172SOL    HW122415   1.904   1.832   5.222
 7172SOL    HW222416   1.840   1.683   5.240
 7173SOL     OW22417   6.143   5.223   6.654
 7173SOL    HW122418   6.214   5.154   6.671
 7173SOL    HW222419   6.183   5.314   6.664
 7174SOL     OW22420   6.665   4.581   1.121
 7174SOL    HW122421   6.583   4.524   1.114
 7174SOL    HW222422   6.646   4.660   1.179
 7175SOL     OW22423   6.682   3.962   5.363
 7175SOL    HW122424   6.585   3.947   5.383
 7175SOL    HW222425   6.716   3.887   5.306
 7176SOL     OW22426   0.619   1.316   4.186
 7176SOL    HW122427   0.647   1.232   4.139
 7176SOL    HW222428   0.630   1.394   4.124
 7177SOL     OW22429   2.002   5.831   5.552
 7177SOL    HW122430   2.063   5.774   5.608
 7177SOL    HW222431   1.929   5.774   5.514
 7178SOL     OW22432   0.514   0.591   5.560
 7178SOL    HW122433   0.577   0.619   5.633
 7178SOL    HW222434   0.420   0.600   5.592
 7179SOL     OW22435   2.388   4.384   5.205
 7179SOL    HW122436   2.404   4.289   5.233
 7179SOL    HW222437   2.466   4.440   5.232
 7180SOL     OW22438   2.640   4.409   0.580
 7180SOL    HW122439   2.602   4.441   0.493
 7180SOL    HW222440   2.607   4.466   0.655
 7181SOL     OW22441   2.060   1.114   6.034
 7181SOL    HW122442   1.985   1.174   6.006
 7181SOL    HW222443   2.048   1.088   6.130
 7182SOL     OW22444   1.000   4.078   3.773
 7182SOL    HW122445   1.031   4.095   3.679
 7182SOL    HW222446   0.919   4.133   3.791
 7183SOL     OW22447   1.954   5.938   1.996
 7183SOL    HW122448   1.960   6.034   2.025
 7183SOL    HW222449   2.045   5.907   1.968
 7184SOL     OW22450   5.558   1.417   3.498
 7184SOL    HW122451   5.617   1.371   3.432
 7184SOL    HW222452   5.478   1.453   3.451
 7185SOL     OW22453   5.407   0.924   5.214
 7185SOL    HW122454   5.408   1.012   5.262
 7185SOL    HW222455   5.383   0.939   5.118
 7186SOL     OW22456   0.181   0.948   0.806
 7186SOL    HW122457   0.243   0.871   0.817
 7186SOL    HW222458   0.088   0.915   0.792
 7187SOL     OW22459   3.272   3.843   5.202
 7187SOL    HW122460   3.175   3.830   5.180
 7187SOL    HW222461   3.280   3.902   5.282
 7188SOL     OW22462   5.005   3.839   0.098
 7188SOL    HW122463   5.037   3.922   0.145
 7188SOL    HW222464   4.962   3.865   0.012
 7189SOL     OW22465   5.847   3.554   5.438
 7189SOL    HW122466   5.814   3.482   5.376
 7189SOL    HW222467   5.910   3.514   5.504
 7190SOL     OW22468   6.050   5.914   0.916
 7190SOL    HW122469   6.066   5.924   1.015
 7190SOL    HW222470   6.124   5.959   0.866
 7191SOL     OW22471   0.328   3.869   3.454
 7191SOL    HW122472   0.331   3.852   3.552
 7191SOL    HW222473   0.369   3.958   3.435
 7192SOL     OW22474   2.030   4.062   5.989
 7192SOL    HW122475   2.075   3.997   5.927
 7192SOL    HW222476   2.092   4.138   6.008
 7193SOL     OW22477   2.759   1.630   3.039
 7193SOL    HW122478   2.727   1.682   2.960
 7193SOL    HW222479   2.841   1.578   3.014
 7194SOL     OW22480   2.126   1.862   0.000
 7194SOL    HW122481   2.195   1.869   0.073
 7194SOL    HW222482   2.038   1.839   0.040
 7195SOL     OW22483   6.678   4.291   6.991
 7195SOL    HW122484   6.652   4.286   6.894
 7195SOL    HW222485   6.634   4.371   0.017
 7196SOL     OW22486   3.263   3.760   2.506
 7196SOL    HW122487   3.346   3.709   2.528
 7196SOL    HW222488   3.267   3.789   2.410
 7197SOL     OW22489   0.861   3.820   5.200
 7197SOL    HW122490   0.941   3.847   5.145
 7197SOL    HW222491   0.867   3.723   5.221
 7198SOL     OW22492   0.223   0.639   0.339
 7198SOL    HW122493   0.285   0.565   0.312
 7198SOL    HW222494   0.172   0.671   0.258
 7199SOL     OW22495   1.072   0.061   2.264
 7199SOL    HW122496   1.034   0.030   2.351
 7199SOL    HW222497   1.007   0.121   2.218
 7200SOL     OW22498   2.115   3.075   1.140
 7200SOL    HW122499   2.079   3.168   1.144
 7200SOL    HW222500   2.068   3.023   1.069
 7201SOL     OW22501   0.086   5.604   4.564
 7201SOL    HW122502   0.088   5.682   4.626
 7201SOL    HW222503   7.008   5.589   4.531
 7202SOL     OW22504   5.135   0.378   5.671
 7202SOL    HW122505   5.212   0.439   5.690
 7202SOL    HW222506   5.149   0.334   5.582
 7203SOL     OW22507   0.820   0.680   1.800
 7203SOL    HW122508   0.894   0.686   1.867
 7203SOL    HW222509   0.850   0.720   1.714
 7204SOL     OW22510   5.817   1.253   0.271
 7204SOL    HW122511   5.832   1.306   0.355
 7204SOL    HW222512   5.843   1.158   0.287
 7205SOL     OW22513   1.234   3.202   4.660
 7205SOL    HW122514   1.155   3.172   4.607
 7205SOL    HW222515   1.249   3.139   4.736
 7206SOL     OW22516   1.012   1.495   1.248
 7206SOL    HW122517   1.061   1.441   1.180
 7206SOL    HW222518   1.006   1.590   1.217
 7207SOL     OW22519   2.588   1.575   3.588
 7207SOL    HW122520   2.517   1.506   3.573
 7207SOL    HW222521   2.583   1.644   3.515
 7208SOL     OW22522   4.585   0.349   4.093
 7208SOL    HW122523   4.633   0.270   4.055
 7208SOL    HW222524   4.511   0.317   4.152
 7209SOL     OW22525   2.022   2.484   2.210
 7209SOL    HW122526   1.955   2.439   2.269
 7209SOL    HW222527   1.977   2.556   2.158
 7210SOL     OW22528   3.604   1.809   3.149
 7210SOL    HW122529   3.515   1.793   3.105
 7210SOL    HW222530   3.672   1.830   3.079
 7211SOL     OW22531   3.069   6.210   5.128
 7211SOL    HW122532   3.134   6.283   5.150
 7211SOL    HW222533   3.049   6.157   5.211
 7212SOL     OW22534   6.713   6.545   6.676
 7212SOL    HW122535   6.655   6.601   6.734
 7212SOL    HW222536   6.770   6.603   6.618
 7213SOL     OW22537   3.559   6.499   6.548
 7213SOL    HW122538   3.509   6.568   6.495
 7213SOL    HW222539   3.542   6.409   6.509
 7214SOL     OW22540   0.206   0.754   5.855
 7214SOL    HW122541   0.115   0.743   5.895
 7214SOL    HW222542   0.207   0.835   5.796
 7215SOL     OW22543   6.547   2.573   4.108
 7215SOL    HW122544   6.502   2.484   4.105
 7215SOL    HW222545   6.531   2.615   4.198
 7216SOL     OW22546   3.100   6.292   2.123
 7216SOL    HW122547   3.057   6.271   2.211
 7216SOL    HW222548   3.039   6.348   2.068
 7217SOL     OW22549   1.733   4.169   3.532
 7217SOL    HW122550   1.747   4.193   3.628
 7217SOL    HW222551   1.799   4.218   3.475
 7218SOL     OW22552   0.182   3.234   3.622
 7218SOL    HW122553   0.272   3.276   3.633
 7218SOL    HW222554   0.178   3.148   3.673
 7219SOL     OW22555   3.313   6.903   1.442
 7219SOL    HW122556   3.302   6.925   1.538
 7219SOL    HW222557   3.409   6.887   1.422
 7220SOL     OW22558   6.548   4.412   4.392
 7220SOL    HW122559   6.638   4.369   4.382
 7220SOL    HW222560   6.494   4.398   4.309
 7221SOL     OW22561   3.252   6.037   4.761
 7221SOL    HW122562   3.261   5.964   4.829
 7221SOL    HW222563   3.329   6.100   4.769
 7222SOL     OW22564   5.497   0.245   2.983
 7222SOL    HW122565   5.434   0.248   3.061
 7222SOL    HW222566   5.478   0.323   2.923
 7223SOL     OW22567   2.798   1.061   0.524
 7223SOL    HW122568   2.848   0.976   0.508
 7223SOL    HW222569   2.862   1.135   0.541
 7224SOL     OW22570   4.610   2.301   4.386
 7224SOL    HW122571   4.599   2.367   4.461
 7224SOL    HW222572   4.531   2.240   4.384
 7225SOL     OW22573   1.623   6.607   1.193
 7225SOL    HW122574   1.652   6.689   1.242
 7225SOL    HW222575   1.532   6.579   1.225
 7226SOL     OW22576   6.236   0.235   1.351
 7226SOL    HW122577   6.224   0.325   1.394
 7226SOL    HW222578   6.266   0.247   1.257
 7227SOL     OW22579   2.792   1.427   1.838
 7227SOL    HW122580   2.809   1.524   1.853
 7227SOL    HW222581   2.709   1.415   1.784
 7228SOL     OW22582   0.798   1.528   3.376
 7228SOL    HW122583   0.814   1.563   3.283
 7228SOL    HW222584   0.872   1.556   3.436
 7229SOL     OW22585   6.819   6.725   4.612
 7229SOL    HW122586   6.915   6.749   4.597
 7229SOL    HW222587   6.762   6.776   4.547
 7230SOL     OW22588   2.613   5.324   3.505
 7230SOL    HW122589   2.657   5.378   3.577
 7230SOL    HW222590   2.592   5.382   3.427
 7231SOL     OW22591   3.951   0.629   0.826
 7231SOL    HW122592   3.874   0.692   0.835
 7231SOL    HW222593   3.958   0.574   0.910
 7232SOL     OW22594   4.379   6.441   2.404
 7232SOL    HW122595   4.440   6.502   2.453
 7232SOL    HW222596   4.344   6.371   2.467
 7233SOL     OW22597   0.846   1.195   5.107
 7233SOL    HW122598   0.878   1.213   5.200
 7233SOL    HW222599   0.919   1.152   5.054
 7234SOL     OW22600   5.332   3.243   2.849
 7234SOL    HW122601   5.255   3.269   2.907
 7234SOL    HW222602   5.326   3.290   2.761
 7235SOL     OW22603   6.586   4.952   1.496
 7235SOL    HW122604   6.660   4.887   1.507
 7235SOL    HW222605   6.622   5.045   1.502
 7236SOL     OW22606   1.997   2.623   2.860
 7236SOL    HW122607   1.972   2.715   2.832
 7236SOL    HW222608   1.945   2.598   2.942
 7237SOL     OW22609   4.138   6.939   6.677
 7237SOL    HW122610   4.172   6.918   6.768
 7237SOL    HW222611   4.208   6.917   6.609
 7238SOL     OW22612   4.801   2.367   6.426
 7238SOL    HW122613   4.808   2.379   6.327
 7238SOL    HW222614   4.892   2.363   6.466
 7239SOL     OW22615   0.881   3.004   1.831
 7239SOL    HW122616   0.833   3.011   1.743
 7239SOL    HW222617   0.935   2.921   1.833
 7240SOL     OW22618   0.030   1.469   0.167
 7240SOL    HW122619   0.087   1.551   0.161
 7240SOL    HW222620   0.071   1.395   0.114
 7241SOL     OW22621   2.359   0.017   0.670
 7241SOL    HW122622   2.311   0.095   0.711
 7241SOL    HW222623   2.454   0.043   0.650
 7242SOL     OW22624   6.900   5.396   5.242
 7242SOL    HW122625   6.875   5.361   5.332
 7242SOL    HW222626   6.873   5.330   5.172
 7243SOL     OW22627   0.130   4.459   6.372
 7243SOL    HW122628   0.101   4.364   6.383
 7243SOL    HW222629   0.103   4.492   6.282
 7244SOL     OW22630   0.219   0.705   0.979
 7244SOL    HW122631   0.236   0.671   0.886
 7244SOL    HW222632   0.135   0.664   1.014
 7245SOL     OW22633   1.452   2.479   5.133
 7245SOL    HW122634   1.477   2.422   5.211
 7245SOL    HW222635   1.431   2.571   5.165
 7246SOL     OW22636   1.873   0.815   3.868
 7246SOL    HW122637   1.787   0.764   3.864
 7246SOL    HW222638   1.923   0.791   3.951
 7247SOL     OW22639   2.850   1.962   5.558
 7247SOL    HW122640   2.849   1.870   5.518
 7247SOL    HW222641   2.775   1.971   5.622
 7248SOL     OW22642   3.223   0.739   3.387
 7248SOL    HW122643   3.164   0.765   3.463
 7248SOL    HW222644   3.190   0.653   3.347
 7249SOL     OW22645   4.216   4.997   1.922
 7249SOL    HW122646   4.236   4.916   1.977
 7249SOL    HW222647   4.138   4.978   1.862
 7250SOL     OW22648   5.271   4.936   5.580
 7250SOL    HW122649   5.328   5.010   5.616
 7250SOL    HW222650   5.180   4.972   5.557
 7251SOL     OW22651   1.119   0.481   5.244
 7251SOL    HW122652   1.124   0.452   5.340
 7251SOL    HW222653   1.023   0.484   5.215
 7252SOL     OW22654   2.994   3.586   1.758
 7252SOL    HW122655   3.066   3.597   1.689
 7252SOL    HW222656   2.954   3.496   1.749
 7253SOL     OW22657   2.217   6.269   6.594
 7253SOL    HW122658   2.258   6.284   6.504
 7253SOL    HW222659   2.212   6.170   6.612
 7254SOL     OW22660   5.346   5.581   4.682
 7254SOL    HW122661   5.402   5.505   4.650
 7254SOL    HW222662   5.377   5.608   4.774
 7255SOL     OW22663   4.278   3.661   0.045
 7255SOL    HW122664   4.195   3.635   7.012
 7255SOL    HW222665   4.352   3.674   6.994
 7256SOL     OW22666   3.950   6.343   5.628
 7256SOL    HW122667   4.031   6.354   5.570
 7256SOL    HW222668   3.928   6.246   5.637
 7257SOL     OW22669   0.725   2.121   3.861
 7257SOL    HW122670   0.636   2.108   3.906
 7257SOL    HW222671   0.772   2.033   3.855
 7258SOL     OW22672   5.554   2.157   2.914
 7258SOL    HW122673   5.562   2.074   2.858
 7258SOL    HW222674   5.479   2.146   2.979
 7259SOL     OW22675   1.517   3.188   2.223
 7259SOL    HW122676   1.519   3.121   2.298
 7259SOL    HW222677   1.434   3.243   2.230
 7260SOL     OW22678   5.488   1.886   1.895
 7260SOL    HW122679   5.491   1.838   1.808
 7260SOL    HW222680   5.562   1.853   1.953
 7261SOL     OW22681   0.667   4.588   1.244
 7261SOL    HW122682   0.578   4.545   1.258
 7261SOL    HW222683   0.667   4.635   1.156
 7262SOL     OW22684   5.374   1.625   6.906
 7262SOL    HW122685   5.470   1.602   6.896
 7262SOL    HW222686   5.322   1.543   6.932
 7263SOL     OW22687   0.648   6.085   0.301
 7263SOL    HW122688   0.629   6.152   0.229
 7263SOL    HW222689   0.562   6.043   0.330
 7264SOL     OW22690   5.362   0.561   0.548
 7264SOL    HW122691   5.370   0.621   0.628
 7264SOL    HW222692   5.277   0.509   0.555
 7265SOL     OW22693   5.772   4.449   5.621
 7265SOL    HW122694   5.742   4.354   5.613
 7265SOL    HW222695   5.822   4.475   5.538
 7266SOL     OW22696   6.277   1.241   3.403
 7266SOL    HW122697   6.344   1.288   3.344
 7266SOL    HW222698   6.203   1.305   3.426
 7267SOL     OW22699   6.457   6.770   4.696
 7267SOL    HW122700   6.361   6.742   4.695
 7267SOL    HW222701   6.480   6.805   4.787
 7268SOL     OW22702   6.867   6.138   4.283
 7268SOL    HW122703   6.923   6.213   4.248
 7268SOL    HW222704   6.896   6.115   4.376
 7269SOL     OW22705   2.037   6.424   6.265
 7269SOL    HW122706   2.039   6.349   6.198
 7269SOL    HW222707   1.952   6.419   6.317
 7270SOL     OW22708   0.086   2.647   4.932
 7270SOL    HW122709   0.172   2.638   4.881
 7270SOL    HW222710   0.084   2.580   5.006
 7271SOL     OW22711   1.240   5.060   4.584
 7271SOL    HW122712   1.237   5.000   4.664
 7271SOL    HW222713   1.173   5.030   4.517
 7272SOL     OW22714   5.977   6.012   2.267
 7272SOL    HW122715   5.915   6.062   2.328
 7272SOL    HW222716   6.026   5.942   2.319
 7273SOL     OW22717   5.739   3.675   0.853
 7273SOL    HW122718   5.670   3.628   0.798
 7273SOL    HW222719   5.726   3.774   0.843
 7274SOL     OW22720   0.241   4.829   6.659
 7274SOL    HW122721   0.198   4.754   6.708
 7274SOL    HW222722   0.252   4.804   6.563
 7275SOL     OW22723   0.147   6.008   2.620
 7275SOL    HW122724   0.202   6.000   2.537
 7275SOL    HW222725   0.176   6.088   2.672
 7276SOL     OW22726   5.362   0.764   3.345
 7276SOL    HW122727   5.443   0.812   3.310
 7276SOL    HW222728   5.387   0.672   3.373
 7277SOL     OW22729   5.476   0.277   4.271
 7277SOL    HW122730   5.522   0.313   4.190
 7277SOL    HW222731   5.476   0.177   4.268
 7278SOL     OW22732   3.624   2.937   1.486
 7278SOL    HW122733   3.711   2.973   1.453
 7278SOL    HW222734   3.561   2.927   1.410
 7279SOL     OW22735   4.478   4.876   6.323
 7279SOL    HW122736   4.458   4.804   6.256
 7279SOL    HW222737   4.550   4.845   6.385
 7280SOL     OW22738   0.303   0.830   3.552
 7280SOL    HW122739   0.282   0.906   3.613
 7280SOL    HW222740   0.341   0.865   3.466
 7281SOL     OW22741   3.087   1.805   0.050
 7281SOL    HW122742   3.086   1.886   7.006
 7281SOL    HW222743   3.155   1.819   0.122
 7282SOL     OW22744   5.939   4.797   2.536
 7282SOL    HW122745   5.960   4.779   2.440
 7282SOL    HW222746   5.990   4.878   2.567
 7283SOL     OW22747   3.899   1.703   3.152
 7283SOL    HW122748   3.840   1.623   3.140
 7283SOL    HW222749   3.923   1.713   3.248
 7284SOL     OW22750   0.952   3.248   6.367
 7284SOL    HW122751   1.043   3.238   6.327
 7284SOL    HW222752   0.894   3.302   6.306
 7285SOL     OW22753   5.193   3.550   2.710
 7285SOL    HW122754   5.256   3.484   2.671
 7285SOL    HW222755   5.102   3.537   2.670
 7286SOL     OW22756   2.682   0.906   0.147
 7286SOL    HW122757   2.779   0.915   0.124
 7286SOL    HW222758   2.670   0.827   0.207
 7287SOL     OW22759   0.188   2.547   5.933
 7287SOL    HW122760   0.170   2.580   5.841
 7287SOL    HW222761   0.104   2.550   5.987
 7288SOL     OW22762   2.939   0.426   0.528
 7288SOL    HW122763   2.848   0.456   0.554
 7288SOL    HW222764   2.932   0.343   0.472
 7289SOL     OW22765   5.388   2.165   4.341
 7289SOL    HW122766   5.342   2.237   4.391
 7289SOL    HW222767   5.326   2.088   4.327
 7290SOL     OW22768   3.522   0.529   5.614
 7290SOL    HW122769   3.429   0.494   5.612
 7290SOL    HW222770   3.559   0.530   5.521
 7291SOL     OW22771   1.577   6.820   0.664
 7291SOL    HW122772   1.675   6.813   0.685
 7291SOL    HW222773   1.548   6.737   0.615
 7292SOL     OW22774   3.069   1.418   3.486
 7292SOL    HW122775   3.097   1.391   3.394
 7292SOL    HW222776   3.120   1.499   3.515
 7293SOL     OW22777   1.516   2.234   5.254
 7293SOL    HW122778   1.601   2.205   5.297
 7293SOL    HW222779   1.482   2.162   5.194
 7294SOL     OW22780   2.186   4.954   0.056
 7294SOL    HW122781   2.262   4.945   0.122
 7294SOL    HW222782   2.101   4.971   0.105
 7295SOL     OW22783   0.863   2.134   0.500
 7295SOL    HW122784   0.829   2.228   0.506
 7295SOL    HW222785   0.894   2.105   0.591
 7296SOL     OW22786   2.580   5.224   1.283
 7296SOL    HW122787   2.530   5.145   1.320
 7296SOL    HW222788   2.620   5.277   1.357
 7297SOL     OW22789   3.445   6.310   1.044
 7297SOL    HW122790   3.380   6.245   1.004
 7297SOL    HW222791   3.400   6.399   1.057
 7298SOL     OW22792   4.680   4.204   5.499
 7298SOL    HW122793   4.680   4.113   5.459
 7298SOL    HW222794   4.590   4.246   5.487
 7299SOL     OW22795   0.230   1.657   0.199
 7299SOL    HW122796   0.234   1.737   0.140
 7299SOL    HW222797   0.269   1.679   0.288
 7300SOL     OW22798   6.300   5.782   2.569
 7300SOL    HW122799   6.310   5.793   2.668
 7300SOL    HW222800   6.373   5.722   2.535
 7301SOL     OW22801   6.025   1.517   4.875
 7301SOL    HW122802   5.934   1.551   4.897
 7301SOL    HW222803   6.070   1.483   4.958
 7302SOL     OW22804   0.419   1.888   5.709
 7302SOL    HW122805   0.333   1.938   5.712
 7302SOL    HW222806   0.429   1.834   5.793
 7303SOL     OW22807   4.630   0.307   0.146
 7303SOL    HW122808   4.544   0.358   0.147
 7303SOL    HW222809   4.642   0.264   0.056
 7304SOL     OW22810   3.821   4.690   0.626
 7304SOL    HW122811   3.759   4.615   0.650
 7304SOL    HW222812   3.767   4.772   0.605
 7305SOL     OW22813   4.901   0.569   0.181
 7305SOL    HW122814   4.939   0.659   0.160
 7305SOL    HW222815   4.970   0.499   0.163
 7306SOL     OW22816   4.967   2.393   1.905
 7306SOL    HW122817   5.044   2.406   1.844
 7306SOL    HW222818   4.906   2.473   1.900
 7307SOL     OW22819   2.013   0.178   2.450
 7307SOL    HW122820   2.006   0.211   2.544
 7307SOL    HW222821   2.105   0.197   2.415
 7308SOL     OW22822   6.901   3.807   5.925
 7308SOL    HW122823   6.818   3.793   5.871
 7308SOL    HW222824   6.925   3.904   5.926
 7309SOL     OW22825   4.681   5.709   1.166
 7309SOL    HW122826   4.691   5.669   1.075
 7309SOL    HW222827   4.616   5.654   1.219
 7310SOL     OW22828   2.398   3.765   1.635
 7310SOL    HW122829   2.374   3.779   1.539
 7310SOL    HW222830   2.360   3.679   1.667
 7311SOL     OW22831   3.454   2.016   2.018
 7311SOL    HW122832   3.540   2.054   2.051
 7311SOL    HW222833   3.399   1.985   2.096
 7312SOL     OW22834   0.333   3.826   5.378
 7312SOL    HW122835   0.297   3.735   5.396
 7312SOL    HW222836   0.424   3.834   5.419
 7313SOL     OW22837   2.811   1.422   6.326
 7313SOL    HW122838   2.873   1.344   6.314
 7313SOL    HW222839   2.781   1.427   6.421
 7314SOL     OW22840   6.799   5.229   5.477
 7314SOL    HW122841   6.748   5.184   5.550
 7314SOL    HW222842   6.883   5.177   5.458
 7315SOL     OW22843   6.702   0.570   2.727
 7315SOL    HW122844   6.616   0.620   2.722
 7315SOL    HW222845   6.761   0.614   2.795
 7316SOL     OW22846   3.126   4.846   6.620
 7316SOL    HW122847   3.037   4.831   6.664
 7316SOL    HW222848   3.196   4.858   6.691
 7317SOL     OW22849   4.861   1.051   2.712
 7317SOL    HW122850   4.922   1.043   2.791
 7317SOL    HW222851   4.892   1.125   2.653
 7318SOL     OW22852   1.375   1.041   0.858
 7318SOL    HW122853   1.402   1.021   0.764
 7318SOL    HW222854   1.280   1.013   0.872
 7319SOL     OW22855   6.768   4.354   6.517
 7319SOL    HW122856   6.816   4.298   6.448
 7319SOL    HW222857   6.834   4.384   6.586
 7320SOL     OW22858   6.333   3.765   1.974
 7320SOL    HW122859   6.292   3.718   2.052
 7320SOL    HW222860   6.431   3.777   1.989
 7321SOL     OW22861   2.364   6.821   5.497
 7321SOL    HW122862   2.409   6.756   5.435
 7321SOL    HW222863   2.398   6.913   5.479
 7322SOL     OW22864   6.323   2.379   3.352
 7322SOL    HW122865   6.287   2.472   3.348
 7322SOL    HW222866   6.273   2.327   3.422
 7323SOL     OW22867   2.027   1.786   2.063
 7323SOL    HW122868   2.074   1.850   2.003
 7323SOL    HW222869   2.019   1.697   2.017
 7324SOL     OW22870   4.987   6.102   2.324
 7324SOL    HW122871   5.001   6.200   2.334
 7324SOL    HW222872   4.958   6.082   2.230
 7325SOL     OW22873   3.503   6.548   0.286
 7325SOL    HW122874   3.576   6.544   0.219
 7325SOL    HW222875   3.542   6.559   0.378
 7326SOL     OW22876   3.151   6.137   5.545
 7326SOL    HW122877   3.212   6.060   5.561
 7326SOL    HW222878   3.101   6.124   5.460
 7327SOL     OW22879   6.035   1.988   6.392
 7327SOL    HW122880   6.003   1.895   6.413
 7327SOL    HW222881   6.087   1.986   6.307
 7328SOL     OW22882   3.389   0.325   6.375
 7328SOL    HW122883   3.320   0.364   6.314
 7328SOL    HW222884   3.399   0.383   6.456
 7329SOL     OW22885   5.699   4.603   1.265
 7329SOL    HW122886   5.691   4.695   1.302
 7329SOL    HW222887   5.628   4.545   1.305
 7330SOL     OW22888   2.376   2.079   6.877
 7330SOL    HW122889   2.396   2.054   6.782
 7330SOL    HW222890   2.329   2.002   6.922
 7331SOL     OW22891   5.586   6.967   2.378
 7331SOL    HW122892   5.587   6.927   2.470
 7331SOL    HW222893   5.672   0.001   2.364
 7332SOL     OW22894   2.274   6.112   0.735
 7332SOL    HW122895   2.263   6.025   0.687
 7332SOL    HW222896   2.268   6.096   0.834
 7333SOL     OW22897   0.297   2.609   2.635
 7333SOL    HW122898   0.335   2.692   2.677
 7333SOL    HW222899   0.362   2.534   2.644
 7334SOL     OW22900   3.253   5.616   6.786
 7334SOL    HW122901   3.202   5.548   6.733
 7334SOL    HW222902   3.229   5.708   6.755
 7335SOL     OW22903   1.515   2.722   2.717
 7335SOL    HW122904   1.587   2.788   2.693
 7335SOL    HW222905   1.426   2.767   2.710
 7336SOL     OW22906   1.301   6.573   3.194
 7336SOL    HW122907   1.339   6.647   3.251
 7336SOL    HW222908   1.214   6.543   3.233
 7337SOL     OW22909   0.359   3.512   1.485
 7337SOL    HW122910   0.438   3.490   1.428
 7337SOL    HW222911   0.312   3.592   1.449
 7338SOL     OW22912   6.501   2.372   1.318
 7338SOL    HW122913   6.430   2.369   1.388
 7338SOL    HW222914   6.538   2.465   1.313
 7339SOL     OW22915   5.313   6.687   3.610
 7339SOL    HW122916   5.224   6.693   3.655
 7339SOL    HW222917   5.300   6.654   3.516
 7340SOL     OW22918   2.487   0.863   1.030
 7340SOL    HW122919   2.520   0.858   0.936
 7340SOL    HW222920   2.422   0.788   1.046
 7341SOL     OW22921   6.628   2.917   6.660
 7341SOL    HW122922   6.563   2.992   6.673
 7341SOL    HW222923   6.721   2.953   6.663
 7342SOL     OW22924   6.728   1.297   1.634
 7342SOL    HW122925   6.787   1.356   1.689
 7342SOL    HW222926   6.632   1.313   1.658
 7343SOL     OW22927   5.509   3.485   0.353
 7343SOL    HW122928   5.410   3.489   0.347
 7343SOL    HW222929   5.544   3.570   0.391
 7344SOL     OW22930   0.207   0.917   6.738
 7344SOL    HW122931   0.301   0.906   6.769
 7344SOL    HW222932   0.205   0.977   6.658
 7345SOL     OW22933   4.307   3.714   5.530
 7345SOL    HW122934   4.360   3.646   5.581
 7345SOL    HW222935   4.248   3.668   5.465
 7346SOL     OW22936   4.306   5.562   2.308
 7346SOL    HW122937   4.401   5.546   2.281
 7346SOL    HW222938   4.294   5.659   2.333
 7347SOL     OW22939   0.981   1.700   0.824
 7347SOL    HW122940   0.972   1.764   0.748
 7347SOL    HW222941   1.065   1.647   0.813
 7348SOL     OW22942   1.377   4.608   3.436
 7348SOL    HW122943   1.372   4.610   3.536
 7348SOL    HW222944   1.397   4.515   3.406
 7349SOL     OW22945   4.361   0.375   2.013
 7349SOL    HW122946   4.311   0.411   1.935
 7349SOL    HW222947   4.296   0.353   2.086
 7350SOL     OW22948   2.740   2.413   5.556
 7350SOL    HW122949   2.751   2.337   5.492
 7350SOL    HW222950   2.666   2.473   5.523
 7351SOL     OW22951   5.944   5.411   3.737
 7351SOL    HW122952   5.934   5.502   3.697
 7351SOL    HW222953   5.938   5.416   3.836
 7352SOL     OW22954   1.609   1.871   2.642
 7352SOL    HW122955   1.703   1.837   2.650
 7352SOL    HW222956   1.579   1.864   2.546
 7353SOL     OW22957   6.945   0.128   6.943
 7353SOL    HW122958   6.956   0.035   6.908
 7353SOL    HW222959   6.883   0.128   0.006
 7354SOL     OW22960   1.250   2.011   5.341
 7354SOL    HW122961   1.296   2.020   5.253
 7354SOL    HW222962   1.246   2.099   5.386
 7355SOL     OW22963   1.383   0.992   0.338
 7355SOL    HW122964   1.435   0.915   0.375
 7355SOL    HW222965   1.325   0.960   0.263
 7356SOL     OW22966   4.024   3.343   6.517
 7356SOL    HW122967   4.000   3.336   6.420
 7356SOL    HW222968   3.946   3.317   6.573
 7357SOL     OW22969   3.296   6.080   2.228
 7357SOL    HW122970   3.369   6.080   2.159
 7357SOL    HW222971   3.224   6.143   2.199
 7358SOL     OW22972   6.326   3.210   2.249
 7358SOL    HW122973   6.354   3.115   2.263
 7358SOL    HW222974   6.260   3.237   2.319
 7359SOL     OW22975   4.343   2.319   5.310
 7359SOL    HW122976   4.408   2.334   5.385
 7359SOL    HW222977   4.253   2.297   5.348
 7360SOL     OW22978   2.627   3.070   5.622
 7360SOL    HW122979   2.667   2.978   5.623
 7360SOL    HW222980   2.623   3.104   5.528
 7361SOL     OW22981   5.576   0.618   2.284
 7361SOL    HW122982   5.659   0.632   2.231
 7361SOL    HW222983   5.600   0.605   2.381
 7362SOL     OW22984   1.933   5.740   6.351
 7362SOL    HW122985   1.873   5.677   6.300
 7362SOL    HW222986   2.023   5.698   6.363
 7363SOL     OW22987   4.654   1.626   1.376
 7363SOL    HW122988   4.587   1.662   1.441
 7363SOL    HW222989   4.627   1.533   1.349
 7364SOL     OW22990   3.891   0.866   2.212
 7364SOL    HW122991   3.961   0.798   2.192
 7364SOL    HW222992   3.918   0.920   2.292
 7365SOL     OW22993   0.634   6.202   1.855
 7365SOL    HW122994   0.575   6.262   1.908
 7365SOL    HW222995   0.724   6.196   1.899
 7366SOL     OW22996   2.083   6.687   5.566
 7366SOL    HW122997   2.058   6.747   5.490
 7366SOL    HW222998   2.176   6.653   5.552
 7367SOL     OW22999   4.712   2.564   0.505
 7367SOL    HW123000   4.623   2.535   0.541
 7367SOL    HW223001   4.778   2.490   0.517
 7368SOL     OW23002   3.652   2.911   2.377
 7368SOL    HW123003   3.599   2.826   2.379
 7368SOL    HW223004   3.594   2.987   2.404
 7369SOL     OW23005   3.224   2.331   1.126
 7369SOL    HW123006   3.275   2.249   1.152
 7369SOL    HW223007   3.156   2.308   1.057
 7370SOL     OW23008   2.612   1.139   6.235
 7370SOL    HW123009   2.599   1.162   6.332
 7370SOL    HW223010   2.557   1.200   6.179
 7371SOL     OW23011   2.812   6.450   3.135
 7371SOL    HW123012   2.774   6.542   3.146
 7371SOL    HW223013   2.903   6.446   3.178
 7372SOL     OW23014   4.665   6.841   4.806
 7372SOL    HW123015   4.623   6.919   4.853
 7372SOL    HW223016   4.593   6.787   4.762
 7373SOL     OW23017   6.076   1.931   5.194
 7373SOL    HW123018   5.980   1.923   5.168
 7373SOL    HW223019   6.083   1.966   5.288
 7374SOL     OW23020   2.361   2.436   4.821
 7374SOL    HW123021   2.266   2.406   4.814
 7374SOL    HW223022   2.395   2.418   4.914
 7375SOL     OW23023   2.485   2.544   2.094
 7375SOL    HW123024   2.562   2.487   2.121
 7375SOL    HW223025   2.422   2.553   2.171
 7376SOL     OW23026   1.100   2.071   1.402
 7376SOL    HW123027   1.111   2.062   1.501
 7376SOL    HW223028   1.003   2.065   1.378
 7377SOL     OW23029   5.034   5.205   0.392
 7377SOL    HW123030   5.093   5.127   0.409
 7377SOL    HW223031   4.954   5.200   0.453
 7378SOL     OW23032   1.451   0.905   4.340
 7378SOL    HW123033   1.401   0.887   4.425
 7378SOL    HW223034   1.464   1.003   4.329
 7379SOL     OW23035   3.036   0.758   2.265
 7379SOL    HW123036   2.993   0.790   2.181
 7379SOL    HW223037   3.129   0.794   2.271
 7380SOL     OW23038   0.184   4.613   4.199
 7380SOL    HW123039   0.182   4.685   4.130
 7380SOL    HW223040   0.278   4.593   4.224
 7381SOL     OW23041   3.730   3.400   0.407
 7381SOL    HW123042   3.754   3.327   0.342
 7381SOL    HW223043   3.783   3.388   0.491
 7382SOL     OW23044   6.521   1.328   5.428
 7382SOL    HW123045   6.460   1.407   5.438
 7382SOL    HW223046   6.613   1.352   5.459
 7383SOL     OW23047   3.053   5.962   1.313
 7383SOL    HW123048   2.994   5.894   1.269
 7383SOL    HW223049   3.014   5.985   1.403
 7384SOL     OW23050   6.265   6.911   2.522
 7384SOL    HW123051   6.252   6.967   2.603
 7384SOL    HW223052   6.339   6.949   2.467
 7385SOL     OW23053   2.945   5.369   2.602
 7385SOL    HW123054   3.008   5.354   2.526
 7385SOL    HW223055   2.979   5.321   2.683
 7386SOL     OW23056   6.876   2.998   6.782
 7386SOL    HW123057   6.928   2.979   6.699
 7386SOL    HW223058   6.876   3.096   6.801
 7387SOL     OW23059   6.535   5.054   5.019
 7387SOL    HW123060   6.576   5.131   4.970
 7387SOL    HW223061   6.555   5.062   5.117
 7388SOL     OW23062   1.327   5.040   2.399
 7388SOL    HW123063   1.348   5.018   2.304
 7388SOL    HW223064   1.296   4.957   2.446
 7389SOL     OW23065   6.869   3.539   6.764
 7389SOL    HW123066   6.957   3.511   6.726
 7389SOL    HW223067   6.878   3.632   6.801
 7390SOL     OW23068   2.662   1.882   2.555
 7390SOL    HW123069   2.667   1.865   2.456
 7390SOL    HW223070   2.588   1.828   2.594
 7391SOL     OW23071   3.589   2.994   3.131
 7391SOL    HW123072   3.672   2.938   3.135
 7391SOL    HW223073   3.613   3.091   3.141
 7392SOL     OW23074   3.827   5.933   6.506
 7392SOL    HW123075   3.840   6.032   6.516
 7392SOL    HW223076   3.850   5.905   6.413
 7393SOL     OW23077   6.443   4.737   2.886
 7393SOL    HW123078   6.477   4.766   2.796
 7393SOL    HW223079   6.512   4.680   2.931
 7394SOL     OW23080   1.437   2.702   5.884
 7394SOL    HW123081   1.381   2.713   5.801
 7394SOL    HW223082   1.400   2.628   5.940
 7395SOL     OW23083   2.166   3.427   1.168
 7395SOL    HW123084   2.206   3.377   1.245
 7395SOL    HW223085   2.194   3.523   1.171
 7396SOL     OW23086   2.128   6.738   1.386
 7396SOL    HW123087   2.080   6.772   1.306
 7396SOL    HW223088   2.097   6.789   1.467
 7397SOL     OW23089   5.600   4.752   4.487
 7397SOL    HW123090   5.563   4.704   4.566
 7397SOL    HW223091   5.663   4.690   4.438
 7398SOL     OW23092   0.879   5.486   3.107
 7398SOL    HW123093   0.782   5.490   3.084
 7398SOL    HW223094   0.893   5.424   3.185
 7399SOL     OW23095   0.035   3.153   4.471
 7399SOL    HW123096   0.123   3.182   4.434
 7399SOL    HW223097   6.978   3.213   4.436
 7400SOL     OW23098   4.224   2.833   6.076
 7400SOL    HW123099   4.187   2.746   6.107
 7400SOL    HW223100   4.221   2.837   5.976
 7401SOL     OW23101   1.395   2.958   2.864
 7401SOL    HW123102   1.405   2.995   2.957
 7401SOL    HW223103   1.419   3.028   2.797
 7402SOL     OW23104   2.875   4.230   5.913
 7402SOL    HW123105   2.866   4.153   5.976
 7402SOL    HW223106   2.888   4.195   5.820
 7403SOL     OW23107   1.410   3.458   2.931
 7403SOL    HW123108   1.315   3.488   2.937
 7403SOL    HW223109   1.460   3.489   3.012
 7404SOL     OW23110   2.656   4.681   1.777
 7404SOL    HW123111   2.705   4.634   1.704
 7404SOL    HW223112   2.696   4.656   1.865
 7405SOL     OW23113   3.300   5.201   4.282
 7405SOL    HW123114   3.247   5.116   4.280
 7405SOL    HW223115   3.396   5.181   4.301
 7406SOL     OW23116   1.000   1.573   4.512
 7406SOL    HW123117   1.099   1.560   4.521
 7406SOL    HW223118   0.964   1.611   4.597
 7407SOL     OW23119   1.497   6.316   5.612
 7407SOL    HW123120   1.543   6.256   5.677
 7407SOL    HW223121   1.497   6.273   5.521
 7408SOL     OW23122   3.860   4.380   5.814
 7408SOL    HW123123   3.784   4.315   5.802
 7408SOL    HW223124   3.824   4.473   5.813
 7409SOL     OW23125   5.386   4.383   0.890
 7409SOL    HW123126   5.458   4.319   0.918
 7409SOL    HW223127   5.317   4.390   0.962
 7410SOL     OW23128   0.306   0.955   0.490
 7410SOL    HW123129   0.365   0.893   0.439
 7410SOL    HW223130   0.363   1.022   0.538
 7411SOL     OW23131   1.757   0.516   6.508
 7411SOL    HW123132   1.693   0.465   6.451
 7411SOL    HW223133   1.712   0.544   6.593
 7412SOL     OW23134   3.846   6.575   0.834
 7412SOL    HW123135   3.933   6.622   0.846
 7412SOL    HW223136   3.775   6.642   0.811
 7413SOL     OW23137   4.650   4.855   3.997
 7413SOL    HW123138   4.646   4.767   4.044
 7413SOL    HW223139   4.679   4.926   4.061
 7414SOL     OW23140   2.438   1.317   3.227
 7414SOL    HW123141   2.420   1.219   3.218
 7414SOL    HW223142   2.409   1.363   3.143
 7415SOL     OW23143   2.057   4.975   5.086
 7415SOL    HW123144   2.065   4.896   5.024
 7415SOL    HW223145   1.976   5.028   5.061
 7416SOL     OW23146   1.942   0.876   2.449
 7416SOL    HW123147   1.975   0.788   2.413
 7416SOL    HW223148   2.020   0.938   2.461
 7417SOL     OW23149   1.868   2.192   2.072
 7417SOL    HW123150   1.956   2.230   2.045
 7417SOL    HW223151   1.838   2.233   2.158
 7418SOL     OW23152   1.710   4.706   6.626
 7418SOL    HW123153   1.767   4.783   6.656
 7418SOL    HW223154   1.726   4.627   6.686
 7419SOL     OW23155   6.491   4.168   3.909
 7419SOL    HW123156   6.526   4.191   3.818
 7419SOL    HW223157   6.492   4.250   3.967
 7420SOL     OW23158   0.161   6.532   0.963
 7420SOL    HW123159   0.079   6.550   1.016
 7420SOL    HW223160   0.158   6.583   0.877
 7421SOL     OW23161   3.812   3.350   1.216
 7421SOL    HW123162   3.852   3.442   1.208
 7421SOL    HW223163   3.713   3.357   1.226
 7422SOL     OW23164   6.637   3.996   1.930
 7422SOL    HW123165   6.612   3.900   1.943
 7422SOL    HW223166   6.736   4.006   1.944
 7423SOL     OW23167   6.235   3.019   5.653
 7423SOL    HW123168   6.265   2.998   5.560
 7423SOL    HW223169   6.173   3.097   5.651
 7424SOL     OW23170   6.853   1.695   5.325
 7424SOL    HW123171   6.756   1.675   5.323
 7424SOL    HW223172   6.902   1.621   5.369
 7425SOL     OW23173   4.837   7.010   0.477
 7425SOL    HW123174   4.936   0.009   0.475
 7425SOL    HW223175   4.816   6.936   0.540
 7426SOL     OW23176   3.416   1.888   5.329
 7426SOL    HW123177   3.346   1.940   5.281
 7426SOL    HW223178   3.377   1.849   5.413
 7427SOL     OW23179   4.862   0.944   4.188
 7427SOL    HW123180   4.901   1.024   4.233
 7427SOL    HW223181   4.859   0.960   4.089
 7428SOL     OW23182   4.028   0.213   5.105
 7428SOL    HW123183   3.980   0.127   5.122
 7428SOL    HW223184   4.115   0.214   5.154
 7429SOL     OW23185   0.876   6.483   3.644
 7429SOL    HW123186   0.860   6.392   3.681
 7429SOL    HW223187   0.835   6.490   3.554
 7430SOL     OW23188   6.712   3.607   0.916
 7430SOL    HW123189   6.684   3.628   1.010
 7430SOL    HW223190   6.812   3.605   0.911
 7431SOL     OW23191   0.691   2.295   2.928
 7431SOL    HW123192   0.720   2.387   2.902
 7431SOL    HW223193   0.609   2.300   2.985
 7432SOL     OW23194   2.146   0.839   3.401
 7432SOL    HW123195   2.059   0.875   3.436
 7432SOL    HW223196   2.180   0.769   3.464
 7433SOL     OW23197   4.114   6.158   6.447
 7433SOL    HW123198   4.165   6.128   6.367
 7433SOL    HW223199   4.096   6.256   6.441
 7434SOL     OW23200   5.588   5.219   5.566
 7434SOL    HW123201   5.678   5.261   5.576
 7434SOL    HW223202   5.584   5.171   5.478
 7435SOL     OW23203   4.624   6.398   1.460
 7435SOL    HW123204   4.635   6.379   1.362
 7435SOL    HW223205   4.688   6.343   1.513
 7436SOL     OW23206   4.585   4.306   6.169
 7436SOL    HW123207   4.653   4.232   6.171
 7436SOL    HW223208   4.497   4.270   6.138
 7437SOL     OW23209   3.238   5.383   0.508
 7437SOL    HW123210   3.223   5.347   0.600
 7437SOL    HW223211   3.169   5.344   0.446
 7438SOL     OW23212   1.350   6.964   6.837
 7438SOL    HW123213   1.354   0.002   6.753
 7438SOL    HW223214   1.426   6.899   6.839
 7439SOL     OW23215   1.767   6.281   5.330
 7439SOL    HW123216   1.827   6.273   5.410
 7439SOL    HW223217   1.685   6.227   5.345
 7440SOL     OW23218   6.621   3.175   3.972
 7440SOL    HW123219   6.567   3.173   3.888
 7440SOL    HW223220   6.567   3.216   4.046
 7441SOL     OW23221   5.658   6.892   3.885
 7441SOL    HW123222   5.654   6.940   3.972
 7441SOL    HW223223   5.581   6.828   3.879
 7442SOL     OW23224   5.618   1.376   0.107
 7442SOL    HW123225   5.620   1.475   0.118
 7442SOL    HW223226   5.697   1.336   0.154
 7443SOL     OW23227   6.673   5.712   2.168
 7443SOL    HW123228   6.653   5.629   2.117
 7443SOL    HW223229   6.763   5.704   2.211
 7444SOL     OW23230   5.735   0.860   6.503
 7444SOL    HW123231   5.750   0.936   6.566
 7444SOL    HW223232   5.790   0.874   6.421
 7445SOL     OW23233   3.235   0.377   1.447
 7445SOL    HW123234   3.153   0.320   1.448
 7445SOL    HW223235   3.226   0.448   1.378
 7446SOL     OW23236   4.906   2.070   0.441
 7446SOL    HW123237   4.847   2.015   0.500
 7446SOL    HW223238   4.871   2.067   0.347
 7447SOL     OW23239   6.515   4.617   6.080
 7447SOL    HW123240   6.488   4.713   6.093
 7447SOL    HW223241   6.434   4.564   6.054
 7448SOL     OW23242   5.727   6.907   5.140
 7448SOL    HW123243   5.820   6.941   5.125
 7448SOL    HW223244   5.716   6.817   5.098
 7449SOL     OW23245   0.966   5.685   0.723
 7449SOL    HW123246   0.981   5.586   0.718
 7449SOL    HW223247   1.038   5.726   0.779
 7450SOL     OW23248   5.056   2.578   5.276
 7450SOL    HW123249   5.014   2.664   5.305
 7450SOL    HW223250   5.084   2.585   5.181
 7451SOL     OW23251   5.913   5.684   2.211
 7451SOL    HW123252   5.850   5.742   2.263
 7451SOL    HW223253   5.893   5.691   2.113
 7452SOL     OW23254   6.075   5.699   4.389
 7452SOL    HW123255   6.023   5.663   4.312
 7452SOL    HW223256   6.147   5.759   4.354
 7453SOL     OW23257   4.326   5.240   5.217
 7453SOL    HW123258   4.293   5.283   5.301
 7453SOL    HW223259   4.278   5.278   5.138
 7454SOL     OW23260   2.646   1.522   0.797
 7454SOL    HW123261   2.731   1.472   0.783
 7454SOL    HW223262   2.628   1.532   0.895
 7455SOL     OW23263   6.618   3.739   1.966
 7455SOL    HW123264   6.611   3.688   1.880
 7455SOL    HW223265   6.685   3.694   2.026
 7456SOL     OW23266   2.391   1.122   5.040
 7456SOL    HW123267   2.432   1.058   4.975
 7456SOL    HW223268   2.340   1.192   4.991
 7457SOL     OW23269   3.180   0.266   4.452
 7457SOL    HW123270   3.131   0.353   4.459
 7457SOL    HW223271   3.261   0.278   4.394
 7458SOL     OW23272   1.344   6.979   5.965
 7458SOL    HW123273   1.292   6.991   5.881
 7458SOL    HW223274   1.441   7.001   5.949
 7459SOL     OW23275   5.839   1.472   2.386
 7459SOL    HW123276   5.896   1.533   2.442
 7459SOL    HW223277   5.846   1.379   2.421
 7460SOL     OW23278   1.622   6.070   6.889
 7460SOL    HW123279   1.666   6.138   6.948
 7460SOL    HW223280   1.524   6.067   6.908
 7461SOL     OW23281   5.838   6.106   5.710
 7461SOL    HW123282   5.769   6.069   5.648
 7461SOL    HW223283   5.836   6.206   5.707
 7462SOL     OW23284   2.237   4.749   2.011
 7462SOL    HW123285   2.138   4.737   2.004
 7462SOL    HW223286   2.280   4.660   2.026
 7463SOL     OW23287   3.320   3.587   0.348
 7463SOL    HW123288   3.366   3.627   0.269
 7463SOL    HW223289   3.384   3.579   0.424
 7464SOL     OW23290   5.910   6.724   5.356
 7464SOL    HW123291   5.910   6.680   5.445
 7464SOL    HW223292   5.863   6.812   5.362
 7465SOL     OW23293   2.501   5.129   0.106
 7465SOL    HW123294   2.548   5.113   0.020
 7465SOL    HW223295   2.561   5.104   0.182
 7466SOL     OW23296   0.119   0.715   6.204
 7466SOL    HW123297   0.066   0.772   6.265
 7466SOL    HW223298   0.066   0.696   6.121
 7467SOL     OW23299   0.601   2.364   5.810
 7467SOL    HW123300   0.653   2.279   5.810
 7467SOL    HW223301   0.512   2.349   5.854
 7468SOL     OW23302   4.809   3.097   4.506
 7468SOL    HW123303   4.755   3.014   4.510
 7468SOL    HW223304   4.879   3.089   4.434
 7469SOL     OW23305   6.202   1.341   0.371
 7469SOL    HW123306   6.226   1.247   0.393
 7469SOL    HW223307   6.115   1.364   0.415
 7470SOL     OW23308   5.346   4.380   3.432
 7470SOL    HW123309   5.283   4.369   3.354
 7470SOL    HW223310   5.417   4.446   3.408
 7471SOL     OW23311   5.267   6.029   6.099
 7471SOL    HW123312   5.289   6.119   6.063
 7471SOL    HW223313   5.204   6.037   6.176
 7472SOL     OW23314   6.534   0.878   5.558
 7472SOL    HW123315   6.574   0.821   5.486
 7472SOL    HW223316   6.534   0.827   5.644
 7473SOL     OW23317   5.624   6.167   4.083
 7473SOL    HW123318   5.574   6.162   3.996
 7473SOL    HW223319   5.605   6.084   4.136
 7474SOL     OW23320   6.734   2.309   6.350
 7474SOL    HW123321   6.715   2.214   6.372
 7474SOL    HW223322   6.692   2.332   6.262
 7475SOL     OW23323   4.287   2.348   2.180
 7475SOL    HW123324   4.287   2.277   2.250
 7475SOL    HW223325   4.201   2.347   2.130
 7476SOL     OW23326   2.159   1.830   3.063
 7476SOL    HW123327   2.233   1.770   3.032
 7476SOL    HW223328   2.187   1.925   3.052
 7477SOL     OW23329   0.051   2.922   5.275
 7477SOL    HW123330   0.082   2.928   5.180
 7477SOL    HW223331   6.993   2.854   5.282
 7478SOL     OW23332   5.896   3.586   5.119
 7478SOL    HW123333   5.923   3.496   5.083
 7478SOL    HW223334   5.959   3.613   5.191
 7479SOL     OW23335   5.163   2.413   1.706
 7479SOL    HW123336   5.168   2.383   1.611
 7479SOL    HW223337   5.240   2.474   1.726
 7480SOL     OW23338   2.068   4.747   2.300
 7480SOL    HW123339   1.987   4.706   2.341
 7480SOL    HW223340   2.146   4.685   2.311
 7481SOL     OW23341   6.651   4.949   0.154
 7481SOL    HW123342   6.578   5.018   0.156
 7481SOL    HW223343   6.643   4.890   0.234
 7482SOL     OW23344   4.316   1.813   2.214
 7482SOL    HW123345   4.317   1.854   2.305
 7482SOL    HW223346   4.379   1.735   2.211
 7483SOL     OW23347   4.708   2.872   4.626
 7483SOL    HW123348   4.718   2.806   4.701
 7483SOL    HW223349   4.616   2.863   4.587
 7484SOL     OW23350   1.677   5.357   4.607
 7484SOL    HW123351   1.749   5.331   4.543
 7484SOL    HW223352   1.610   5.284   4.615
 7485SOL     OW23353   2.406   0.393   4.363
 7485SOL    HW123354   2.467   0.351   4.429
 7485SOL    HW223355   2.459   0.454   4.303
 7486SOL     OW23356   0.793   6.344   0.343
 7486SOL    HW123357   0.791   6.244   0.341
 7486SOL    HW223358   0.873   6.377   0.292
 7487SOL     OW23359   3.360   0.362   3.417
 7487SOL    HW123360   3.444   0.401   3.380
 7487SOL    HW223361   3.283   0.421   3.393
 7488SOL     OW23362   1.957   6.058   4.637
 7488SOL    HW123363   1.973   5.997   4.559
 7488SOL    HW223364   1.925   6.146   4.603
 7489SOL     OW23365   5.982   3.079   6.919
 7489SOL    HW123366   6.071   3.101   6.879
 7489SOL    HW223367   5.943   3.162   6.960
 7490SOL     OW23368   1.688   0.787   2.833
 7490SOL    HW123369   1.658   0.691   2.830
 7490SOL    HW223370   1.611   0.845   2.860
 7491SOL     OW23371   5.107   2.845   6.961
 7491SOL    HW123372   5.126   2.937   6.996
 7491SOL    HW223373   5.054   2.853   6.876
 7492SOL     OW23374   2.201   1.389   4.348
 7492SOL    HW123375   2.104   1.381   4.323
 7492SOL    HW223376   2.243   1.299   4.350
 7493SOL     OW23377   6.597   3.023   5.935
 7493SOL    HW123378   6.582   3.122   5.934
 7493SOL    HW223379   6.646   2.998   6.018
 7494SOL     OW23380   6.070   1.362   4.156
 7494SOL    HW123381   5.986   1.397   4.198
 7494SOL    HW223382   6.091   1.416   4.074
 7495SOL     OW23383   0.939   2.897   5.421
 7495SOL    HW123384   0.991   2.907   5.336
 7495SOL    HW223385   0.990   2.938   5.497
 7496SOL     OW23386   5.133   3.738   4.463
 7496SOL    HW123387   5.172   3.668   4.404
 7496SOL    HW223388   5.061   3.698   4.519
 7497SOL     OW23389   1.574   5.620   1.494
 7497SOL    HW123390   1.519   5.545   1.457
 7497SOL    HW223391   1.664   5.585   1.520
 7498SOL     OW23392   3.061   1.097   3.988
 7498SOL    HW123393   3.088   1.076   4.082
 7498SOL    HW223394   3.030   1.192   3.983
 7499SOL     OW23395   4.554   2.148   3.509
 7499SOL    HW123396   4.455   2.155   3.504
 7499SOL    HW223397   4.587   2.088   3.436
 7500SOL     OW23398   3.455   5.885   2.713
 7500SOL    HW123399   3.450   5.805   2.653
 7500SOL    HW223400   3.374   5.888   2.771
 7501SOL     OW23401   5.552   4.309   3.645
 7501SOL    HW123402   5.570   4.366   3.564
 7501SOL    HW223403   5.638   4.280   3.685
 7502SOL     OW23404   3.235   6.559   4.197
 7502SOL    HW123405   3.215   6.479   4.139
 7502SOL    HW223406   3.171   6.561   4.273
 7503SOL     OW23407   2.334   6.066   1.009
 7503SOL    HW123408   2.288   5.982   1.039
 7503SOL    HW223409   2.267   6.138   0.995
 7504SOL     OW23410   0.415   6.384   3.033
 7504SOL    HW123411   0.432   6.295   2.991
 7504SOL    HW223412   0.335   6.426   2.991
 7505SOL     OW23413   1.749   1.985   6.633
 7505SOL    HW123414   1.763   1.924   6.710
 7505SOL    HW223415   1.793   1.947   6.551
 7506SOL     OW23416   4.209   2.303   3.280
 7506SOL    HW123417   4.260   2.223   3.313
 7506SOL    HW223418   4.176   2.285   3.187
 7507SOL     OW23419   6.328   3.003   3.613
 7507SOL    HW123420   6.289   3.079   3.561
 7507SOL    HW223421   6.342   3.031   3.708
 7508SOL     OW23422   2.136   5.190   0.651
 7508SOL    HW123423   2.215   5.163   0.707
 7508SOL    HW223424   2.161   5.269   0.596
 7509SOL     OW23425   6.013   2.979   0.586
 7509SOL    HW123426   5.917   2.951   0.584
 7509SOL    HW223427   6.038   3.018   0.497
 7510SOL     OW23428   4.117   3.589   4.454
 7510SOL    HW123429   4.135   3.573   4.551
 7510SOL    HW223430   4.142   3.509   4.401
 7511SOL     OW23431   2.746   5.976   3.241
 7511SOL    HW123432   2.711   6.070   3.236
 7511SOL    HW223433   2.701   5.928   3.317
 7512SOL     OW23434   2.413   0.975   0.064
 7512SOL    HW123435   2.328   0.930   0.089
 7512SOL    HW223436   2.487   0.942   0.123
 7513SOL     OW23437   2.127   2.136   3.056
 7513SOL    HW123438   2.184   2.216   3.037
 7513SOL    HW223439   2.068   2.155   3.134
 7514SOL     OW23440   2.205   5.372   3.354
 7514SOL    HW123441   2.163   5.380   3.263
 7514SOL    HW223442   2.147   5.420   3.421
 7515SOL     OW23443   0.251   4.401   4.667
 7515SOL    HW123444   0.169   4.410   4.610
 7515SOL    HW223445   0.232   4.337   4.742
 7516SOL     OW23446   0.852   5.338   6.132
 7516SOL    HW123447   0.821   5.264   6.073
 7516SOL    HW223448   0.952   5.344   6.129
 7517SOL     OW23449   0.979   1.866   6.796
 7517SOL    HW123450   1.079   1.867   6.796
 7517SOL    HW223451   0.945   1.890   6.887
 7518SOL     OW23452   5.231   3.381   3.305
 7518SOL    HW123453   5.185   3.359   3.391
 7518SOL    HW223454   5.182   3.456   3.260
 7519SOL     OW23455   5.968   6.744   4.495
 7519SOL    HW123456   6.053   6.734   4.443
 7519SOL    HW223457   5.930   6.654   4.514
 7520SOL     OW23458   1.386   0.775   2.709
 7520SOL    HW123459   1.437   0.783   2.624
 7520SOL    HW223460   1.305   0.719   2.694
 7521SOL     OW23461   5.547   2.284   4.803
 7521SOL    HW123462   5.464   2.294   4.749
 7521SOL    HW223463   5.534   2.212   4.871
 7522SOL     OW23464   1.358   0.106   5.173
 7522SOL    HW123465   1.261   0.121   5.152
 7522SOL    HW223466   1.376   0.134   5.268
 7523SOL     OW23467   4.851   0.701   6.222
 7523SOL    HW123468   4.753   0.705   6.243
 7523SOL    HW223469   4.864   0.697   6.123
 7524SOL     OW23470   6.957   3.159   5.032
 7524SOL    HW123471   6.960   3.195   4.939
 7524SOL    HW223472   6.998   3.068   5.034
 7525SOL     OW23473   4.406   6.609   6.769
 7525SOL    HW123474   4.331   6.543   6.773
 7525SOL    HW223475   4.477   6.584   6.835
 7526SOL     OW23476   2.672   2.872   1.309
 7526SOL    HW123477   2.575   2.846   1.302
 7526SOL    HW223478   2.720   2.804   1.363
 7527SOL     OW23479   3.360   5.924   3.649
 7527SOL    HW123480   3.327   5.835   3.619
 7527SOL    HW223481   3.450   5.914   3.691
 7528SOL     OW23482   5.970   2.214   6.930
 7528SOL    HW123483   6.005   2.131   6.974
 7528SOL    HW223484   5.902   2.257   6.989
 7529SOL     OW23485   5.299   1.685   4.433
 7529SOL    HW123486   5.393   1.717   4.427
 7529SOL    HW223487   5.290   1.624   4.512
 7530SOL     OW23488   5.894   1.957   1.860
 7530SOL    HW123489   5.906   2.056   1.855
 7530SOL    HW223490   5.890   1.928   1.956
 7531SOL     OW23491   4.848   3.196   3.177
 7531SOL    HW123492   4.755   3.196   3.141
 7531SOL    HW223493   4.852   3.253   3.259
 7532SOL     OW23494   5.168   6.273   6.849
 7532SOL    HW123495   5.157   6.340   6.923
 7532SOL    HW223496   5.078   6.237   6.824
 7533SOL     OW23497   4.042   1.958   1.585
 7533SOL    HW123498   3.985   2.028   1.628
 7533SOL    HW223499   4.133   1.995   1.568
 7534SOL     OW23500   4.923   5.764   4.221
 7534SOL    HW123501   4.954   5.689   4.163
 7534SOL    HW223502   4.974   5.847   4.198
 7535SOL     OW23503   1.675   6.723   4.918
 7535SOL    HW123504   1.747   6.751   4.854
 7535SOL    HW223505   1.622   6.804   4.944
 7536SOL     OW23506   5.211   5.712   4.393
 7536SOL    HW123507   5.215   5.709   4.293
 7536SOL    HW223508   5.202   5.619   4.429
 7537SOL     OW23509   1.918   4.771   2.052
 7537SOL    HW123510   1.880   4.863   2.043
 7537SOL    HW223511   1.941   4.753   2.147
 7538SOL     OW23512   1.718   2.812   1.668
 7538SOL    HW123513   1.739   2.721   1.703
 7538SOL    HW223514   1.775   2.879   1.717
 7539SOL     OW23515   0.770   4.704   3.405
 7539SOL    HW123516   0.862   4.668   3.394
 7539SOL    HW223517   0.772   4.804   3.399
 7540SOL     OW23518   4.318   6.379   4.670
 7540SOL    HW123519   4.292   6.286   4.645
 7540SOL    HW223520   4.313   6.439   4.590
 7541SOL     OW23521   1.182   4.010   6.032
 7541SOL    HW123522   1.171   3.915   6.002
 7541SOL    HW223523   1.119   4.029   6.107
 7542SOL     OW23524   6.720   5.941   6.247
 7542SOL    HW123525   6.653   5.866   6.241
 7542SOL    HW223526   6.728   5.971   6.341
 7543SOL     OW23527   2.647   0.574   4.940
 7543SOL    HW123528   2.583   0.504   4.972
 7543SOL    HW223529   2.738   0.534   4.930
 7544SOL     OW23530   0.019   2.888   4.555
 7544SOL    HW123531   7.014   2.981   4.527
 7544SOL    HW223532   0.116   2.867   4.537
 7545SOL     OW23533   0.614   6.611   6.228
 7545SOL    HW123534   0.530   6.598   6.174
 7545SOL    HW223535   0.590   6.619   6.325
 7546SOL     OW23536   4.865   2.349   1.311
 7546SOL    HW123537   4.882   2.344   1.409
 7546SOL    HW223538   4.783   2.405   1.294
 7547SOL     OW23539   4.871   0.867   0.940
 7547SOL    HW123540   4.776   0.836   0.949
 7547SOL    HW223541   4.879   0.927   0.860
 7548SOL     OW23542   4.401   2.434   6.809
 7548SOL    HW123543   4.483   2.490   6.803
 7548SOL    HW223544   4.321   2.489   6.787
 7549SOL     OW23545   4.014   2.933   6.876
 7549SOL    HW123546   3.918   2.908   6.892
 7549SOL    HW223547   4.023   3.032   6.877
 7550SOL     OW23548   1.750   4.904   3.451
 7550SOL    HW123549   1.817   4.978   3.454
 7550SOL    HW223550   1.784   4.827   3.506
 7551SOL     OW23551   5.372   3.243   5.446
 7551SOL    HW123552   5.329   3.329   5.470
 7551SOL    HW223553   5.421   3.253   5.359
 7552SOL     OW23554   1.158   6.009   4.433
 7552SOL    HW123555   1.192   5.945   4.365
 7552SOL    HW223556   1.163   6.102   4.397
 7553SOL     OW23557   5.583   6.321   5.796
 7553SOL    HW123558   5.550   6.367   5.714
 7553SOL    HW223559   5.652   6.378   5.841
 7554SOL     OW23560   4.783   0.553   0.422
 7554SOL    HW123561   4.841   0.552   0.340
 7554SOL    HW223562   4.805   0.475   0.480
 7555SOL     OW23563   3.442   5.658   6.281
 7555SOL    HW123564   3.525   5.604   6.298
 7555SOL    HW223565   3.424   5.717   6.360
 7556SOL     OW23566   2.190   1.508   0.134
 7556SOL    HW123567   2.153   1.499   0.227
 7556SOL    HW223568   2.114   1.515   0.069
 7557SOL     OW23569   5.060   0.168   6.953
 7557SOL    HW123570   4.997   0.220   6.897
 7557SOL    HW223571   5.121   0.115   6.895
 7558SOL     OW23572   2.035   3.075   3.607
 7558SOL    HW123573   2.048   3.026   3.520
 7558SOL    HW223574   1.955   3.038   3.654
 7559SOL     OW23575   4.000   2.175   5.612
 7559SOL    HW123576   3.935   2.124   5.669
 7559SOL    HW223577   3.953   2.250   5.567
 7560SOL     OW23578   6.376   0.051   6.805
 7560SOL    HW123579   6.317   0.113   6.857
 7560SOL    HW223580   6.417   0.101   6.729
 7561SOL     OW23581   5.966   3.413   5.656
 7561SOL    HW123582   5.929   3.469   5.730
 7561SOL    HW223583   6.058   3.382   5.681
 7562SOL     OW23584   0.537   5.055   5.014
 7562SOL    HW123585   0.464   5.036   5.079
 7562SOL    HW223586   0.507   5.026   4.922
 7563SOL     OW23587   2.742   6.153   1.970
 7563SOL    HW123588   2.833   6.127   1.939
 7563SOL    HW223589   2.691   6.071   1.998
 7564SOL     OW23590   3.753   0.251   4.855
 7564SOL    HW123591   3.782   0.330   4.801
 7564SOL    HW223592   3.701   0.282   4.935
 7565SOL     OW23593   5.498   4.032   5.811
 7565SOL    HW123594   5.450   4.113   5.776
 7565SOL    HW223595   5.466   4.013   5.904
 7566SOL     OW23596   5.743   5.303   2.313
 7566SOL    HW123597   5.721   5.245   2.234
 7566SOL    HW223598   5.831   5.348   2.298
 7567SOL     OW23599   0.699   0.779   5.686
 7567SOL    HW123600   0.780   0.751   5.635
 7567SOL    HW223601   0.690   0.878   5.683
 7568SOL     OW23602   5.487   5.214   1.648
 7568SOL    HW123603   5.417   5.171   1.591
 7568SOL    HW223604   5.572   5.222   1.597
 7569SOL     OW23605   3.905   4.315   6.086
 7569SOL    HW123606   3.920   4.216   6.081
 7569SOL    HW223607   3.925   4.356   5.997
 7570SOL     OW23608   6.587   3.916   4.015
 7570SOL    HW123609   6.572   3.997   3.958
 7570SOL    HW223610   6.523   3.918   4.092
 7571SOL     OW23611   5.425   3.673   3.337
 7571SOL    HW123612   5.499   3.728   3.298
 7571SOL    HW223613   5.452   3.577   3.339
 7572SOL     OW23614   4.989   0.080   3.048
 7572SOL    HW123615   5.012   0.174   3.022
 7572SOL    HW223616   5.038   0.016   2.989
 7573SOL     OW23617   6.723   0.507   5.322
 7573SOL    HW123618   6.697   0.461   5.237
 7573SOL    HW223619   6.682   0.597   5.325
 7574SOL     OW23620   5.877   1.576   4.552
 7574SOL    HW123621   5.843   1.541   4.465
 7574SOL    HW223622   5.805   1.569   4.621
 7575SOL     OW23623   6.298   6.330   0.764
 7575SOL    HW123624   6.268   6.355   0.672
 7575SOL    HW223625   6.393   6.297   0.760
 7576SOL     OW23626   5.082   1.622   0.130
 7576SOL    HW123627   5.111   1.668   0.214
 7576SOL    HW223628   5.003   1.670   0.091
 7577SOL     OW23629   0.172   6.178   0.489
 7577SOL    HW123630   0.139   6.267   0.520
 7577SOL    HW223631   0.174   6.114   0.565
 7578SOL     OW23632   1.453   5.342   2.497
 7578SOL    HW123633   1.502   5.264   2.458
 7578SOL    HW223634   1.355   5.330   2.482
 7579SOL     OW23635   6.809   1.793   1.693
 7579SOL    HW123636   6.834   1.770   1.599
 7579SOL    HW223637   6.730   1.738   1.721
 7580SOL     OW23638   1.184   4.503   2.997
 7580SOL    HW123639   1.227   4.591   3.015
 7580SOL    HW223640   1.084   4.513   3.003
 7581SOL     OW23641   0.028   1.430   1.528
 7581SOL    HW123642   0.100   1.493   1.557
 7581SOL    HW223643   6.961   1.446   1.583
 7582SOL     OW23644   4.113   1.719   3.671
 7582SOL    HW123645   4.065   1.806   3.685
 7582SOL    HW223646   4.211   1.736   3.662
 7583SOL     OW23647   5.830   3.478   3.237
 7583SOL    HW123648   5.810   3.380   3.237
 7583SOL    HW223649   5.812   3.516   3.146
 7584SOL     OW23650   1.265   0.044   2.867
 7584SOL    HW123651   1.301   0.045   2.774
 7584SOL    HW223652   1.179   7.007   2.869
 7585SOL     OW23653   1.157   1.769   6.003
 7585SOL    HW123654   1.190   1.680   6.035
 7585SOL    HW223655   1.173   1.838   6.074
 7586SOL     OW23656   2.075   6.613   3.338
 7586SOL    HW123657   1.983   6.577   3.323
 7586SOL    HW223658   2.098   6.677   3.265
 7587SOL     OW23659   2.587   1.320   6.946
 7587SOL    HW123660   2.525   1.302   0.006
 7587SOL    HW223661   2.565   1.260   6.869
 7588SOL     OW23662   1.268   2.853   4.262
 7588SOL    HW123663   1.276   2.758   4.291
 7588SOL    HW223664   1.355   2.882   4.222
 7589SOL     OW23665   6.792   0.996   3.111
 7589SOL    HW123666   6.864   1.030   3.051
 7589SOL    HW223667   6.808   0.900   3.132
 7590SOL     OW23668   6.182   0.761   6.552
 7590SOL    HW123669   6.174   0.860   6.538
 7590SOL    HW223670   6.263   0.742   6.607
 7591SOL     OW23671   5.193   3.532   6.603
 7591SOL    HW123672   5.203   3.434   6.585
 7591SOL    HW223673   5.103   3.563   6.570
 7592SOL     OW23674   6.461   4.876   4.672
 7592SOL    HW123675   6.432   4.793   4.626
 7592SOL    HW223676   6.397   4.898   4.745
 7593SOL     OW23677   0.160   2.686   6.662
 7593SOL    HW123678   0.080   2.736   6.695
 7593SOL    HW223679   0.162   2.595   6.705
 7594SOL     OW23680   0.863   4.741   1.352
 7594SOL    HW123681   0.898   4.678   1.422
 7594SOL    HW223682   0.787   4.698   1.304
 7595SOL     OW23683   6.527   3.176   6.684
 7595SOL    HW123684   6.446   3.230   6.708
 7595SOL    HW223685   6.589   3.232   6.629
 7596SOL     OW23686   2.740   6.712   4.696
 7596SOL    HW123687   2.659   6.661   4.725
 7596SOL    HW223688   2.822   6.665   4.730
 7597SOL     OW23689   1.822   6.841   3.245
 7597SOL    HW123690   1.869   6.928   3.259
 7597SOL    HW223691   1.812   6.825   3.147
 7598SOL     OW23692   6.082   0.381   2.756
 7598SOL    HW123693   5.999   0.358   2.808
 7598SOL    HW223694   6.145   0.432   2.815
 7599SOL     OW23695   5.235   3.431   1.251
 7599SOL    HW123696   5.224   3.361   1.180
 7599SOL    HW223697   5.159   3.495   1.247
 7600SOL     OW23698   1.177   0.843   3.241
 7600SOL    HW123699   1.135   0.766   3.193
 7600SOL    HW223700   1.225   0.810   3.322
 7601SOL     OW23701   2.672   5.186   2.241
 7601SOL    HW123702   2.683   5.278   2.204
 7601SOL    HW223703   2.630   5.191   2.332
 7602SOL     OW23704   1.044   3.335   6.977
 7602SOL    HW123705   1.032   3.236   6.967
 7602SOL    HW223706   1.140   3.356   6.995
 7603SOL     OW23707   1.621   6.241   5.901
 7603SOL    HW123708   1.698   6.192   5.860
 7603SOL    HW223709   1.654   6.294   5.980
 7604SOL     OW23710   1.359   2.083   5.093
 7604SOL    HW123711   1.266   2.120   5.089
 7604SOL    HW223712   1.385   2.049   5.002
 7605SOL     OW23713   0.787   0.542   1.087
 7605SOL    HW123714   0.878   0.582   1.099
 7605SOL    HW223715   0.790   0.444   1.109
 7606SOL     OW23716   5.649   2.998   4.976
 7606SOL    HW123717   5.672   3.071   4.912
 7606SOL    HW223718   5.598   2.926   4.927
 7607SOL     OW23719   3.610   5.025   0.299
 7607SOL    HW123720   3.674   5.031   0.223
 7607SOL    HW223721   3.556   5.108   0.304
 7608SOL     OW23722   5.084   2.507   6.847
 7608SOL    HW123723   5.131   2.583   6.802
 7608SOL    HW223724   5.133   2.482   6.930
 7609SOL     OW23725   1.126   4.254   3.966
 7609SOL    HW123726   1.116   4.222   4.060
 7609SOL    HW223727   1.094   4.184   3.903
 7610SOL     OW23728   4.029   5.120   5.663
 7610SOL    HW123729   3.973   5.059   5.718
 7610SOL    HW223730   4.010   5.215   5.688
 7611SOL     OW23731   5.576   3.794   1.143
 7611SOL    HW123732   5.670   3.793   1.177
 7611SOL    HW223733   5.556   3.707   1.098
 7612SOL     OW23734   4.344   2.439   2.806
 7612SOL    HW123735   4.424   2.486   2.842
 7612SOL    HW223736   4.355   2.424   2.708
 7613SOL     OW23737   1.032   1.899   1.934
 7613SOL    HW123738   1.019   1.857   2.023
 7613SOL    HW223739   0.944   1.905   1.887
 7614SOL     OW23740   5.753   3.650   1.745
 7614SOL    HW123741   5.673   3.617   1.695
 7614SOL    HW223742   5.725   3.717   1.813
 7615SOL     OW23743   4.829   4.189   5.751
 7615SOL    HW123744   4.768   4.203   5.673
 7615SOL    HW223745   4.920   4.225   5.730
 7616SOL     OW23746   6.486   0.408   3.457
 7616SOL    HW123747   6.460   0.315   3.431
 7616SOL    HW223748   6.551   0.405   3.533
 7617SOL     OW23749   5.445   5.832   3.175
 7617SOL    HW123750   5.434   5.913   3.232
 7617SOL    HW223751   5.356   5.791   3.157
 7618SOL     OW23752   0.892   2.530   6.761
 7618SOL    HW123753   0.836   2.463   6.711
 7618SOL    HW223754   0.844   2.617   6.767
 7619SOL     OW23755   6.905   2.337   4.865
 7619SOL    HW123756   6.819   2.349   4.815
 7619SOL    HW223757   6.893   2.366   4.960
 7620SOL     OW23758   4.247   5.231   0.722
 7620SOL    HW123759   4.281   5.138   0.715
 7620SOL    HW223760   4.152   5.235   0.691
 7621SOL     OW23761   0.763   0.266   1.147
 7621SOL    HW123762   0.683   0.293   1.094
 7621SOL    HW223763   0.762   0.167   1.161
 7622SOL     OW23764   4.251   4.679   6.533
 7622SOL    HW123765   4.207   4.603   6.582
 7622SOL    HW223766   4.264   4.756   6.595
 7623SOL     OW23767   4.205   4.337   0.872
 7623SOL    HW123768   4.298   4.311   0.897
 7623SOL    HW223769   4.149   4.342   0.955
 7624SOL     OW23770   6.696   3.038   3.682
 7624SOL    HW123771   6.640   3.120   3.677
 7624SOL    HW223772   6.640   2.957   3.665
 7625SOL     OW23773   6.153   1.964   7.001
 7625SOL    HW123774   6.170   2.039   0.049
 7625SOL    HW223775   6.228   1.897   7.008
 7626SOL     OW23776   6.513   1.087   6.016
 7626SOL    HW123777   6.483   1.133   5.933
 7626SOL    HW223778   6.600   1.040   5.999
 7627SOL     OW23779   2.607   1.814   0.305
 7627SOL    HW123780   2.600   1.728   0.356
 7627SOL    HW223781   2.573   1.889   0.362
 7628SOL     OW23782   3.913   2.725   1.480
 7628SOL    HW123783   3.915   2.671   1.564
 7628SOL    HW223784   3.916   2.664   1.401
 7629SOL     OW23785   6.818   4.230   3.701
 7629SOL    HW123786   6.902   4.217   3.752
 7629SOL    HW223787   6.778   4.141   3.678
 7630SOL     OW23788   0.895   0.636   6.501
 7630SOL    HW123789   0.979   0.687   6.486
 7630SOL    HW223790   0.857   0.607   6.413
 7631SOL     OW23791   1.387   1.062   5.482
 7631SOL    HW123792   1.306   1.028   5.433
 7631SOL    HW223793   1.469   1.036   5.431
 7632SOL     OW23794   4.042   5.075   1.195
 7632SOL    HW123795   4.111   5.075   1.122
 7632SOL    HW223796   4.034   4.983   1.233
 7633SOL     OW23797   5.235   0.786   1.989
 7633SOL    HW123798   5.263   0.716   1.923
 7633SOL    HW223799   5.178   0.745   2.059
 7634SOL     OW23800   1.233   1.368   1.753
 7634SOL    HW123801   1.317   1.412   1.721
 7634SOL    HW223802   1.188   1.428   1.819
 7635SOL     OW23803   2.917   5.334   4.182
 7635SOL    HW123804   2.948   5.342   4.277
 7635SOL    HW223805   2.989   5.368   4.121
 7636SOL     OW23806   1.394   3.937   4.113
 7636SOL    HW123807   1.479   3.886   4.120
 7636SOL    HW223808   1.389   3.984   4.025
 7637SOL     OW23809   1.256   6.461   2.500
 7637SOL    HW123810   1.343   6.501   2.470
 7637SOL    HW223811   1.211   6.524   2.564
 7638SOL     OW23812   1.372   5.618   2.084
 7638SOL    HW123813   1.302   5.553   2.113
 7638SOL    HW223814   1.364   5.634   1.986
 7639SOL     OW23815   0.389   1.294   0.410
 7639SOL    HW123816   0.297   1.265   0.384
 7639SOL    HW223817   0.456   1.245   0.353
 7640SOL     OW23818   3.068   2.399   6.869
 7640SOL    HW123819   3.083   2.334   6.944
 7640SOL    HW223820   2.975   2.389   6.834
 7641SOL     OW23821   0.073   4.090   2.672
 7641SOL    HW123822   0.102   3.994   2.663
 7641SOL    HW223823   0.134   4.137   2.736
 7642SOL     OW23824   5.881   0.903   2.470
 7642SOL    HW123825   5.964   0.960   2.476
 7642SOL    HW223826   5.908   0.807   2.461
 7643SOL     OW23827   5.260   1.475   2.284
 7643SOL    HW123828   5.220   1.538   2.350
 7643SOL    HW223829   5.311   1.528   2.215
 7644SOL     OW23830   4.688   2.727   2.095
 7644SOL    HW123831   4.602   2.676   2.092
 7644SOL    HW223832   4.675   2.817   2.056
 7645SOL     OW23833   4.020   3.108   5.786
 7645SOL    HW123834   4.082   3.088   5.710
 7645SOL    HW223835   4.063   3.174   5.847
 7646SOL     OW23836   0.479   2.688   3.584
 7646SOL    HW123837   0.466   2.686   3.484
 7646SOL    HW223838   0.560   2.634   3.608
 7647SOL     OW23839   0.607   3.172   4.173
 7647SOL    HW123840   0.680   3.235   4.147
 7647SOL    HW223841   0.646   3.095   4.225
 7648SOL     OW23842   2.290   1.148   2.179
 7648SOL    HW123843   2.327   1.227   2.129
 7648SOL    HW223844   2.312   1.158   2.276
 7649SOL     OW23845   1.288   1.284   4.306
 7649SOL    HW123846   1.266   1.221   4.231
 7649SOL    HW223847   1.383   1.268   4.335
 7650SOL     OW23848   5.462   0.564   1.467
 7650SOL    HW123849   5.396   0.493   1.490
 7650SOL    HW223850   5.479   0.562   1.368
 7651SOL     OW23851   2.788   5.782   4.462
 7651SOL    HW123852   2.697   5.822   4.477
 7651SOL    HW223853   2.777   5.685   4.437
 7652SOL     OW23854   5.378   2.772   5.471
 7652SOL    HW123855   5.338   2.842   5.412
 7652SOL    HW223856   5.356   2.681   5.435
 7653SOL     OW23857   1.400   1.275   0.218
 7653SOL    HW123858   1.471   1.265   0.287
 7653SOL    HW223859   1.400   1.196   0.157
 7654SOL     OW23860   5.452   3.409   4.998
 7654SOL    HW123861   5.425   3.448   5.086
 7654SOL    HW223862   5.457   3.310   5.005
 7655SOL     OW23863   3.862   0.586   3.701
 7655SOL    HW123864   3.820   0.665   3.656
 7655SOL    HW223865   3.853   0.505   3.642
 7656SOL     OW23866   5.625   2.959   6.311
 7656SOL    HW123867   5.625   2.863   6.337
 7656SOL    HW223868   5.556   2.975   6.241
 7657SOL     OW23869   1.884   2.833   3.932
 7657SOL    HW123870   1.891   2.933   3.937
 7657SOL    HW223871   1.944   2.799   3.860
 7658SOL     OW23872   3.085   0.277   0.756
 7658SOL    HW123873   3.139   0.233   0.685
 7658SOL    HW223874   3.059   0.369   0.726
 7659SOL     OW23875   4.726   4.091   0.068
 7659SOL    HW123876   4.762   4.163   0.127
 7659SOL    HW223877   4.723   4.123   6.988
 7660SOL     OW23878   6.112   5.244   4.568
 7660SOL    HW123879   6.150   5.336   4.579
 7660SOL    HW223880   6.082   5.209   4.656
 7661SOL     OW23881   5.168   2.099   5.855
 7661SOL    HW123882   5.138   2.092   5.759
 7661SOL    HW223883   5.119   2.174   5.899
 7662SOL     OW23884   0.822   2.400   3.173
 7662SOL    HW123885   0.884   2.476   3.189
 7662SOL    HW223886   0.866   2.332   3.114
 7663SOL     OW23887   4.988   5.409   6.627
 7663SOL    HW123888   5.036   5.422   6.540
 7663SOL    HW223889   4.991   5.313   6.653
 7664SOL     OW23890   3.827   1.428   3.124
 7664SOL    HW123891   3.736   1.446   3.085
 7664SOL    HW223892   3.867   1.348   3.080
 7665SOL     OW23893   5.548   1.765   4.417
 7665SOL    HW123894   5.586   1.840   4.362
 7665SOL    HW223895   5.537   1.795   4.511
 7666SOL     OW23896   6.975   5.299   4.362
 7666SOL    HW123897   0.018   5.348   4.297
 7666SOL    HW223898   0.009   5.287   4.448
 7667SOL     OW23899   4.142   0.557   2.713
 7667SOL    HW123900   4.225   0.530   2.762
 7667SOL    HW223901   4.079   0.602   2.776
 7668SOL     OW23902   2.717   5.068   0.576
 7668SOL    HW123903   2.756   5.040   0.664
 7668SOL    HW223904   2.783   5.126   0.528
 7669SOL     OW23905   4.301   0.742   5.369
 7669SOL    HW123906   4.388   0.753   5.321
 7669SOL    HW223907   4.292   0.813   5.440
 7670SOL     OW23908   0.767   6.066   0.936
 7670SOL    HW123909   0.705   6.080   1.013
 7670SOL    HW223910   0.768   5.969   0.911
 7671SOL     OW23911   4.835   6.790   2.689
 7671SOL    HW123912   4.859   6.861   2.755
 7671SOL    HW223913   4.736   6.791   2.674
 7672SOL     OW23914   6.511   4.799   3.449
 7672SOL    HW123915   6.433   4.858   3.471
 7672SOL    HW223916   6.560   4.837   3.370
 7673SOL     OW23917   1.710   5.765   2.528
 7673SOL    HW123918   1.802   5.764   2.568
 7673SOL    HW223919   1.706   5.697   2.454
 7674SOL     OW23920   4.186   0.376   4.106
 7674SOL    HW123921   4.223   0.465   4.083
 7674SOL    HW223922   4.176   0.368   4.206
 7675SOL     OW23923   4.404   6.611   3.408
 7675SOL    HW123924   4.412   6.655   3.498
 7675SOL    HW223925   4.416   6.512   3.418
 7676SOL     OW23926   3.090   1.892   6.053
 7676SOL    HW123927   3.076   1.923   6.147
 7676SOL    HW223928   3.003   1.896   6.004
 7677SOL     OW23929   0.710   4.573   0.540
 7677SOL    HW123930   0.790   4.527   0.500
 7677SOL    HW223931   0.649   4.504   0.581
 7678SOL     OW23932   1.298   2.764   4.873
 7678SOL    HW123933   1.259   2.697   4.810
 7678SOL    HW223934   1.398   2.766   4.862
 7679SOL     OW23935   2.169   5.385   5.369
 7679SOL    HW123936   2.202   5.480   5.370
 7679SOL    HW223937   2.123   5.367   5.282
 7680SOL     OW23938   1.204   0.272   6.133
 7680SOL    HW123939   1.227   0.182   6.169
 7680SOL    HW223940   1.106   0.275   6.113
 7681SOL     OW23941   2.560   1.586   6.886
 7681SOL    HW123942   2.487   1.615   6.948
 7681SOL    HW223943   2.582   1.490   6.903
 7682SOL     OW23944   4.105   1.545   2.112
 7682SOL    HW123945   4.163   1.616   2.071
 7682SOL    HW223946   4.147   1.456   2.097
 7683SOL     OW23947   0.818   1.434   4.870
 7683SOL    HW123948   0.777   1.475   4.952
 7683SOL    HW223949   0.805   1.496   4.793
 7684SOL     OW23950   4.004   2.326   1.673
 7684SOL    HW123951   3.975   2.254   1.736
 7684SOL    HW223952   3.952   2.410   1.692
 7685SOL     OW23953   3.518   1.425   6.911
 7685SOL    HW123954   3.447   1.360   6.936
 7685SOL    HW223955   3.563   1.394   6.827
 7686SOL     OW23956   5.317   6.512   4.398
 7686SOL    HW123957   5.313   6.418   4.364
 7686SOL    HW223958   5.263   6.571   4.339
 7687SOL     OW23959   5.089   4.896   5.197
 7687SOL    HW123960   5.069   4.817   5.138
 7687SOL    HW223961   5.003   4.933   5.232
 7688SOL     OW23962   0.218   6.271   5.902
 7688SOL    HW123963   0.213   6.311   5.993
 7688SOL    HW223964   0.226   6.172   5.909
 7689SOL     OW23965   4.913   0.148   2.606
 7689SOL    HW123966   4.994   0.179   2.655
 7689SOL    HW223967   4.932   0.060   2.562
 7690SOL     OW23968   5.523   5.185   0.534
 7690SOL    HW123969   5.514   5.096   0.578
 7690SOL    HW223970   5.440   5.205   0.481
 7691SOL     OW23971   4.454   4.635   1.724
 7691SOL    HW123972   4.377   4.572   1.710
 7691SOL    HW223973   4.514   4.599   1.796
 7692SOL     OW23974   0.610   6.190   1.591
 7692SOL    HW123975   0.600   6.175   1.689
 7692SOL    HW223976   0.587   6.284   1.568
 7693SOL     OW23977   3.478   0.375   1.628
 7693SOL    HW123978   3.436   0.451   1.579
 7693SOL    HW223979   3.501   0.302   1.564
 7694SOL     OW23980   5.940   2.642   4.198
 7694SOL    HW123981   5.853   2.657   4.152
 7694SOL    HW223982   5.938   2.684   4.289
 7695SOL     OW23983   5.767   0.606   1.653
 7695SOL    HW123984   5.849   0.548   1.658
 7695SOL    HW223985   5.784   0.680   1.588
 7696SOL     OW23986   0.331   1.062   6.120
 7696SOL    HW123987   0.406   1.020   6.070
 7696SOL    HW223988   0.338   1.039   6.217
 7697SOL     OW23989   3.262   0.576   2.708
 7697SOL    HW123990   3.245   0.509   2.635
 7697SOL    HW223991   3.211   0.660   2.688
 7698SOL     OW23992   6.533   1.824   5.070
 7698SOL    HW123993   6.573   1.798   4.983
 7698SOL    HW223994   6.562   1.759   5.141
 7699SOL     OW23995   2.599   5.132   6.878
 7699SOL    HW123996   2.529   5.064   6.860
 7699SOL    HW223997   2.618   5.183   6.794
 7700SOL     OW23998   4.277   6.054   3.347
 7700SOL    HW123999   4.257   6.071   3.444
 7700SOL    HW224000   4.195   6.022   3.301
 7701SOL     OW24001   0.120   2.091   6.258
 7701SOL    HW124002   0.062   2.167   6.230
 7701SOL    HW224003   0.206   2.126   6.296
 7702SOL     OW24004   4.300   6.070   5.230
 7702SOL    HW124005   4.256   6.158   5.212
 7702SOL    HW224006   4.367   6.080   5.302
 7703SOL     OW24007   6.393   6.862   5.385
 7703SOL    HW124008   6.377   6.794   5.313
 7703SOL    HW224009   6.334   6.843   5.463
 7704SOL     OW24010   6.634   1.972   4.326
 7704SOL    HW124011   6.542   1.947   4.359
 7704SOL    HW224012   6.642   2.071   4.322
 7705SOL     OW24013   2.456   5.117   0.667
 7705SOL    HW124014   2.540   5.069   0.640
 7705SOL    HW224015   2.438   5.192   0.604
 7706SOL     OW24016   3.342   2.943   3.266
 7706SOL    HW124017   3.436   2.963   3.237
 7706SOL    HW224018   3.341   2.858   3.319
 7707SOL     OW24019   0.318   4.987   6.343
 7707SOL    HW124020   0.297   5.046   6.421
 7707SOL    HW224021   0.253   5.005   6.269
 7708SOL     OW24022   1.356   6.945   4.142
 7708SOL    HW124023   1.435   6.886   4.124
 7708SOL    HW224024   1.379   0.024   4.115
 7709SOL     OW24025   6.698   5.196   1.531
 7709SOL    HW124026   6.682   5.292   1.506
 7709SOL    HW224027   6.772   5.192   1.598
 7710SOL     OW24028   2.052   2.337   0.987
 7710SOL    HW124029   2.019   2.399   1.059
 7710SOL    HW224030   1.974   2.305   0.933
 7711SOL     OW24031   6.243   5.687   5.618
 7711SOL    HW124032   6.189   5.754   5.671
 7711SOL    HW224033   6.197   5.598   5.622
 7712SOL     OW24034   6.121   4.512   0.158
 7712SOL    HW124035   6.216   4.533   0.136
 7712SOL    HW224036   6.061   4.573   0.105
 7713SOL     OW24037   1.986   4.033   1.062
 7713SOL    HW124038   1.970   3.940   1.028
 7713SOL    HW224039   2.084   4.048   1.071
 7714SOL     OW24040   0.319   6.605   5.415
 7714SOL    HW124041   0.395   6.626   5.476
 7714SOL    HW224042   0.321   6.508   5.392
 7715SOL     OW24043   2.481   1.822   6.408
 7715SOL    HW124044   2.499   1.765   6.328
 7715SOL    HW224045   2.541   1.902   6.407
 7716SOL     OW24046   6.800   5.156   0.004
 7716SOL    HW124047   6.851   5.111   6.945
 7716SOL    HW224048   6.747   5.088   0.054
 7717SOL     OW24049   1.433   1.670   4.841
 7717SOL    HW124050   1.440   1.749   4.902
 7717SOL    HW224051   1.515   1.665   4.784
 7718SOL     OW24052   6.752   4.454   2.999
 7718SOL    HW124053   6.694   4.519   3.046
 7718SOL    HW224054   6.761   4.371   3.053
 7719SOL     OW24055   1.042   4.462   4.969
 7719SOL    HW124056   0.959   4.416   4.938
 7719SOL    HW224057   1.020   4.556   4.995
 7720SOL     OW24058   6.227   1.839   5.751
 7720SOL    HW124059   6.138   1.808   5.717
 7720SOL    HW224060   6.263   1.909   5.689
 7721SOL     OW24061   0.499   0.585   2.264
 7721SOL    HW124062   0.564   0.591   2.188
 7721SOL    HW224063   0.543   0.617   2.348
 7722SOL     OW24064   2.101   5.551   4.126
 7722SOL    HW124065   2.066   5.497   4.049
 7722SOL    HW224066   2.173   5.613   4.094
 7723SOL     OW24067   4.783   3.596   6.740
 7723SOL    HW124068   4.789   3.514   6.796
 7723SOL    HW224069   4.689   3.608   6.708
 7724SOL     OW24070   3.185   4.212   0.541
 7724SOL    HW124071   3.186   4.209   0.641
 7724SOL    HW224072   3.111   4.272   0.511
 7725SOL     OW24073   5.905   2.372   2.600
 7725SOL    HW124074   5.867   2.345   2.689
 7725SOL    HW224075   5.948   2.292   2.557
 7726SOL     OW24076   0.894   2.802   5.875
 7726SOL    HW124077   0.952   2.805   5.956
 7726SOL    HW224078   0.890   2.708   5.840
 7727SOL     OW24079   6.260   2.826   1.321
 7727SOL    HW124080   6.190   2.886   1.360
 7727SOL    HW224081   6.266   2.842   1.223
 7728SOL     OW24082   2.123   2.955   5.176
 7728SOL    HW124083   2.088   2.865   5.152
 7728SOL    HW224084   2.215   2.966   5.139
 7729SOL     OW24085   5.719   1.690   1.877
 7729SOL    HW124086   5.728   1.721   1.971
 7729SOL    HW224087   5.766   1.602   1.867
 7730SOL     OW24088   6.120   4.456   4.961
 7730SOL    HW124089   6.125   4.500   5.051
 7730SOL    HW224090   6.213   4.439   4.927
 7731SOL     OW24091   6.245   7.009   0.704
 7731SOL    HW124092   6.252   0.090   0.729
 7731SOL    HW224093   6.227   6.953   0.785
 7732SOL     OW24094   4.191   0.383   0.068
 7732SOL    HW124095   4.192   0.406   0.165
 7732SOL    HW224096   4.176   0.285   0.057
 7733SOL     OW24097   6.421   5.451   2.648
 7733SOL    HW124098   6.433   5.425   2.744
 7733SOL    HW224099   6.323   5.468   2.631
 7734SOL     OW24100   2.628   4.905   4.327
 7734SOL    HW124101   2.712   4.956   4.345
 7734SOL    HW224102   2.618   4.833   4.395
 7735SOL     OW24103   6.279   5.620   0.220
 7735SOL    HW124104   6.261   5.566   0.302
 7735SOL    HW224105   6.202   5.613   0.157
 7736SOL     OW24106   2.321   3.052   0.356
 7736SOL    HW124107   2.228   3.017   0.364
 7736SOL    HW224108   2.365   3.051   0.446
 7737SOL     OW24109   3.143   5.500   1.853
 7737SOL    HW124110   3.155   5.404   1.826
 7737SOL    HW224111   3.135   5.557   1.771
 7738SOL     OW24112   2.521   5.966   6.857
 7738SOL    HW124113   2.498   5.982   6.761
 7738SOL    HW224114   2.568   6.047   6.894
 7739SOL     OW24115   1.019   1.777   1.432
 7739SOL    HW124116   1.113   1.805   1.416
 7739SOL    HW224117   1.018   1.683   1.467
 7740SOL     OW24118   1.762   1.218   2.683
 7740SOL    HW124119   1.799   1.152   2.618
 7740SOL    HW224120   1.799   1.309   2.664
 7741SOL     OW24121   1.101   3.964   4.800
 7741SOL    HW124122   1.145   4.054   4.794
 7741SOL    HW224123   1.165   3.894   4.772
 7742SOL     OW24124   3.688   1.589   4.163
 7742SOL    HW124125   3.706   1.630   4.074
 7742SOL    HW224126   3.734   1.642   4.235
 7743SOL     OW24127   4.757   0.827   6.855
 7743SOL    HW124128   4.715   0.780   6.933
 7743SOL    HW224129   4.773   0.763   6.781
 7744SOL     OW24130   0.579   5.923   3.523
 7744SOL    HW124131   0.589   5.998   3.458
 7744SOL    HW224132   0.483   5.897   3.530
 7745SOL     OW24133   2.481   6.589   0.235
 7745SOL    HW124134   2.446   6.679   0.210
 7745SOL    HW224135   2.434   6.557   0.317
 7746SOL     OW24136   1.302   6.906   0.777
 7746SOL    HW124137   1.362   6.847   0.723
 7746SOL    HW224138   1.224   6.853   0.811
 7747SOL     OW24139   0.587   6.104   1.159
 7747SOL    HW124140   0.517   6.039   1.128
 7747SOL    HW224141   0.547   6.167   1.225
 7748SOL     OW24142   3.192   3.491   4.978
 7748SOL    HW124143   3.159   3.440   5.057
 7748SOL    HW224144   3.117   3.545   4.939
 7749SOL     OW24145   3.214   3.678   3.628
 7749SOL    HW124146   3.120   3.673   3.594
 7749SOL    HW224147   3.262   3.593   3.606
 7750SOL     OW24148   5.741   5.477   5.889
 7750SOL    HW124149   5.792   5.394   5.866
 7750SOL    HW224150   5.782   5.521   5.968
 7751SOL     OW24151   0.949   2.193   2.992
 7751SOL    HW124152   0.935   2.095   3.007
 7751SOL    HW224153   0.866   2.232   2.950
 7752SOL     OW24154   5.550   5.606   5.771
 7752SOL    HW124155   5.632   5.557   5.801
 7752SOL    HW224156   5.547   5.608   5.671
 7753SOL     OW24157   2.453   1.099   4.085
 7753SOL    HW124158   2.436   1.181   4.140
 7753SOL    HW224159   2.512   1.036   4.137
 7754SOL     OW24160   5.252   0.211   1.962
 7754SOL    HW124161   5.323   0.179   2.024
 7754SOL    HW224162   5.278   0.190   1.868
 7755SOL     OW24163   1.007   0.603   5.764
 7755SOL    HW124164   1.094   0.556   5.775
 7755SOL    HW224165   0.979   0.601   5.668
 7756SOL     OW24166   2.888   5.877   2.491
 7756SOL    HW124167   2.972   5.931   2.483
 7756SOL    HW224168   2.818   5.916   2.432
 7757SOL     OW24169   5.161   6.386   4.684
 7757SOL    HW124170   5.260   6.379   4.693
 7757SOL    HW224171   5.132   6.342   4.599
 7758SOL     OW24172   1.581   2.212   6.668
 7758SOL    HW124173   1.651   2.146   6.643
 7758SOL    HW224174   1.603   2.301   6.627
 7759SOL     OW24175   1.693   1.341   5.017
 7759SOL    HW124176   1.764   1.289   5.065
 7759SOL    HW224177   1.679   1.302   4.926
 7760SOL     OW24178   5.642   3.558   2.318
 7760SOL    HW124179   5.627   3.496   2.241
 7760SOL    HW224180   5.725   3.611   2.302
 7761SOL     OW24181   2.891   0.185   6.708
 7761SOL    HW124182   2.862   0.096   6.743
 7761SOL    HW224183   2.990   0.195   6.720
 7762SOL     OW24184   3.916   0.891   5.405
 7762SOL    HW124185   3.975   0.971   5.412
 7762SOL    HW224186   3.954   0.827   5.338
 7763SOL     OW24187   1.387   1.553   1.244
 7763SOL    HW124188   1.468   1.497   1.258
 7763SOL    HW224189   1.391   1.597   1.155
 7764SOL     OW24190   3.855   2.944   2.596
 7764SOL    HW124191   3.900   3.023   2.555
 7764SOL    HW224192   3.809   2.891   2.525
 7765SOL     OW24193   6.010   3.062   3.738
 7765SOL    HW124194   6.027   2.970   3.773
 7765SOL    HW224195   6.075   3.126   3.780
 7766SOL     OW24196   5.007   1.459   6.755
 7766SOL    HW124197   5.083   1.450   6.818
 7766SOL    HW224198   4.939   1.387   6.774
 7767SOL     OW24199   3.736   6.551   4.100
 7767SOL    HW124200   3.657   6.557   4.038
 7767SOL    HW224201   3.705   6.560   4.194
 7768SOL     OW24202   4.420   5.178   2.567
 7768SOL    HW124203   4.350   5.141   2.629
 7768SOL    HW224204   4.451   5.107   2.505
 7769SOL     OW24205   5.267   1.393   1.531
 7769SOL    HW124206   5.346   1.331   1.530
 7769SOL    HW224207   5.296   1.484   1.500
 7770SOL     OW24208   1.725   4.223   1.556
 7770SOL    HW124209   1.807   4.175   1.588
 7770SOL    HW224210   1.648   4.159   1.553
 7771SOL     OW24211   2.729   2.589   5.249
 7771SOL    HW124212   2.784   2.642   5.314
 7771SOL    HW224213   2.641   2.634   5.235
 7772SOL     OW24214   5.212   1.102   3.746
 7772SOL    HW124215   5.145   1.171   3.775
 7772SOL    HW224216   5.238   1.119   3.651
 7773SOL     OW24217   2.739   4.870   5.330
 7773SOL    HW124218   2.660   4.857   5.270
 7773SOL    HW224219   2.768   4.782   5.367
 7774SOL     OW24220   5.779   2.285   6.266
 7774SOL    HW124221   5.794   2.211   6.332
 7774SOL    HW224222   5.847   2.279   6.193
 7775SOL     OW24223   3.487   6.850   2.957
 7775SOL    HW124224   3.497   6.901   3.043
 7775SOL    HW224225   3.493   6.914   2.880
 7776SOL     OW24226   2.827   3.004   6.559
 7776SOL    HW124227   2.815   3.018   6.460
 7776SOL    HW224228   2.920   2.971   6.577
 7777SOL     OW24229   2.643   1.403   5.388
 7777SOL    HW124230   2.741   1.413   5.370
 7777SOL    HW224231   2.594   1.394   5.301
 7778SOL     OW24232   5.006   6.445   0.018
 7778SOL    HW124233   5.007   6.394   0.104
 7778SOL    HW224234   5.041   6.537   0.034
 7779SOL     OW24235   3.807   2.993   0.355
 7779SOL    HW124236   3.719   3.005   0.399
 7779SOL    HW224237   3.876   2.966   0.423
 7780SOL     OW24238   1.662   5.347   4.920
 7780SOL    HW124239   1.742   5.406   4.915
 7780SOL    HW224240   1.624   5.334   4.829
 7781SOL     OW24241   1.722   4.315   6.404
 7781SOL    HW124242   1.750   4.220   6.393
 7781SOL    HW224243   1.729   4.362   6.316
 7782SOL     OW24244   1.623   3.378   5.477
 7782SOL    HW124245   1.537   3.340   5.509
 7782SOL    HW224246   1.661   3.321   5.405
 7783SOL     OW24247   3.121   6.690   6.069
 7783SOL    HW124248   3.197   6.755   6.079
 7783SOL    HW224249   3.064   6.692   6.150
 7784SOL     OW24250   2.131   2.148   0.284
 7784SOL    HW124251   2.148   2.050   0.271
 7784SOL    HW224252   2.147   2.196   0.198
 7785SOL     OW24253   1.549   6.787   3.998
 7785SOL    HW124254   1.614   6.854   3.963
 7785SOL    HW224255   1.599   6.710   4.039
 7786SOL     OW24256   3.338   5.363   6.267
 7786SOL    HW124257   3.331   5.270   6.303
 7786SOL    HW224258   3.431   5.397   6.281
 7787SOL     OW24259   1.732   3.227   5.270
 7787SOL    HW124260   1.798   3.171   5.321
 7787SOL    HW224261   1.771   3.251   5.181
 7788SOL     OW24262   1.537   0.747   1.601
 7788SOL    HW124263   1.446   0.781   1.580
 7788SOL    HW224264   1.589   0.735   1.517
 7789SOL     OW24265   3.209   0.038   0.310
 7789SOL    HW124266   3.208   0.136   0.293
 7789SOL    HW224267   3.163   7.006   0.235
 7790SOL     OW24268   6.209   4.907   2.185
 7790SOL    HW124269   6.213   4.996   2.230
 7790SOL    HW224270   6.171   4.839   2.248
 7791SOL     OW24271   2.845   6.721   4.052
 7791SOL    HW124272   2.840   6.701   4.150
 7791SOL    HW224273   2.834   6.636   4.001
 7792SOL     OW24274   1.043   5.604   6.140
 7792SOL    HW124275   0.979   5.584   6.213
 7792SOL    HW224276   1.084   5.518   6.108
 7793SOL     OW24277   1.570   0.785   5.638
 7793SOL    HW124278   1.571   0.712   5.707
 7793SOL    HW224279   1.624   0.863   5.672
 7794SOL     OW24280   5.154   5.509   3.886
 7794SOL    HW124281   5.155   5.600   3.843
 7794SOL    HW224282   5.125   5.517   3.981
 7795SOL     OW24283   1.827   3.984   4.801
 7795SOL    HW124284   1.895   4.011   4.870
 7795SOL    HW224285   1.822   4.055   4.730
 7796SOL     OW24286   3.113   3.946   4.044
 7796SOL    HW124287   3.064   3.871   4.089
 7796SOL    HW224288   3.125   3.925   3.947
 7797SOL     OW24289   0.924   5.767   2.641
 7797SOL    HW124290   0.941   5.781   2.544
 7797SOL    HW224291   0.886   5.676   2.656
 7798SOL     OW24292   1.529   5.028   6.467
 7798SOL    HW124293   1.558   5.076   6.549
 7798SOL    HW224294   1.501   4.935   6.491
 7799SOL     OW24295   7.004   6.523   2.016
 7799SOL    HW124296   0.013   6.535   2.112
 7799SOL    HW224297   6.988   6.613   1.974
 7800SOL     OW24298   1.236   4.899   1.109
 7800SOL    HW124299   1.170   4.968   1.138
 7800SOL    HW224300   1.216   4.813   1.155
 7801SOL     OW24301   2.334   1.717   1.752
 7801SOL    HW124302   2.306   1.788   1.688
 7801SOL    HW224303   2.302   1.628   1.720
 7802SOL     OW24304   5.262   2.426   1.414
 7802SOL    HW124305   5.207   2.462   1.339
 7802SOL    HW224306   5.331   2.363   1.378
 7803SOL     OW24307   4.197   3.319   5.867
 7803SOL    HW124308   4.249   3.296   5.785
 7803SOL    HW224309   4.196   3.418   5.880
 7804SOL     OW24310   6.064   1.283   3.736
 7804SOL    HW124311   5.979   1.247   3.773
 7804SOL    HW224312   6.091   1.364   3.788
 7805SOL     OW24313   5.273   1.106   1.647
 7805SOL    HW124314   5.364   1.122   1.610
 7805SOL    HW224315   5.223   1.043   1.588
 7806SOL     OW24316   5.937   2.703   6.236
 7806SOL    HW124317   6.000   2.635   6.199
 7806SOL    HW224318   5.912   2.768   6.164
 7807SOL     OW24319   0.531   5.158   6.217
 7807SOL    HW124320   0.523   5.067   6.178
 7807SOL    HW224321   0.510   5.155   6.315
 7808SOL     OW24322   0.289   3.222   4.349
 7808SOL    HW124323   0.343   3.283   4.291
 7808SOL    HW224324   0.304   3.127   4.321
 7809SOL     OW24325   2.694   6.058   4.727
 7809SOL    HW124326   2.776   6.106   4.696
 7809SOL    HW224327   2.720   5.984   4.790
 7810SOL     OW24328   3.678   6.915   5.298
 7810SOL    HW124329   3.585   6.939   5.324
 7810SOL    HW224330   3.684   6.906   5.198
 7811SOL     OW24331   6.997   4.428   4.252
 7811SOL    HW124332   0.028   4.344   4.225
 7811SOL    HW224333   0.024   4.506   4.206
 7812SOL     OW24334   1.037   2.057   4.007
 7812SOL    HW124335   1.125   2.011   4.022
 7812SOL    HW224336   0.976   1.997   3.956
 7813SOL     OW24337   4.203   2.149   6.254
 7813SOL    HW124338   4.190   2.092   6.335
 7813SOL    HW224339   4.222   2.243   6.282
 7814SOL     OW24340   6.586   3.293   3.645
 7814SOL    HW124341   6.678   3.329   3.661
 7814SOL    HW224342   6.523   3.369   3.625
 7815SOL     OW24343   5.210   0.760   6.984
 7815SOL    HW124344   5.163   0.710   6.911
 7815SOL    HW224345   5.144   0.785   0.040
 7816SOL     OW24346   1.463   2.443   6.266
 7816SOL    HW124347   1.466   2.345   6.283
 7816SOL    HW224348   1.454   2.460   6.168
 7817SOL     OW24349   6.255   3.769   3.915
 7817SOL    HW124350   6.311   3.691   3.944
 7817SOL    HW224351   6.179   3.782   3.979
 7818SOL     OW24352   4.238   0.927   2.803
 7818SOL    HW124353   4.278   0.895   2.718
 7818SOL    HW224354   4.292   1.004   2.838
 7819SOL     OW24355   6.494   3.269   1.935
 7819SOL    HW124356   6.462   3.363   1.930
 7819SOL    HW224357   6.423   3.209   1.896
 7820SOL     OW24358   1.563   2.392   4.454
 7820SOL    HW124359   1.626   2.366   4.381
 7820SOL    HW224360   1.601   2.363   4.542
 7821SOL     OW24361   4.971   6.047   0.949
 7821SOL    HW124362   5.069   6.029   0.939
 7821SOL    HW224363   4.957   6.115   1.021
 7822SOL     OW24364   0.073   0.569   5.271
 7822SOL    HW124365   0.009   0.572   5.194
 7822SOL    HW224366   0.167   0.571   5.235
 7823SOL     OW24367   2.161   3.762   5.045
 7823SOL    HW124368   2.098   3.757   5.122
 7823SOL    HW224369   2.237   3.824   5.068
 7824SOL     OW24370   6.052   2.049   5.434
 7824SOL    HW124371   6.143   2.053   5.475
 7824SOL    HW224372   5.983   2.034   5.505
 7825SOL     OW24373   1.688   2.932   0.261
 7825SOL    HW124374   1.688   2.835   0.286
 7825SOL    HW224375   1.692   2.988   0.344
 7826SOL     OW24376   6.131   1.403   1.118
 7826SOL    HW124377   6.098   1.467   1.188
 7826SOL    HW224378   6.169   1.455   1.041
 7827SOL     OW24379   1.815   6.085   1.001
 7827SOL    HW124380   1.888   6.032   0.959
 7827SOL    HW224381   1.844   6.117   1.091
 7828SOL     OW24382   6.308   4.765   0.352
 7828SOL    HW124383   6.304   4.666   0.365
 7828SOL    HW224384   6.402   4.797   0.362
 7829SOL     OW24385   2.791   3.344   0.997
 7829SOL    HW124386   2.840   3.383   1.074
 7829SOL    HW224387   2.696   3.328   1.022
 7830SOL     OW24388   3.143   4.926   5.496
 7830SOL    HW124389   3.185   4.872   5.423
 7830SOL    HW224390   3.065   4.977   5.459
 7831SOL     OW24391   1.967   0.405   2.071
 7831SOL    HW124392   2.047   0.446   2.115
 7831SOL    HW224393   1.952   0.313   2.108
 7832SOL     OW24394   6.382   0.433   4.827
 7832SOL    HW124395   6.335   0.387   4.752
 7832SOL    HW224396   6.320   0.441   4.906
 7833SOL     OW24397   1.000   1.044   4.937
 7833SOL    HW124398   0.972   0.949   4.922
 7833SOL    HW224399   0.954   1.103   4.870
 7834SOL     OW24400   6.919   1.830   3.344
 7834SOL    HW124401   6.892   1.773   3.421
 7834SOL    HW224402   6.928   1.925   3.374
 7835SOL     OW24403   4.373   1.744   5.214
 7835SOL    HW124404   4.284   1.717   5.177
 7835SOL    HW224405   4.364   1.830   5.264
 7836SOL     OW24406   3.314   4.285   5.251
 7836SOL    HW124407   3.288   4.367   5.302
 7836SOL    HW224408   3.239   4.218   5.256
 7837SOL     OW24409   5.176   5.767   0.017
 7837SOL    HW124410   5.078   5.781   0.030
 7837SOL    HW224411   5.219   5.853   7.003
 7838SOL     OW24412   4.281   6.507   1.187
 7838SOL    HW124413   4.376   6.526   1.162
 7838SOL    HW224414   4.248   6.428   1.134
 7839SOL     OW24415   6.094   3.873   4.970
 7839SOL    HW124416   6.046   3.854   5.056
 7839SOL    HW224417   6.157   3.949   4.983
 7840SOL     OW24418   0.203   3.507   4.470
 7840SOL    HW124419   0.279   3.550   4.422
 7840SOL    HW224420   0.140   3.466   4.404
 7841SOL     OW24421   4.533   1.758   6.810
 7841SOL    HW124422   4.576   1.847   6.795
 7841SOL    HW224423   4.585   1.687   6.763
 7842SOL     OW24424   1.953   1.246   2.421
 7842SOL    HW124425   2.009   1.319   2.460
 7842SOL    HW224426   1.998   1.158   2.438
 7843SOL     OW24427   0.289   6.535   3.604
 7843SOL    HW124428   0.237   6.615   3.576
 7843SOL    HW224429   0.385   6.548   3.581
 7844SOL     OW24430   3.332   0.950   2.229
 7844SOL    HW124431   3.314   0.899   2.313
 7844SOL    HW224432   3.430   0.948   2.210
 7845SOL     OW24433   5.125   1.661   2.421
 7845SOL    HW124434   5.089   1.667   2.514
 7845SOL    HW224435   5.115   1.749   2.375
 7846SOL     OW24436   1.120   2.406   1.305
 7846SOL    HW124437   1.182   2.355   1.245
 7846SOL    HW224438   1.159   2.411   1.397
 7847SOL     OW24439   6.390   1.284   3.701
 7847SOL    HW124440   6.298   1.254   3.675
 7847SOL    HW224441   6.387   1.379   3.731
 7848SOL     OW24442   2.915   4.419   1.084
 7848SOL    HW124443   2.834   4.362   1.077
 7848SOL    HW224444   2.978   4.381   1.151
 7849SOL     OW24445   5.966   4.069   4.735
 7849SOL    HW124446   5.950   3.981   4.691
 7849SOL    HW224447   6.047   4.112   4.695
 7850SOL     OW24448   0.461   1.958   3.788
 7850SOL    HW124449   0.380   1.926   3.739
 7850SOL    HW224450   0.543   1.920   3.746
 7851SOL     OW24451   0.798   2.722   1.611
 7851SOL    HW124452   0.822   2.646   1.552
 7851SOL    HW224453   0.879   2.752   1.662
 7852SOL     OW24454   3.049   0.936   0.434
 7852SOL    HW124455   3.046   0.853   0.379
 7852SOL    HW224456   3.076   1.013   0.377
 7853SOL     OW24457   4.696   2.862   1.329
 7853SOL    HW124458   4.790   2.894   1.331
 7853SOL    HW224459   4.693   2.765   1.354
 7854SOL     OW24460   3.464   2.320   6.076
 7854SOL    HW124461   3.399   2.386   6.111
 7854SOL    HW224462   3.538   2.308   6.142
 7855SOL     OW24463   4.613   6.047   4.913
 7855SOL    HW124464   4.686   6.090   4.860
 7855SOL    HW224465   4.537   6.111   4.922
 7856SOL     OW24466   0.308   5.278   5.192
 7856SOL    HW124467   0.384   5.297   5.129
 7856SOL    HW224468   0.252   5.204   5.155
 7857SOL     OW24469   4.921   3.304   0.932
 7857SOL    HW124470   4.935   3.263   0.842
 7857SOL    HW224471   4.909   3.403   0.921
 7858SOL     OW24472   6.719   6.644   4.868
 7858SOL    HW124473   6.788   6.580   4.903
 7858SOL    HW224474   6.755   6.690   4.787
 7859SOL     OW24475   4.757   3.626   0.045
 7859SOL    HW124476   4.739   3.584   0.134
 7859SOL    HW224477   4.840   3.681   0.050
 7860SOL     OW24478   4.593   0.942   4.702
 7860SOL    HW124479   4.511   0.925   4.647
 7860SOL    HW224480   4.673   0.909   4.652
 7861SOL     OW24481   2.510   5.109   1.542
 7861SOL    HW124482   2.556   5.191   1.576
 7861SOL    HW224483   2.556   5.028   1.577
 7862SOL     OW24484   1.938   5.803   2.655
 7862SOL    HW124485   1.929   5.831   2.750
 7862SOL    HW224486   1.973   5.879   2.600
 7863SOL     OW24487   0.528   4.600   3.452
 7863SOL    HW124488   0.614   4.638   3.419
 7863SOL    HW224489   0.451   4.645   3.407
 7864SOL     OW24490   1.713   5.622   6.225
 7864SOL    HW124491   1.650   5.572   6.286
 7864SOL    HW224492   1.686   5.718   6.222
 7865SOL     OW24493   6.222   5.403   4.316
 7865SOL    HW124494   6.172   5.487   4.296
 7865SOL    HW224495   6.229   5.391   4.415
 7866SOL     OW24496   1.337   0.533   5.478
 7866SOL    HW124497   1.281   0.590   5.538
 7866SOL    HW224498   1.422   0.580   5.455
 7867SOL     OW24499   5.418   6.945   3.551
 7867SOL    HW124500   5.420   6.948   3.451
 7867SOL    HW224501   5.389   6.854   3.581
 7868SOL     OW24502   4.315   5.775   0.417
 7868SOL    HW124503   4.279   5.751   0.327
 7868SOL    HW224504   4.242   5.766   0.485
 7869SOL     OW24505   5.379   4.748   5.753
 7869SOL    HW124506   5.430   4.668   5.721
 7869SOL    HW224507   5.340   4.796   5.674
 7870SOL     OW24508   5.072   6.766   4.921
 7870SOL    HW124509   5.066   6.680   4.973
 7870SOL    HW224510   5.155   6.765   4.865
 7871SOL     OW24511   5.089   2.179   2.105
 7871SOL    HW124512   5.021   2.212   2.039
 7871SOL    HW224513   5.042   2.142   2.185
 7872SOL     OW24514   1.819   4.079   2.149
 7872SOL    HW124515   1.793   4.019   2.073
 7872SOL    HW224516   1.841   4.023   2.229
 7873SOL     OW24517   6.186   0.142   0.450
 7873SOL    HW124518   6.227   0.136   0.359
 7873SOL    HW224519   6.244   0.095   0.516
 7874SOL     OW24520   4.585   2.370   1.435
 7874SOL    HW124521   4.502   2.329   1.397
 7874SOL    HW224522   4.592   2.347   1.532
 7875SOL     OW24523   3.772   2.766   0.215
 7875SOL    HW124524   3.808   2.850   0.256
 7875SOL    HW224525   3.809   2.756   0.123
 7876SOL     OW24526   1.136   6.530   3.426
 7876SOL    HW124527   1.078   6.459   3.466
 7876SOL    HW224528   1.140   6.608   3.488
 7877SOL     OW24529   6.918   1.675   2.967
 7877SOL    HW124530   6.938   1.757   3.021
 7877SOL    HW224531   6.936   1.693   2.871
 7878SOL     OW24532   4.784   4.181   3.502
 7878SOL    HW124533   4.774   4.124   3.420
 7878SOL    HW224534   4.804   4.122   3.581
 7879SOL     OW24535   3.460   5.069   2.643
 7879SOL    HW124536   3.471   5.029   2.552
 7879SOL    HW224537   3.529   5.141   2.656
 7880SOL     OW24538   2.460   3.342   0.840
 7880SOL    HW124539   2.533   3.407   0.816
 7880SOL    HW224540   2.387   3.347   0.773
 7881SOL     OW24541   4.819   4.095   4.182
 7881SOL    HW124542   4.846   4.009   4.225
 7881SOL    HW224543   4.824   4.169   4.250
 7882SOL     OW24544   2.288   3.514   1.608
 7882SOL    HW124545   2.196   3.552   1.596
 7882SOL    HW224546   2.302   3.490   1.704
 7883SOL     OW24547   0.859   0.138   5.828
 7883SOL    HW124548   0.880   0.101   5.918
 7883SOL    HW224549   0.773   0.099   5.795
 7884SOL     OW24550   1.009   3.690   4.198
 7884SOL    HW124551   1.092   3.741   4.222
 7884SOL    HW224552   1.030   3.627   4.123
 7885SOL     OW24553   6.851   5.808   0.719
 7885SOL    HW124554   6.941   5.803   0.763
 7885SOL    HW224555   6.862   5.804   0.619
 7886SOL     OW24556   4.348   5.662   0.002
 7886SOL    HW124557   4.267   5.695   0.050
 7886SOL    HW224558   4.343   5.563   7.007
 7887SOL     OW24559   3.720   1.961   7.002
 7887SOL    HW124560   3.691   1.868   6.980
 7887SOL    HW224561   3.820   1.963   7.013
 7888SOL     OW24562   5.676   0.418   4.122
 7888SOL    HW124563   5.661   0.365   4.039
 7888SOL    HW224564   5.648   0.513   4.107
 7889SOL     OW24565   1.399   4.761   1.551
 7889SOL    HW124566   1.484   4.759   1.603
 7889SOL    HW224567   1.415   4.727   1.458
 7890SOL     OW24568   1.888   3.821   2.820
 7890SOL    HW124569   1.860   3.733   2.781
 7890SOL    HW224570   1.983   3.839   2.797
 7891SOL     OW24571   2.157   4.521   3.199
 7891SOL    HW124572   2.174   4.529   3.297
 7891SOL    HW224573   2.061   4.500   3.183
 7892SOL     OW24574   1.972   2.609   4.277
 7892SOL    HW124575   1.909   2.643   4.207
 7892SOL    HW224576   2.031   2.683   4.308
 7893SOL     OW24577   6.186   6.665   2.392
 7893SOL    HW124578   6.177   6.757   2.430
 7893SOL    HW224579   6.257   6.666   2.321
 7894SOL     OW24580   2.784   6.415   1.697
 7894SOL    HW124581   2.824   6.341   1.643
 7894SOL    HW224582   2.694   6.438   1.661
 7895SOL     OW24583   5.931   1.296   5.905
 7895SOL    HW124584   5.987   1.220   5.871
 7895SOL    HW224585   5.991   1.367   5.940
 7896SOL     OW24586   5.018   4.380   6.575
 7896SOL    HW124587   5.050   4.319   6.647
 7896SOL    HW224588   4.983   4.326   6.498
 7897SOL     OW24589   2.800   3.713   6.277
 7897SOL    HW124590   2.702   3.696   6.270
 7897SOL    HW224591   2.846   3.676   6.195
 7898SOL     OW24592   5.277   2.350   3.752
 7898SOL    HW124593   5.375   2.340   3.734
 7898SOL    HW224594   5.263   2.426   3.815
 7899SOL     OW24595   6.648   1.601   1.791
 7899SOL    HW124596   6.582   1.543   1.743
 7899SOL    HW224597   6.622   1.608   1.888
 7900SOL     OW24598   1.264   5.227   0.871
 7900SOL    HW124599   1.184   5.227   0.931
 7900SOL    HW224600   1.299   5.134   0.860
 7901SOL     OW24601   4.897   0.509   5.760
 7901SOL    HW124602   4.979   0.472   5.717
 7901SOL    HW224603   4.828   0.526   5.690
 7902SOL     OW24604   4.780   5.058   1.385
 7902SOL    HW124605   4.860   5.028   1.438
 7902SOL    HW224606   4.753   5.150   1.414
 7903SOL     OW24607   5.969   2.246   0.592
 7903SOL    HW124608   5.994   2.342   0.600
 7903SOL    HW224609   5.928   2.230   0.502
 7904SOL     OW24610   6.306   0.525   2.565
 7904SOL    HW124611   6.271   0.512   2.658
 7904SOL    HW224612   6.265   0.458   2.504
 7905SOL     OW24613   4.747   1.608   0.191
 7905SOL    HW124614   4.796   1.535   0.239
 7905SOL    HW224615   4.682   1.651   0.254
 7906SOL     OW24616   0.668   5.778   0.085
 7906SOL    HW124617   0.575   5.781   0.121
 7906SOL    HW224618   0.688   5.862   0.035
 7907SOL     OW24619   6.235   2.445   4.581
 7907SOL    HW124620   6.202   2.540   4.579
 7907SOL    HW224621   6.216   2.405   4.670
 7908SOL     OW24622   1.436   1.545   4.053
 7908SOL    HW124623   1.442   1.641   4.024
 7908SOL    HW224624   1.411   1.541   4.150
 7909SOL     OW24625   4.921   3.631   4.839
 7909SOL    HW124626   4.962   3.645   4.929
 7909SOL    HW224627   4.838   3.576   4.848
 7910SOL     OW24628   3.210   3.078   5.549
 7910SOL    HW124629   3.168   3.072   5.459
 7910SOL    HW224630   3.152   3.132   5.610
 7911SOL     OW24631   0.330   4.311   6.546
 7911SOL    HW124632   0.349   4.388   6.607
 7911SOL    HW224633   0.416   4.275   6.509
 7912SOL     OW24634   0.376   5.230   0.340
 7912SOL    HW124635   0.378   5.297   0.267
 7912SOL    HW224636   0.302   5.164   0.324
 7913SOL     OW24637   0.694   5.125   6.825
 7913SOL    HW124638   0.663   5.100   6.916
 7913SOL    HW224639   0.618   5.163   6.773
 7914SOL     OW24640   0.314   5.142   6.956
 7914SOL    HW124641   0.262   5.170   0.022
 7914SOL    HW224642   0.311   5.042   6.949
 7915SOL     OW24643   4.914   2.411   2.297
 7915SOL    HW124644   4.857   2.480   2.342
 7915SOL    HW224645   4.990   2.456   2.250
 7916SOL     OW24646   5.725   3.789   5.161
 7916SOL    HW124647   5.790   3.712   5.161
 7916SOL    HW224648   5.741   3.846   5.241
 7917SOL     OW24649   3.795   3.316   3.737
 7917SOL    HW124650   3.889   3.335   3.711
 7917SOL    HW224651   3.782   3.217   3.742
 7918SOL     OW24652   6.902   1.461   0.963
 7918SOL    HW124653   6.843   1.468   1.044
 7918SOL    HW224654   6.878   1.533   0.898
 7919SOL     OW24655   0.029   4.675   3.535
 7919SOL    HW124656   6.954   4.683   3.494
 7919SOL    HW224657   0.070   4.587   3.510
 7920SOL     OW24658   0.106   5.028   1.522
 7920SOL    HW124659   0.157   5.084   1.456
 7920SOL    HW224660   0.141   4.934   1.519
 7921SOL     OW24661   3.811   6.162   0.211
 7921SOL    HW124662   3.909   6.141   0.218
 7921SOL    HW224663   3.797   6.235   0.144
 7922SOL     OW24664   6.698   5.873   0.175
 7922SOL    HW124665   6.616   5.869   0.118
 7922SOL    HW224666   6.679   5.929   0.256
 7923SOL     OW24667   2.046   0.894   2.912
 7923SOL    HW124668   2.028   0.814   2.855
 7923SOL    HW224669   1.994   0.888   2.996
 7924SOL     OW24670   3.863   6.539   3.077
 7924SOL    HW124671   3.882   6.508   3.171
 7924SOL    HW224672   3.782   6.492   3.043
 7925SOL     OW24673   0.480   1.818   6.473
 7925SOL    HW124674   0.401   1.773   6.432
 7925SOL    HW224675   0.514   1.762   6.549
 7926SOL     OW24676   4.441   1.065   4.319
 7926SOL    HW124677   4.487   1.123   4.385
 7926SOL    HW224678   4.448   1.106   4.228
 7927SOL     OW24679   4.065   5.792   4.914
 7927SOL    HW124680   4.157   5.800   4.955
 7927SOL    HW224681   4.004   5.857   4.959
 7928SOL     OW24682   1.046   4.416   3.720
 7928SOL    HW124683   1.042   4.340   3.656
 7928SOL    HW224684   1.116   4.398   3.789
 7929SOL     OW24685   4.008   3.706   4.778
 7929SOL    HW124686   3.915   3.686   4.748
 7929SOL    HW224687   4.043   3.785   4.728
 7930SOL     OW24688   4.814   5.739   3.523
 7930SOL    HW124689   4.788   5.681   3.445
 7930SOL    HW224690   4.735   5.792   3.552
 7931SOL     OW24691   2.240   2.172   6.617
 7931SOL    HW124692   2.321   2.114   6.627
 7931SOL    HW224693   2.186   2.168   6.702
 7932SOL     OW24694   2.487   6.866   0.256
 7932SOL    HW124695   2.584   6.846   0.245
 7932SOL    HW224696   2.475   6.935   0.327
 7933SOL     OW24697   6.962   6.919   0.574
 7933SOL    HW124698   6.865   6.896   0.573
 7933SOL    HW224699   7.007   6.879   0.494
 7934SOL     OW24700   2.469   3.635   0.098
 7934SOL    HW124701   2.528   3.716   0.095
 7934SOL    HW224702   2.467   3.598   0.191
 7935SOL     OW24703   5.344   5.240   0.342
 7935SOL    HW124704   5.402   5.233   0.261
 7935SOL    HW224705   5.266   5.301   0.323
 7936SOL     OW24706   3.499   5.663   2.504
 7936SOL    HW124707   3.436   5.723   2.456
 7936SOL    HW224708   3.468   5.568   2.495
 7937SOL     OW24709   5.125   6.588   4.181
 7937SOL    HW124710   5.165   6.656   4.121
 7937SOL    HW224711   5.089   6.512   4.127
 7938SOL     OW24712   5.501   4.957   4.733
 7938SOL    HW124713   5.504   4.862   4.702
 7938SOL    HW224714   5.506   4.959   4.833
 7939SOL     OW24715   1.109   1.370   6.094
 7939SOL    HW124716   1.095   1.329   6.183
 7939SOL    HW224717   1.083   1.467   6.097
 7940SOL     OW24718   2.333   5.337   2.043
 7940SOL    HW124719   2.251   5.321   2.098
 7940SOL    HW224720   2.395   5.260   2.052
 7941SOL     OW24721   6.644   6.976   1.525
 7941SOL    HW124722   6.634   6.881   1.495
 7941SOL    HW224723   6.574   0.017   1.480
 7942SOL     OW24724   6.691   6.556   2.700
 7942SOL    HW124725   6.651   6.472   2.736
 7942SOL    HW224726   6.635   6.634   2.728
 7943SOL     OW24727   5.495   2.060   1.072
 7943SOL    HW124728   5.452   2.149   1.090
 7943SOL    HW224729   5.568   2.071   1.004
 7944SOL     OW24730   0.373   3.028   0.730
 7944SOL    HW124731   0.300   3.057   0.791
 7944SOL    HW224732   0.337   2.964   0.662
 7945SOL     OW24733   5.153   6.918   2.902
 7945SOL    HW124734   5.243   6.934   2.941
 7945SOL    HW224735   5.109   6.842   2.950
 7946SOL     OW24736   1.589   3.002   5.619
 7946SOL    HW124737   1.490   2.990   5.620
 7946SOL    HW224738   1.633   2.916   5.647
 7947SOL     OW24739   4.254   2.993   0.009
 7947SOL    HW124740   4.332   3.019   6.967
 7947SOL    HW224741   4.173   2.980   6.967
 7948SOL     OW24742   6.995   6.735   1.373
 7948SOL    HW124743   6.973   6.772   1.462
 7948SOL    HW224744   0.014   6.641   1.383
 7949SOL     OW24745   4.972   4.975   4.005
 7949SOL    HW124746   4.903   4.980   4.077
 7949SOL    HW224747   5.003   5.067   3.983
 7950SOL     OW24748   4.940   5.496   3.370
 7950SOL    HW124749   4.901   5.548   3.445
 7950SOL    HW224750   4.930   5.398   3.388
 7951SOL     OW24751   3.097   3.557   0.982
 7951SOL    HW124752   3.046   3.642   0.969
 7951SOL    HW224753   3.052   3.502   1.052
 7952SOL     OW24754   0.411   2.823   6.664
 7952SOL    HW124755   0.479   2.790   6.599
 7952SOL    HW224756   0.339   2.755   6.674
 7953SOL     OW24757   1.938   2.925   3.077
 7953SOL    HW124758   1.862   2.976   3.037
 7953SOL    HW224759   1.903   2.867   3.151
 7954SOL     OW24760   5.008   5.315   4.943
 7954SOL    HW124761   5.018   5.239   4.879
 7954SOL    HW224762   4.911   5.337   4.955
 7955SOL     OW24763   0.158   6.561   6.599
 7955SOL    HW124764   0.140   6.641   6.541
 7955SOL    HW224765   0.227   6.503   6.555
 7956SOL     OW24766   0.576   5.325   3.281
 7956SOL    HW124767   0.669   5.359   3.294
 7956SOL    HW224768   0.522   5.393   3.232
 7957SOL     OW24769   2.137   1.729   0.895
 7957SOL    HW124770   2.043   1.734   0.928
 7957SOL    HW224771   2.137   1.729   0.795
 7958SOL     OW24772   3.591   5.553   4.032
 7958SOL    HW124773   3.530   5.601   4.096
 7958SOL    HW224774   3.537   5.514   3.957
 7959SOL     OW24775   4.078   5.461   0.443
 7959SOL    HW124776   4.129   5.547   0.445
 7959SOL    HW224777   4.113   5.404   0.369
 7960SOL     OW24778   3.717   1.841   1.078
 7960SOL    HW124779   3.673   1.864   1.165
 7960SOL    HW224780   3.738   1.926   1.029
 7961SOL     OW24781   2.186   5.997   6.639
 7961SOL    HW124782   2.279   5.959   6.631
 7961SOL    HW224783   2.153   5.982   6.733
 7962SOL     OW24784   1.919   0.919   0.354
 7962SOL    HW124785   2.014   0.950   0.355
 7962SOL    HW224786   1.905   0.856   0.278
 7963SOL     OW24787   6.490   1.131   4.312
 7963SOL    HW124788   6.470   1.145   4.215
 7963SOL    HW224789   6.548   1.206   4.345
 7964SOL     OW24790   5.938   4.960   3.597
 7964SOL    HW124791   5.920   4.862   3.594
 7964SOL    HW224792   6.035   4.976   3.616
 7965SOL     OW24793   4.100   3.196   0.130
 7965SOL    HW124794   4.081   3.197   0.032
 7965SOL    HW224795   4.161   3.120   0.151
 7966SOL     OW24796   1.252   3.563   4.873
 7966SOL    HW124797   1.275   3.467   4.888
 7966SOL    HW224798   1.178   3.590   4.935
 7967SOL     OW24799   3.093   6.317   4.089
 7967SOL    HW124800   3.097   6.308   3.990
 7967SOL    HW224801   2.998   6.317   4.120
 7968SOL     OW24802   2.157   3.199   3.057
 7968SOL    HW124803   2.156   3.100   3.065
 7968SOL    HW224804   2.140   3.240   3.147
 7969SOL     OW24805   4.533   0.209   1.872
 7969SOL    HW124806   4.468   0.243   1.940
 7969SOL    HW224807   4.542   0.275   1.798
 7970SOL     OW24808   0.207   3.885   2.557
 7970SOL    HW124809   0.297   3.905   2.519
 7970SOL    HW224810   0.140   3.878   2.483
 7971SOL     OW24811   3.169   1.538   1.454
 7971SOL    HW124812   3.268   1.552   1.459
 7971SOL    HW224813   3.125   1.620   1.417
 7972SOL     OW24814   6.854   4.212   1.222
 7972SOL    HW124815   6.863   4.116   1.247
 7972SOL    HW224816   6.942   4.246   1.188
 7973SOL     OW24817   5.160   3.300   3.024
 7973SOL    HW124818   5.197   3.346   3.104
 7973SOL    HW224819   5.061   3.315   3.019
 7974SOL     OW24820   6.082   0.452   4.779
 7974SOL    HW124821   6.132   0.373   4.814
 7974SOL    HW224822   6.051   0.508   4.856
 7975SOL     OW24823   5.396   0.223   3.880
 7975SOL    HW124824   5.444   0.304   3.847
 7975SOL    HW224825   5.450   0.179   3.952
 7976SOL     OW24826   0.584   6.988   5.773
 7976SOL    HW124827   0.513   6.923   5.745
 7976SOL    HW224828   0.558   0.014   5.861
 7977SOL     OW24829   4.546   5.775   2.417
 7977SOL    HW124830   4.449   5.795   2.405
 7977SOL    HW224831   4.556   5.691   2.470
 7978SOL     OW24832   6.027   4.286   6.116
 7978SOL    HW124833   6.003   4.318   6.208
 7978SOL    HW224834   6.026   4.186   6.114
 7979SOL     OW24835   2.652   0.162   5.184
 7979SOL    HW124836   2.630   0.095   5.112
 7979SOL    HW224837   2.728   0.220   5.153
 7980SOL     OW24838   3.900   5.414   6.900
 7980SOL    HW124839   3.863   5.411   6.993
 7980SOL    HW224840   3.876   5.502   6.858
 7981SOL     OW24841   1.048   5.932   1.694
 7981SOL    HW124842   1.055   5.890   1.604
 7981SOL    HW224843   0.958   5.913   1.733
 7982SOL     OW24844   6.615   1.903   0.696
 7982SOL    HW124845   6.618   1.903   0.596
 7982SOL    HW224846   6.572   1.819   0.728
 7983SOL     OW24847   5.065   2.001   3.028
 7983SOL    HW124848   5.072   1.902   3.034
 7983SOL    HW224849   5.076   2.041   3.119
 7984SOL     OW24850   1.218   1.413   1.407
 7984SOL    HW124851   1.134   1.442   1.361
 7984SOL    HW224852   1.296   1.462   1.366
 7985SOL     OW24853   2.122   6.804   3.129
 7985SOL    HW124854   2.073   6.791   3.043
 7985SOL    HW224855   2.211   6.847   3.111
 7986SOL     OW24856   3.287   1.216   6.932
 7986SOL    HW124857   3.257   1.299   6.980
 7986SOL    HW224858   3.295   1.235   6.834
 7987SOL     OW24859   0.664   3.971   6.224
 7987SOL    HW124860   0.736   3.908   6.250
 7987SOL    HW224861   0.650   3.967   6.125
 7988SOL     OW24862   2.530   2.538   4.488
 7988SOL    HW124863   2.561   2.442   4.486
 7988SOL    HW224864   2.478   2.557   4.406
 7989SOL     OW24865   3.477   2.792   5.444
 7989SOL    HW124866   3.436   2.709   5.480
 7989SOL    HW224867   3.517   2.845   5.519
 7990SOL     OW24868   0.534   3.714   3.262
 7990SOL    HW124869   0.527   3.686   3.166
 7990SOL    HW224870   0.509   3.810   3.271
 7991SOL     OW24871   6.295   2.054   5.540
 7991SOL    HW124872   6.298   2.135   5.599
 7991SOL    HW224873   6.383   2.044   5.493
 7992SOL     OW24874   1.365   6.662   1.020
 7992SOL    HW124875   1.366   6.608   1.104
 7992SOL    HW224876   1.456   6.701   1.004
 7993SOL     OW24877   1.887   5.993   6.464
 7993SOL    HW124878   1.919   5.902   6.440
 7993SOL    HW224879   1.918   6.017   6.556
 7994SOL     OW24880   4.603   0.369   3.446
 7994SOL    HW124881   4.554   0.455   3.444
 7994SOL    HW224882   4.643   0.356   3.537
 7995SOL     OW24883   3.957   5.183   3.260
 7995SOL    HW124884   3.990   5.093   3.290
 7995SOL    HW224885   4.002   5.207   3.174
 7996SOL     OW24886   3.237   6.237   4.391
 7996SOL    HW124887   3.141   6.249   4.417
 7996SOL    HW224888   3.251   6.272   4.298
 7997SOL     OW24889   6.603   1.718   1.072
 7997SOL    HW124890   6.618   1.676   0.982
 7997SOL    HW224891   6.662   1.798   1.080
 7998SOL     OW24892   4.406   5.482   0.772
 7998SOL    HW124893   4.348   5.407   0.742
 7998SOL    HW224894   4.352   5.567   0.774
 7999SOL     OW24895   0.841   0.121   6.137
 7999SOL    HW124896   0.917   0.066   6.104
 7999SOL    HW224897   0.864   0.161   6.226
 8000SOL     OW24898   5.665   0.113   6.463
 8000SOL    HW124899   5.684   0.211   6.464
 8000SOL    HW224900   5.608   0.091   6.384
 8001SOL     OW24901   3.429   6.032   1.976
 8001SOL    HW124902   3.512   6.009   1.925
 8001SOL    HW224903   3.373   5.950   1.987
 8002SOL     OW24904   0.841   3.158   6.079
 8002SOL    HW124905   0.918   3.170   6.016
 8002SOL    HW224906   0.869   3.096   6.153
 8003SOL     OW24907   2.696   4.792   2.572
 8003SOL    HW124908   2.768   4.861   2.563
 8003SOL    HW224909   2.677   4.777   2.669
 8004SOL     OW24910   1.784   4.570   2.854
 8004SOL    HW124911   1.816   4.478   2.876
 8004SOL    HW224912   1.790   4.628   2.936
 8005SOL     OW24913   3.319   1.691   2.443
 8005SOL    HW124914   3.259   1.611   2.442
 8005SOL    HW224915   3.299   1.746   2.525
 8006SOL     OW24916   2.585   6.165   0.975
 8006SOL    HW124917   2.616   6.131   0.886
 8006SOL    HW224918   2.493   6.131   0.994
 8007SOL     OW24919   0.621   0.265   3.948
 8007SOL    HW124920   0.592   0.343   3.892
 8007SOL    HW224921   0.720   0.266   3.958
 8008SOL     OW24922   4.492   6.576   6.104
 8008SOL    HW124923   4.544   6.576   6.190
 8008SOL    HW224924   4.553   6.550   6.029
 8009SOL     OW24925   6.291   0.478   2.891
 8009SOL    HW124926   6.330   0.558   2.845
 8009SOL    HW224927   6.364   0.429   2.940
 8010SOL     OW24928   2.287   1.466   6.865
 8010SOL    HW124929   2.340   1.528   6.923
 8010SOL    HW224930   2.190   1.471   6.891
 8011SOL     OW24931   2.118   2.776   1.268
 8011SOL    HW124932   2.043   2.785   1.203
 8011SOL    HW224933   2.194   2.727   1.225
 8012SOL     OW24934   1.696   6.049   1.497
 8012SOL    HW124935   1.673   5.983   1.425
 8012SOL    HW224936   1.652   6.137   1.477
 8013SOL     OW24937   0.469   5.036   4.368
 8013SOL    HW124938   0.514   4.961   4.416
 8013SOL    HW224939   0.382   5.058   4.414
 8014SOL     OW24940   1.342   6.518   5.369
 8014SOL    HW124941   1.427   6.502   5.319
 8014SOL    HW224942   1.329   6.446   5.437
 8015SOL     OW24943   2.780   1.383   0.237
 8015SOL    HW124944   2.810   1.476   0.217
 8015SOL    HW224945   2.826   1.349   0.318
 8016SOL     OW24946   4.134   0.228   6.670
 8016SOL    HW124947   4.100   0.248   6.762
 8016SOL    HW224948   4.131   0.130   6.653
 8017SOL     OW24949   6.635   4.829   5.839
 8017SOL    HW124950   6.558   4.824   5.903
 8017SOL    HW224951   6.720   4.809   5.888
 8018SOL     OW24952   4.887   2.454   6.173
 8018SOL    HW124953   4.963   2.499   6.221
 8018SOL    HW224954   4.842   2.519   6.113
 8019SOL     OW24955   1.965   3.560   0.126
 8019SOL    HW124956   1.987   3.575   0.223
 8019SOL    HW224957   1.869   3.531   0.119
 8020SOL     OW24958   5.846   6.566   0.407
 8020SOL    HW124959   5.873   6.636   0.341
 8020SOL    HW224960   5.910   6.489   0.403
 8021SOL     OW24961   1.327   1.727   2.121
 8021SOL    HW124962   1.357   1.632   2.135
 8021SOL    HW224963   1.386   1.771   2.053
 8022SOL     OW24964   4.148   0.787   3.026
 8022SOL    HW124965   4.175   0.852   2.955
 8022SOL    HW224966   4.067   0.736   2.996
 8023SOL     OW24967   5.853   6.106   3.394
 8023SOL    HW124968   5.888   6.153   3.313
 8023SOL    HW224969   5.813   6.019   3.367
 8024SOL     OW24970   3.098   4.693   0.155
 8024SOL    HW124971   3.068   4.784   0.128
 8024SOL    HW224972   3.152   4.699   0.239
 8025SOL     OW24973   3.661   5.979   5.710
 8025SOL    HW124974   3.609   6.027   5.640
 8025SOL    HW224975   3.599   5.939   5.777
 8026SOL     OW24976   0.534   3.957   6.553
 8026SOL    HW124977   0.450   3.979   6.504
 8026SOL    HW224978   0.600   3.915   6.491
 8027SOL     OW24979   4.747   2.150   5.631
 8027SOL    HW124980   4.765   2.160   5.533
 8027SOL    HW224981   4.653   2.179   5.650
 8028SOL     OW24982   4.019   4.647   6.032
 8028SOL    HW124983   3.974   4.592   5.961
 8028SOL    HW224984   4.046   4.735   5.994
 8029SOL     OW24985   5.641   3.713   6.497
 8029SOL    HW124986   5.604   3.669   6.578
 8029SOL    HW224987   5.655   3.645   6.425
 8030SOL     OW24988   5.661   3.799   5.844
 8030SOL    HW124989   5.608   3.882   5.835
 8030SOL    HW224990   5.755   3.821   5.872
 8031SOL     OW24991   4.856   6.000   2.527
 8031SOL    HW124992   4.907   6.042   2.452
 8031SOL    HW224993   4.913   5.932   2.573
 8032SOL     OW24994   6.013   4.159   5.214
 8032SOL    HW124995   5.931   4.150   5.157
 8032SOL    HW224996   6.094   4.148   5.158
 8033SOL     OW24997   4.925   3.231   0.066
 8033SOL    HW124998   4.907   3.148   0.014
 8033SOL    HW224999   5.022   3.253   0.061
 8034SOL     OW25000   6.135   1.151   5.227
 8034SOL    HW125001   6.233   1.159   5.206
 8034SOL    HW225002   6.082   1.199   5.158
 8035SOL     OW25003   5.022   0.034   5.363
 8035SOL    HW125004   4.927   0.061   5.375
 8035SOL    HW225005   5.038   0.011   5.267
 8036SOL     OW25006   1.265   3.582   1.818
 8036SOL    HW125007   1.177   3.538   1.835
 8036SOL    HW225008   1.322   3.523   1.760
 8037SOL     OW25009   1.427   3.420   1.686
 8037SOL    HW125010   1.510   3.388   1.731
 8037SOL    HW225011   1.447   3.445   1.591
 8038SOL     OW25012   4.872   1.863   2.801
 8038SOL    HW125013   4.824   1.782   2.767
 8038SOL    HW225014   4.854   1.875   2.898
 8039SOL     OW25015   1.317   0.138   3.531
 8039SOL    HW125016   1.316   0.228   3.486
 8039SOL    HW225017   1.356   0.071   3.468
 8040SOL     OW25018   1.189   5.866   0.872
 8040SOL    HW125019   1.280   5.876   0.832
 8040SOL    HW225020   1.169   5.945   0.929
 8041SOL     OW25021   3.360   1.894   2.264
 8041SOL    HW125022   3.443   1.950   2.267
 8041SOL    HW225023   3.362   1.828   2.339
 8042SOL     OW25024   3.381   2.833   2.305
 8042SOL    HW125025   3.338   2.832   2.215
 8042SOL    HW225026   3.324   2.783   2.370
 8043SOL     OW25027   3.349   6.901   0.499
 8043SOL    HW125028   3.332   6.947   0.412
 8043SOL    HW225029   3.262   6.884   0.546
 8044SOL     OW25030   3.108   3.376   1.421
 8044SOL    HW125031   3.134   3.321   1.342
 8044SOL    HW225032   3.116   3.321   1.504
 8045SOL     OW25033   5.559   1.566   2.573
 8045SOL    HW125034   5.551   1.473   2.609
 8045SOL    HW225035   5.561   1.562   2.473
 8046SOL     OW25036   6.177   4.400   6.553
 8046SOL    HW125037   6.154   4.311   6.512
 8046SOL    HW225038   6.126   4.472   6.506
 8047SOL     OW25039   3.468   4.873   5.172
 8047SOL    HW125040   3.514   4.960   5.189
 8047SOL    HW225041   3.446   4.865   5.075
 8048SOL     OW25042   5.457   1.382   5.289
 8048SOL    HW125043   5.446   1.295   5.337
 8048SOL    HW225044   5.462   1.366   5.191
 8049SOL     OW25045   1.141   0.008   1.808
 8049SOL    HW125046   1.148   6.950   1.876
 8049SOL    HW225047   1.044   0.020   1.783
 8050SOL     OW25048   0.971   4.075   1.134
 8050SOL    HW125049   0.880   4.100   1.169
 8050SOL    HW225050   1.038   4.144   1.162
 8051SOL     OW25051   5.188   0.307   3.472
 8051SOL    HW125052   5.202   0.208   3.470
 8051SOL    HW225053   5.130   0.331   3.550
 8052SOL     OW25054   3.187   1.858   2.068
 8052SOL    HW125055   3.236   1.881   2.152
 8052SOL    HW225056   3.197   1.932   2.002
 8053SOL     OW25057   3.702   3.467   2.989
 8053SOL    HW125058   3.691   3.559   3.028
 8053SOL    HW225059   3.659   3.464   2.899
 8054SOL     OW25060   5.018   6.346   4.070
 8054SOL    HW125061   4.941   6.305   4.118
 8054SOL    HW225062   5.103   6.320   4.116
 8055SOL     OW25063   0.887   0.521   6.223
 8055SOL    HW125064   0.903   0.438   6.276
 8055SOL    HW225065   0.888   0.499   6.125
 8056SOL     OW25066   4.860   1.064   3.511
 8056SOL    HW125067   4.782   1.126   3.505
 8056SOL    HW225068   4.858   1.018   3.600
 8057SOL     OW25069   2.432   1.153   2.421
 8057SOL    HW125070   2.508   1.217   2.431
 8057SOL    HW225071   2.370   1.161   2.499
 8058SOL     OW25072   3.536   0.055   3.197
 8058SOL    HW125073   3.636   0.052   3.203
 8058SOL    HW225074   3.499   0.086   3.284
 8059SOL     OW25075   4.284   2.174   5.003
 8059SOL    HW125076   4.278   2.272   5.023
 8059SOL    HW225077   4.202   2.145   4.954
 8060SOL     OW25078   0.408   1.350   4.352
 8060SOL    HW125079   0.488   1.324   4.298
 8060SOL    HW225080   0.409   1.449   4.369
 8061SOL     OW25081   6.529   5.973   2.093
 8061SOL    HW125082   6.562   5.890   2.136
 8061SOL    HW225083   6.454   6.012   2.147
 8062SOL     OW25084   2.396   4.317   3.693
 8062SOL    HW125085   2.451   4.401   3.694
 8062SOL    HW225086   2.357   4.303   3.603
 8063SOL     OW25087   1.733   3.764   0.394
 8063SOL    HW125088   1.694   3.851   0.425
 8063SOL    HW225089   1.720   3.754   0.295
 8064SOL     OW25090   0.294   4.869   0.442
 8064SOL    HW125091   0.339   4.787   0.405
 8064SOL    HW225092   0.209   4.886   0.393
 8065SOL     OW25093   4.204   6.493   3.809
 8065SOL    HW125094   4.225   6.449   3.722
 8065SOL    HW225095   4.181   6.589   3.794
 8066SOL     OW25096   1.140   1.326   6.371
 8066SOL    HW125097   1.070   1.350   6.439
 8066SOL    HW225098   1.156   1.227   6.374
 8067SOL     OW25099   4.250   3.357   1.440
 8067SOL    HW125100   4.345   3.340   1.414
 8067SOL    HW225101   4.189   3.319   1.371
 8068SOL     OW25102   6.448   5.472   5.627
 8068SOL    HW125103   6.432   5.567   5.656
 8068SOL    HW225104   6.546   5.458   5.614
 8069SOL     OW25105   2.228   6.219   1.593
 8069SOL    HW125106   2.168   6.187   1.667
 8069SOL    HW225107   2.293   6.147   1.569
 8070SOL     OW25108   2.872   4.563   0.614
 8070SOL    HW125109   2.795   4.500   0.621
 8070SOL    HW225110   2.924   4.561   0.700
 8071SOL     OW25111   3.936   6.391   5.286
 8071SOL    HW125112   3.903   6.344   5.369
 8071SOL    HW225113   3.860   6.400   5.222
 8072SOL     OW25114   3.301   1.466   0.284
 8072SOL    HW125115   3.258   1.530   0.347
 8072SOL    HW225116   3.259   1.474   0.194
 8073SOL     OW25117   5.077   6.981   6.654
 8073SOL    HW125118   5.018   0.026   6.601
 8073SOL    HW225119   5.133   6.927   6.591
 8074SOL     OW25120   3.432   2.611   0.036
 8074SOL    HW125121   3.362   2.543   0.012
 8074SOL    HW225122   3.409   2.698   7.008
 8075SOL     OW25123   6.472   1.412   1.663
 8075SOL    HW125124   6.451   1.473   1.587
 8075SOL    HW225125   6.439   1.320   1.642
 8076SOL     OW25126   4.510   2.716   5.795
 8076SOL    HW125127   4.439   2.681   5.733
 8076SOL    HW225128   4.556   2.794   5.753
 8077SOL     OW25129   0.642   0.028   1.969
 8077SOL    HW125130   0.633   0.078   2.055
 8077SOL    HW225131   0.669   6.948   1.988
 8078SOL     OW25132   5.816   1.811   0.531
 8078SOL    HW125133   5.737   1.759   0.564
 8078SOL    HW225134   5.800   1.840   0.437
 8079SOL     OW25135   5.462   2.164   3.391
 8079SOL    HW125136   5.384   2.219   3.361
 8079SOL    HW225137   5.541   2.183   3.332
 8080SOL     OW25138   1.763   3.809   0.682
 8080SOL    HW125139   1.809   3.898   0.684
 8080SOL    HW225140   1.761   3.775   0.588
 8081SOL     OW25141   5.869   0.587   5.177
 8081SOL    HW125142   5.929   0.658   5.215
 8081SOL    HW225143   5.872   0.591   5.077
 8082SOL     OW25144   6.122   2.027   2.847
 8082SOL    HW125145   6.131   1.952   2.782
 8082SOL    HW225146   6.038   2.015   2.900
 8083SOL     OW25147   5.219   3.095   2.161
 8083SOL    HW125148   5.122   3.113   2.143
 8083SOL    HW225149   5.233   3.077   2.258
 8084SOL     OW25150   5.850   6.509   1.529
 8084SOL    HW125151   5.824   6.478   1.438
 8084SOL    HW225152   5.938   6.557   1.524
 8085SOL     OW25153   5.659   0.337   2.205
 8085SOL    HW125154   5.729   0.284   2.156
 8085SOL    HW225155   5.639   0.420   2.154
 8086SOL     OW25156   3.914   0.375   4.237
 8086SOL    HW125157   3.907   0.371   4.137
 8086SOL    HW225158   3.828   0.343   4.277
 8087SOL     OW25159   2.234   1.455   1.093
 8087SOL    HW125160   2.227   1.356   1.078
 8087SOL    HW225161   2.271   1.499   1.011
 8088SOL     OW25162   6.253   1.781   2.051
 8088SOL    HW125163   6.197   1.852   2.009
 8088SOL    HW225164   6.300   1.818   2.131
 8089SOL     OW25165   5.273   1.876   6.791
 8089SOL    HW125166   5.350   1.938   6.805
 8089SOL    HW225167   5.290   1.790   6.839
 8090SOL     OW25168   4.616   2.343   6.121
 8090SOL    HW125169   4.711   2.372   6.132
 8090SOL    HW225170   4.614   2.258   6.068
 8091SOL     OW25171   3.163   3.603   6.814
 8091SOL    HW125172   3.173   3.618   6.715
 8091SOL    HW225173   3.066   3.587   6.835
 8092SOL     OW25174   1.223   1.507   4.836
 8092SOL    HW125175   1.312   1.552   4.824
 8092SOL    HW225176   1.206   1.446   4.759
 8093SOL     OW25177   6.304   6.009   1.179
 8093SOL    HW125178   6.291   6.082   1.112
 8093SOL    HW225179   6.372   5.944   1.145
 8094SOL     OW25180   2.101   4.368   5.446
 8094SOL    HW125181   2.127   4.389   5.351
 8094SOL    HW225182   2.112   4.450   5.502
 8095SOL     OW25183   6.300   3.471   3.872
 8095SOL    HW125184   6.315   3.450   3.775
 8095SOL    HW225185   6.244   3.400   3.913
 8096SOL     OW25186   2.635   5.820   3.514
 8096SOL    HW125187   2.640   5.914   3.549
 8096SOL    HW225188   2.727   5.781   3.512
 8097SOL     OW25189   5.170   0.922   3.952
 8097SOL    HW125190   5.260   0.941   3.992
 8097SOL    HW225191   5.154   0.982   3.874
 8098SOL     OW25192   2.465   6.639   4.646
 8098SOL    HW125193   2.373   6.622   4.683
 8098SOL    HW225194   2.457   6.681   4.556
 8099SOL     OW25195   6.271   0.620   3.990
 8099SOL    HW125196   6.248   0.682   3.915
 8099SOL    HW225197   6.218   0.535   3.980
 8100SOL     OW25198   0.362   0.332   0.398
 8100SOL    HW125199   0.312   0.334   0.311
 8100SOL    HW225200   0.298   0.346   0.473
 8101SOL     OW25201   1.870   0.152   4.557
 8101SOL    HW125202   1.776   0.152   4.592
 8101SOL    HW225203   1.868   0.139   4.457
 8102SOL     OW25204   1.694   5.434   6.619
 8102SOL    HW125205   1.793   5.433   6.603
 8102SOL    HW225206   1.650   5.489   6.548
 8103SOL     OW25207   4.045   1.438   1.078
 8103SOL    HW125208   3.992   1.522   1.072
 8103SOL    HW225209   3.984   1.359   1.063
 8104SOL     OW25210   3.079   6.860   6.317
 8104SOL    HW125211   3.106   6.937   6.376
 8104SOL    HW225212   3.065   6.779   6.373
 8105SOL     OW25213   2.138   2.521   3.231
 8105SOL    HW125214   2.045   2.509   3.196
 8105SOL    HW225215   2.146   2.478   3.321
 8106SOL     OW25216   1.537   5.490   3.188
 8106SOL    HW125217   1.521   5.469   3.092
 8106SOL    HW225218   1.502   5.582   3.208
 8107SOL     OW25219   1.874   6.173   5.790
 8107SOL    HW125220   1.919   6.086   5.811
 8107SOL    HW225221   1.916   6.246   5.844
 8108SOL     OW25222   6.451   2.878   4.895
 8108SOL    HW125223   6.424   2.916   4.983
 8108SOL    HW225224   6.503   2.947   4.844
 8109SOL     OW25225   1.730   4.119   4.480
 8109SOL    HW125226   1.818   4.125   4.434
 8109SOL    HW225227   1.659   4.095   4.413
 8110SOL     OW25228   3.389   6.804   0.192
 8110SOL    HW125229   3.447   6.878   0.226
 8110SOL    HW225230   3.422   6.716   0.225
 8111SOL     OW25231   3.026   0.206   5.958
 8111SOL    HW125232   2.934   0.168   5.947
 8111SOL    HW225233   3.020   0.303   5.982
 8112SOL     OW25234   2.441   0.933   5.430
 8112SOL    HW125235   2.382   0.865   5.387
 8112SOL    HW225236   2.507   0.888   5.490
 8113SOL     OW25237   2.692   2.600   0.055
 8113SOL    HW125238   2.709   2.502   0.044
 8113SOL    HW225239   2.721   2.648   6.988
 8114SOL     OW25240   2.282   2.547   2.274
 8114SOL    HW125241   2.298   2.626   2.333
 8114SOL    HW225242   2.184   2.529   2.268
 8115SOL     OW25243   3.575   1.183   1.538
 8115SOL    HW125244   3.573   1.103   1.599
 8115SOL    HW225245   3.498   1.180   1.476
 8116SOL     OW25246   5.073   6.970   5.110
 8116SOL    HW125247   5.167   7.001   5.117
 8116SOL    HW225248   5.068   6.890   5.051
 8117SOL     OW25249   1.830   1.810   3.435
 8117SOL    HW125250   1.747   1.761   3.462
 8117SOL    HW225251   1.905   1.784   3.497
 8118SOL     OW25252   0.497   3.954   5.615
 8118SOL    HW125253   0.538   4.038   5.581
 8118SOL    HW225254   0.462   3.970   5.708
 8119SOL     OW25255   0.328   5.783   4.544
 8119SOL    HW125256   0.308   5.819   4.453
 8119SOL    HW225257   0.253   5.723   4.572
 8120SOL     OW25258   3.943   3.685   6.724
 8120SOL    HW125259   3.864   3.688   6.663
 8120SOL    HW225260   3.940   3.763   6.787
 8121SOL     OW25261   0.137   6.105   2.946
 8121SOL    HW125262   0.194   6.068   3.021
 8121SOL    HW225263   0.041   6.098   2.971
 8122SOL     OW25264   0.018   4.997   2.313
 8122SOL    HW125265   0.027   4.920   2.376
 8122SOL    HW225266   7.007   4.965   2.223
 8123SOL     OW25267   0.678   7.002   6.900
 8123SOL    HW125268   0.613   0.055   6.867
 8123SOL    HW225269   0.742   6.978   6.827
 8124SOL     OW25270   0.841   6.771   1.543
 8124SOL    HW125271   0.934   6.802   1.526
 8124SOL    HW225272   0.834   6.735   1.636
 8125SOL     OW25273   6.324   5.191   3.324
 8125SOL    HW125274   6.254   5.206   3.254
 8125SOL    HW225275   6.414   5.215   3.287
 8126SOL     OW25276   6.310   4.780   1.977
 8126SOL    HW125277   6.266   4.692   1.995
 8126SOL    HW225278   6.299   4.839   2.057
 8127SOL     OW25279   2.577   5.832   0.674
 8127SOL    HW125280   2.595   5.785   0.587
 8127SOL    HW225281   2.569   5.765   0.747
 8128SOL     OW25282   3.731   2.499   0.033
 8128SOL    HW125283   3.710   2.409   0.072
 8128SOL    HW225284   3.647   2.551   0.022
 8129SOL     OW25285   4.852   0.996   6.482
 8129SOL    HW125286   4.874   1.007   6.385
 8129SOL    HW225287   4.932   1.021   6.537
 8130SOL     OW25288   1.182   5.383   6.053
 8130SOL    HW125289   1.275   5.415   6.034
 8130SOL    HW225290   1.137   5.360   5.967
 8131SOL     OW25291   2.906   1.188   0.100
 8131SOL    HW125292   2.858   1.129   0.035
 8131SOL    HW225293   2.845   1.264   0.126
 8132SOL     OW25294   5.437   5.825   6.110
 8132SOL    HW125295   5.380   5.901   6.081
 8132SOL    HW225296   5.522   5.824   6.057
 8133SOL     OW25297   3.222   5.159   2.602
 8133SOL    HW125298   3.193   5.254   2.591
 8133SOL    HW225299   3.320   5.156   2.621
 8134SOL     OW25300   2.170   1.676   4.251
 8134SOL    HW125301   2.191   1.581   4.276
 8134SOL    HW225302   2.220   1.700   4.167
 8135SOL     OW25303   3.039   5.042   1.981
 8135SOL    HW125304   3.099   5.012   1.906
 8135SOL    HW225305   3.026   4.966   2.045
 8136SOL     OW25306   4.631   5.252   2.783
 8136SOL    HW125307   4.549   5.304   2.808
 8136SOL    HW225308   4.604   5.163   2.746
 8137SOL     OW25309   2.320   2.852   4.286
 8137SOL    HW125310   2.387   2.816   4.221
 8137SOL    HW225311   2.276   2.933   4.247
 8138SOL     OW25312   5.901   1.724   2.125
 8138SOL    HW125313   5.945   1.640   2.157
 8138SOL    HW225314   5.967   1.800   2.129
 8139SOL     OW25315   0.835   2.826   3.785
 8139SOL    HW125316   0.827   2.885   3.705
 8139SOL    HW225317   0.855   2.883   3.865
 8140SOL     OW25318   3.968   0.237   0.468
 8140SOL    HW125319   3.919   0.306   0.415
 8140SOL    HW225320   3.910   0.206   0.544
 8141SOL     OW25321   5.250   0.509   5.162
 8141SOL    HW125322   5.190   0.449   5.215
 8141SOL    HW225323   5.336   0.522   5.211
 8142SOL     OW25324   2.256   5.646   0.837
 8142SOL    HW125325   2.273   5.677   0.744
 8142SOL    HW225326   2.157   5.639   0.852
 8143SOL     OW25327   5.297   5.128   1.497
 8143SOL    HW125328   5.257   5.172   1.417
 8143SOL    HW225329   5.342   5.043   1.469
 8144SOL     OW25330   0.385   5.954   5.405
 8144SOL    HW125331   0.445   5.958   5.325
 8144SOL    HW225332   0.413   5.879   5.465
 8145SOL     OW25333   4.566   5.307   0.620
 8145SOL    HW125334   4.500   5.320   0.545
 8145SOL    HW225335   4.539   5.363   0.698
 8146SOL     OW25336   6.223   0.525   5.330
 8146SOL    HW125337   6.126   0.545   5.342
 8146SOL    HW225338   6.277   0.582   5.392
 8147SOL     OW25339   0.651   0.465   0.488
 8147SOL    HW125340   0.684   0.481   0.395
 8147SOL    HW225341   0.584   0.390   0.487
 8148SOL     OW25342   4.012   3.974   6.603
 8148SOL    HW125343   3.936   3.985   6.667
 8148SOL    HW225344   3.986   3.910   6.531
 8149SOL     OW25345   1.869   6.749   4.710
 8149SOL    HW125346   1.962   6.759   4.677
 8149SOL    HW225347   1.809   6.811   4.660
 8150SOL     OW25348   0.480   3.494   1.014
 8150SOL    HW125349   0.428   3.411   1.034
 8150SOL    HW225350   0.523   3.486   0.924
 8151SOL     OW25351   6.284   5.354   3.781
 8151SOL    HW125352   6.197   5.316   3.749
 8151SOL    HW225353   6.332   5.397   3.705
 8152SOL     OW25354   4.636   2.133   2.652
 8152SOL    HW125355   4.689   2.100   2.575
 8152SOL    HW225356   4.545   2.161   2.621
 8153SOL     OW25357   0.812   0.925   3.462
 8153SOL    HW125358   0.764   0.975   3.533
 8153SOL    HW225359   0.907   0.955   3.457
 8154SOL     OW25360   3.233   1.364   3.277
 8154SOL    HW125361   3.233   1.312   3.192
 8154SOL    HW225362   3.315   1.341   3.330
 8155SOL     OW25363   1.290   3.793   2.674
 8155SOL    HW125364   1.301   3.830   2.582
 8155SOL    HW225365   1.279   3.867   2.739
 8156SOL     OW25366   5.554   5.985   1.405
 8156SOL    HW125367   5.539   6.083   1.409
 8156SOL    HW225368   5.603   5.962   1.320
 8157SOL     OW25369   5.892   3.540   5.882
 8157SOL    HW125370   5.941   3.570   5.964
 8157SOL    HW225371   5.794   3.539   5.900
 8158SOL     OW25372   5.819   5.011   6.477
 8158SOL    HW125373   5.877   5.012   6.395
 8158SOL    HW225374   5.874   4.982   6.556
 8159SOL     OW25375   3.925   6.592   5.742
 8159SOL    HW125376   4.011   6.637   5.719
 8159SOL    HW225377   3.924   6.500   5.701
 8160SOL     OW25378   4.843   0.884   3.731
 8160SOL    HW125379   4.778   0.818   3.694
 8160SOL    HW225380   4.910   0.837   3.789
 8161SOL     OW25381   5.709   3.696   6.938
 8161SOL    HW125382   5.696   3.628   7.010
 8161SOL    HW225383   5.636   3.688   6.870
 8162SOL     OW25384   0.568   5.049   0.034
 8162SOL    HW125385   0.487   5.102   0.006
 8162SOL    HW225386   0.571   5.045   0.134
 8163SOL     OW25387   3.857   5.325   5.363
 8163SOL    HW125388   3.872   5.349   5.459
 8163SOL    HW225389   3.936   5.353   5.309
 8164SOL     OW25390   4.480   0.551   6.659
 8164SOL    HW125391   4.406   0.617   6.672
 8164SOL    HW225392   4.481   0.487   6.735
 8165SOL     OW25393   6.849   3.947   6.425
 8165SOL    HW125394   6.925   3.896   6.466
 8165SOL    HW225395   6.772   3.948   6.488
 8166SOL     OW25396   2.140   2.019   3.940
 8166SOL    HW125397   2.203   1.945   3.963
 8166SOL    HW225398   2.124   2.076   4.021
 8167SOL     OW25399   6.669   0.966   3.723
 8167SOL    HW125400   6.663   1.007   3.814
 8167SOL    HW225401   6.653   1.036   3.653
 8168SOL     OW25402   2.668   0.459   1.486
 8168SOL    HW125403   2.660   0.360   1.469
 8168SOL    HW225404   2.741   0.475   1.553
 8169SOL     OW25405   4.260   1.666   0.475
 8169SOL    HW125406   4.233   1.576   0.510
 8169SOL    HW225407   4.192   1.734   0.501
 8170SOL     OW25408   6.508   4.576   1.737
 8170SOL    HW125409   6.435   4.518   1.771
 8170SOL    HW225410   6.478   4.624   1.655
 8171SOL     OW25411   1.713   0.973   6.619
 8171SOL    HW125412   1.787   0.938   6.562
 8171SOL    HW225413   1.752   1.018   6.699
 8172SOL     OW25414   0.188   2.207   2.064
 8172SOL    HW125415   0.158   2.283   2.006
 8172SOL    HW225416   0.224   2.243   2.150
 8173SOL     OW25417   5.593   2.434   2.909
 8173SOL    HW125418   5.592   2.494   2.829
 8173SOL    HW225419   5.579   2.339   2.880
 8174SOL     OW25420   1.063   6.260   2.542
 8174SOL    HW125421   1.146   6.317   2.545
 8174SOL    HW225422   0.997   6.301   2.478
 8175SOL     OW25423   0.704   2.919   4.234
 8175SOL    HW125424   0.798   2.887   4.224
 8175SOL    HW225425   0.647   2.877   4.163
 8176SOL     OW25426   1.795   4.611   1.375
 8176SOL    HW125427   1.837   4.520   1.372
 8176SOL    HW225428   1.830   4.666   1.299
 8177SOL     OW25429   3.346   0.879   2.465
 8177SOL    HW125430   3.317   0.967   2.502
 8177SOL    HW225431   3.446   0.873   2.469
 8178SOL     OW25432   2.999   6.470   1.200
 8178SOL    HW125433   2.927   6.495   1.264
 8178SOL    HW225434   3.007   6.370   1.195
 8179SOL     OW25435   5.809   1.207   4.332
 8179SOL    HW125436   5.841   1.185   4.424
 8179SOL    HW225437   5.786   1.122   4.284
 8180SOL     OW25438   6.355   0.478   0.017
 8180SOL    HW125439   6.416   0.538   0.068
 8180SOL    HW225440   6.275   0.529   7.001
 8181SOL     OW25441   0.586   1.064   0.904
 8181SOL    HW125442   0.526   1.084   0.826
 8181SOL    HW225443   0.629   0.975   0.892
 8182SOL     OW25444   3.692   3.461   4.905
 8182SOL    HW125445   3.749   3.486   4.827
 8182SOL    HW225446   3.596   3.469   4.880
 8183SOL     OW25447   6.487   1.472   5.054
 8183SOL    HW125448   6.457   1.463   4.959
 8183SOL    HW225449   6.480   1.383   5.100
 8184SOL     OW25450   0.973   0.162   0.015
 8184SOL    HW125451   0.882   0.146   0.053
 8184SOL    HW225452   1.028   0.078   0.022
 8185SOL     OW25453   2.061   0.656   0.502
 8185SOL    HW125454   1.982   0.631   0.445
 8185SOL    HW225455   2.038   0.736   0.557
 8186SOL     OW25456   2.312   4.170   5.408
 8186SOL    HW125457   2.255   4.249   5.428
 8186SOL    HW225458   2.272   4.118   5.333
 8187SOL     OW25459   2.555   1.796   5.022
 8187SOL    HW125460   2.605   1.848   4.952
 8187SOL    HW225461   2.457   1.806   5.007
 8188SOL     OW25462   4.413   1.578   3.722
 8188SOL    HW125463   4.449   1.529   3.643
 8188SOL    HW225464   4.397   1.514   3.797
 8189SOL     OW25465   5.639   5.273   2.580
 8189SOL    HW125466   5.667   5.288   2.485
 8189SOL    HW225467   5.720   5.271   2.639
 8190SOL     OW25468   5.166   4.072   3.711
 8190SOL    HW125469   5.075   4.089   3.673
 8190SOL    HW225470   5.173   3.976   3.737
 8191SOL     OW25471   4.617   5.356   2.461
 8191SOL    HW125472   4.620   5.449   2.497
 8191SOL    HW225473   4.566   5.297   2.525
 8192SOL     OW25474   1.666   5.256   2.079
 8192SOL    HW125475   1.643   5.353   2.083
 8192SOL    HW225476   1.663   5.218   2.171
 8193SOL     OW25477   6.604   5.495   4.358
 8193SOL    HW125478   6.548   5.533   4.431
 8193SOL    HW225479   6.604   5.557   4.280
 8194SOL     OW25480   4.606   0.769   0.919
 8194SOL    HW125481   4.552   0.744   0.999
 8194SOL    HW225482   4.548   0.765   0.837
 8195SOL     OW25483   5.917   0.352   4.214
 8195SOL    HW125484   5.827   0.380   4.181
 8195SOL    HW225485   5.908   0.267   4.265
 8196SOL     OW25486   5.412   0.330   6.935
 8196SOL    HW125487   5.419   0.280   6.849
 8196SOL    HW225488   5.475   0.408   6.934
 8197SOL     OW25489   4.469   1.838   1.507
 8197SOL    HW125490   4.427   1.928   1.494
 8197SOL    HW225491   4.455   1.809   1.601
 8198SOL     OW25492   2.784   0.026   2.461
 8198SOL    HW125493   2.843   0.080   2.402
 8198SOL    HW225494   2.797   6.944   2.442
 8199SOL     OW25495   4.995   3.604   6.100
 8199SOL    HW125496   4.899   3.582   6.114
 8199SOL    HW225497   5.013   3.614   6.002
 8200SOL     OW25498   5.920   4.171   2.343
 8200SOL    HW125499   5.823   4.194   2.334
 8200SOL    HW225500   5.930   4.078   2.379
 8201SOL     OW25501   6.830   0.979   5.097
 8201SOL    HW125502   6.912   0.927   5.070
 8201SOL    HW225503   6.846   1.024   5.185
 8202SOL     OW25504   6.844   5.906   2.915
 8202SOL    HW125505   6.910   5.865   2.978
 8202SOL    HW225506   6.841   6.005   2.930
 8203SOL     OW25507   1.673   2.171   6.918
 8203SOL    HW125508   1.613   2.193   6.841
 8203SOL    HW225509   1.752   2.232   6.917
 8204SOL     OW25510   3.926   3.875   0.415
 8204SOL    HW125511   3.939   3.825   0.329
 8204SOL    HW225512   4.009   3.868   0.471
 8205SOL     OW25513   6.690   3.130   0.255
 8205SOL    HW125514   6.692   3.031   0.270
 8205SOL    HW225515   6.755   3.174   0.317
 8206SOL     OW25516   4.851   1.421   0.337
 8206SOL    HW125517   4.900   1.465   0.412
 8206SOL    HW225518   4.903   1.342   0.305
 8207SOL     OW25519   3.638   3.816   4.450
 8207SOL    HW125520   3.693   3.751   4.397
 8207SOL    HW225521   3.546   3.822   4.411
 8208SOL     OW25522   1.248   0.743   0.851
 8208SOL    HW125523   1.276   0.754   0.756
 8208SOL    HW225524   1.149   0.754   0.858
 8209SOL     OW25525   6.872   0.787   4.815
 8209SOL    HW125526   6.865   0.881   4.782
 8209SOL    HW225527   6.809   0.729   4.764
 8210SOL     OW25528   1.867   2.437   0.288
 8210SOL    HW125529   1.870   2.350   0.337
 8210SOL    HW225530   1.959   2.467   0.265
 8211SOL     OW25531   3.533   3.852   1.396
 8211SOL    HW125532   3.604   3.837   1.326
 8211SOL    HW225533   3.574   3.895   1.476
 8212SOL     OW25534   1.656   2.674   2.976
 8212SOL    HW125535   1.715   2.594   2.968
 8212SOL    HW225536   1.600   2.683   2.894
 8213SOL     OW25537   6.859   5.088   1.250
 8213SOL    HW125538   6.828   5.051   1.337
 8213SOL    HW225539   6.853   5.018   1.179
 8214SOL     OW25540   6.162   4.368   3.734
 8214SOL    HW125541   6.130   4.299   3.799
 8214SOL    HW225542   6.194   4.323   3.650
 8215SOL     OW25543   3.252   5.905   5.223
 8215SOL    HW125544   3.275   5.823   5.276
 8215SOL    HW225545   3.160   5.936   5.249
 8216SOL     OW25546   5.693   5.671   4.307
 8216SOL    HW125547   5.743   5.592   4.344
 8216SOL    HW225548   5.650   5.645   4.220
 8217SOL     OW25549   2.168   4.441   6.961
 8217SOL    HW125550   2.178   4.424   0.044
 8217SOL    HW225551   2.109   4.370   6.921
 8218SOL     OW25552   0.165   1.224   0.053
 8218SOL    HW125553   0.116   1.166   7.003
 8218SOL    HW225554   0.156   1.187   0.145
 8219SOL     OW25555   4.920   1.672   0.429
 8219SOL    HW125556   5.014   1.704   0.426
 8219SOL    HW225557   4.878   1.685   0.339
 8220SOL     OW25558   3.347   3.305   3.285
 8220SOL    HW125559   3.294   3.266   3.360
 8220SOL    HW225560   3.290   3.313   3.204
 8221SOL     OW25561   4.793   6.195   4.741
 8221SOL    HW125562   4.751   6.240   4.662
 8221SOL    HW225563   4.848   6.262   4.792
 8222SOL     OW25564   5.228   1.635   2.068
 8222SOL    HW125565   5.294   1.708   2.049
 8222SOL    HW225566   5.180   1.610   1.984
 8223SOL     OW25567   1.605   3.733   5.916
 8223SOL    HW125568   1.625   3.781   5.831
 8223SOL    HW225569   1.655   3.646   5.917
 8224SOL     OW25570   0.062   2.531   2.864
 8224SOL    HW125571   0.018   2.492   2.944
 8224SOL    HW225572   0.158   2.550   2.884
 8225SOL     OW25573   3.403   0.789   6.981
 8225SOL    HW125574   3.310   0.759   6.961
 8225SOL    HW225575   3.401   0.874   0.017
 8226SOL     OW25576   4.431   0.150   2.305
 8226SOL    HW125577   4.518   0.102   2.297
 8226SOL    HW225578   4.399   0.145   2.400
 8227SOL     OW25579   0.049   2.728   3.497
 8227SOL    HW125580   0.108   2.791   3.447
 8227SOL    HW225581   0.089   2.708   3.587
 8228SOL     OW25582   0.175   2.812   5.502
 8228SOL    HW125583   0.128   2.876   5.442
 8228SOL    HW225584   0.121   2.797   5.584
 8229SOL     OW25585   3.691   4.226   0.255
 8229SOL    HW125586   3.759   4.231   0.328
 8229SOL    HW225587   3.643   4.314   0.248
 8230SOL     OW25588   4.425   6.956   5.238
 8230SOL    HW125589   4.357   6.887   5.261
 8230SOL    HW225590   4.384   0.032   5.247
 8231SOL     OW25591   4.006   5.320   0.671
 8231SOL    HW125592   3.957   5.368   0.743
 8231SOL    HW225593   4.034   5.385   0.600
 8232SOL     OW25594   4.905   1.518   0.847
 8232SOL    HW125595   4.999   1.542   0.870
 8232SOL    HW225596   4.846   1.532   0.927
 8233SOL     OW25597   0.920   5.943   6.216
 8233SOL    HW125598   0.914   6.040   6.238
 8233SOL    HW225599   0.970   5.932   6.130
 8234SOL     OW25600   2.864   3.561   6.937
 8234SOL    HW125601   2.928   3.487   6.956
 8234SOL    HW225602   2.821   3.590   0.007
 8235SOL     OW25603   1.686   3.389   0.448
 8235SOL    HW125604   1.605   3.429   0.407
 8235SOL    HW225605   1.768   3.429   0.407
 8236SOL     OW25606   6.962   4.272   6.993
 8236SOL    HW125607   6.864   4.255   6.981
 8236SOL    HW225608   6.983   4.278   0.076
 8237SOL     OW25609   5.016   6.223   4.496
 8237SOL    HW125610   5.075   6.146   4.519
 8237SOL    HW225611   4.944   6.192   4.433
 8238SOL     OW25612   1.445   5.071   0.387
 8238SOL    HW125613   1.385   5.064   0.307
 8238SOL    HW225614   1.491   5.160   0.387
 8239SOL     OW25615   6.384   1.198   5.121
 8239SOL    HW125616   6.428   1.154   5.199
 8239SOL    HW225617   6.399   1.143   5.039
 8240SOL     OW25618   3.490   3.903   2.857
 8240SOL    HW125619   3.500   3.981   2.918
 8240SOL    HW225620   3.454   3.825   2.908
 8241SOL     OW25621   4.084   6.759   0.057
 8241SOL    HW125622   4.015   6.735   7.004
 8241SOL    HW225623   4.044   6.822   0.124
 8242SOL     OW25624   1.311   4.214   5.882
 8242SOL    HW125625   1.250   4.150   5.928
 8242SOL    HW225626   1.286   4.221   5.785
 8243SOL     OW25627   1.077   2.808   0.117
 8243SOL    HW125628   1.076   2.743   0.041
 8243SOL    HW225629   1.169   2.813   0.156
 8244SOL     OW25630   1.237   0.059   3.793
 8244SOL    HW125631   1.315   0.071   3.854
 8244SOL    HW225632   1.266   0.072   3.699
 8245SOL     OW25633   3.894   1.642   2.884
 8245SOL    HW125634   3.922   1.637   2.980
 8245SOL    HW225635   3.826   1.716   2.873
 8246SOL     OW25636   6.901   3.101   5.439
 8246SOL    HW125637   6.932   3.074   5.347
 8246SOL    HW225638   6.980   3.109   5.499
 8247SOL     OW25639   0.963   0.011   2.516
 8247SOL    HW125640   0.864   0.012   2.507
 8247SOL    HW225641   0.988   0.022   2.612
 8248SOL     OW25642   5.519   5.218   3.798
 8248SOL    HW125643   5.575   5.138   3.777
 8248SOL    HW225644   5.578   5.295   3.823
 8249SOL     OW25645   2.138   3.071   5.581
 8249SOL    HW125646   2.174   2.978   5.585
 8249SOL    HW225647   2.187   3.123   5.511
 8250SOL     OW25648   3.270   4.069   2.374
 8250SOL    HW125649   3.272   4.058   2.474
 8250SOL    HW225650   3.362   4.089   2.342
 8251SOL     OW25651   5.963   3.018   4.268
 8251SOL    HW125652   6.013   3.084   4.324
 8251SOL    HW225653   5.964   2.929   4.313
 8252SOL     OW25654   3.260   2.926   6.134
 8252SOL    HW125655   3.187   2.903   6.070
 8252SOL    HW225656   3.322   2.992   6.093
 8253SOL     OW25657   4.045   4.182   5.314
 8253SOL    HW125658   4.085   4.264   5.272
 8253SOL    HW225659   3.994   4.132   5.245
 8254SOL     OW25660   4.481   4.733   4.726
 8254SOL    HW125661   4.576   4.763   4.722
 8254SOL    HW225662   4.426   4.788   4.664
 8255SOL     OW25663   3.001   6.146   4.863
 8255SOL    HW125664   3.085   6.097   4.841
 8255SOL    HW225665   3.008   6.184   4.955
 8256SOL     OW25666   6.209   1.099   1.918
 8256SOL    HW125667   6.226   1.186   1.963
 8256SOL    HW225668   6.133   1.052   1.963
 8257SOL     OW25669   6.721   3.993   3.655
 8257SOL    HW125670   6.652   3.972   3.586
 8257SOL    HW225671   6.795   3.926   3.649
 8258SOL     OW25672   5.231   0.962   0.584
 8258SOL    HW125673   5.296   0.905   0.634
 8258SOL    HW225674   5.156   0.988   0.644
 8259SOL     OW25675   4.356   1.930   3.215
 8259SOL    HW125676   4.452   1.908   3.234
 8259SOL    HW225677   4.307   1.940   3.301
 8260SOL     OW25678   2.753   6.995   2.081
 8260SOL    HW125679   2.822   0.035   2.128
 8260SOL    HW225680   2.675   6.980   2.141
 8261SOL     OW25681   6.261   1.505   2.254
 8261SOL    HW125682   6.341   1.464   2.299
 8261SOL    HW225683   6.247   1.597   2.290
 8262SOL     OW25684   0.749   2.903   0.359
 8262SOL    HW125685   0.759   2.906   0.260
 8262SOL    HW225686   0.840   2.894   0.401
 8263SOL     OW25687   1.203   2.137   0.495
 8263SOL    HW125688   1.224   2.182   0.409
 8263SOL    HW225689   1.123   2.078   0.485
 8264SOL     OW25690   2.630   5.883   2.379
 8264SOL    HW125691   2.645   5.839   2.467
 8264SOL    HW225692   2.537   5.921   2.376
 8265SOL     OW25693   0.709   7.004   1.174
 8265SOL    HW125694   0.648   6.985   1.098
 8265SOL    HW225695   0.699   6.932   1.243
 8266SOL     OW25696   2.241   1.342   3.856
 8266SOL    HW125697   2.211   1.280   3.928
 8266SOL    HW225698   2.188   1.427   3.860
 8267SOL     OW25699   1.774   2.669   0.618
 8267SOL    HW125700   1.751   2.752   0.667
 8267SOL    HW225701   1.868   2.643   0.639
 8268SOL     OW25702   2.358   6.350   5.751
 8268SOL    HW125703   2.317   6.396   5.672
 8268SOL    HW225704   2.433   6.291   5.720
 8269SOL     OW25705   5.141   1.620   1.797
 8269SOL    HW125706   5.047   1.586   1.795
 8269SOL    HW225707   5.173   1.634   1.703
 8270SOL     OW25708   2.773   6.697   5.202
 8270SOL    HW125709   2.839   6.772   5.190
 8270SOL    HW225710   2.816   6.611   5.174
 8271SOL     OW25711   6.889   0.794   2.794
 8271SOL    HW125712   6.911   0.754   2.705
 8271SOL    HW225713   6.836   0.878   2.781
 8272SOL     OW25714   4.846   1.845   1.358
 8272SOL    HW125715   4.891   1.879   1.441
 8272SOL    HW225716   4.777   1.777   1.383
 8273SOL     OW25717   2.394   6.365   0.688
 8273SOL    HW125718   2.479   6.387   0.736
 8273SOL    HW225719   2.370   6.269   0.705
 8274SOL     OW25720   4.858   4.774   2.922
 8274SOL    HW125721   4.786   4.817   2.976
 8274SOL    HW225722   4.825   4.687   2.884
 8275SOL     OW25723   4.733   1.596   5.801
 8275SOL    HW125724   4.830   1.613   5.790
 8275SOL    HW225725   4.706   1.609   5.897
 8276SOL     OW25726   1.230   2.535   3.547
 8276SOL    HW125727   1.156   2.595   3.514
 8276SOL    HW225728   1.304   2.534   3.480
 8277SOL     OW25729   6.471   0.507   0.487
 8277SOL    HW125730   6.506   0.578   0.548
 8277SOL    HW225731   6.445   0.427   0.541
 8278SOL     OW25732   2.838   1.745   5.386
 8278SOL    HW125733   2.768   1.790   5.332
 8278SOL    HW225734   2.835   1.646   5.370
 8279SOL     OW25735   1.681   0.622   3.829
 8279SOL    HW125736   1.687   0.582   3.738
 8279SOL    HW225737   1.586   0.640   3.852
 8280SOL     OW25738   2.233   2.525   0.411
 8280SOL    HW125739   2.267   2.618   0.424
 8280SOL    HW225740   2.182   2.521   0.325
 8281SOL     OW25741   2.264   5.060   1.730
 8281SOL    HW125742   2.326   4.990   1.764
 8281SOL    HW225743   2.184   5.016   1.687
 8282SOL     OW25744   5.265   3.705   0.292
 8282SOL    HW125745   5.180   3.655   0.277
 8282SOL    HW225746   5.312   3.718   0.204
 8283SOL     OW25747   1.990   5.266   0.041
 8283SOL    HW125748   2.021   5.329   6.985
 8283SOL    HW225749   2.069   5.230   0.089
 8284SOL     OW25750   1.097   3.331   0.604
 8284SOL    HW125751   1.018   3.390   0.584
 8284SOL    HW225752   1.072   3.236   0.587
 8285SOL     OW25753   3.386   3.070   5.085
 8285SOL    HW125754   3.356   2.978   5.059
 8285SOL    HW225755   3.388   3.128   5.003
 8286SOL     OW25756   5.576   3.329   6.791
 8286SOL    HW125757   5.527   3.332   6.703
 8286SOL    HW225758   5.551   3.245   6.839
 8287SOL     OW25759   1.890   5.573   4.306
 8287SOL    HW125760   1.805   5.589   4.257
 8287SOL    HW225761   1.963   5.552   4.240
 8288SOL     OW25762   2.896   1.499   1.185
 8288SOL    HW125763   2.912   1.590   1.223
 8288SOL    HW225764   2.955   1.485   1.105
 8289SOL     OW25765   0.599   5.623   1.335
 8289SOL    HW125766   0.651   5.663   1.410
 8289SOL    HW225767   0.649   5.544   1.298
 8290SOL     OW25768   5.864   0.740   1.228
 8290SOL    HW125769   5.917   0.661   1.197
 8290SOL    HW225770   5.780   0.747   1.175
 8291SOL     OW25771   5.636   6.106   6.017
 8291SOL    HW125772   5.614   6.151   5.931
 8291SOL    HW225773   5.616   6.008   6.011
 8292SOL     OW25774   2.602   6.227   6.954
 8292SOL    HW125775   2.672   6.280   7.003
 8292SOL    HW225776   2.511   6.264   6.976
 8293SOL     OW25777   3.313   6.669   6.917
 8293SOL    HW125778   3.383   6.600   6.898
 8293SOL    HW225779   3.310   6.688   7.015
 8294SOL     OW25780   5.700   4.396   5.135
 8294SOL    HW125781   5.613   4.362   5.170
 8294SOL    HW225782   5.753   4.320   5.098
 8295SOL     OW25783   5.117   5.638   1.337
 8295SOL    HW125784   5.089   5.732   1.359
 8295SOL    HW225785   5.065   5.573   1.393
 8296SOL     OW25786   2.395   6.276   6.343
 8296SOL    HW125787   2.468   6.266   6.277
 8296SOL    HW225788   2.353   6.366   6.334
 8297SOL     OW25789   6.163   2.859   2.185
 8297SOL    HW125790   6.105   2.798   2.240
 8297SOL    HW225791   6.155   2.835   2.088
 8298SOL     OW25792   5.704   2.447   1.188
 8298SOL    HW125793   5.763   2.377   1.229
 8298SOL    HW225794   5.748   2.537   1.195
 8299SOL     OW25795   6.662   2.756   1.919
 8299SOL    HW125796   6.714   2.703   1.987
 8299SOL    HW225797   6.666   2.853   1.942
 8300SOL     OW25798   0.598   6.066   5.192
 8300SOL    HW125799   0.578   6.158   5.227
 8300SOL    HW225800   0.572   6.061   5.096
 8301SOL     OW25801   4.170   1.812   1.847
 8301SOL    HW125802   4.083   1.845   1.882
 8301SOL    HW225803   4.155   1.735   1.785
 8302SOL     OW25804   6.016   6.296   6.478
 8302SOL    HW125805   5.970   6.346   6.551
 8302SOL    HW225806   6.084   6.355   6.434
 8303SOL     OW25807   6.542   0.694   3.984
 8303SOL    HW125808   6.450   0.657   3.994
 8303SOL    HW225809   6.551   0.776   4.040
 8304SOL     OW25810   0.935   3.625   0.869
 8304SOL    HW125811   0.974   3.690   0.935
 8304SOL    HW225812   0.841   3.653   0.847
 8305SOL     OW25813   4.110   4.774   4.439
 8305SOL    HW125814   4.066   4.691   4.472
 8305SOL    HW225815   4.090   4.786   4.342
 8306SOL     OW25816   6.888   2.688   5.291
 8306SOL    HW125817   6.792   2.713   5.281
 8306SOL    HW225818   6.895   2.599   5.336
 8307SOL     OW25819   3.993   5.263   1.490
 8307SOL    HW125820   3.987   5.297   1.584
 8307SOL    HW225821   3.901   5.255   1.451
 8308SOL     OW25822   3.925   5.428   0.913
 8308SOL    HW125823   3.914   5.347   0.970
 8308SOL    HW225824   3.835   5.466   0.892
 8309SOL     OW25825   5.874   5.675   3.612
 8309SOL    HW125826   5.963   5.700   3.576
 8309SOL    HW225827   5.834   5.753   3.660
 8310SOL     OW25828   1.084   4.646   0.528
 8310SOL    HW125829   1.055   4.551   0.536
 8310SOL    HW225830   1.081   4.674   0.432
 8311SOL     OW25831   0.628   1.049   4.684
 8311SOL    HW125832   0.703   1.114   4.676
 8311SOL    HW225833   0.543   1.091   4.651
 8312SOL     OW25834   4.059   6.771   0.906
 8312SOL    HW125835   4.063   6.816   0.817
 8312SOL    HW225836   4.144   6.721   0.922
 8313SOL     OW25837   4.945   0.880   2.477
 8313SOL    HW125838   4.882   0.804   2.466
 8313SOL    HW225839   4.906   0.948   2.538
 8314SOL     OW25840   4.515   0.172   0.840
 8314SOL    HW125841   4.515   0.272   0.838
 8314SOL    HW225842   4.435   0.139   0.890
 8315SOL     OW25843   3.893   3.423   0.792
 8315SOL    HW125844   3.922   3.341   0.841
 8315SOL    HW225845   3.810   3.459   0.834
 8316SOL     OW25846   0.687   2.417   1.697
 8316SOL    HW125847   0.767   2.454   1.650
 8316SOL    HW225848   0.713   2.339   1.753
 8317SOL     OW25849   2.224   2.516   2.781
 8317SOL    HW125850   2.134   2.558   2.783
 8317SOL    HW225851   2.236   2.465   2.696
 8318SOL     OW25852   4.541   1.007   5.137
 8318SOL    HW125853   4.544   1.055   5.049
 8318SOL    HW225854   4.555   1.073   5.211
 8319SOL     OW25855   2.887   1.130   6.264
 8319SOL    HW125856   2.788   1.129   6.254
 8319SOL    HW225857   2.920   1.037   6.282
 8320SOL     OW25858   3.408   3.736   1.634
 8320SOL    HW125859   3.471   3.806   1.600
 8320SOL    HW225860   3.386   3.755   1.729
 8321SOL     OW25861   6.867   0.844   0.305
 8321SOL    HW125862   6.948   0.860   0.361
 8321SOL    HW225863   6.802   0.919   0.317
 8322SOL     OW25864   0.152   0.461   0.561
 8322SOL    HW125865   0.056   0.489   0.567
 8322SOL    HW225866   0.211   0.541   0.571
 8323SOL     OW25867   5.701   5.542   2.633
 8323SOL    HW125868   5.675   5.586   2.547
 8323SOL    HW225869   5.653   5.454   2.641
 8324SOL     OW25870   5.551   1.266   1.537
 8324SOL    HW125871   5.619   1.230   1.601
 8324SOL    HW225872   5.540   1.364   1.551
 8325SOL     OW25873   3.039   3.375   5.228
 8325SOL    HW125874   3.087   3.397   5.313
 8325SOL    HW225875   2.951   3.423   5.226
 8326SOL     OW25876   4.641   3.371   5.348
 8326SOL    HW125877   4.724   3.392   5.296
 8326SOL    HW225878   4.562   3.409   5.301
 8327SOL     OW25879   6.241   2.151   6.151
 8327SOL    HW125880   6.285   2.228   6.197
 8327SOL    HW225881   6.309   2.098   6.101
 8328SOL     OW25882   2.403   4.421   5.535
 8328SOL    HW125883   2.443   4.499   5.486
 8328SOL    HW225884   2.384   4.347   5.471
 8329SOL     OW25885   0.234   3.706   6.226
 8329SOL    HW125886   0.187   3.771   6.286
 8329SOL    HW225887   0.186   3.703   6.138
 8330SOL     OW25888   3.155   6.649   0.390
 8330SOL    HW125889   3.136   6.732   0.338
 8330SOL    HW225890   3.193   6.579   0.330
 8331SOL     OW25891   2.635   1.503   1.066
 8331SOL    HW125892   2.596   1.411   1.062
 8331SOL    HW225893   2.722   1.500   1.115
 8332SOL     OW25894   4.828   4.790   2.585
 8332SOL    HW125895   4.851   4.884   2.557
 8332SOL    HW225896   4.847   4.727   2.510
 8333SOL     OW25897   0.654   6.246   6.504
 8333SOL    HW125898   0.613   6.253   6.413
 8333SOL    HW225899   0.683   6.152   6.520
 8334SOL     OW25900   4.311   1.324   3.667
 8334SOL    HW125901   4.239   1.384   3.632
 8334SOL    HW225902   4.272   1.262   3.735
 8335SOL     OW25903   6.547   5.402   6.363
 8335SOL    HW125904   6.558   5.315   6.410
 8335SOL    HW225905   6.579   5.395   6.269
 8336SOL     OW25906   6.460   6.940   2.972
 8336SOL    HW125907   6.459   6.898   3.063
 8336SOL    HW225908   6.367   6.965   2.946
 8337SOL     OW25909   0.829   6.190   3.348
 8337SOL    HW125910   0.811   6.289   3.352
 8337SOL    HW225911   0.879   6.169   3.265
 8338SOL     OW25912   2.024   5.219   1.820
 8338SOL    HW125913   2.115   5.253   1.796
 8338SOL    HW225914   1.987   5.165   1.744
 8339SOL     OW25915   5.913   0.251   2.100
 8339SOL    HW125916   5.944   0.201   2.181
 8339SOL    HW225917   5.963   0.219   2.020
 8340SOL     OW25918   5.211   3.559   1.514
 8340SOL    HW125919   5.117   3.573   1.548
 8340SOL    HW225920   5.209   3.541   1.416
 8341SOL     OW25921   2.167   6.697   6.605
 8341SOL    HW125922   2.185   6.664   6.512
 8341SOL    HW225923   2.247   6.683   6.662
 8342SOL     OW25924   3.818   0.349   1.595
 8342SOL    HW125925   3.823   0.254   1.626
 8342SOL    HW225926   3.868   0.359   1.509
 8343SOL     OW25927   1.152   5.133   6.169
 8343SOL    HW125928   1.144   5.092   6.079
 8343SOL    HW225929   1.176   5.230   6.160
 8344SOL     OW25930   4.405   0.497   5.153
 8344SOL    HW125931   4.357   0.482   5.066
 8344SOL    HW225932   4.447   0.587   5.152
 8345SOL     OW25933   4.988   1.571   3.834
 8345SOL    HW125934   5.047   1.619   3.899
 8345SOL    HW225935   4.897   1.558   3.874
 8346SOL     OW25936   2.165   4.647   0.260
 8346SOL    HW125937   2.242   4.708   0.243
 8346SOL    HW225938   2.196   4.552   0.255
 8347SOL     OW25939   3.890   5.433   4.527
 8347SOL    HW125940   3.925   5.457   4.618
 8347SOL    HW225941   3.955   5.461   4.457
 8348SOL     OW25942   1.284   6.861   2.213
 8348SOL    HW125943   1.209   6.924   2.234
 8348SOL    HW225944   1.305   6.866   2.115
 8349SOL     OW25945   6.442   6.177   1.574
 8349SOL    HW125946   6.442   6.151   1.670
 8349SOL    HW225947   6.370   6.128   1.525
 8350SOL     OW25948   4.831   0.961   5.001
 8350SOL    HW125949   4.744   0.912   4.998
 8350SOL    HW225950   4.859   0.984   4.907
 8351SOL     OW25951   4.752   5.045   4.181
 8351SOL    HW125952   4.660   5.077   4.202
 8351SOL    HW225953   4.819   5.111   4.215
 8352SOL     OW25954   6.868   6.166   2.897
 8352SOL    HW125955   6.907   6.184   2.807
 8352SOL    HW225956   6.878   6.247   2.955
 8353SOL     OW25957   6.305   3.584   1.515
 8353SOL    HW125958   6.339   3.637   1.592
 8353SOL    HW225959   6.382   3.542   1.466
 8354SOL     OW25960   3.880   0.340   6.850
 8354SOL    HW125961   3.929   0.428   6.844
 8354SOL    HW225962   3.896   0.300   6.940
 8355SOL     OW25963   2.831   0.162   0.252
 8355SOL    HW125964   2.787   0.100   0.188
 8355SOL    HW225965   2.924   0.182   0.221
 8356SOL     OW25966   1.856   6.496   1.147
 8356SOL    HW125967   1.876   6.427   1.217
 8356SOL    HW225968   1.760   6.525   1.156
 8357SOL     OW25969   3.882   0.429   5.871
 8357SOL    HW125970   3.891   0.388   5.961
 8357SOL    HW225971   3.802   0.392   5.824
 8358SOL     OW25972   0.913   3.497   5.609
 8358SOL    HW125973   0.881   3.473   5.517
 8358SOL    HW225974   0.883   3.427   5.674
 8359SOL     OW25975   2.969   6.328   4.467
 8359SOL    HW125976   2.890   6.388   4.451
 8359SOL    HW225977   2.938   6.233   4.473
 8360SOL     OW25978   3.731   5.881   0.969
 8360SOL    HW125979   3.735   5.781   0.977
 8360SOL    HW225980   3.820   5.916   0.942
 8361SOL     OW25981   2.346   0.435   2.753
 8361SOL    HW125982   2.441   0.437   2.720
 8361SOL    HW225983   2.301   0.522   2.732
 8362SOL     OW25984   2.863   1.817   0.548
 8362SOL    HW125985   2.770   1.853   0.537
 8362SOL    HW225986   2.875   1.785   0.642
 8363SOL     OW25987   0.713   2.668   0.086
 8363SOL    HW125988   0.660   2.653   0.169
 8363SOL    HW225989   0.770   2.588   0.069
 8364SOL     OW25990   6.151   2.766   2.692
 8364SOL    HW125991   6.082   2.700   2.722
 8364SOL    HW225992   6.215   2.721   2.630
 8365SOL     OW25993   1.801   4.439   1.904
 8365SOL    HW125994   1.871   4.495   1.860
 8365SOL    HW225995   1.719   4.437   1.847
 8366SOL     OW25996   2.937   5.765   2.232
 8366SOL    HW125997   3.035   5.745   2.229
 8366SOL    HW225998   2.923   5.864   2.233
 8367SOL     OW25999   4.043   6.039   3.890
 8367SOL    HW126000   4.065   5.963   3.951
 8367SOL    HW226001   4.014   6.118   3.944
 8368SOL     OW26002   2.008   6.602   5.813
 8368SOL    HW126003   2.103   6.595   5.842
 8368SOL    HW226004   2.004   6.625   5.716
 8369SOL     OW26005   1.810   6.820   6.949
 8369SOL    HW126006   1.762   6.879   6.884
 8369SOL    HW226007   1.889   6.779   6.905
 8370SOL     OW26008   2.489   2.090   5.617
 8370SOL    HW126009   2.548   2.104   5.538
 8370SOL    HW226010   2.506   1.999   5.655
 8371SOL     OW26011   1.885   4.362   1.394
 8371SOL    HW126012   1.810   4.350   1.459
 8371SOL    HW226013   1.889   4.283   1.332
 8372SOL     OW26014   0.377   5.828   2.179
 8372SOL    HW126015   0.376   5.923   2.212
 8372SOL    HW226016   0.396   5.767   2.255
 8373SOL     OW26017   1.219   0.657   3.814
 8373SOL    HW126018   1.303   0.709   3.827
 8373SOL    HW226019   1.241   0.568   3.773
 8374SOL     OW26020   6.692   0.853   6.239
 8374SOL    HW126021   6.674   0.933   6.297
 8374SOL    HW226022   6.605   0.812   6.211
 8375SOL     OW26023   3.233   0.114   6.359
 8375SOL    HW126024   3.318   0.164   6.375
 8375SOL    HW226025   3.207   0.065   6.442
 8376SOL     OW26026   1.980   0.825   4.435
 8376SOL    HW126027   2.047   0.841   4.362
 8376SOL    HW226028   2.028   0.824   4.523
 8377SOL     OW26029   5.757   5.640   1.379
 8377SOL    HW126030   5.785   5.612   1.470
 8377SOL    HW226031   5.820   5.709   1.344
 8378SOL     OW26032   4.657   4.990   3.313
 8378SOL    HW126033   4.565   4.955   3.301
 8378SOL    HW226034   4.654   5.084   3.347
 8379SOL     OW26035   6.361   2.244   1.117
 8379SOL    HW126036   6.437   2.182   1.097
 8379SOL    HW226037   6.397   2.327   1.160
 8380SOL     OW26038   6.737   1.492   2.602
 8380SOL    HW126039   6.787   1.431   2.541
 8380SOL    HW226040   6.676   1.439   2.661
 8381SOL     OW26041   0.585   4.096   4.763
 8381SOL    HW126042   0.574   4.174   4.701
 8381SOL    HW226043   0.682   4.073   4.770
 8382SOL     OW26044   1.403   0.651   1.831
 8382SOL    HW126045   1.334   0.590   1.792
 8382SOL    HW226046   1.473   0.669   1.762
 8383SOL     OW26047   2.757   0.132   5.934
 8383SOL    HW126048   2.731   0.038   5.910
 8383SOL    HW226049   2.774   0.137   6.032
 8384SOL     OW26050   0.221   6.956   0.617
 8384SOL    HW126051   0.309   6.975   0.574
 8384SOL    HW226052   0.175   0.027   0.639
 8385SOL     OW26053   5.914   2.317   1.514
 8385SOL    HW126054   5.849   2.391   1.528
 8385SOL    HW226055   5.914   2.291   1.417
 8386SOL     OW26056   0.758   4.164   2.402
 8386SOL    HW126057   0.831   4.231   2.391
 8386SOL    HW226058   0.783   4.099   2.474
 8387SOL     OW26059   0.831   1.181   1.839
 8387SOL    HW126060   0.931   1.170   1.832
 8387SOL    HW226061   0.791   1.096   1.874
 8388SOL     OW26062   1.725   6.533   0.505
 8388SOL    HW126063   1.773   6.474   0.440
 8388SOL    HW226064   1.760   6.517   0.597
 8389SOL     OW26065   6.119   4.003   2.834
 8389SOL    HW126066   6.117   4.044   2.925
 8389SOL    HW226067   6.185   4.052   2.777
 8390SOL     OW26068   4.083   1.143   6.073
 8390SOL    HW126069   4.051   1.057   6.033
 8390SOL    HW226070   4.175   1.163   6.040
 8391SOL     OW26071   6.241   5.338   0.015
 8391SOL    HW126072   6.193   5.252   0.032
 8391SOL    HW226073   6.176   5.407   6.997
 8392SOL     OW26074   6.927   3.800   3.711
 8392SOL    HW126075   6.953   3.705   3.693
 8392SOL    HW226076   6.973   3.860   3.646
 8393SOL     OW26077   6.084   1.095   2.507
 8393SOL    HW126078   6.043   1.152   2.436
 8393SOL    HW226079   6.129   1.152   2.575
 8394SOL     OW26080   6.007   2.935   1.435
 8394SOL    HW126081   5.992   3.008   1.501
 8394SOL    HW226082   5.979   2.847   1.474
 8395SOL     OW26083   3.039   6.775   5.651
 8395SOL    HW126084   3.047   6.873   5.672
 8395SOL    HW226085   3.016   6.725   5.735
 8396SOL     OW26086   5.158   4.705   3.438
 8396SOL    HW126087   5.187   4.799   3.418
 8396SOL    HW226088   5.139   4.696   3.535
 8397SOL     OW26089   1.068   1.034   3.086
 8397SOL    HW126090   1.102   0.955   3.137
 8397SOL    HW226091   0.974   1.054   3.113
 8398SOL     OW26092   4.592   2.836   6.045
 8398SOL    HW126093   4.545   2.787   5.971
 8398SOL    HW226094   4.621   2.926   6.013
 8399SOL     OW26095   6.269   6.475   6.584
 8399SOL    HW126096   6.241   6.523   6.667
 8399SOL    HW226097   6.362   6.439   6.595
 8400SOL     OW26098   2.037   2.439   3.783
 8400SOL    HW126099   1.973   2.367   3.808
 8400SOL    HW226100   2.129   2.416   3.816
 8401SOL     OW26101   1.819   1.540   5.322
 8401SOL    HW126102   1.844   1.444   5.309
 8401SOL    HW226103   1.780   1.553   5.413
 8402SOL     OW26104   5.587   1.529   6.281
 8402SOL    HW126105   5.636   1.520   6.368
 8402SOL    HW226106   5.559   1.624   6.269
 8403SOL     OW26107   0.412   3.325   4.091
 8403SOL    HW126108   0.478   3.252   4.109
 8403SOL    HW226109   0.327   3.285   4.056
 8404SOL     OW26110   3.750   7.000   5.728
 8404SOL    HW126111   3.767   0.082   5.746
 8404SOL    HW226112   3.701   6.960   5.806
 8405SOL     OW26113   2.998   1.486   5.705
 8405SOL    HW126114   2.970   1.454   5.796
 8405SOL    HW226115   3.014   1.585   5.708
 8406SOL     OW26116   4.221   0.364   0.366
 8406SOL    HW126117   4.132   0.332   0.400
 8406SOL    HW226118   4.294   0.316   0.415
 8407SOL     OW26119   4.172   6.345   3.555
 8407SOL    HW126120   4.223   6.361   3.470
 8407SOL    HW226121   4.130   6.254   3.552
 8408SOL     OW26122   5.278   4.849   1.111
 8408SOL    HW126123   5.284   4.767   1.055
 8408SOL    HW226124   5.359   4.905   1.096
 8409SOL     OW26125   4.738   2.339   2.092
 8409SOL    HW126126   4.788   2.358   2.008
 8409SOL    HW226127   4.802   2.340   2.170
 8410SOL     OW26128   6.294   1.499   1.853
 8410SOL    HW126129   6.375   1.488   1.795
 8410SOL    HW226130   6.299   1.586   1.902
 8411SOL     OW26131   0.375   5.907   1.052
 8411SOL    HW126132   0.423   5.819   1.059
 8411SOL    HW226133   0.366   5.932   0.955
 8412SOL     OW26134   3.518   2.416   1.040
 8412SOL    HW126135   3.427   2.412   1.081
 8412SOL    HW226136   3.509   2.431   0.941
 8413SOL     OW26137   4.769   5.750   5.992
 8413SOL    HW126138   4.800   5.810   6.066
 8413SOL    HW226139   4.773   5.655   6.023
 8414SOL     OW26140   2.500   0.632   3.643
 8414SOL    HW126141   2.422   0.652   3.583
 8414SOL    HW226142   2.514   0.534   3.647
 8415SOL     OW26143   1.330   6.633   4.332
 8415SOL    HW126144   1.284   6.708   4.379
 8415SOL    HW226145   1.323   6.550   4.386
 8416SOL     OW26146   6.425   1.516   4.531
 8416SOL    HW126147   6.412   1.610   4.563
 8416SOL    HW226148   6.347   1.489   4.475
 8417SOL     OW26149   0.669   2.924   5.409
 8417SOL    HW126150   0.766   2.909   5.427
 8417SOL    HW226151   0.618   2.840   5.428
 8418SOL     OW26152   0.160   5.606   1.795
 8418SOL    HW126153   0.071   5.562   1.784
 8418SOL    HW226154   0.149   5.691   1.845
 8419SOL     OW26155   5.411   0.833   2.265
 8419SOL    HW126156   5.420   0.736   2.288
 8419SOL    HW226157   5.464   0.853   2.183
 8420SOL     OW26158   3.611   6.775   1.728
 8420SOL    HW126159   3.709   6.758   1.732
 8420SOL    HW226160   3.579   6.770   1.633
 8421SOL     OW26161   3.729   4.181   7.000
 8421SOL    HW126162   3.726   4.205   0.081
 8421SOL    HW226163   3.644   4.210   6.955
 8422SOL     OW26164   4.254   1.284   2.080
 8422SOL    HW126165   4.210   1.198   2.056
 8422SOL    HW226166   4.322   1.268   2.151
 8423SOL     OW26167   4.371   4.225   5.830
 8423SOL    HW126168   4.285   4.261   5.793
 8423SOL    HW226169   4.396   4.141   5.780
 8424SOL     OW26170   1.892   2.541   3.097
 8424SOL    HW126171   1.850   2.612   3.154
 8424SOL    HW226172   1.827   2.467   3.083
 8425SOL     OW26173   4.165   3.483   4.780
 8425SOL    HW126174   4.102   3.558   4.796
 8425SOL    HW226175   4.258   3.512   4.802
 8426SOL     OW26176   3.364   3.286   2.732
 8426SOL    HW126177   3.304   3.257   2.806
 8426SOL    HW226178   3.368   3.215   2.662
 8427SOL     OW26179   3.141   3.915   3.781
 8427SOL    HW126180   3.158   4.008   3.748
 8427SOL    HW226181   3.191   3.850   3.724
 8428SOL     OW26182   0.460   6.542   1.885
 8428SOL    HW126183   0.517   6.513   1.962
 8428SOL    HW226184   0.367   6.507   1.897
 8429SOL     OW26185   1.744   5.367   5.645
 8429SOL    HW126186   1.695   5.342   5.561
 8429SOL    HW226187   1.841   5.345   5.634
 8430SOL     OW26188   3.826   4.848   4.010
 8430SOL    HW126189   3.816   4.938   3.966
 8430SOL    HW226190   3.791   4.853   4.103
 8431SOL     OW26191   3.997   3.480   0.259
 8431SOL    HW126192   4.039   3.422   0.189
 8431SOL    HW226193   3.970   3.424   0.337
 8432SOL     OW26194   6.221   4.960   5.616
 8432SOL    HW126195   6.203   4.868   5.651
 8432SOL    HW226196   6.134   5.007   5.600
 8433SOL     OW26197   4.368   2.767   0.841
 8433SOL    HW126198   4.338   2.734   0.931
 8433SOL    HW226199   4.296   2.822   0.800
 8434SOL     OW26200   2.377   6.753   4.431
 8434SOL    HW126201   2.333   6.725   4.345
 8434SOL    HW226202   2.376   6.853   4.438
 8435SOL     OW26203   5.459   0.100   2.740
 8435SOL    HW126204   5.539   0.127   2.686
 8435SOL    HW226205   5.463   0.144   2.830
 8436SOL     OW26206   3.574   6.551   3.890
 8436SOL    HW126207   3.509   6.615   3.930
 8436SOL    HW226208   3.545   6.528   3.797
 8437SOL     OW26209   2.493   2.563   2.461
 8437SOL    HW126210   2.446   2.629   2.519
 8437SOL    HW226211   2.425   2.505   2.416
 8438SOL     OW26212   2.689   4.671   3.120
 8438SOL    HW126213   2.686   4.601   3.191
 8438SOL    HW226214   2.600   4.677   3.075
 8439SOL     OW26215   6.176   4.661   2.391
 8439SOL    HW126216   6.076   4.661   2.384
 8439SOL    HW226217   6.205   4.589   2.454
 8440SOL     OW26218   2.721   2.363   3.200
 8440SOL    HW126219   2.695   2.456   3.175
 8440SOL    HW226220   2.770   2.320   3.124
 8441SOL     OW26221   6.056   6.114   6.158
 8441SOL    HW126222   5.971   6.164   6.176
 8441SOL    HW226223   6.133   6.163   6.199
 8442SOL     OW26224   3.789   1.835   4.789
 8442SOL    HW126225   3.818   1.739   4.787
 8442SOL    HW226226   3.843   1.884   4.857
 8443SOL     OW26227   2.151   4.990   3.636
 8443SOL    HW126228   2.186   5.036   3.718
 8443SOL    HW226229   2.065   4.943   3.659
 8444SOL     OW26230   3.201   6.560   3.747
 8444SOL    HW126231   3.161   6.648   3.773
 8444SOL    HW226232   3.300   6.564   3.757
 8445SOL     OW26233   3.032   0.165   1.284
 8445SOL    HW126234   3.042   0.066   1.276
 8445SOL    HW226235   3.029   0.207   1.193
 8446SOL     OW26236   6.377   4.776   5.143
 8446SOL    HW126237   6.402   4.823   5.058
 8446SOL    HW226238   6.451   4.786   5.209
 8447SOL     OW26239   4.049   1.290   1.341
 8447SOL    HW126240   4.017   1.362   1.280
 8447SOL    HW226241   3.971   1.243   1.381
 8448SOL     OW26242   4.659   6.384   3.568
 8448SOL    HW126243   4.681   6.300   3.517
 8448SOL    HW226244   4.601   6.360   3.646
 8449SOL     OW26245   0.150   3.406   3.228
 8449SOL    HW126246   0.099   3.356   3.158
 8449SOL    HW226247   0.099   3.402   3.314
 8450SOL     OW26248   0.603   0.825   1.505
 8450SOL    HW126249   0.606   0.782   1.415
 8450SOL    HW226250   0.696   0.850   1.533
 8451SOL     OW26251   3.119   0.928   6.970
 8451SOL    HW126252   3.035   0.979   6.954
 8451SOL    HW226253   3.183   0.985   0.006
 8452SOL     OW26254   5.791   3.006   4.583
 8452SOL    HW126255   5.711   3.065   4.598
 8452SOL    HW226256   5.859   3.025   4.654
 8453SOL     OW26257   0.070   5.380   0.302
 8453SOL    HW126258   7.004   5.394   0.245
 8453SOL    HW226259   0.044   5.332   0.385
 8454SOL     OW26260   0.520   4.988   0.338
 8454SOL    HW126261   0.450   4.944   0.394
 8454SOL    HW226262   0.500   5.086   0.330
 8455SOL     OW26263   0.020   1.920   3.074
 8455SOL    HW126264   7.013   1.949   3.167
 8455SOL    HW226265   0.064   1.996   3.026
 8456SOL     OW26266   4.198   0.339   3.420
 8456SOL    HW126267   4.261   0.265   3.396
 8456SOL    HW226268   4.230   0.383   3.504
 8457SOL     OW26269   6.674   5.824   4.736
 8457SOL    HW126270   6.622   5.897   4.691
 8457SOL    HW226271   6.762   5.813   4.691
 8458SOL     OW26272   1.948   0.192   0.250
 8458SOL    HW126273   2.047   0.193   0.256
 8458SOL    HW226274   1.917   0.107   0.206
 8459SOL     OW26275   2.227   5.675   3.100
 8459SOL    HW126276   2.136   5.663   3.059
 8459SOL    HW226277   2.290   5.607   3.063
 8460SOL     OW26278   4.424   3.944   5.325
 8460SOL    HW126279   4.416   3.878   5.399
 8460SOL    HW226280   4.520   3.963   5.306
 8461SOL     OW26281   0.625   2.895   4.771
 8461SOL    HW126282   0.656   2.901   4.866
 8461SOL    HW226283   0.661   2.973   4.719
 8462SOL     OW26284   3.464   1.523   6.566
 8462SOL    HW126285   3.501   1.606   6.525
 8462SOL    HW226286   3.536   1.476   6.617
 8463SOL     OW26287   6.704   6.986   1.812
 8463SOL    HW126288   6.795   6.947   1.825
 8463SOL    HW226289   6.685   6.994   1.714
 8464SOL     OW26290   5.589   4.766   3.837
 8464SOL    HW126291   5.505   4.760   3.891
 8464SOL    HW226292   5.667   4.777   3.898
 8465SOL     OW26293   1.359   2.491   0.500
 8465SOL    HW126294   1.401   2.566   0.549
 8465SOL    HW226295   1.357   2.410   0.558
 8466SOL     OW26296   1.105   6.841   3.753
 8466SOL    HW126297   1.015   6.834   3.796
 8466SOL    HW226298   1.137   6.935   3.756
 8467SOL     OW26299   2.668   6.077   0.753
 8467SOL    HW126300   2.764   6.064   0.728
 8467SOL    HW226301   2.615   5.997   0.726
 8468SOL     OW26302   3.296   1.388   0.573
 8468SOL    HW126303   3.303   1.398   0.474
 8468SOL    HW226304   3.355   1.455   0.617
 8469SOL     OW26305   3.125   2.660   6.835
 8469SOL    HW126306   3.110   2.562   6.847
 8469SOL    HW226307   3.038   2.709   6.844
 8470SOL     OW26308   2.594   3.638   1.149
 8470SOL    HW126309   2.599   3.709   1.219
 8470SOL    HW226310   2.609   3.548   1.191
 8471SOL     OW26311   3.065   0.876   3.184
 8471SOL    HW126312   3.103   0.824   3.260
 8471SOL    HW226313   2.967   0.857   3.176
 8472SOL     OW26314   0.001   6.949   4.104
 8472SOL    HW126315   0.095   6.985   4.099
 8472SOL    HW226316   6.953   0.009   4.120
 8473SOL     OW26317   0.348   5.342   6.517
 8473SOL    HW126318   0.355   5.415   6.585
 8473SOL    HW226319   0.333   5.255   6.564
 8474SOL     OW26320   2.927   3.062   1.876
 8474SOL    HW126321   2.892   3.145   1.918
 8474SOL    HW226322   3.026   3.055   1.892
 8475SOL     OW26323   6.790   1.358   2.988
 8475SOL    HW126324   6.711   1.353   2.927
 8475SOL    HW226325   6.763   1.397   3.076
 8476SOL     OW26326   6.047   0.903   2.026
 8476SOL    HW126327   6.064   0.812   1.988
 8476SOL    HW226328   5.949   0.922   2.025
 8477SOL     OW26329   3.263   6.523   1.193
 8477SOL    HW126330   3.263   6.598   1.127
 8477SOL    HW226331   3.170   6.489   1.205
 8478SOL     OW26332   0.903   0.371   5.986
 8478SOL    HW126333   0.872   0.277   5.973
 8478SOL    HW226334   0.956   0.400   5.906
 8479SOL     OW26335   5.954   1.347   0.503
 8479SOL    HW126336   5.938   1.440   0.536
 8479SOL    HW226337   5.961   1.284   0.580
 8480SOL     OW26338   3.218   0.841   1.353
 8480SOL    HW126339   3.253   0.876   1.440
 8480SOL    HW226340   3.213   0.916   1.287
 8481SOL     OW26341   4.480   1.412   3.976
 8481SOL    HW126342   4.399   1.435   4.029
 8481SOL    HW226343   4.515   1.323   4.004
 8482SOL     OW26344   2.371   0.393   2.154
 8482SOL    HW126345   2.437   0.322   2.131
 8482SOL    HW226346   2.417   0.466   2.204
 8483SOL     OW26347   3.818   6.215   1.720
 8483SOL    HW126348   3.900   6.236   1.773
 8483SOL    HW226349   3.843   6.202   1.624
 8484SOL     OW26350   6.686   4.853   3.191
 8484SOL    HW126351   6.786   4.857   3.179
 8484SOL    HW226352   6.645   4.937   3.155
 8485SOL     OW26353   1.905   3.501   6.682
 8485SOL    HW126354   1.824   3.529   6.734
 8485SOL    HW226355   1.879   3.441   6.607
 8486SOL     OW26356   4.951   1.269   3.140
 8486SOL    HW126357   4.885   1.198   3.165
 8486SOL    HW226358   4.986   1.252   3.048
 8487SOL     OW26359   5.617   6.758   0.775
 8487SOL    HW126360   5.559   6.704   0.714
 8487SOL    HW226361   5.713   6.738   0.755
 8488SOL     OW26362   6.022   5.136   5.558
 8488SOL    HW126363   5.958   5.211   5.546
 8488SOL    HW226364   5.986   5.053   5.515
 8489SOL     OW26365   6.380   0.014   1.427
 8489SOL    HW126366   6.315   0.089   1.436
 8489SOL    HW226367   6.379   6.996   1.333
 8490SOL     OW26368   4.492   6.246   3.773
 8490SOL    HW126369   4.444   6.159   3.782
 8490SOL    HW226370   4.464   6.307   3.847
 8491SOL     OW26371   2.538   0.793   1.520
 8491SOL    HW126372   2.556   0.704   1.562
 8491SOL    HW226373   2.584   0.799   1.432
 8492SOL     OW26374   4.699   3.998   6.198
 8492SOL    HW126375   4.721   3.982   6.102
 8492SOL    HW226376   4.783   4.008   6.250
 8493SOL     OW26377   3.584   1.704   6.983
 8493SOL    HW126378   3.533   1.730   0.050
 8493SOL    HW226379   3.569   1.608   6.963
 8494SOL     OW26380   1.984   4.560   6.432
 8494SOL    HW126381   1.975   4.468   6.393
 8494SOL    HW226382   1.903   4.581   6.488
 8495SOL     OW26383   6.830   3.326   0.465
 8495SOL    HW126384   6.776   3.396   0.417
 8495SOL    HW226385   6.908   3.300   0.408
 8496SOL     OW26386   0.312   1.902   2.566
 8496SOL    HW126387   0.272   1.993   2.558
 8496SOL    HW226388   0.386   1.904   2.634
 8497SOL     OW26389   5.405   6.755   4.218
 8497SOL    HW126390   5.372   6.759   4.123
 8497SOL    HW226391   5.398   6.846   4.259
 8498SOL     OW26392   0.538   6.484   2.221
 8498SOL    HW126393   0.518   6.436   2.306
 8498SOL    HW226394   0.619   6.443   2.178
 8499SOL     OW26395   2.463   5.607   6.455
 8499SOL    HW126396   2.501   5.593   6.364
 8499SOL    HW226397   2.522   5.669   6.506
 8500SOL     OW26398   1.932   0.645   5.638
 8500SOL    HW126399   1.863   0.668   5.706
 8500SOL    HW226400   2.023   0.654   5.678
 8501SOL     OW26401   1.455   2.459   7.011
 8501SOL    HW126402   1.399   2.452   0.078
 8501SOL    HW226403   1.396   2.451   6.930
 8502SOL     OW26404   1.379   5.044   1.481
 8502SOL    HW126405   1.391   4.946   1.496
 8502SOL    HW226406   1.419   5.095   1.557
 8503SOL     OW26407   1.176   5.286   2.842
 8503SOL    HW126408   1.199   5.206   2.897
 8503SOL    HW226409   1.245   5.298   2.771
 8504SOL     OW26410   1.629   6.481   3.481
 8504SOL    HW126411   1.530   6.466   3.481
 8504SOL    HW226412   1.659   6.503   3.574
 8505SOL     OW26413   5.081   4.124   3.418
 8505SOL    HW126414   5.100   4.026   3.423
 8505SOL    HW226415   4.982   4.138   3.408
 8506SOL     OW26416   0.761   6.916   0.885
 8506SOL    HW126417   0.684   6.929   0.947
 8506SOL    HW226418   0.767   6.994   0.823
 8507SOL     OW26419   2.334   0.421   5.311
 8507SOL    HW126420   2.419   0.407   5.363
 8507SOL    HW226421   2.261   0.365   5.350
 8508SOL     OW26422   6.884   2.709   4.765
 8508SOL    HW126423   6.931   2.676   4.846
 8508SOL    HW226424   6.941   2.776   4.718
 8509SOL     OW26425   6.104   1.637   4.398
 8509SOL    HW126426   6.083   1.705   4.328
 8509SOL    HW226427   6.020   1.608   4.443
 8510SOL     OW26428   5.937   4.532   2.878
 8510SOL    HW126429   5.915   4.498   2.786
 8510SOL    HW226430   5.853   4.560   2.924
 8511SOL     OW26431   5.348   4.634   1.919
 8511SOL    HW126432   5.336   4.577   1.838
 8511SOL    HW226433   5.294   4.597   1.994
 8512SOL     OW26434   3.955   2.274   0.191
 8512SOL    HW126435   3.890   2.266   0.266
 8512SOL    HW226436   3.978   2.183   0.157
 8513SOL     OW26437   4.812   4.024   1.237
 8513SOL    HW126438   4.777   3.969   1.313
 8513SOL    HW226439   4.765   3.998   1.153
 8514SOL     OW26440   2.294   2.741   3.287
 8514SOL    HW126441   2.247   2.656   3.264
 8514SOL    HW226442   2.278   2.808   3.214
 8515SOL     OW26443   0.208   1.265   6.741
 8515SOL    HW126444   0.157   1.347   6.769
 8515SOL    HW226445   0.257   1.228   6.820
 8516SOL     OW26446   6.453   2.904   1.468
 8516SOL    HW126447   6.443   2.897   1.568
 8516SOL    HW226448   6.369   2.872   1.424
 8517SOL     OW26449   2.202   2.380   5.840
 8517SOL    HW126450   2.266   2.356   5.766
 8517SOL    HW226451   2.246   2.363   5.928
 8518SOL     OW26452   5.013   4.027   6.135
 8518SOL    HW126453   4.949   3.992   6.067
 8518SOL    HW226454   5.018   3.964   6.212
 8519SOL     OW26455   0.897   5.195   0.702
 8519SOL    HW126456   0.838   5.178   0.623
 8519SOL    HW226457   0.883   5.122   0.769
 8520SOL     OW26458   3.079   2.817   5.960
 8520SOL    HW126459   3.101   2.724   5.990
 8520SOL    HW226460   3.069   2.819   5.861
 8521SOL     OW26461   2.310   5.863   5.486
 8521SOL    HW126462   2.293   5.892   5.580
 8521SOL    HW226463   2.350   5.938   5.434
 8522SOL     OW26464   0.407   0.116   1.652
 8522SOL    HW126465   0.385   0.051   1.725
 8522SOL    HW226466   0.436   0.202   1.694
 8523SOL     OW26467   2.418   6.415   6.762
 8523SOL    HW126468   2.332   6.417   6.711
 8523SOL    HW226469   2.399   6.426   6.860
 8524SOL     OW26470   0.949   3.399   4.645
 8524SOL    HW126471   1.015   3.471   4.669
 8524SOL    HW226472   0.857   3.429   4.672
 8525SOL     OW26473   5.796   4.994   1.623
 8525SOL    HW126474   5.840   4.960   1.540
 8525SOL    HW226475   5.825   5.088   1.640
 8526SOL     OW26476   3.622   6.165   0.889
 8526SOL    HW126477   3.703   6.222   0.873
 8526SOL    HW226478   3.549   6.222   0.927
 8527SOL     OW26479   3.599   0.331   6.895
 8527SOL    HW126480   3.586   0.244   6.848
 8527SOL    HW226481   3.688   0.369   6.872
 8528SOL     OW26482   3.677   1.291   0.696
 8528SOL    HW126483   3.747   1.359   0.719
 8528SOL    HW226484   3.640   1.310   0.606
 8529SOL     OW26485   1.287   0.072   0.552
 8529SOL    HW126486   1.250   0.022   0.631
 8529SOL    HW226487   1.383   0.045   0.538
 8530SOL     OW26488   3.974   3.449   5.178
 8530SOL    HW126489   4.007   3.394   5.101
 8530SOL    HW226490   3.926   3.390   5.243
 8531SOL     OW26491   6.843   5.559   2.909
 8531SOL    HW126492   6.889   5.471   2.918
 8531SOL    HW226493   6.844   5.587   2.813
 8532SOL     OW26494   4.077   5.959   4.669
 8532SOL    HW126495   4.116   5.875   4.707
 8532SOL    HW226496   4.018   6.002   4.737
 8533SOL     OW26497   1.850   6.098   0.166
 8533SOL    HW126498   1.811   6.027   0.225
 8533SOL    HW226499   1.944   6.117   0.196
 8534SOL     OW26500   4.883   2.525   3.704
 8534SOL    HW126501   4.907   2.475   3.621
 8534SOL    HW226502   4.896   2.466   3.784
 8535SOL     OW26503   5.967   1.591   3.993
 8535SOL    HW126504   6.003   1.648   3.919
 8535SOL    HW226505   5.938   1.649   4.069
 8536SOL     OW26506   0.271   1.469   5.107
 8536SOL    HW126507   0.264   1.394   5.041
 8536SOL    HW226508   0.363   1.473   5.144
 8537SOL     OW26509   5.331   1.486   3.355
 8537SOL    HW126510   5.273   1.474   3.436
 8537SOL    HW226511   5.274   1.487   3.273
 8538SOL     OW26512   2.028   1.267   6.890
 8538SOL    HW126513   2.070   1.199   6.829
 8538SOL    HW226514   2.037   1.237   6.985
 8539SOL     OW26515   6.410   1.746   2.292
 8539SOL    HW126516   6.366   1.819   2.344
 8539SOL    HW226517   6.460   1.687   2.355
 8540SOL     OW26518   5.781   0.045   6.682
 8540SOL    HW126519   5.763   6.972   6.727
 8540SOL    HW226520   5.724   0.053   6.600
 8541SOL     OW26521   3.760   2.012   3.646
 8541SOL    HW126522   3.773   2.094   3.591
 8541SOL    HW226523   3.698   1.949   3.599
 8542SOL     OW26524   3.534   4.821   6.544
 8542SOL    HW126525   3.553   4.723   6.547
 8542SOL    HW226526   3.449   4.836   6.493
 8543SOL     OW26527   1.978   1.607   1.500
 8543SOL    HW126528   2.017   1.578   1.413
 8543SOL    HW226529   1.878   1.613   1.492
 8544SOL     OW26530   5.447   3.743   4.248
 8544SOL    HW126531   5.407   3.834   4.257
 8544SOL    HW226532   5.375   3.674   4.250
 8545SOL     OW26533   4.293   0.386   5.949
 8545SOL    HW126534   4.344   0.370   6.034
 8545SOL    HW226535   4.262   0.299   5.911
 8546SOL     OW26536   5.954   2.041   4.069
 8546SOL    HW126537   5.956   2.124   4.125
 8546SOL    HW226538   5.870   2.041   4.014
 8547SOL     OW26539   0.544   6.601   5.553
 8547SOL    HW126540   0.602   6.548   5.490
 8547SOL    HW226541   0.601   6.665   5.604
 8548SOL     OW26542   5.873   2.759   5.439
 8548SOL    HW126543   5.851   2.679   5.495
 8548SOL    HW226544   5.790   2.790   5.392
 8549SOL     OW26545   0.652   3.541   3.846
 8549SOL    HW126546   0.674   3.569   3.752
 8549SOL    HW226547   0.558   3.507   3.849
 8550SOL     OW26548   2.314   4.383   6.370
 8550SOL    HW126549   2.224   4.342   6.382
 8550SOL    HW226550   2.320   4.424   6.279
 8551SOL     OW26551   3.590   3.617   6.243
 8551SOL    HW126552   3.547   3.692   6.293
 8551SOL    HW226553   3.654   3.655   6.175
 8552SOL     OW26554   2.380   6.530   4.090
 8552SOL    HW126555   2.316   6.604   4.110
 8552SOL    HW226556   2.349   6.481   4.008
 8553SOL     OW26557   5.350   5.171   6.284
 8553SOL    HW126558   5.382   5.252   6.235
 8553SOL    HW226559   5.381   5.175   6.379
 8554SOL     OW26560   0.754   5.060   0.475
 8554SOL    HW126561   0.673   5.020   0.431
 8554SOL    HW226562   0.836   5.028   0.428
 8555SOL     OW26563   0.660   0.115   3.108
 8555SOL    HW126564   0.692   0.092   3.200
 8555SOL    HW226565   0.663   0.214   3.096
 8556SOL     OW26566   0.989   0.141   3.858
 8556SOL    HW126567   0.967   0.047   3.886
 8556SOL    HW226568   1.087   0.147   3.838
 8557SOL     OW26569   6.748   1.403   2.062
 8557SOL    HW126570   6.826   1.340   2.055
 8557SOL    HW226571   6.667   1.360   2.022
 8558SOL     OW26572   2.604   5.727   2.941
 8558SOL    HW126573   2.560   5.816   2.954
 8558SOL    HW226574   2.587   5.669   3.021
 8559SOL     OW26575   6.149   0.597   2.143
 8559SOL    HW126576   6.248   0.599   2.137
 8559SOL    HW226577   6.120   0.617   2.237
 8560SOL     OW26578   6.603   0.139   1.141
 8560SOL    HW126579   6.669   0.066   1.129
 8560SOL    HW226580   6.648   0.220   1.179
 8561SOL     OW26581   3.373   6.322   2.028
 8561SOL    HW126582   3.278   6.312   1.999
 8561SOL    HW226583   3.423   6.238   2.008
 8562SOL     OW26584   4.996   6.560   5.086
 8562SOL    HW126585   5.043   6.559   5.175
 8562SOL    HW226586   4.910   6.610   5.094
 8563SOL     OW26587   2.706   3.328   0.063
 8563SOL    HW126588   2.649   3.284   0.133
 8563SOL    HW226589   2.743   3.413   0.098
 8564SOL     OW26590   2.541   0.737   3.885
 8564SOL    HW126591   2.511   0.685   3.806
 8564SOL    HW226592   2.503   0.829   3.881
 8565SOL     OW26593   4.603   6.768   1.274
 8565SOL    HW126594   4.614   6.717   1.359
 8565SOL    HW226595   4.517   6.819   1.277
 8566SOL     OW26596   1.119   0.988   2.105
 8566SOL    HW126597   1.073   1.070   2.140
 8566SOL    HW226598   1.064   0.907   2.127
 8567SOL     OW26599   0.138   1.835   1.661
 8567SOL    HW126600   0.198   1.755   1.652
 8567SOL    HW226601   0.080   1.824   1.742
 8568SOL     OW26602   4.584   0.731   6.281
 8568SOL    HW126603   4.540   0.804   6.333
 8568SOL    HW226604   4.543   0.725   6.190
 8569SOL     OW26605   5.229   1.504   5.880
 8569SOL    HW126606   5.255   1.513   5.976
 8569SOL    HW226607   5.300   1.453   5.831
 8570SOL     OW26608   0.997   2.240   5.926
 8570SOL    HW126609   0.935   2.162   5.911
 8570SOL    HW226610   1.007   2.255   6.024
 8571SOL     OW26611   0.241   5.640   5.966
 8571SOL    HW126612   0.158   5.681   5.930
 8571SOL    HW226613   0.224   5.545   5.992
 8572SOL     OW26614   2.930   5.192   6.327
 8572SOL    HW126615   2.946   5.140   6.243
 8572SOL    HW226616   2.904   5.286   6.304
 8573SOL     OW26617   3.441   6.074   6.733
 8573SOL    HW126618   3.512   6.041   6.672
 8573SOL    HW226619   3.403   6.160   6.697
 8574SOL     OW26620   0.001   5.100   5.385
 8574SOL    HW126621   0.091   5.136   5.361
 8574SOL    HW226622   6.985   5.039   5.312
 8575SOL     OW26623   3.473   2.362   6.819
 8575SOL    HW126624   3.466   2.442   6.760
 8575SOL    HW226625   3.381   2.334   6.848
 8576SOL     OW26626   1.152   6.829   1.113
 8576SOL    HW126627   1.223   6.765   1.082
 8576SOL    HW226628   1.088   6.780   1.173
 8577SOL     OW26629   6.491   5.045   4.389
 8577SOL    HW126630   6.573   5.103   4.397
 8577SOL    HW226631   6.519   4.950   4.373
 8578SOL     OW26632   5.078   0.467   4.492
 8578SOL    HW126633   4.983   0.475   4.461
 8578SOL    HW226634   5.080   0.456   4.591
 8579SOL     OW26635   1.378   6.156   3.502
 8579SOL    HW126636   1.387   6.147   3.402
 8579SOL    HW226637   1.368   6.252   3.526
 8580SOL     OW26638   2.224   6.824   1.797
 8580SOL    HW126639   2.286   6.848   1.723
 8580SOL    HW226640   2.277   6.788   1.874
 8581SOL     OW26641   3.421   2.699   1.490
 8581SOL    HW126642   3.424   2.646   1.574
 8581SOL    HW226643   3.512   2.737   1.472
 8582SOL     OW26644   4.208   4.733   2.070
 8582SOL    HW126645   4.140   4.758   2.139
 8582SOL    HW226646   4.162   4.713   1.983
 8583SOL     OW26647   5.815   0.537   5.917
 8583SOL    HW126648   5.726   0.500   5.947
 8583SOL    HW226649   5.880   0.531   5.992
 8584SOL     OW26650   0.186   3.923   6.450
 8584SOL    HW126651   0.269   3.922   6.394
 8584SOL    HW226652   0.172   4.015   6.488
 8585SOL     OW26653   6.833   6.606   0.185
 8585SOL    HW126654   6.854   6.530   0.124
 8585SOL    HW226655   6.817   6.571   0.278
 8586SOL     OW26656   2.529   6.328   3.515
 8586SOL    HW126657   2.441   6.354   3.475
 8586SOL    HW226658   2.558   6.398   3.580
 8587SOL     OW26659   1.081   0.299   3.019
 8587SOL    HW126660   1.077   0.237   2.940
 8587SOL    HW226661   1.170   0.344   3.022
 8588SOL     OW26662   2.976   0.523   0.076
 8588SOL    HW126663   3.004   0.436   0.115
 8588SOL    HW226664   2.906   0.508   0.006
 8589SOL     OW26665   4.343   2.156   4.689
 8589SOL    HW126666   4.369   2.141   4.593
 8589SOL    HW226667   4.247   2.130   4.702
 8590SOL     OW26668   6.737   5.563   4.049
 8590SOL    HW126669   6.669   5.601   4.112
 8590SOL    HW226670   6.696   5.553   3.958
 8591SOL     OW26671   0.918   4.943   6.233
 8591SOL    HW126672   1.000   4.997   6.212
 8591SOL    HW226673   0.846   4.964   6.166
 8592SOL     OW26674   7.000   4.296   0.290
 8592SOL    HW126675   0.079   4.269   0.268
 8592SOL    HW226676   6.954   4.219   0.334
 8593SOL     OW26677   1.425   6.831   2.433
 8593SOL    HW126678   1.430   6.915   2.487
 8593SOL    HW226679   1.369   6.847   2.352
 8594SOL     OW26680   3.681   3.783   5.193
 8594SOL    HW126681   3.760   3.758   5.138
 8594SOL    HW226682   3.620   3.841   5.138
 8595SOL     OW26683   2.421   1.750   2.622
 8595SOL    HW126684   2.424   1.694   2.540
 8595SOL    HW226685   2.429   1.692   2.703
 8596SOL     OW26686   6.004   5.026   2.004
 8596SOL    HW126687   6.052   4.941   2.028
 8596SOL    HW226688   6.071   5.094   1.974
 8597SOL     OW26689   4.183   2.206   1.108
 8597SOL    HW126690   4.102   2.166   1.066
 8597SOL    HW226691   4.240   2.247   1.036
 8598SOL     OW26692   0.363   5.571   1.500
 8598SOL    HW126693   0.376   5.613   1.590
 8598SOL    HW226694   0.428   5.609   1.435
 8599SOL     OW26695   0.868   3.083   3.962
 8599SOL    HW126696   0.788   3.113   3.909
 8599SOL    HW226697   0.901   3.158   4.019
 8600SOL     OW26698   5.924   4.645   0.023
 8600SOL    HW126699   5.967   4.667   6.951
 8600SOL    HW226700   5.826   4.665   0.018
 8601SOL     OW26701   0.804   0.844   4.571
 8601SOL    HW126702   0.748   0.775   4.526
 8601SOL    HW226703   0.745   0.915   4.610
 8602SOL     OW26704   2.360   6.238   2.617
 8602SOL    HW126705   2.390   6.144   2.636
 8602SOL    HW226706   2.350   6.288   2.702
 8603SOL     OW26707   3.557   3.934   6.950
 8603SOL    HW126708   3.534   4.026   6.917
 8603SOL    HW226709   3.657   3.926   6.958
 8604SOL     OW26710   6.216   2.858   3.189
 8604SOL    HW126711   6.283   2.928   3.216
 8604SOL    HW226712   6.152   2.898   3.123
 8605SOL     OW26713   3.543   4.989   4.654
 8605SOL    HW126714   3.463   4.971   4.597
 8605SOL    HW226715   3.624   4.948   4.610
 8606SOL     OW26716   2.098   4.628   5.536
 8606SOL    HW126717   2.047   4.684   5.471
 8606SOL    HW226718   2.078   4.659   5.629
 8607SOL     OW26719   2.611   4.919   0.922
 8607SOL    HW126720   2.689   4.930   0.860
 8607SOL    HW226721   2.644   4.893   1.012
 8608SOL     OW26722   4.826   5.154   3.133
 8608SOL    HW126723   4.889   5.093   3.181
 8608SOL    HW226724   4.732   5.134   3.161
 8609SOL     OW26725   4.673   0.767   4.123
 8609SOL    HW126726   4.720   0.679   4.124
 8609SOL    HW226727   4.730   0.835   4.170
 8610SOL     OW26728   1.113   0.711   2.678
 8610SOL    HW126729   1.093   0.622   2.721
 8610SOL    HW226730   1.101   0.784   2.745
 8611SOL     OW26731   1.596   2.837   3.799
 8611SOL    HW126732   1.577   2.806   3.892
 8611SOL    HW226733   1.515   2.821   3.741
 8612SOL     OW26734   3.031   3.284   6.687
 8612SOL    HW126735   3.104   3.257   6.624
 8612SOL    HW226736   3.070   3.318   6.772
 8613SOL     OW26737   2.300   1.464   1.617
 8613SOL    HW126738   2.334   1.462   1.523
 8613SOL    HW226739   2.200   1.456   1.616
 8614SOL     OW26740   0.991   3.332   2.657
 8614SOL    HW126741   1.020   3.427   2.644
 8614SOL    HW226742   1.071   3.272   2.652
 8615SOL     OW26743   4.983   1.972   4.744
 8615SOL    HW126744   4.898   1.930   4.711
 8615SOL    HW226745   4.999   1.944   4.839
 8616SOL     OW26746   1.279   5.549   1.150
 8616SOL    HW126747   1.290   5.624   1.215
 8616SOL    HW226748   1.367   5.529   1.106
 8617SOL     OW26749   5.838   0.974   0.301
 8617SOL    HW126750   5.854   0.936   0.209
 8617SOL    HW226751   5.891   0.922   0.368
 8618SOL     OW26752   4.977   6.874   0.970
 8618SOL    HW126753   5.014   6.959   1.006
 8618SOL    HW226754   5.046   6.830   0.912
 8619SOL     OW26755   3.541   5.323   0.957
 8619SOL    HW126756   3.587   5.375   1.029
 8619SOL    HW226757   3.543   5.226   0.980
 8620SOL     OW26758   5.687   6.884   3.313
 8620SOL    HW126759   5.785   6.882   3.333
 8620SOL    HW226760   5.654   6.978   3.319
 8621SOL     OW26761   5.953   1.750   3.548
 8621SOL    HW126762   5.896   1.672   3.574
 8621SOL    HW226763   5.950   1.761   3.448
 8622SOL     OW26764   4.457   4.717   0.666
 8622SOL    HW126765   4.520   4.751   0.597
 8622SOL    HW226766   4.434   4.622   0.646
 8623SOL     OW26767   0.220   4.210   2.841
 8623SOL    HW126768   0.246   4.162   2.925
 8623SOL    HW226769   0.242   4.307   2.850
 8624SOL     OW26770   1.015   4.717   3.693
 8624SOL    HW126771   1.005   4.619   3.707
 8624SOL    HW226772   1.112   4.739   3.680
 8625SOL     OW26773   4.795   0.481   4.450
 8625SOL    HW126774   4.796   0.546   4.373
 8625SOL    HW226775   4.704   0.481   4.491
 8626SOL     OW26776   3.600   2.847   4.985
 8626SOL    HW126777   3.615   2.877   5.079
 8626SOL    HW226778   3.502   2.840   4.967
 8627SOL     OW26779   1.058   0.441   2.706
 8627SOL    HW126780   1.139   0.385   2.719
 8627SOL    HW226781   1.007   0.408   2.626
 8628SOL     OW26782   6.400   6.638   1.619
 8628SOL    HW126783   6.382   6.736   1.630
 8628SOL    HW226784   6.448   6.623   1.532
 8629SOL     OW26785   1.611   5.613   4.528
 8629SOL    HW126786   1.625   5.516   4.546
 8629SOL    HW226787   1.599   5.628   4.430
 8630SOL     OW26788   5.718   4.266   4.441
 8630SOL    HW126789   5.639   4.315   4.404
 8630SOL    HW226790   5.719   4.273   4.541
 8631SOL     OW26791   3.896   5.861   6.252
 8631SOL    HW126792   3.833   5.885   6.178
 8631SOL    HW226793   3.922   5.765   6.243
 8632SOL     OW26794   3.922   6.456   3.327
 8632SOL    HW126795   3.889   6.524   3.392
 8632SOL    HW226796   3.865   6.375   3.331
 8633SOL     OW26797   5.244   0.987   4.709
 8633SOL    HW126798   5.277   1.078   4.685
 8633SOL    HW226799   5.217   0.938   4.626
 8634SOL     OW26800   6.449   2.835   1.066
 8634SOL    HW126801   6.507   2.884   1.131
 8634SOL    HW226802   6.479   2.857   0.973
 8635SOL     OW26803   6.010   4.006   6.203
 8635SOL    HW126804   5.934   3.950   6.234
 8635SOL    HW226805   6.093   3.979   6.252
 8636SOL     OW26806   5.622   4.725   0.055
 8636SOL    HW126807   5.604   4.810   0.105
 8636SOL    HW226808   5.544   4.664   0.066
 8637SOL     OW26809   1.697   0.437   0.493
 8637SOL    HW126810   1.662   0.518   0.539
 8637SOL    HW226811   1.783   0.460   0.446
 8638SOL     OW26812   1.724   3.351   0.093
 8638SOL    HW126813   1.660   3.274   0.087
 8638SOL    HW226814   1.796   3.339   0.024
 8639SOL     OW26815   5.956   2.686   1.742
 8639SOL    HW126816   5.992   2.649   1.657
 8639SOL    HW226817   5.857   2.670   1.747
 8640SOL     OW26818   4.628   4.009   0.642
 8640SOL    HW126819   4.575   3.946   0.698
 8640SOL    HW226820   4.689   4.062   0.700
 8641SOL     OW26821   6.948   4.099   4.505
 8641SOL    HW126822   6.946   4.112   4.604
 8641SOL    HW226823   0.001   4.030   4.481
 8642SOL     OW26824   4.161   0.734   2.485
 8642SOL    HW126825   4.161   0.684   2.572
 8642SOL    HW226826   4.127   0.675   2.412
 8643SOL     OW26827   4.050   7.010   0.297
 8643SOL    HW126828   4.048   0.086   0.337
 8643SOL    HW226829   4.015   6.944   0.364
 8644SOL     OW26830   4.529   2.463   5.486
 8644SOL    HW126831   4.603   2.460   5.418
 8644SOL    HW226832   4.569   2.470   5.577
 8645SOL     OW26833   5.402   4.871   1.525
 8645SOL    HW126834   5.386   4.898   1.620
 8645SOL    HW226835   5.314   4.857   1.480
 8646SOL     OW26836   6.229   1.223   1.302
 8646SOL    HW126837   6.165   1.146   1.305
 8646SOL    HW226838   6.200   1.288   1.232
 8647SOL     OW26839   3.586   4.580   6.250
 8647SOL    HW126840   3.558   4.605   6.158
 8647SOL    HW226841   3.684   4.596   6.262
 8648SOL     OW26842   5.642   1.581   4.698
 8648SOL    HW126843   5.611   1.486   4.693
 8648SOL    HW226844   5.562   1.642   4.694
 8649SOL     OW26845   5.691   5.053   5.906
 8649SOL    HW126846   5.678   5.087   6.000
 8649SOL    HW226847   5.662   4.958   5.901
 8650SOL     OW26848   1.321   4.702   4.514
 8650SOL    HW126849   1.283   4.670   4.428
 8650SOL    HW226850   1.396   4.766   4.496
 8651SOL     OW26851   3.903   0.623   0.279
 8651SOL    HW126852   3.997   0.636   0.308
 8651SOL    HW226853   3.877   0.527   0.290
 8652SOL     OW26854   1.555   4.364   2.915
 8652SOL    HW126855   1.646   4.400   2.933
 8652SOL    HW226856   1.531   4.380   2.819
 8653SOL     OW26857   5.698   2.317   5.895
 8653SOL    HW126858   5.782   2.369   5.880
 8653SOL    HW226859   5.630   2.375   5.939
 8654SOL     OW26860   0.970   6.446   1.850
 8654SOL    HW126861   0.952   6.353   1.818
 8654SOL    HW226862   1.069   6.459   1.860
 8655SOL     OW26863   6.040   0.908   3.919
 8655SOL    HW126864   5.973   0.836   3.938
 8655SOL    HW226865   6.096   0.881   3.841
 8656SOL     OW26866   6.570   1.306   1.025
 8656SOL    HW126867   6.569   1.307   1.125
 8656SOL    HW226868   6.600   1.395   0.991
 8657SOL     OW26869   4.469   4.797   0.104
 8657SOL    HW126870   4.379   4.762   0.079
 8657SOL    HW226871   4.527   4.722   0.135
 8658SOL     OW26872   4.994   6.005   0.223
 8658SOL    HW126873   4.957   5.912   0.229
 8658SOL    HW226874   4.962   6.048   0.139
 8659SOL     OW26875   4.681   1.241   3.374
 8659SOL    HW126876   4.590   1.270   3.403
 8659SOL    HW226877   4.733   1.321   3.344
 8660SOL     OW26878   4.904   3.702   0.669
 8660SOL    HW126879   4.939   3.794   0.650
 8660SOL    HW226880   4.923   3.678   0.764
 8661SOL     OW26881   5.421   4.069   1.760
 8661SOL    HW126882   5.463   3.985   1.726
 8661SOL    HW226883   5.491   4.140   1.768
 8662SOL     OW26884   4.844   6.162   1.757
 8662SOL    HW126885   4.873   6.068   1.743
 8662SOL    HW226886   4.924   6.220   1.773
 8663SOL     OW26887   2.547   5.813   1.232
 8663SOL    HW126888   2.529   5.823   1.134
 8663SOL    HW226889   2.643   5.793   1.247
 8664SOL     OW26890   3.644   5.447   0.730
 8664SOL    HW126891   3.593   5.400   0.802
 8664SOL    HW226892   3.583   5.509   0.681
 8665SOL     OW26893   5.438   5.728   5.192
 8665SOL    HW126894   5.445   5.701   5.288
 8665SOL    HW226895   5.503   5.802   5.173
 8666SOL     OW26896   5.417   2.416   5.172
 8666SOL    HW126897   5.509   2.406   5.209
 8666SOL    HW226898   5.355   2.452   5.242
 8667SOL     OW26899   4.535   2.267   3.045
 8667SOL    HW126900   4.627   2.232   3.027
 8667SOL    HW226901   4.478   2.257   2.963
 8668SOL     OW26902   5.197   3.075   3.334
 8668SOL    HW126903   5.165   3.165   3.305
 8668SOL    HW226904   5.127   3.007   3.314
 8669SOL     OW26905   2.766   6.950   6.748
 8669SOL    HW126906   2.839   6.882   6.741
 8669SOL    HW226907   2.692   6.925   6.685
 8670SOL     OW26908   3.728   4.498   5.565
 8670SOL    HW126909   3.641   4.469   5.604
 8670SOL    HW226910   3.715   4.525   5.469
 8671SOL     OW26911   5.756   1.487   3.864
 8671SOL    HW126912   5.678   1.542   3.893
 8671SOL    HW226913   5.835   1.508   3.922
 8672SOL     OW26914   2.151   5.804   3.832
 8672SOL    HW126915   2.159   5.850   3.744
 8672SOL    HW226916   2.213   5.725   3.834
 8673SOL     OW26917   0.264   1.564   6.566
 8673SOL    HW126918   0.337   1.504   6.532
 8673SOL    HW226919   0.243   1.539   6.661
 8674SOL     OW26920   6.688   5.890   1.520
 8674SOL    HW126921   6.660   5.882   1.615
 8674SOL    HW226922   6.634   5.828   1.464
 8675SOL     OW26923   3.352   1.837   3.938
 8675SOL    HW126924   3.299   1.903   3.884
 8675SOL    HW226925   3.449   1.859   3.931
 8676SOL     OW26926   3.978   6.791   3.040
 8676SOL    HW126927   3.943   6.703   3.074
 8676SOL    HW226928   3.931   6.815   2.955
 8677SOL     OW26929   2.410   6.082   5.358
 8677SOL    HW126930   2.408   6.109   5.261
 8677SOL    HW226931   2.505   6.071   5.387
 8678SOL     OW26932   0.147   0.289   0.763
 8678SOL    HW126933   0.175   0.369   0.710
 8678SOL    HW226934   0.188   0.292   0.854
 8679SOL     OW26935   6.374   3.194   4.758
 8679SOL    HW126936   6.390   3.215   4.854
 8679SOL    HW226937   6.282   3.157   4.747
 8680SOL     OW26938   0.533   3.852   1.410
 8680SOL    HW126939   0.515   3.754   1.412
 8680SOL    HW226940   0.495   3.892   1.327
 8681SOL     OW26941   4.606   4.808   0.393
 8681SOL    HW126942   4.536   4.855   0.448
 8681SOL    HW226943   4.564   4.730   0.347
 8682SOL     OW26944   4.345   6.580   2.019
 8682SOL    HW126945   4.387   6.495   2.051
 8682SOL    HW226946   4.247   6.579   2.041
 8683SOL     OW26947   1.476   2.758   1.907
 8683SOL    HW126948   1.408   2.785   1.839
 8683SOL    HW226949   1.543   2.831   1.917
 8684SOL     OW26950   0.348   2.883   4.742
 8684SOL    HW126951   0.447   2.895   4.745
 8684SOL    HW226952   0.304   2.969   4.718
 8685SOL     OW26953   1.250   2.351   5.880
 8685SOL    HW126954   1.154   2.325   5.896
 8685SOL    HW226955   1.309   2.274   5.903
 8686SOL     OW26956   6.287   1.584   1.510
 8686SOL    HW126957   6.294   1.542   1.419
 8686SOL    HW226958   6.191   1.605   1.530
 8687SOL     OW26959   3.681   6.081   2.752
 8687SOL    HW126960   3.634   5.994   2.737
 8687SOL    HW226961   3.772   6.078   2.710
 8688SOL     OW26962   2.692   6.273   0.386
 8688SOL    HW126963   2.693   6.296   0.289
 8688SOL    HW226964   2.784   6.288   0.424
 8689SOL     OW26965   3.653   4.744   0.242
 8689SOL    HW126966   3.603   4.696   0.314
 8689SOL    HW226967   3.652   4.842   0.260
 8690SOL     OW26968   1.607   2.633   3.535
 8690SOL    HW126969   1.697   2.675   3.548
 8690SOL    HW226970   1.537   2.704   3.543
 8691SOL     OW26971   4.479   2.465   6.314
 8691SOL    HW126972   4.530   2.431   6.235
 8691SOL    HW226973   4.397   2.410   6.327
 8692SOL     OW26974   3.725   2.012   2.662
 8692SOL    HW126975   3.807   1.971   2.621
 8692SOL    HW226976   3.650   2.009   2.597
 8693SOL     OW26977   5.412   1.454   0.933
 8693SOL    HW126978   5.398   1.513   1.012
 8693SOL    HW226979   5.494   1.398   0.946
 8694SOL     OW26980   4.554   1.381   5.829
 8694SOL    HW126981   4.623   1.452   5.813
 8694SOL    HW226982   4.522   1.387   5.924
 8695SOL     OW26983   4.542   3.101   5.983
 8695SOL    HW126984   4.477   3.087   5.908
 8695SOL    HW226985   4.606   3.174   5.958
 8696SOL     OW26986   2.863   5.928   0.957
 8696SOL    HW126987   2.922   5.865   0.908
 8696SOL    HW226988   2.876   6.021   0.922
 8697SOL     OW26989   6.409   3.281   0.669
 8697SOL    HW126990   6.310   3.272   0.661
 8697SOL    HW226991   6.433   3.377   0.680
 8698SOL     OW26992   6.154   5.754   3.840
 8698SOL    HW126993   6.152   5.740   3.742
 8698SOL    HW226994   6.242   5.722   3.877
 8699SOL     OW26995   1.379   2.669   5.331
 8699SOL    HW126996   1.394   2.765   5.308
 8699SOL    HW226997   1.299   2.660   5.390
 8700SOL     OW26998   1.999   1.384   4.786
 8700SOL    HW126999   1.959   1.436   4.861
 8700SOL    HW227000   1.966   1.420   4.699
 8701SOL     OW27001   1.419   0.339   6.809
 8701SOL    HW127002   1.452   0.297   6.725
 8701SOL    HW227003   1.448   0.283   6.887
 8702SOL     OW27004   5.752   4.854   0.536
 8702SOL    HW127005   5.669   4.872   0.587
 8702SOL    HW227006   5.829   4.903   0.577
 8703SOL     OW27007   2.649   5.452   1.106
 8703SOL    HW127008   2.698   5.514   1.168
 8703SOL    HW227009   2.712   5.421   1.034
 8704SOL     OW27010   5.960   3.457   2.487
 8704SOL    HW127011   5.964   3.425   2.393
 8704SOL    HW227012   5.872   3.430   2.528
 8705SOL     OW27013   5.152   0.620   0.849
 8705SOL    HW127014   5.053   0.612   0.863
 8705SOL    HW227015   5.188   0.693   0.907
 8706SOL     OW27016   4.695   1.936   6.176
 8706SOL    HW127017   4.621   1.891   6.226
 8706SOL    HW227018   4.656   2.002   6.112
 8707SOL     OW27019   5.474   2.069   6.798
 8707SOL    HW127020   5.535   2.079   6.876
 8707SOL    HW227021   5.527   2.049   6.716
 8708SOL     OW27022   4.129   2.213   1.951
 8708SOL    HW127023   4.179   2.131   1.978
 8708SOL    HW227024   4.037   2.211   1.990
 8709SOL     OW27025   6.945   6.093   6.159
 8709SOL    HW127026   0.010   6.095   6.220
 8709SOL    HW227027   6.885   6.018   6.186
 8710SOL     OW27028   1.988   3.802   3.184
 8710SOL    HW127029   2.059   3.765   3.124
 8710SOL    HW227030   1.911   3.835   3.129
 8711SOL     OW27031   0.061   5.736   2.579
 8711SOL    HW127032   0.089   5.828   2.605
 8711SOL    HW227033   0.036   5.734   2.483
 8712SOL     OW27034   4.245   2.285   4.195
 8712SOL    HW127035   4.260   2.267   4.097
 8712SOL    HW227036   4.252   2.383   4.212
 8713SOL     OW27037   0.627   4.475   3.707
 8713SOL    HW127038   0.563   4.398   3.713
 8713SOL    HW227039   0.606   4.529   3.626
 8714SOL     OW27040   0.437   0.945   5.884
 8714SOL    HW127041   0.340   0.927   5.869
 8714SOL    HW227042   0.478   0.982   5.801
 8715SOL     OW27043   4.964   0.085   0.763
 8715SOL    HW127044   4.927   0.147   0.832
 8715SOL    HW227045   5.064   0.088   0.767
 8716SOL     OW27046   0.846   0.560   1.414
 8716SOL    HW127047   0.760   0.599   1.383
 8716SOL    HW227048   0.836   0.461   1.425
 8717SOL     OW27049   3.871   2.917   3.124
 8717SOL    HW127050   3.860   2.920   3.024
 8717SOL    HW227051   3.897   2.824   3.151
 8718SOL     OW27052   0.457   3.323   5.741
 8718SOL    HW127053   0.379   3.353   5.796
 8718SOL    HW227054   0.523   3.398   5.733
 8719SOL     OW27055   1.951   6.890   6.453
 8719SOL    HW127056   1.981   6.808   6.405
 8719SOL    HW227057   1.898   6.948   6.391
 8720SOL     OW27058   6.474   4.970   5.473
 8720SOL    HW127059   6.395   4.925   5.514
 8720SOL    HW227060   6.504   5.045   5.532
 8721SOL     OW27061   5.819   2.226   3.634
 8721SOL    HW127062   5.801   2.143   3.687
 8721SOL    HW227063   5.892   2.208   3.568
 8722SOL     OW27064   3.631   0.570   0.582
 8722SOL    HW127065   3.651   0.627   0.662
 8722SOL    HW227066   3.572   0.620   0.519
 8723SOL     OW27067   5.576   5.655   1.111
 8723SOL    HW127068   5.489   5.689   1.145
 8723SOL    HW227069   5.624   5.605   1.183
 8724SOL     OW27070   6.154   0.043   5.302
 8724SOL    HW127071   6.205   0.002   5.378
 8724SOL    HW227072   6.208   0.117   5.262
 8725SOL     OW27073   2.458   6.809   6.716
 8725SOL    HW127074   2.386   6.805   6.786
 8725SOL    HW227075   2.453   6.897   6.668
 8726SOL     OW27076   6.365   0.866   1.900
 8726SOL    HW127077   6.450   0.885   1.850
 8726SOL    HW227078   6.320   0.952   1.924
 8727SOL     OW27079   0.354   6.751   1.727
 8727SOL    HW127080   0.390   6.674   1.779
 8727SOL    HW227081   0.372   6.836   1.776
 8728SOL     OW27082   3.913   0.109   4.488
 8728SOL    HW127083   4.012   0.115   4.475
 8728SOL    HW227084   3.894   0.075   4.580
 8729SOL     OW27085   4.541   5.958   3.382
 8729SOL    HW127086   4.447   5.991   3.373
 8729SOL    HW227087   4.547   5.894   3.459
 8730SOL     OW27088   6.499   4.221   1.896
 8730SOL    HW127089   6.464   4.246   1.987
 8730SOL    HW227090   6.559   4.142   1.905
 8731SOL     OW27091   2.031   1.620   2.800
 8731SOL    HW127092   1.955   1.569   2.760
 8731SOL    HW227093   1.998   1.707   2.837
 8732SOL     OW27094   4.870   4.402   1.897
 8732SOL    HW127095   4.969   4.397   1.907
 8732SOL    HW227096   4.832   4.310   1.888
 8733SOL     OW27097   1.448   5.749   3.238
 8733SOL    HW127098   1.511   5.773   3.312
 8733SOL    HW227099   1.460   5.812   3.161
 8734SOL     OW27100   0.837   4.907   1.798
 8734SOL    HW127101   0.817   4.895   1.895
 8734SOL    HW227102   0.912   4.846   1.771
 8735SOL     OW27103   0.836   1.652   6.689
 8735SOL    HW127104   0.880   1.613   6.608
 8735SOL    HW227105   0.894   1.725   6.726
 8736SOL     OW27106   0.649   6.512   0.012
 8736SOL    HW127107   0.748   6.509   0.026
 8736SOL    HW227108   0.628   6.577   6.954
 8737SOL     OW27109   2.876   6.674   5.876
 8737SOL    HW127110   2.862   6.576   5.868
 8737SOL    HW227111   2.948   6.693   5.942
 8738SOL     OW27112   1.831   4.581   3.460
 8738SOL    HW127113   1.907   4.565   3.523
 8738SOL    HW227114   1.744   4.570   3.509
 8739SOL     OW27115   6.537   5.161   5.670
 8739SOL    HW127116   6.453   5.215   5.668
 8739SOL    HW227117   6.566   5.149   5.765
 8740SOL     OW27118   4.950   1.222   5.268
 8740SOL    HW127119   4.902   1.134   5.277
 8740SOL    HW227120   5.019   1.215   5.196
 8741SOL     OW27121   2.553   0.906   2.435
 8741SOL    HW127122   2.498   0.839   2.486
 8741SOL    HW227123   2.495   0.981   2.405
 8742SOL     OW27124   5.813   5.989   1.574
 8742SOL    HW127125   5.717   5.962   1.573
 8742SOL    HW227126   5.864   5.934   1.507
 8743SOL     OW27127   2.273   6.635   2.551
 8743SOL    HW127128   2.274   6.733   2.528
 8743SOL    HW227129   2.190   6.614   2.601
 8744SOL     OW27130   3.860   2.592   5.984
 8744SOL    HW127131   3.771   2.573   6.025
 8744SOL    HW227132   3.893   2.509   5.938
 8745SOL     OW27133   6.097   2.470   6.196
 8745SOL    HW127134   6.195   2.464   6.178
 8745SOL    HW227135   6.049   2.398   6.145
 8746SOL     OW27136   4.389   4.208   5.405
 8746SOL    HW127137   4.412   4.122   5.359
 8746SOL    HW227138   4.315   4.191   5.470
 8747SOL     OW27139   0.321   3.275   2.901
 8747SOL    HW127140   0.234   3.274   2.852
 8747SOL    HW227141   0.385   3.336   2.854
 8748SOL     OW27142   0.064   1.426   5.986
 8748SOL    HW127143   0.058   1.326   5.985
 8748SOL    HW227144   0.004   1.462   6.057
 8749SOL     OW27145   2.953   0.091   5.532
 8749SOL    HW127146   2.958   0.038   5.448
 8749SOL    HW227147   3.017   0.053   5.599
 8750SOL     OW27148   3.125   3.104   5.168
 8750SOL    HW127149   3.222   3.114   5.144
 8750SOL    HW227150   3.083   3.195   5.174
 8751SOL     OW27151   6.429   0.203   2.523
 8751SOL    HW127152   6.404   0.153   2.606
 8751SOL    HW227153   6.512   0.256   2.539
 8752SOL     OW27154   3.045   4.143   6.646
 8752SOL    HW127155   2.948   4.134   6.626
 8752SOL    HW227156   3.098   4.089   6.581
 8753SOL     OW27157   4.956   1.622   4.615
 8753SOL    HW127158   5.048   1.590   4.635
 8753SOL    HW227159   4.897   1.606   4.694
 8754SOL     OW27160   1.452   1.808   5.919
 8754SOL    HW127161   1.455   1.796   5.820
 8754SOL    HW227162   1.373   1.760   5.956
 8755SOL     OW27163   2.257   0.982   6.401
 8755SOL    HW127164   2.322   1.045   6.444
 8755SOL    HW227165   2.279   0.973   6.304
 8756SOL     OW27166   2.137   3.690   2.993
 8756SOL    HW127167   2.109   3.596   2.973
 8756SOL    HW227168   2.217   3.714   2.939
 8757SOL     OW27169   5.438   6.528   5.603
 8757SOL    HW127170   5.399   6.606   5.554
 8757SOL    HW227171   5.403   6.443   5.563
 8758SOL     OW27172   4.819   6.078   2.082
 8758SOL    HW127173   4.843   6.062   1.986
 8758SOL    HW227174   4.722   6.057   2.095
 8759SOL     OW27175   3.969   2.340   6.462
 8759SOL    HW127176   3.985   2.373   6.555
 8759SOL    HW227177   3.980   2.241   6.460
 8760SOL     OW27178   2.159   1.729   5.224
 8760SOL    HW127179   2.060   1.740   5.236
 8760SOL    HW227180   2.207   1.773   5.299
 8761SOL     OW27181   3.963   0.729   1.405
 8761SOL    HW127182   3.924   0.759   1.492
 8761SOL    HW227183   4.061   0.713   1.416
 8762SOL     OW27184   1.137   3.499   2.961
 8762SOL    HW127185   1.101   3.485   2.869
 8762SOL    HW227186   1.093   3.436   3.024
 8763SOL     OW27187   6.094   5.744   4.849
 8763SOL    HW127188   6.064   5.693   4.768
 8763SOL    HW227189   6.145   5.683   4.910
 8764SOL     OW27190   4.977   0.715   4.237
 8764SOL    HW127191   4.917   0.644   4.202
 8764SOL    HW227192   4.936   0.805   4.222
 8765SOL     OW27193   5.987   6.982   5.091
 8765SOL    HW127194   6.057   0.005   5.152
 8765SOL    HW227195   6.021   6.897   5.051
 8766SOL     OW27196   4.009   5.099   2.823
 8766SOL    HW127197   4.005   5.101   2.724
 8766SOL    HW227198   3.941   5.034   2.858
 8767SOL     OW27199   4.184   0.417   3.146
 8767SOL    HW127200   4.219   0.399   3.237
 8767SOL    HW227201   4.260   0.429   3.082
 8768SOL     OW27202   1.320   2.867   0.219
 8768SOL    HW127203   1.339   2.884   0.316
 8768SOL    HW227204   1.388   2.802   0.183
 8769SOL     OW27205   1.244   0.334   4.622
 8769SOL    HW127206   1.236   0.400   4.548
 8769SOL    HW227207   1.291   0.376   4.699
 8770SOL     OW27208   4.973   4.307   2.165
 8770SOL    HW127209   5.053   4.249   2.150
 8770SOL    HW227210   5.000   4.403   2.161
 8771SOL     OW27211   1.496   0.746   5.375
 8771SOL    HW127212   1.586   0.751   5.332
 8771SOL    HW227213   1.505   0.770   5.472
 8772SOL     OW27214   6.191   6.611   0.218
 8772SOL    HW127215   6.288   6.622   0.240
 8772SOL    HW227216   6.160   6.520   0.247
 8773SOL     OW27217   4.810   1.902   3.513
 8773SOL    HW127218   4.903   1.927   3.487
 8773SOL    HW227219   4.811   1.858   3.602
 8774SOL     OW27220   2.380   1.421   0.402
 8774SOL    HW127221   2.368   1.470   0.315
 8774SOL    HW227222   2.444   1.346   0.389
 8775SOL     OW27223   6.308   0.503   4.522
 8775SOL    HW127224   6.290   0.406   4.538
 8775SOL    HW227225   6.229   0.544   4.477
 8776SOL     OW27226   2.907   3.552   4.678
 8776SOL    HW127227   2.912   3.563   4.777
 8776SOL    HW227228   2.875   3.638   4.637
 8777SOL     OW27229   0.067   4.299   1.135
 8777SOL    HW127230   0.030   4.392   1.138
 8777SOL    HW227231   0.148   4.298   1.075
 8778SOL     OW27232   6.647   2.381   4.446
 8778SOL    HW127233   6.652   2.290   4.487
 8778SOL    HW227234   6.709   2.443   4.495
 8779SOL     OW27235   2.328   5.323   1.780
 8779SOL    HW127236   2.319   5.227   1.753
 8779SOL    HW227237   2.359   5.329   1.875
 8780SOL     OW27238   1.466   5.630   3.796
 8780SOL    HW127239   1.435   5.709   3.742
 8780SOL    HW227240   1.420   5.548   3.764
 8781SOL     OW27241   6.562   2.273   4.220
 8781SOL    HW127242   6.588   2.331   4.297
 8781SOL    HW227243   6.644   2.247   4.168
 8782SOL     OW27244   5.281   0.634   1.764
 8782SOL    HW127245   5.211   0.564   1.754
 8782SOL    HW227246   5.283   0.692   1.682
 8783SOL     OW27247   5.848   3.498   3.666
 8783SOL    HW127248   5.869   3.416   3.614
 8783SOL    HW227249   5.932   3.548   3.687
 8784SOL     OW27250   5.047   4.343   4.932
 8784SOL    HW127251   5.059   4.282   4.853
 8784SOL    HW227252   4.954   4.333   4.968
 8785SOL     OW27253   6.139   3.441   0.099
 8785SOL    HW127254   6.221   3.389   0.075
 8785SOL    HW227255   6.161   3.538   0.105
 8786SOL     OW27256   2.763   6.373   0.125
 8786SOL    HW127257   2.850   6.324   0.116
 8786SOL    HW227258   2.781   6.465   0.159
 8787SOL     OW27259   1.668   2.620   2.041
 8787SOL    HW127260   1.592   2.663   1.993
 8787SOL    HW227261   1.634   2.569   2.120
 8788SOL     OW27262   6.606   1.917   5.572
 8788SOL    HW127263   6.582   1.821   5.589
 8788SOL    HW227264   6.598   1.937   5.475
 8789SOL     OW27265   6.371   0.075   5.737
 8789SOL    HW127266   6.367   0.091   5.836
 8789SOL    HW227267   6.333   0.155   5.689
 8790SOL     OW27268   6.928   1.159   0.298
 8790SOL    HW127269   6.909   1.233   0.362
 8790SOL    HW227270   6.845   1.140   0.244
 8791SOL     OW27271   5.480   6.888   5.274
 8791SOL    HW127272   5.411   6.943   5.227
 8791SOL    HW227273   5.569   6.902   5.231
 8792SOL     OW27274   4.042   6.328   2.906
 8792SOL    HW127275   3.946   6.354   2.901
 8792SOL    HW227276   4.067   6.306   3.000
 8793SOL     OW27277   1.977   5.595   3.763
 8793SOL    HW127278   2.046   5.667   3.774
 8793SOL    HW227279   1.886   5.633   3.782
 8794SOL     OW27280   3.870   6.733   1.744
 8794SOL    HW127281   3.929   6.685   1.680
 8794SOL    HW227282   3.913   6.734   1.835
 8795SOL     OW27283   1.318   6.783   5.082
 8795SOL    HW127284   1.336   6.686   5.100
 8795SOL    HW227285   1.398   6.824   5.038
 8796SOL     OW27286   4.043   0.727   5.243
 8796SOL    HW127287   4.010   0.667   5.170
 8796SOL    HW227288   4.131   0.693   5.277
 8797SOL     OW27289   0.859   6.847   5.157
 8797SOL    HW127290   0.812   6.814   5.239
 8797SOL    HW227291   0.835   6.789   5.079
 8798SOL     OW27292   5.250   4.534   5.267
 8798SOL    HW127293   5.295   4.513   5.180
 8798SOL    HW227294   5.273   4.627   5.294
 8799SOL     OW27295   2.113   4.797   3.145
 8799SOL    HW127296   2.131   4.851   3.228
 8799SOL    HW227297   2.133   4.701   3.163
 8800SOL     OW27298   5.882   3.719   4.821
 8800SOL    HW127299   5.915   3.749   4.731
 8800SOL    HW227300   5.902   3.789   4.889
 8801SOL     OW27301   1.912   1.495   4.550
 8801SOL    HW127302   1.879   1.459   4.463
 8801SOL    HW227303   1.834   1.521   4.607
 8802SOL     OW27304   1.144   0.383   0.798
 8802SOL    HW127305   1.142   0.366   0.700
 8802SOL    HW227306   1.239   0.377   0.831
 8803SOL     OW27307   1.458   4.878   6.018
 8803SOL    HW127308   1.408   4.802   6.061
 8803SOL    HW227309   1.482   4.945   6.088
 8804SOL     OW27310   2.731   0.831   2.048
 8804SOL    HW127311   2.694   0.747   2.008
 8804SOL    HW227312   2.817   0.854   2.004
 8805SOL     OW27313   2.554   0.596   4.234
 8805SOL    HW127314   2.608   0.618   4.316
 8805SOL    HW227315   2.615   0.569   4.160
 8806SOL     OW27316   1.752   5.318   1.822
 8806SOL    HW127317   1.850   5.303   1.814
 8806SOL    HW227318   1.720   5.288   1.913
 8807SOL     OW27319   6.648   6.231   5.957
 8807SOL    HW127320   6.711   6.266   6.027
 8807SOL    HW227321   6.698   6.170   5.895
 8808SOL     OW27322   5.581   1.765   0.936
 8808SOL    HW127323   5.548   1.859   0.952
 8808SOL    HW227324   5.535   1.703   1.000
 8809SOL     OW27325   5.312   4.164   2.689
 8809SOL    HW127326   5.322   4.258   2.723
 8809SOL    HW227327   5.399   4.135   2.648
 8810SOL     OW27328   5.593   1.519   5.502
 8810SOL    HW127329   5.507   1.504   5.453
 8810SOL    HW227330   5.597   1.459   5.582
 8811SOL     OW27331   2.557   2.069   4.004
 8811SOL    HW127332   2.619   2.140   4.038
 8811SOL    HW227333   2.501   2.034   4.080
 8812SOL     OW27334   1.272   0.744   0.574
 8812SOL    HW127335   1.356   0.784   0.538
 8812SOL    HW227336   1.233   0.681   0.507
 8813SOL     OW27337   1.010   4.602   1.556
 8813SOL    HW127338   1.025   4.700   1.573
 8813SOL    HW227339   1.031   4.550   1.639
 8814SOL     OW27340   6.293   0.822   0.709
 8814SOL    HW127341   6.373   0.788   0.660
 8814SOL    HW227342   6.307   0.918   0.733
 8815SOL     OW27343   6.891   6.219   0.733
 8815SOL    HW127344   6.949   6.146   0.768
 8815SOL    HW227345   6.870   6.200   0.637
 8816SOL     OW27346   1.784   0.150   0.671
 8816SOL    HW127347   1.828   0.212   0.737
 8816SOL    HW227348   1.853   0.118   0.605
 8817SOL     OW27349   0.382   5.918   5.768
 8817SOL    HW127350   0.441   5.840   5.750
 8817SOL    HW227351   0.416   5.998   5.719
 8818SOL     OW27352   0.435   3.568   3.476
 8818SOL    HW127353   0.352   3.577   3.531
 8818SOL    HW227354   0.434   3.635   3.402
 8819SOL     OW27355   4.296   5.405   3.998
 8819SOL    HW127356   4.284   5.337   4.070
 8819SOL    HW227357   4.348   5.365   3.923
 8820SOL     OW27358   2.463   1.963   4.260
 8820SOL    HW127359   2.465   1.875   4.308
 8820SOL    HW227360   2.454   2.037   4.327
 8821SOL     OW27361   1.670   6.233   0.505
 8821SOL    HW127362   1.693   6.308   0.566
 8821SOL    HW227363   1.738   6.228   0.432
 8822SOL     OW27364   0.964   0.435   3.244
 8822SOL    HW127365   0.868   0.436   3.273
 8822SOL    HW227366   0.972   0.385   3.158
 8823SOL     OW27367   2.056   0.808   0.986
 8823SOL    HW127368   2.154   0.799   0.998
 8823SOL    HW227369   2.009   0.756   1.058
 8824SOL     OW27370   1.926   3.765   1.019
 8824SOL    HW127371   1.949   3.712   0.937
 8824SOL    HW227372   1.828   3.759   1.037
 8825SOL     OW27373   1.971   0.837   3.606
 8825SOL    HW127374   1.939   0.819   3.699
 8825SOL    HW227375   1.905   0.897   3.560
 8826SOL     OW27376   6.383   2.285   0.518
 8826SOL    HW127377   6.386   2.235   0.604
 8826SOL    HW227378   6.367   2.382   0.537
 8827SOL     OW27379   3.346   1.775   3.025
 8827SOL    HW127380   3.253   1.738   3.030
 8827SOL    HW227381   3.343   1.869   2.993
 8828SOL     OW27382   4.610   5.585   4.259
 8828SOL    HW127383   4.603   5.485   4.268
 8828SOL    HW227384   4.693   5.607   4.208
 8829SOL     OW27385   0.285   2.577   0.106
 8829SOL    HW127386   0.210   2.546   0.165
 8829SOL    HW227387   0.286   2.524   0.022
 8830SOL     OW27388   0.564   1.603   1.007
 8830SOL    HW127389   0.611   1.603   1.095
 8830SOL    HW227390   0.469   1.573   1.020
 8831SOL     OW27391   5.282   1.153   3.488
 8831SOL    HW127392   5.218   1.229   3.498
 8831SOL    HW227393   5.314   1.148   3.394
 8832SOL     OW27394   6.066   6.142   2.702
 8832SOL    HW127395   5.979   6.169   2.744
 8832SOL    HW227396   6.140   6.153   2.768
 8833SOL     OW27397   1.942   6.327   5.561
 8833SOL    HW127398   2.027   6.290   5.524
 8833SOL    HW227399   1.915   6.275   5.642
 8834SOL     OW27400   5.212   4.008   4.482
 8834SOL    HW127401   5.201   3.913   4.509
 8834SOL    HW227402   5.212   4.014   4.382
 8835SOL     OW27403   6.201   0.684   6.040
 8835SOL    HW127404   6.223   0.588   6.022
 8835SOL    HW227405   6.182   0.731   5.954
 8836SOL     OW27406   4.502   1.085   7.012
 8836SOL    HW127407   4.421   1.115   0.048
 8836SOL    HW227408   4.544   1.163   6.966
 8837SOL     OW27409   0.562   6.830   2.600
 8837SOL    HW127410   0.570   6.920   2.643
 8837SOL    HW227411   0.483   6.829   2.539
 8838SOL     OW27412   3.083   5.027   3.100
 8838SOL    HW127413   3.101   4.954   3.035
 8838SOL    HW227414   2.985   5.031   3.120
 8839SOL     OW27415   5.280   5.545   2.087
 8839SOL    HW127416   5.331   5.578   2.008
 8839SOL    HW227417   5.184   5.533   2.062
 8840SOL     OW27418   6.466   2.509   1.955
 8840SOL    HW127419   6.481   2.603   1.987
 8840SOL    HW227420   6.492   2.445   2.027
 8841SOL     OW27421   1.465   0.950   4.811
 8841SOL    HW127422   1.565   0.956   4.815
 8841SOL    HW227423   1.436   0.861   4.844
 8842SOL     OW27424   3.768   2.841   0.634
 8842SOL    HW127425   3.689   2.787   0.607
 8842SOL    HW227426   3.740   2.912   0.698
 8843SOL     OW27427   1.814   2.936   5.160
 8843SOL    HW127428   1.901   2.952   5.207
 8843SOL    HW227429   1.816   2.982   5.071
 8844SOL     OW27430   5.405   1.196   0.140
 8844SOL    HW127431   5.465   1.275   0.129
 8844SOL    HW227432   5.443   1.134   0.208
 8845SOL     OW27433   4.624   4.376   0.012
 8845SOL    HW127434   4.549   4.415   6.973
 8845SOL    HW227435   4.709   4.380   6.974
 8846SOL     OW27436   2.008   6.049   3.938
 8846SOL    HW127437   2.058   5.963   3.923
 8846SOL    HW227438   2.072   6.120   3.966
 8847SOL     OW27439   2.570   0.840   2.959
 8847SOL    HW127440   2.473   0.859   2.975
 8847SOL    HW227441   2.579   0.766   2.893
 8848SOL     OW27442   2.651   0.835   1.264
 8848SOL    HW127443   2.595   0.849   1.182
 8848SOL    HW227444   2.748   0.842   1.239
 8849SOL     OW27445   3.271   6.352   3.081
 8849SOL    HW127446   3.215   6.382   3.158
 8849SOL    HW227447   3.213   6.312   3.011
 8850SOL     OW27448   1.219   1.936   0.071
 8850SOL    HW127449   1.164   1.876   0.129
 8850SOL    HW227450   1.224   1.897   6.994
 8851SOL     OW27451   1.703   4.299   2.234
 8851SOL    HW127452   1.694   4.264   2.327
 8851SOL    HW227453   1.764   4.239   2.182
 8852SOL     OW27454   0.887   1.955   5.072
 8852SOL    HW127455   0.956   1.980   5.005
 8852SOL    HW227456   0.884   2.024   5.144
 8853SOL     OW27457   2.756   0.956   2.279
 8853SOL    HW127458   2.764   0.900   2.197
 8853SOL    HW227459   2.679   0.923   2.334
 8854SOL     OW27460   1.965   3.133   4.530
 8854SOL    HW127461   1.974   3.135   4.630
 8854SOL    HW227462   1.989   3.222   4.493
 8855SOL     OW27463   6.384   4.786   1.588
 8855SOL    HW127464   6.311   4.837   1.633
 8855SOL    HW227465   6.450   4.850   1.549
 8856SOL     OW27466   0.039   6.165   6.889
 8856SOL    HW127467   0.007   6.250   6.848
 8856SOL    HW227468   6.976   6.109   6.916
 8857SOL     OW27469   6.619   1.714   4.843
 8857SOL    HW127470   6.628   1.749   4.749
 8857SOL    HW227471   6.655   1.620   4.847
 8858SOL     OW27472   0.077   4.775   4.803
 8858SOL    HW127473   0.090   4.808   4.709
 8858SOL    HW227474   0.034   4.685   4.801
 8859SOL     OW27475   1.139   1.001   3.762
 8859SOL    HW127476   1.103   1.070   3.825
 8859SOL    HW227477   1.079   0.921   3.763
 8860SOL     OW27478   6.785   3.003   1.567
 8860SOL    HW127479   6.702   3.047   1.599
 8860SOL    HW227480   6.792   2.912   1.608
 8861SOL     OW27481   3.715   1.194   0.347
 8861SOL    HW127482   3.746   1.281   0.386
 8861SOL    HW227483   3.770   1.120   0.384
 8862SOL     OW27484   5.203   6.237   3.703
 8862SOL    HW127485   5.120   6.282   3.737
 8862SOL    HW227486   5.267   6.306   3.670
 8863SOL     OW27487   1.802   5.197   3.242
 8863SOL    HW127488   1.718   5.202   3.295
 8863SOL    HW227489   1.877   5.165   3.301
 8864SOL     OW27490   4.743   4.106   6.815
 8864SOL    HW127491   4.718   4.193   6.771
 8864SOL    HW227492   4.671   4.039   6.800
 8865SOL     OW27493   2.888   0.785   5.498
 8865SOL    HW127494   2.841   0.826   5.420
 8865SOL    HW227495   2.965   0.844   5.525
 8866SOL     OW27496   5.024   6.769   3.077
 8866SOL    HW127497   5.053   6.674   3.084
 8866SOL    HW227498   5.037   6.814   3.165
 8867SOL     OW27499   6.402   3.734   3.697
 8867SOL    HW127500   6.358   3.747   3.786
 8867SOL    HW227501   6.404   3.821   3.647
 8868SOL     OW27502   6.709   3.819   2.433
 8868SOL    HW127503   6.725   3.913   2.404
 8868SOL    HW227504   6.751   3.805   2.523
 8869SOL     OW27505   3.854   6.002   4.932
 8869SOL    HW127506   3.758   5.978   4.944
 8869SOL    HW227507   3.873   6.089   4.978
 8870SOL     OW27508   2.018   6.876   1.607
 8870SOL    HW127509   1.958   6.955   1.623
 8870SOL    HW227510   2.071   6.857   1.689
 8871SOL     OW27511   1.856   1.224   3.399
 8871SOL    HW127512   1.810   1.204   3.313
 8871SOL    HW227513   1.890   1.318   3.398
 8872SOL     OW27514   1.295   4.791   6.450
 8872SOL    HW127515   1.213   4.844   6.473
 8872SOL    HW227516   1.284   4.750   6.360
 8873SOL     OW27517   1.806   0.459   1.494
 8873SOL    HW127518   1.786   0.556   1.483
 8873SOL    HW227519   1.788   0.432   1.588
 8874SOL     OW27520   1.149   5.965   1.983
 8874SOL    HW127521   1.187   6.001   1.897
 8874SOL    HW227522   1.203   5.999   2.060
 8875SOL     OW27523   0.136   3.512   3.997
 8875SOL    HW127524   0.133   3.612   3.993
 8875SOL    HW227525   0.104   3.482   4.087
 8876SOL     OW27526   2.789   0.738   6.584
 8876SOL    HW127527   2.790   0.650   6.537
 8876SOL    HW227528   2.700   0.750   6.629
 8877SOL     OW27529   1.826   3.470   2.995
 8877SOL    HW127530   1.819   3.511   2.904
 8877SOL    HW227531   1.877   3.384   2.988
 8878SOL     OW27532   3.510   4.626   0.448
 8878SOL    HW127533   3.491   4.635   0.546
 8878SOL    HW227534   3.532   4.531   0.427
 8879SOL     OW27535   6.432   4.801   2.410
 8879SOL    HW127536   6.371   4.753   2.347
 8879SOL    HW227537   6.511   4.836   2.359
 8880SOL     OW27538   4.191   6.297   4.253
 8880SOL    HW127539   4.200   6.387   4.296
 8880SOL    HW227540   4.154   6.232   4.319
 8881SOL     OW27541   5.179   5.231   4.452
 8881SOL    HW127542   5.279   5.229   4.441
 8881SOL    HW227543   5.152   5.317   4.497
 8882SOL     OW27544   3.460   0.692   0.424
 8882SOL    HW127545   3.437   0.668   0.330
 8882SOL    HW227546   3.439   0.788   0.439
 8883SOL     OW27547   0.866   5.809   5.600
 8883SOL    HW127548   0.960   5.784   5.578
 8883SOL    HW227549   0.809   5.796   5.519
 8884SOL     OW27550   6.070   3.717   5.277
 8884SOL    HW127551   6.150   3.659   5.287
 8884SOL    HW227552   6.075   3.792   5.342
 8885SOL     OW27553   5.135   4.776   0.194
 8885SOL    HW127554   5.136   4.873   0.219
 8885SOL    HW227555   5.110   4.721   0.273
 8886SOL     OW27556   3.873   5.567   5.894
 8886SOL    HW127557   3.899   5.621   5.815
 8886SOL    HW227558   3.841   5.477   5.864
 8887SOL     OW27559   4.043   1.261   0.740
 8887SOL    HW127560   4.064   1.359   0.742
 8887SOL    HW227561   4.065   1.224   0.650
 8888SOL     OW27562   2.281   2.208   3.806
 8888SOL    HW127563   2.230   2.139   3.857
 8888SOL    HW227564   2.285   2.183   3.709
 8889SOL     OW27565   6.787   6.347   6.154
 8889SOL    HW127566   6.860   6.279   6.143
 8889SOL    HW227567   6.824   6.429   6.196
 8890SOL     OW27568   0.657   5.934   6.865
 8890SOL    HW127569   0.644   5.838   6.840
 8890SOL    HW227570   0.568   5.976   6.882
 8891SOL     OW27571   4.262   4.640   0.022
 8891SOL    HW127572   4.311   4.573   6.981
 8891SOL    HW227573   4.201   4.592   0.085
 8892SOL     OW27574   3.857   4.950   3.574
 8892SOL    HW127575   3.855   5.044   3.608
 8892SOL    HW227576   3.815   4.946   3.483
 8893SOL     OW27577   1.186   5.400   5.149
 8893SOL    HW127578   1.139   5.455   5.079
 8893SOL    HW227579   1.265   5.355   5.108
 8894SOL     OW27580   4.281   1.462   0.188
 8894SOL    HW127581   4.235   1.425   0.106
 8894SOL    HW227582   4.369   1.500   0.162
 8895SOL     OW27583   0.660   2.752   0.572
 8895SOL    HW127584   0.683   2.817   0.499
 8895SOL    HW227585   0.617   2.671   0.532
 8896SOL     OW27586   1.660   2.821   4.916
 8896SOL    HW127587   1.670   2.836   5.015
 8896SOL    HW227588   1.625   2.904   4.873
 8897SOL     OW27589   2.219   3.992   3.547
 8897SOL    HW127590   2.227   3.988   3.647
 8897SOL    HW227591   2.146   3.931   3.518
 8898SOL     OW27592   5.532   4.103   2.091
 8898SOL    HW127593   5.604   4.152   2.141
 8898SOL    HW227594   5.566   4.079   2.000
 8899SOL     OW27595   0.093   4.627   6.765
 8899SOL    HW127596   7.013   4.605   6.741
 8899SOL    HW227597   0.129   4.557   6.825
 8900SOL     OW27598   5.749   2.496   3.274
 8900SOL    HW127599   5.727   2.571   3.212
 8900SOL    HW227600   5.847   2.496   3.292
 8901SOL     OW27601   1.011   1.594   3.543
 8901SOL    HW127602   1.103   1.566   3.517
 8901SOL    HW227603   0.990   1.682   3.501
 8902SOL     OW27604   1.968   5.470   6.611
 8902SOL    HW127605   2.009   5.527   6.539
 8902SOL    HW227606   2.034   5.402   6.641
 8903SOL     OW27607   1.237   1.903   4.699
 8903SOL    HW127608   1.306   1.859   4.642
 8903SOL    HW227609   1.245   2.002   4.692
 8904SOL     OW27610   1.107   2.259   3.192
 8904SOL    HW127611   1.199   2.224   3.174
 8904SOL    HW227612   1.046   2.230   3.118
 8905SOL     OW27613   1.679   3.509   2.511
 8905SOL    HW127614   1.579   3.511   2.513
 8905SOL    HW227615   1.710   3.493   2.417
 8906SOL     OW27616   1.206   6.239   1.101
 8906SOL    HW127617   1.176   6.154   1.145
 8906SOL    HW227618   1.201   6.228   1.002
 8907SOL     OW27619   3.173   2.580   5.342
 8907SOL    HW127620   3.189   2.661   5.286
 8907SOL    HW227621   3.180   2.498   5.286
 8908SOL     OW27622   1.562   4.645   0.176
 8908SOL    HW127623   1.582   4.559   0.129
 8908SOL    HW227624   1.613   4.719   0.133
 8909SOL     OW27625   2.983   0.863   6.333
 8909SOL    HW127626   2.940   0.848   6.422
 8909SOL    HW227627   3.080   0.841   6.339
 8910SOL     OW27628   0.024   3.323   5.238
 8910SOL    HW127629   0.100   3.276   5.283
 8910SOL    HW227630   0.003   3.276   5.152
 8911SOL     OW27631   5.593   2.773   4.800
 8911SOL    HW127632   5.624   2.698   4.858
 8911SOL    HW227633   5.606   2.748   4.704
 8912SOL     OW27634   3.147   2.830   5.697
 8912SOL    HW127635   3.208   2.905   5.669
 8912SOL    HW227636   3.179   2.744   5.657
 8913SOL     OW27637   4.622   5.334   0.011
 8913SOL    HW127638   4.651   5.299   0.100
 8913SOL    HW227639   4.539   5.389   0.022
 8914SOL     OW27640   4.914   6.828   4.724
 8914SOL    HW127641   4.820   6.848   4.752
 8914SOL    HW227642   4.973   6.825   4.805
 8915SOL     OW27643   1.660   1.865   4.465
 8915SOL    HW127644   1.733   1.856   4.532
 8915SOL    HW227645   1.699   1.873   4.373
 8916SOL     OW27646   5.821   2.105   6.495
 8916SOL    HW127647   5.897   2.054   6.454
 8916SOL    HW227648   5.769   2.046   6.556
 8917SOL     OW27649   5.477   1.944   0.564
 8917SOL    HW127650   5.559   2.000   0.562
 8917SOL    HW227651   5.397   2.001   0.543
 8918SOL     OW27652   1.742   5.164   1.080
 8918SOL    HW127653   1.790   5.086   1.120
 8918SOL    HW227654   1.770   5.248   1.127
 8919SOL     OW27655   5.089   4.650   6.354
 8919SOL    HW127656   5.110   4.638   6.451
 8919SOL    HW227657   4.991   4.632   6.339
 8920SOL     OW27658   0.694   1.994   6.454
 8920SOL    HW127659   0.644   1.909   6.471
 8920SOL    HW227660   0.758   1.982   6.379
 8921SOL     OW27661   1.447   2.826   1.555
 8921SOL    HW127662   1.545   2.822   1.575
 8921SOL    HW227663   1.408   2.908   1.597
 8922SOL     OW27664   3.969   6.718   1.998
 8922SOL    HW127665   3.919   6.760   2.073
 8922SOL    HW227666   3.977   6.620   2.012
 8923SOL     OW27667   1.168   1.735   5.408
 8923SOL    HW127668   1.121   1.823   5.400
 8923SOL    HW227669   1.264   1.746   5.381
 8924SOL     OW27670   5.069   5.370   5.203
 8924SOL    HW127671   5.070   5.358   5.104
 8924SOL    HW227672   4.975   5.378   5.235
 8925SOL     OW27673   6.547   6.921   2.369
 8925SOL    HW127674   6.605   6.862   2.425
 8925SOL    HW227675   6.522   6.872   2.285
 8926SOL     OW27676   6.352   3.480   5.446
 8926SOL    HW127677   6.431   3.537   5.422
 8926SOL    HW227678   6.371   3.431   5.531
 8927SOL     OW27679   6.578   1.614   5.273
 8927SOL    HW127680   6.503   1.606   5.339
 8927SOL    HW227681   6.557   1.561   5.191
 8928SOL     OW27682   1.045   7.002   6.022
 8928SOL    HW127683   1.119   0.005   6.086
 8928SOL    HW227684   1.060   6.913   5.978
 8929SOL     OW27685   6.371   1.944   4.855
 8929SOL    HW127686   6.307   1.873   4.883
 8929SOL    HW227687   6.436   1.960   4.929
 8930SOL     OW27688   0.719   3.029   3.040
 8930SOL    HW127689   0.696   3.086   3.118
 8930SOL    HW227690   0.815   3.002   3.045
 8931SOL     OW27691   3.190   3.207   1.704
 8931SOL    HW127692   3.181   3.256   1.790
 8931SOL    HW227693   3.286   3.199   1.680
 8932SOL     OW27694   6.963   2.256   2.335
 8932SOL    HW127695   0.030   2.301   2.301
 8932SOL    HW227696   6.950   2.169   2.286
 8933SOL     OW27697   3.068   2.743   6.533
 8933SOL    HW127698   3.132   2.673   6.564
 8933SOL    HW227699   2.980   2.700   6.512
 8934SOL     OW27700   3.647   5.095   5.302
 8934SOL    HW127701   3.699   5.180   5.300
 8934SOL    HW227702   3.681   5.036   5.375
 8935SOL     OW27703   0.339   4.569   0.585
 8935SOL    HW127704   0.395   4.490   0.559
 8935SOL    HW227705   0.386   4.620   0.657
 8936SOL     OW27706   1.608   3.788   0.115
 8936SOL    HW127707   1.618   3.691   0.094
 8936SOL    HW227708   1.516   3.804   0.151
 8937SOL     OW27709   0.689   7.003   4.792
 8937SOL    HW127710   0.604   0.027   4.826
 8937SOL    HW227711   0.716   0.035   4.708
 8938SOL     OW27712   0.573   5.445   0.867
 8938SOL    HW127713   0.672   5.435   0.873
 8938SOL    HW227714   0.550   5.531   0.822
 8939SOL     OW27715   4.800   2.803   4.220
 8939SOL    HW127716   4.725   2.761   4.270
 8939SOL    HW227717   4.769   2.828   4.128
 8940SOL     OW27718   0.254   0.974   3.816
 8940SOL    HW127719   0.191   1.021   3.754
 8940SOL    HW227720   0.203   0.940   3.895
 8941SOL     OW27721   5.299   2.525   5.389
 8941SOL    HW127722   5.203   2.549   5.372
 8941SOL    HW227723   5.304   2.469   5.472
 8942SOL     OW27724   0.873   4.147   5.618
 8942SOL    HW127725   0.933   4.112   5.546
 8942SOL    HW227726   0.911   4.125   5.707
 8943SOL     OW27727   3.976   3.750   0.188
 8943SOL    HW127728   4.047   3.820   0.183
 8943SOL    HW227729   4.017   3.660   0.175
 8944SOL     OW27730   4.942   4.645   5.138
 8944SOL    HW127731   4.860   4.686   5.179
 8944SOL    HW227732   5.003   4.612   5.210
 8945SOL     OW27733   2.001   1.042   3.855
 8945SOL    HW127734   2.086   1.027   3.804
 8945SOL    HW227735   1.943   0.961   3.847
 8946SOL     OW27736   3.063   1.383   5.167
 8946SOL    HW127737   3.080   1.358   5.071
 8946SOL    HW227738   3.149   1.382   5.217
 8947SOL     OW27739   1.106   3.923   5.085
 8947SOL    HW127740   1.198   3.932   5.124
 8947SOL    HW227741   1.107   3.957   4.991
 8948SOL     OW27742   6.141   5.988   4.002
 8948SOL    HW127743   6.093   5.939   3.929
 8948SOL    HW227744   6.077   6.048   4.050
 8949SOL     OW27745   1.894   0.396   0.795
 8949SOL    HW127746   1.971   0.459   0.792
 8949SOL    HW227747   1.831   0.417   0.721
 8950SOL     OW27748   4.682   3.214   5.582
 8950SOL    HW127749   4.680   3.292   5.520
 8950SOL    HW227750   4.590   3.177   5.593
 8951SOL     OW27751   1.187   2.434   5.069
 8951SOL    HW127752   1.278   2.471   5.085
 8951SOL    HW227753   1.131   2.501   5.021
 8952SOL     OW27754   1.002   0.319   2.189
 8952SOL    HW127755   1.061   0.326   2.109
 8952SOL    HW227756   0.906   0.324   2.160
 8953SOL     OW27757   0.981   4.064   6.674
 8953SOL    HW127758   0.949   4.018   6.757
 8953SOL    HW227759   0.912   4.130   6.644
 8954SOL     OW27760   0.540   6.166   6.223
 8954SOL    HW127761   0.498   6.085   6.181
 8954SOL    HW227762   0.614   6.199   6.165
 8955SOL     OW27763   0.350   4.612   2.550
 8955SOL    HW127764   0.293   4.553   2.492
 8955SOL    HW227765   0.374   4.563   2.633
 8956SOL     OW27766   7.010   1.768   6.954
 8956SOL    HW127767   6.919   1.727   6.954
 8956SOL    HW227768   7.009   1.853   7.005
 8957SOL     OW27769   3.201   4.210   1.632
 8957SOL    HW127770   3.222   4.307   1.618
 8957SOL    HW227771   3.173   4.170   1.545
 8958SOL     OW27772   0.965   0.638   4.277
 8958SOL    HW127773   0.976   0.679   4.187
 8958SOL    HW227774   0.878   0.589   4.281
 8959SOL     OW27775   1.616   4.299   1.018
 8959SOL    HW127776   1.575   4.390   1.013
 8959SOL    HW227777   1.709   4.301   0.980
 8960SOL     OW27778   4.993   5.795   2.065
 8960SOL    HW127779   4.898   5.821   2.085
 8960SOL    HW227780   5.041   5.779   2.151
 8961SOL     OW27781   2.419   2.650   4.700
 8961SOL    HW127782   2.465   2.626   4.615
 8961SOL    HW227783   2.394   2.566   4.749
 8962SOL     OW27784   6.328   6.367   2.609
 8962SOL    HW127785   6.321   6.466   2.598
 8962SOL    HW227786   6.407   6.346   2.666
 8963SOL     OW27787   4.792   6.679   4.366
 8963SOL    HW127788   4.795   6.769   4.322
 8963SOL    HW227789   4.838   6.684   4.454
 8964SOL     OW27790   6.056   3.661   3.715
 8964SOL    HW127791   6.090   3.738   3.661
 8964SOL    HW227792   6.088   3.671   3.810
 8965SOL     OW27793   2.051   5.045   0.951
 8965SOL    HW127794   2.009   4.991   0.879
 8965SOL    HW227795   2.084   5.132   0.913
 8966SOL     OW27796   1.610   3.947   5.373
 8966SOL    HW127797   1.571   3.859   5.348
 8966SOL    HW227798   1.708   3.947   5.355
 8967SOL     OW27799   3.305   6.086   1.609
 8967SOL    HW127800   3.244   6.113   1.534
 8967SOL    HW227801   3.395   6.063   1.572
 8968SOL     OW27802   5.232   5.092   2.295
 8968SOL    HW127803   5.188   5.129   2.377
 8968SOL    HW227804   5.272   5.003   2.316
 8969SOL     OW27805   6.481   0.200   4.099
 8969SOL    HW127806   6.388   0.193   4.062
 8969SOL    HW227807   6.485   0.276   4.164
 8970SOL     OW27808   3.038   2.451   0.463
 8970SOL    HW127809   3.126   2.453   0.416
 8970SOL    HW227810   3.034   2.370   0.522
 8971SOL     OW27811   3.639   5.255   2.021
 8971SOL    HW127812   3.655   5.298   1.932
 8971SOL    HW227813   3.591   5.169   2.008
 8972SOL     OW27814   5.019   5.464   6.316
 8972SOL    HW127815   4.957   5.508   6.381
 8972SOL    HW227816   5.079   5.534   6.277
 8973SOL     OW27817   1.116   3.254   2.228
 8973SOL    HW127818   1.203   3.290   2.259
 8973SOL    HW227819   1.046   3.271   2.297
 8974SOL     OW27820   1.261   4.258   5.591
 8974SOL    HW127821   1.334   4.190   5.587
 8974SOL    HW227822   1.189   4.232   5.527
 8975SOL     OW27823   2.544   0.092   6.977
 8975SOL    HW127824   2.446   0.078   6.963
 8975SOL    HW227825   2.595   0.045   6.905
 8976SOL     OW27826   0.819   5.158   5.087
 8976SOL    HW127827   0.758   5.089   5.050
 8976SOL    HW227828   0.781   5.195   5.172
 8977SOL     OW27829   5.819   1.514   6.784
 8977SOL    HW127830   5.813   1.536   6.687
 8977SOL    HW227831   5.908   1.473   6.804
 8978SOL     OW27832   6.154   6.956   6.533
 8978SOL    HW127833   6.200   6.884   6.584
 8978SOL    HW227834   6.209   6.981   6.453
 8979SOL     OW27835   1.429   3.138   4.366
 8979SOL    HW127836   1.409   3.075   4.442
 8979SOL    HW227837   1.518   3.116   4.327
 8980SOL     OW27838   2.268   3.210   5.353
 8980SOL    HW127839   2.195   3.227   5.287
 8980SOL    HW227840   2.334   3.145   5.315
 8981SOL     OW27841   3.900   1.891   5.026
 8981SOL    HW127842   3.946   1.979   5.037
 8981SOL    HW227843   3.820   1.887   5.086
 8982SOL     OW27844   1.283   2.479   0.220
 8982SOL    HW127845   1.183   2.473   0.228
 8982SOL    HW227846   1.324   2.476   0.311
 8983SOL     OW27847   2.667   6.386   6.262
 8983SOL    HW127848   2.627   6.324   6.194
 8983SOL    HW227849   2.666   6.479   6.226
 8984SOL     OW27850   0.844   6.908   3.966
 8984SOL    HW127851   0.853   6.829   3.906
 8984SOL    HW227852   0.747   6.928   3.981
 8985SOL     OW27853   3.644   2.122   0.476
 8985SOL    HW127854   3.649   2.062   0.396
 8985SOL    HW227855   3.703   2.202   0.461
 8986SOL     OW27856   4.296   5.526   2.660
 8986SOL    HW127857   4.242   5.610   2.671
 8986SOL    HW227858   4.241   5.457   2.614
 8987SOL     OW27859   4.460   6.511   1.756
 8987SOL    HW127860   4.560   6.504   1.756
 8987SOL    HW227861   4.427   6.520   1.850
 8988SOL     OW27862   1.238   4.820   4.757
 8988SOL    HW127863   1.281   4.773   4.680
 8988SOL    HW227864   1.262   4.773   4.842
 8989SOL     OW27865   5.016   3.519   0.397
 8989SOL    HW127866   4.976   3.610   0.396
 8989SOL    HW227867   4.949   3.453   0.362
 8990SOL     OW27868   1.418   5.734   4.719
 8990SOL    HW127869   1.487   5.752   4.789
 8990SOL    HW227870   1.464   5.714   4.632
 8991SOL     OW27871   1.742   2.707   4.667
 8991SOL    HW127872   1.724   2.745   4.757
 8991SOL    HW227873   1.819   2.755   4.625
 8992SOL     OW27874   4.688   1.204   0.513
 8992SOL    HW127875   4.754   1.227   0.585
 8992SOL    HW227876   4.613   1.271   0.514
 8993SOL     OW27877   4.716   2.400   0.739
 8993SOL    HW127878   4.688   2.304   0.732
 8993SOL    HW227879   4.637   2.459   0.724
 8994SOL     OW27880   1.546   4.216   5.243
 8994SOL    HW127881   1.598   4.153   5.299
 8994SOL    HW227882   1.577   4.209   5.148
 8995SOL     OW27883   1.113   2.221   6.974
 8995SOL    HW127884   1.155   2.232   0.048
 8995SOL    HW227885   1.092   2.125   6.958
 8996SOL     OW27886   5.027   4.187   6.756
 8996SOL    HW127887   4.947   4.128   6.751
 8996SOL    HW227888   5.108   4.133   6.778
 8997SOL     OW27889   5.087   2.177   6.352
 8997SOL    HW127890   5.169   2.128   6.383
 8997SOL    HW227891   5.050   2.231   6.428
 8998SOL     OW27892   6.370   3.657   4.246
 8998SOL    HW127893   6.371   3.757   4.243
 8998SOL    HW227894   6.404   3.621   4.159
 8999SOL     OW27895   4.897   6.438   6.185
 8999SOL    HW127896   4.912   6.406   6.279
 8999SOL    HW227897   4.971   6.499   6.157
 9000SOL     OW27898   1.700   3.351   1.782
 9000SOL    HW127899   1.743   3.273   1.737
 9000SOL    HW227900   1.758   3.431   1.772
 9001SOL     OW27901   1.200   4.678   2.275
 9001SOL    HW127902   1.114   4.631   2.255
 9001SOL    HW227903   1.273   4.641   2.218
 9002SOL     OW27904   1.769   5.087   5.015
 9002SOL    HW127905   1.760   5.060   5.111
 9002SOL    HW227906   1.726   5.176   5.001
 9003SOL     OW27907   5.727   4.044   1.869
 9003SOL    HW127908   5.729   3.948   1.897
 9003SOL    HW227909   5.820   4.075   1.848
 9004SOL     OW27910   4.046   5.944   1.249
 9004SOL    HW127911   4.096   5.956   1.163
 9004SOL    HW227912   4.032   6.033   1.291
 9005SOL     OW27913   6.602   1.985   5.316
 9005SOL    HW127914   6.598   1.951   5.222
 9005SOL    HW227915   6.697   2.008   5.339
 9006SOL     OW27916   2.017   5.747   1.350
 9006SOL    HW127917   2.065   5.758   1.438
 9006SOL    HW227918   1.918   5.751   1.366
 9007SOL     OW27919   3.467   0.843   3.353
 9007SOL    HW127920   3.377   0.806   3.376
 9007SOL    HW227921   3.522   0.772   3.308
 9008SOL     OW27922   0.921   5.376   2.871
 9008SOL    HW127923   1.019   5.362   2.862
 9008SOL    HW227924   0.900   5.406   2.964
 9009SOL     OW27925   2.649   5.750   0.988
 9009SOL    HW127926   2.635   5.681   0.917
 9009SOL    HW227927   2.729   5.806   0.965
 9010SOL     OW27928   1.583   6.606   4.241
 9010SOL    HW127929   1.488   6.619   4.269
 9010SOL    HW227930   1.589   6.527   4.180
 9011SOL     OW27931   5.045   1.214   0.923
 9011SOL    HW127932   5.083   1.179   1.008
 9011SOL    HW227933   4.946   1.228   0.933
 9012SOL     OW27934   2.143   4.643   6.713
 9012SOL    HW127935   2.201   4.668   6.636
 9012SOL    HW227936   2.186   4.571   6.766
 9013SOL     OW27937   0.090   0.185   6.126
 9013SOL    HW127938   0.054   0.245   6.055
 9013SOL    HW227939   0.134   0.239   6.197
 9014SOL     OW27940   6.983   2.008   0.824
 9014SOL    HW127941   0.049   1.956   0.797
 9014SOL    HW227942   6.983   2.021   0.923
 9015SOL     OW27943   4.679   2.343   1.732
 9015SOL    HW127944   4.647   2.436   1.715
 9015SOL    HW227945   4.606   2.291   1.777
 9016SOL     OW27946   6.953   6.370   6.727
 9016SOL    HW127947   7.011   6.451   6.726
 9016SOL    HW227948   6.865   6.391   6.684
 9017SOL     OW27949   4.710   1.587   4.238
 9017SOL    HW127950   4.689   1.597   4.141
 9017SOL    HW227951   4.625   1.585   4.291
 9018SOL     OW27952   2.572   3.123   6.153
 9018SOL    HW127953   2.490   3.166   6.189
 9018SOL    HW227954   2.548   3.067   6.073
 9019SOL     OW27955   1.696   4.895   2.602
 9019SOL    HW127956   1.782   4.844   2.592
 9019SOL    HW227957   1.624   4.832   2.631
 9020SOL     OW27958   0.000   3.861   1.044
 9020SOL    HW127959   6.948   3.912   0.992
 9020SOL    HW227960   7.012   3.764   1.018
 9021SOL     OW27961   6.905   0.854   3.788
 9021SOL    HW127962   6.827   0.915   3.773
 9021SOL    HW227963   6.934   0.816   3.701
 9022SOL     OW27964   2.856   1.005   6.901
 9022SOL    HW127965   2.757   0.994   6.894
 9022SOL    HW227966   2.895   1.017   6.810
 9023SOL     OW27967   3.481   3.315   1.809
 9023SOL    HW127968   3.512   3.254   1.882
 9023SOL    HW227969   3.500   3.410   1.835
 9024SOL     OW27970   1.369   3.708   6.066
 9024SOL    HW127971   1.367   3.764   6.149
 9024SOL    HW227972   1.457   3.721   6.020
 9025SOL     OW27973   0.517   5.241   0.573
 9025SOL    HW127974   0.607   5.255   0.531
 9025SOL    HW227975   0.447   5.236   0.502
 9026SOL     OW27976   3.265   2.772   0.877
 9026SOL    HW127977   3.223   2.740   0.963
 9026SOL    HW227978   3.228   2.863   0.854
 9027SOL     OW27979   0.726   3.251   2.766
 9027SOL    HW127980   0.732   3.180   2.836
 9027SOL    HW227981   0.815   3.263   2.722
 9028SOL     OW27982   3.132   2.814   5.198
 9028SOL    HW127983   3.128   2.912   5.217
 9028SOL    HW227984   3.179   2.798   5.111
 9029SOL     OW27985   3.501   6.949   4.971
 9029SOL    HW127986   3.594   6.962   5.007
 9029SOL    HW227987   3.504   6.949   4.871
 9030SOL     OW27988   2.069   2.057   3.515
 9030SOL    HW127989   2.014   2.082   3.435
 9030SOL    HW227990   2.010   2.051   3.596
 9031SOL     OW27991   4.274   6.113   4.081
 9031SOL    HW127992   4.210   6.036   4.083
 9031SOL    HW227993   4.234   6.190   4.133
 9032SOL     OW27994   4.703   3.966   0.960
 9032SOL    HW127995   4.773   3.996   0.895
 9032SOL    HW227996   4.645   3.897   0.916
 9033SOL     OW27997   0.454   4.165   2.672
 9033SOL    HW127998   0.402   4.168   2.587
 9033SOL    HW227999   0.393   4.179   2.750
 9034SOL     OW28000   2.985   5.892   4.355
 9034SOL    HW128001   2.905   5.860   4.405
 9034SOL    HW228002   3.024   5.817   4.302
 9035SOL     OW28003   2.807   4.769   0.053
 9035SOL    HW128004   2.718   4.722   0.052
 9035SOL    HW228005   2.866   4.727   0.122
 9036SOL     OW28006   2.073   3.177   5.831
 9036SOL    HW128007   2.105   3.272   5.838
 9036SOL    HW228008   2.095   3.142   5.740
 9037SOL     OW28009   1.195   4.201   4.258
 9037SOL    HW128010   1.141   4.120   4.238
 9037SOL    HW228011   1.273   4.176   4.316
 9038SOL     OW28012   4.503   1.581   6.316
 9038SOL    HW128013   4.427   1.535   6.270
 9038SOL    HW228014   4.550   1.517   6.377
 9039SOL     OW28015   2.417   4.975   6.258
 9039SOL    HW128016   2.357   4.905   6.218
 9039SOL    HW228017   2.511   4.942   6.258
 9040SOL     OW28018   2.683   2.293   2.795
 9040SOL    HW128019   2.610   2.356   2.823
 9040SOL    HW228020   2.688   2.289   2.695
 9041SOL     OW28021   1.202   2.330   0.934
 9041SOL    HW128022   1.274   2.344   1.001
 9041SOL    HW228023   1.158   2.241   0.950
 9042SOL     OW28024   4.198   0.158   4.450
 9042SOL    HW128025   4.285   0.138   4.404
 9042SOL    HW228026   4.209   0.148   4.549
 9043SOL     OW28027   1.973   1.076   6.304
 9043SOL    HW128028   1.958   0.986   6.344
 9043SOL    HW228029   1.974   1.145   6.377
 9044SOL     OW28030   6.529   0.256   0.608
 9044SOL    HW128031   6.613   0.308   0.589
 9044SOL    HW228032   6.550   0.159   0.609
 9045SOL     OW28033   3.483   1.328   2.475
 9045SOL    HW128034   3.562   1.273   2.501
 9045SOL    HW228035   3.399   1.277   2.492
 9046SOL     OW28036   3.497   4.119   3.040
 9046SOL    HW128037   3.596   4.130   3.032
 9046SOL    HW228038   3.469   4.140   3.134
 9047SOL     OW28039   1.833   3.724   4.820
 9047SOL    HW128040   1.838   3.823   4.806
 9047SOL    HW228041   1.819   3.705   4.917
 9048SOL     OW28042   6.843   3.201   6.360
 9048SOL    HW128043   6.910   3.271   6.334
 9048SOL    HW228044   6.762   3.245   6.398
 9049SOL     OW28045   4.141   6.748   5.589
 9049SOL    HW128046   4.064   6.806   5.564
 9049SOL    HW228047   4.160   6.684   5.515
 9050SOL     OW28048   0.706   3.849   1.050
 9050SOL    HW128049   0.779   3.808   1.105
 9050SOL    HW228050   0.718   3.949   1.047
 9051SOL     OW28051   3.006   0.254   1.540
 9051SOL    HW128052   3.022   0.193   1.618
 9051SOL    HW228053   2.982   0.200   1.460
 9052SOL     OW28054   2.483   2.645   3.714
 9052SOL    HW128055   2.467   2.555   3.755
 9052SOL    HW228056   2.550   2.695   3.769
 9053SOL     OW28057   2.124   1.334   2.622
 9053SOL    HW128058   2.152   1.417   2.573
 9053SOL    HW228059   2.120   1.354   2.720
 9054SOL     OW28060   3.117   5.696   4.160
 9054SOL    HW128061   3.156   5.669   4.249
 9054SOL    HW228062   3.162   5.780   4.129
 9055SOL     OW28063   5.608   2.030   4.256
 9055SOL    HW128064   5.532   2.089   4.283
 9055SOL    HW228065   5.607   2.016   4.157
 9056SOL     OW28066   0.288   2.464   1.365
 9056SOL    HW128067   0.326   2.371   1.373
 9056SOL    HW228068   0.206   2.471   1.421
 9057SOL     OW28069   4.584   2.899   5.181
 9057SOL    HW128070   4.662   2.958   5.201
 9057SOL    HW228071   4.593   2.861   5.089
 9058SOL     OW28072   1.714   1.019   1.684
 9058SOL    HW128073   1.621   1.003   1.716
 9058SOL    HW228074   1.779   0.970   1.742
 9059SOL     OW28075   1.073   2.438   2.776
 9059SOL    HW128076   1.126   2.498   2.716
 9059SOL    HW228077   1.057   2.483   2.864
 9060SOL     OW28078   5.914   2.793   4.441
 9060SOL    HW128079   5.983   2.749   4.499
 9060SOL    HW228080   5.837   2.824   4.498
 9061SOL     OW28081   2.750   5.482   2.179
 9061SOL    HW128082   2.817   5.417   2.140
 9061SOL    HW228083   2.793   5.571   2.188
 9062SOL     OW28084   1.265   6.046   2.218
 9062SOL    HW128085   1.326   6.124   2.231
 9062SOL    HW228086   1.253   5.998   2.305
 9063SOL     OW28087   2.957   0.434   4.200
 9063SOL    HW128088   2.916   0.404   4.286
 9063SOL    HW228089   2.924   0.525   4.177
 9064SOL     OW28090   6.216   3.250   6.290
 9064SOL    HW128091   6.269   3.165   6.300
 9064SOL    HW228092   6.173   3.273   6.377
 9065SOL     OW28093   3.908   0.659   0.008
 9065SOL    HW128094   3.995   0.631   6.984
 9065SOL    HW228095   3.903   0.629   0.103
 9066SOL     OW28096   5.136   6.798   0.352
 9066SOL    HW128097   5.080   6.863   0.301
 9066SOL    HW228098   5.233   6.820   0.339
 9067SOL     OW28099   1.010   0.695   3.571
 9067SOL    HW128100   0.954   0.775   3.551
 9067SOL    HW228101   1.025   0.688   3.669
 9068SOL     OW28102   1.394   6.454   4.579
 9068SOL    HW128103   1.426   6.548   4.589
 9068SOL    HW228104   1.399   6.407   4.667
 9069SOL     OW28105   1.331   3.219   0.914
 9069SOL    HW128106   1.262   3.246   0.982
 9069SOL    HW228107   1.359   3.125   0.931
 9070SOL     OW28108   1.566   3.507   5.129
 9070SOL    HW128109   1.527   3.424   5.168
 9070SOL    HW228110   1.510   3.537   5.051
 9071SOL     OW28111   6.734   6.343   1.230
 9071SOL    HW128112   6.814   6.397   1.257
 9071SOL    HW228113   6.713   6.359   1.134
 9072SOL     OW28114   0.421   2.612   0.937
 9072SOL    HW128115   0.492   2.596   0.868
 9072SOL    HW228116   0.347   2.546   0.925
 9073SOL     OW28117   2.294   0.211   2.365
 9073SOL    HW128118   2.311   0.258   2.279
 9073SOL    HW228119   2.379   0.168   2.397
 9074SOL     OW28120   0.939   0.350   2.476
 9074SOL    HW128121   0.887   0.435   2.467
 9074SOL    HW228122   0.970   0.320   2.386
 9075SOL     OW28123   0.017   1.430   2.441
 9075SOL    HW128124   0.110   1.460   2.463
 9075SOL    HW228125   0.006   1.334   2.466
 9076SOL     OW28126   6.968   1.145   6.273
 9076SOL    HW128127   6.953   1.235   6.314
 9076SOL    HW228128   6.927   1.143   6.182
 9077SOL     OW28129   4.424   6.975   1.279
 9077SOL    HW128130   4.389   0.053   1.291
 9077SOL    HW228131   4.377   6.914   1.343
 9078SOL     OW28132   3.336   3.216   4.868
 9078SOL    HW128133   3.265   3.151   4.842
 9078SOL    HW228134   3.303   3.309   4.855
 9079SOL     OW28135   2.528   0.635   4.670
 9079SOL    HW128136   2.448   0.689   4.695
 9079SOL    HW228137   2.576   0.606   4.753
 9080SOL     OW28138   5.235   2.979   6.636
 9080SOL    HW128139   5.170   2.905   6.619
 9080SOL    HW228140   5.324   2.940   6.659
 9081SOL     OW28141   4.984   6.388   2.341
 9081SOL    HW128142   4.891   6.423   2.333
 9081SOL    HW228143   5.037   6.415   2.261
 9082SOL     OW28144   1.740   0.551   4.845
 9082SOL    HW128145   1.640   0.560   4.845
 9082SOL    HW228146   1.766   0.460   4.813
 9083SOL     OW28147   4.367   5.057   5.797
 9083SOL    HW128148   4.465   5.045   5.780
 9083SOL    HW228149   4.342   5.153   5.781
 9084SOL     OW28150   3.648   3.710   3.082
 9084SOL    HW128151   3.549   3.717   3.071
 9084SOL    HW228152   3.683   3.797   3.116
 9085SOL     OW28153   2.187   0.518   0.682
 9085SOL    HW128154   2.254   0.582   0.720
 9085SOL    HW228155   2.131   0.565   0.614
 9086SOL     OW28156   0.520   4.344   0.559
 9086SOL    HW128157   0.521   4.266   0.622
 9086SOL    HW228158   0.602   4.343   0.503
 9087SOL     OW28159   4.709   2.788   1.732
 9087SOL    HW128160   4.793   2.822   1.692
 9087SOL    HW228161   4.684   2.844   1.811
 9088SOL     OW28162   6.340   0.209   1.093
 9088SOL    HW128163   6.434   0.175   1.090
 9088SOL    HW228164   6.318   0.255   1.007
 9089SOL     OW28165   5.346   6.713   5.425
 9089SOL    HW128166   5.273   6.778   5.444
 9089SOL    HW228167   5.412   6.753   5.361
 9090SOL     OW28168   5.882   1.305   5.624
 9090SOL    HW128169   5.863   1.305   5.722
 9090SOL    HW228170   5.828   1.233   5.580
 9091SOL     OW28171   2.466   3.617   6.751
 9091SOL    HW128172   2.499   3.523   6.752
 9091SOL    HW228173   2.390   3.627   6.816
 9092SOL     OW28174   6.509   0.968   0.414
 9092SOL    HW128175   6.415   0.946   0.386
 9092SOL    HW228176   6.510   1.058   0.458
 9093SOL     OW28177   1.933   6.037   5.363
 9093SOL    HW128178   1.838   6.037   5.333
 9093SOL    HW228179   1.940   5.990   5.451
 9094SOL     OW28180   7.009   4.298   2.495
 9094SOL    HW128181   6.909   4.299   2.501
 9094SOL    HW228182   0.030   4.223   2.549
 9095SOL     OW28183   4.823   4.586   6.196
 9095SOL    HW128184   4.782   4.533   6.270
 9095SOL    HW228185   4.885   4.529   6.144
 9096SOL     OW28186   6.972   5.353   3.445
 9096SOL    HW128187   6.909   5.399   3.508
 9096SOL    HW228188   6.954   5.384   3.352
 9097SOL     OW28189   2.153   1.876   6.753
 9097SOL    HW128190   2.154   1.883   6.853
 9097SOL    HW228191   2.131   1.782   6.727
 9098SOL     OW28192   2.579   2.196   4.973
 9098SOL    HW128193   2.564   2.287   5.011
 9098SOL    HW228194   2.671   2.190   4.934
 9099SOL     OW28195   2.406   2.948   6.472
 9099SOL    HW128196   2.354   2.955   6.386
 9099SOL    HW228197   2.478   2.879   6.462
 9100SOL     OW28198   1.004   3.661   2.031
 9100SOL    HW128199   1.009   3.587   1.965
 9100SOL    HW228200   0.925   3.719   2.011
 9101SOL     OW28201   2.592   1.380   2.469
 9101SOL    HW128202   2.528   1.452   2.441
 9101SOL    HW228203   2.667   1.421   2.522
 9102SOL     OW28204   4.132   6.958   1.944
 9102SOL    HW128205   4.098   6.864   1.947
 9102SOL    HW228206   4.222   6.962   1.989
 9103SOL     OW28207   5.671   1.728   6.864
 9103SOL    HW128208   5.721   1.644   6.842
 9103SOL    HW228209   5.652   1.731   6.962
 9104SOL     OW28210   6.973   6.910   1.943
 9104SOL    HW128211   6.919   6.922   2.026
 9104SOL    HW228212   0.016   6.991   1.930
 9105SOL     OW28213   1.022   6.713   4.954
 9105SOL    HW128214   0.935   6.725   4.907
 9105SOL    HW228215   1.059   6.622   4.933
 9106SOL     OW28216   0.736   3.700   6.872
 9106SOL    HW128217   0.693   3.635   6.934
 9106SOL    HW228218   0.668   3.762   6.834
 9107SOL     OW28219   1.903   0.809   6.473
 9107SOL    HW128220   1.884   0.724   6.522
 9107SOL    HW228221   1.992   0.844   6.500
 9108SOL     OW28222   5.113   4.267   5.313
 9108SOL    HW128223   5.179   4.337   5.287
 9108SOL    HW228224   5.027   4.311   5.341
 9109SOL     OW28225   4.763   2.619   2.409
 9109SOL    HW128226   4.729   2.656   2.323
 9109SOL    HW228227   4.830   2.683   2.448
 9110SOL     OW28228   0.905   5.591   4.620
 9110SOL    HW128229   1.001   5.599   4.590
 9110SOL    HW228230   0.882   5.669   4.678
 9111SOL     OW28231   4.758   3.001   6.251
 9111SOL    HW128232   4.747   3.051   6.166
 9111SOL    HW228233   4.702   2.918   6.248
 9112SOL     OW28234   1.550   4.710   2.832
 9112SOL    HW128235   1.504   4.720   2.744
 9112SOL    HW228236   1.634   4.658   2.821
 9113SOL     OW28237   5.822   2.644   3.912
 9113SOL    HW128238   5.876   2.561   3.925
 9113SOL    HW228239   5.745   2.644   3.976
 9114SOL     OW28240   1.145   6.098   3.942
 9114SOL    HW128241   1.097   6.027   3.890
 9114SOL    HW228242   1.083   6.174   3.961
 9115SOL     OW28243   5.864   5.047   3.304
 9115SOL    HW128244   5.812   5.128   3.279
 9115SOL    HW228245   5.832   5.012   3.392
 9116SOL     OW28246   0.413   6.932   3.127
 9116SOL    HW128247   0.485   7.002   3.131
 9116SOL    HW228248   0.339   6.957   3.189
 9117SOL     OW28249   4.062   1.507   6.425
 9117SOL    HW128250   4.090   1.470   6.514
 9117SOL    HW228251   4.037   1.603   6.436
 9118SOL     OW28252   6.089   3.991   0.757
 9118SOL    HW128253   6.067   3.912   0.700
 9118SOL    HW228254   6.183   3.983   0.790
 9119SOL     OW28255   3.887   6.918   1.230
 9119SOL    HW128256   3.816   6.984   1.205
 9119SOL    HW228257   3.974   6.945   1.189
 9120SOL     OW28258   6.726   2.999   6.186
 9120SOL    HW128259   6.721   3.085   6.237
 9120SOL    HW228260   6.805   3.000   6.125
 9121SOL     OW28261   3.905   0.356   5.410
 9121SOL    HW128262   4.004   0.359   5.402
 9121SOL    HW228263   3.874   0.261   5.414
 9122SOL     OW28264   2.145   4.127   1.841
 9122SOL    HW128265   2.083   4.049   1.827
 9122SOL    HW228266   2.121   4.173   1.926
 9123SOL     OW28267   1.501   0.617   3.383
 9123SOL    HW128268   1.423   0.666   3.423
 9123SOL    HW228269   1.564   0.683   3.342
 9124SOL     OW28270   3.533   5.017   1.892
 9124SOL    HW128271   3.445   5.036   1.935
 9124SOL    HW228272   3.554   4.920   1.903
 9125SOL     OW28273   3.582   5.711   0.394
 9125SOL    HW128274   3.552   5.624   0.355
 9125SOL    HW228275   3.592   5.778   0.320
 9126SOL     OW28276   4.394   4.604   1.001
 9126SOL    HW128277   4.493   4.613   0.994
 9126SOL    HW228278   4.371   4.546   1.080
 9127SOL     OW28279   6.683   3.209   5.121
 9127SOL    HW128280   6.768   3.167   5.089
 9127SOL    HW228281   6.672   3.298   5.077
 9128SOL     OW28282   6.325   2.895   4.424
 9128SOL    HW128283   6.313   2.810   4.372
 9128SOL    HW228284   6.237   2.921   4.464
 9129SOL     OW28285   1.457   1.801   1.065
 9129SOL    HW128286   1.536   1.846   1.106
 9129SOL    HW228287   1.380   1.865   1.064
 9130SOL     OW28288   2.231   4.004   5.729
 9130SOL    HW128289   2.156   4.058   5.693
 9130SOL    HW228290   2.200   3.911   5.749
 9131SOL     OW28291   5.392   2.725   0.230
 9131SOL    HW128292   5.462   2.795   0.216
 9131SOL    HW228293   5.418   2.667   0.308
 9132SOL     OW28294   1.043   4.883   3.959
 9132SOL    HW128295   1.038   4.894   3.859
 9132SOL    HW228296   1.031   4.972   4.003
 9133SOL     OW28297   3.270   0.533   1.047
 9133SOL    HW128298   3.337   0.603   1.021
 9133SOL    HW228299   3.224   0.560   1.131
 9134SOL     OW28300   4.570   5.300   0.944
 9134SOL    HW128301   4.653   5.345   0.909
 9134SOL    HW228302   4.491   5.358   0.927
 9135SOL     OW28303   0.997   6.145   2.192
 9135SOL    HW128304   0.958   6.101   2.273
 9135SOL    HW228305   1.096   6.131   2.192
 9136SOL     OW28306   5.191   4.805   6.110
 9136SOL    HW128307   5.147   4.739   6.171
 9136SOL    HW228308   5.169   4.898   6.140
 9137SOL     OW28309   4.810   6.193   6.054
 9137SOL    HW128310   4.851   6.273   6.100
 9137SOL    HW228311   4.712   6.190   6.074
 9138SOL     OW28312   2.070   2.898   0.350
 9138SOL    HW128313   2.005   2.909   0.425
 9138SOL    HW228314   2.021   2.887   0.264
 9139SOL     OW28315   0.196   0.937   1.159
 9139SOL    HW128316   0.239   0.891   1.081
 9139SOL    HW228317   0.097   0.929   1.153
 9140SOL     OW28318   0.653   4.616   1.913
 9140SOL    HW128319   0.660   4.689   1.982
 9140SOL    HW228320   0.610   4.652   1.831
 9141SOL     OW28321   0.112   5.814   6.284
 9141SOL    HW128322   0.100   5.899   6.234
 9141SOL    HW228323   0.039   5.750   6.259
 9142SOL     OW28324   0.925   3.373   3.043
 9142SOL    HW128325   0.854   3.356   2.974
 9142SOL    HW228326   0.894   3.338   3.132
 9143SOL     OW28327   0.266   4.123   2.136
 9143SOL    HW128328   0.236   4.131   2.041
 9143SOL    HW228329   0.296   4.029   2.154
 9144SOL     OW28330   3.138   5.343   4.432
 9144SOL    HW128331   3.210   5.312   4.370
 9144SOL    HW228332   3.100   5.265   4.481
 9145SOL     OW28333   1.185   6.649   6.244
 9145SOL    HW128334   1.267   6.701   6.220
 9145SOL    HW228335   1.212   6.556   6.272
 9146SOL     OW28336   5.894   3.243   3.554
 9146SOL    HW128337   5.892   3.217   3.458
 9146SOL    HW228338   5.940   3.172   3.607
 9147SOL     OW28339   5.704   6.951   4.459
 9147SOL    HW128340   5.741   0.027   4.472
 9147SOL    HW228341   5.748   6.908   4.379
 9148SOL     OW28342   6.294   0.113   1.832
 9148SOL    HW128343   6.369   0.081   1.890
 9148SOL    HW228344   6.311   0.208   1.805
 9149SOL     OW28345   6.181   2.857   1.067
 9149SOL    HW128346   6.279   2.857   1.050
 9149SOL    HW228347   6.135   2.911   0.997
 9150SOL     OW28348   2.622   3.965   0.108
 9150SOL    HW128349   2.639   4.063   0.108
 9150SOL    HW228350   2.563   3.941   0.031
 9151SOL     OW28351   2.168   3.908   3.846
 9151SOL    HW128352   2.072   3.902   3.818
 9151SOL    HW228353   2.201   3.816   3.869
 9152SOL     OW28354   2.099   3.752   4.144
 9152SOL    HW128355   2.144   3.721   4.060
 9152SOL    HW228356   2.021   3.693   4.164
 9153SOL     OW28357   0.368   2.104   6.388
 9153SOL    HW128358   0.395   2.167   6.461
 9153SOL    HW228359   0.426   2.023   6.391
 9154SOL     OW28360   6.152   5.337   3.024
 9154SOL    HW128361   6.089   5.260   3.009
 9154SOL    HW228362   6.113   5.399   3.091
 9155SOL     OW28363   1.821   5.403   2.686
 9155SOL    HW128364   1.869   5.342   2.624
 9155SOL    HW228365   1.887   5.458   2.738
 9156SOL     OW28366   6.774   3.303   0.898
 9156SOL    HW128367   6.723   3.386   0.920
 9156SOL    HW228368   6.844   3.324   0.829
 9157SOL     OW28369   3.386   4.189   6.182
 9157SOL    HW128370   3.428   4.244   6.110
 9157SOL    HW228371   3.366   4.098   6.148
 9158SOL     OW28372   6.799   3.760   3.946
 9158SOL    HW128373   6.835   3.795   3.860
 9158SOL    HW228374   6.721   3.816   3.975
 9159SOL     OW28375   2.907   6.920   3.218
 9159SOL    HW128376   2.959   6.932   3.134
 9159SOL    HW228377   2.870   7.009   3.247
 9160SOL     OW28378   0.615   4.821   6.514
 9160SOL    HW128379   0.612   4.726   6.482
 9160SOL    HW228380   0.527   4.865   6.498
 9161SOL     OW28381   5.684   3.762   1.976
 9161SOL    HW128382   5.746   3.733   2.048
 9161SOL    HW228383   5.605   3.701   1.973
 9162SOL     OW28384   4.265   1.641   2.488
 9162SOL    HW128385   4.323   1.723   2.494
 9162SOL    HW228386   4.198   1.643   2.562
 9163SOL     OW28387   0.752   2.441   2.311
 9163SOL    HW128388   0.795   2.529   2.331
 9163SOL    HW228389   0.717   2.441   2.218
 9164SOL     OW28390   2.223   0.203   6.612
 9164SOL    HW128391   2.162   0.126   6.631
 9164SOL    HW228392   2.168   0.285   6.598
 9165SOL     OW28393   5.166   2.625   5.022
 9165SOL    HW128394   5.215   2.560   4.963
 9165SOL    HW228395   5.089   2.665   4.971
 9166SOL     OW28396   4.706   5.785   1.801
 9166SOL    HW128397   4.622   5.803   1.751
 9166SOL    HW228398   4.685   5.764   1.896
 9167SOL     OW28399   0.943   1.107   5.856
 9167SOL    HW128400   1.011   1.167   5.814
 9167SOL    HW228401   0.925   1.137   5.949
 9168SOL     OW28402   6.334   5.206   4.749
 9168SOL    HW128403   6.279   5.132   4.787
 9168SOL    HW228404   6.295   5.235   4.661
 9169SOL     OW28405   6.274   5.489   6.633
 9169SOL    HW128406   6.181   5.524   6.645
 9169SOL    HW228407   6.329   5.557   6.584
 9170SOL     OW28408   1.344   1.582   6.068
 9170SOL    HW128409   1.348   1.508   6.001
 9170SOL    HW228410   1.434   1.594   6.111
 9171SOL     OW28411   2.847   4.982   0.795
 9171SOL    HW128412   2.914   4.914   0.822
 9171SOL    HW228413   2.874   5.072   0.831
 9172SOL     OW28414   5.559   1.307   4.699
 9172SOL    HW128415   5.658   1.299   4.715
 9172SOL    HW228416   5.510   1.278   4.781
 9173SOL     OW28417   6.605   2.743   3.734
 9173SOL    HW128418   6.569   2.751   3.827
 9173SOL    HW228419   6.547   2.680   3.682
 9174SOL     OW28420   1.096   5.777   6.862
 9174SOL    HW128421   1.075   5.834   6.942
 9174SOL    HW228422   1.109   5.836   6.782
 9175SOL     OW28423   2.219   6.987   0.438
 9175SOL    HW128424   2.210   6.888   0.432
 9175SOL    HW228425   2.278   7.010   0.516
 9176SOL     OW28426   2.071   1.308   3.165
 9176SOL    HW128427   2.081   1.259   3.251
 9176SOL    HW228428   2.100   1.403   3.177
 9177SOL     OW28429   0.711   4.783   3.783
 9177SOL    HW128430   0.789   4.735   3.823
 9177SOL    HW228431   0.686   4.739   3.696
 9178SOL     OW28432   2.384   6.388   0.029
 9178SOL    HW128433   2.442   6.442   0.090
 9178SOL    HW228434   2.288   6.407   0.049
 9179SOL     OW28435   4.262   6.442   5.504
 9179SOL    HW128436   4.273   6.351   5.543
 9179SOL    HW228437   4.245   6.434   5.406
 9180SOL     OW28438   6.949   1.515   4.268
 9180SOL    HW128439   6.977   1.595   4.215
 9180SOL    HW228440   6.906   1.545   4.353
 9181SOL     OW28441   4.383   1.847   3.681
 9181SOL    HW128442   4.457   1.895   3.634
 9181SOL    HW228443   4.409   1.752   3.696
 9182SOL     OW28444   1.833   1.455   2.990
 9182SOL    HW128445   1.838   1.376   2.929
 9182SOL    HW228446   1.832   1.423   3.085
 9183SOL     OW28447   5.447   2.552   6.713
 9183SOL    HW128448   5.542   2.583   6.719
 9183SOL    HW228449   5.390   2.606   6.775
 9184SOL     OW28450   3.155   3.009   0.808
 9184SOL    HW128451   3.110   3.046   0.889
 9184SOL    HW228452   3.227   3.073   0.778
 9185SOL     OW28453   0.509   0.809   6.673
 9185SOL    HW128454   0.561   0.805   6.758
 9185SOL    HW228455   0.444   0.733   6.670
 9186SOL     OW28456   5.067   0.372   6.454
 9186SOL    HW128457   5.026   0.353   6.543
 9186SOL    HW228458   5.058   0.469   6.433
 9187SOL     OW28459   4.806   1.640   6.688
 9187SOL    HW128460   4.899   1.604   6.687
 9187SOL    HW228461   4.791   1.694   6.605
 9188SOL     OW28462   1.189   0.321   1.484
 9188SOL    HW128463   1.113   0.286   1.429
 9188SOL    HW228464   1.250   0.375   1.425
 9189SOL     OW28465   2.766   1.256   3.422
 9189SOL    HW128466   2.769   1.331   3.355
 9189SOL    HW228467   2.807   1.287   3.508
 9190SOL     OW28468   5.813   3.824   5.433
 9190SOL    HW128469   5.837   3.728   5.424
 9190SOL    HW228470   5.880   3.870   5.492
 9191SOL     OW28471   5.811   6.036   6.663
 9191SOL    HW128472   5.755   5.956   6.643
 9191SOL    HW228473   5.871   6.056   6.585
 9192SOL     OW28474   0.026   4.525   6.132
 9192SOL    HW128475   0.036   4.434   6.092
 9192SOL    HW228476   0.048   4.594   6.064
 9193SOL     OW28477   4.027   3.270   3.475
 9193SOL    HW128478   3.960   3.200   3.449
 9193SOL    HW228479   4.036   3.336   3.400
 9194SOL     OW28480   3.126   5.685   2.521
 9194SOL    HW128481   3.043   5.714   2.473
 9194SOL    HW228482   3.126   5.723   2.614
 9195SOL     OW28483   0.389   3.130   3.384
 9195SOL    HW128484   0.328   3.052   3.377
 9195SOL    HW228485   0.385   3.184   3.300
 9196SOL     OW28486   4.160   0.795   3.571
 9196SOL    HW128487   4.136   0.890   3.588
 9196SOL    HW228488   4.233   0.790   3.503
 9197SOL     OW28489   2.557   3.133   6.636
 9197SOL    HW128490   2.510   3.086   6.560
 9197SOL    HW228491   2.500   3.129   6.718
 9198SOL     OW28492   5.654   3.547   6.000
 9198SOL    HW128493   5.615   3.636   5.976
 9198SOL    HW228494   5.594   3.474   5.966
 9199SOL     OW28495   1.593   3.615   6.441
 9199SOL    HW128496   1.686   3.580   6.439
 9199SOL    HW228497   1.536   3.561   6.378
 9200SOL     OW28498   6.702   0.017   0.831
 9200SOL    HW128499   6.636   0.011   0.756
 9200SOL    HW228500   6.743   0.108   0.833
 9201SOL     OW28501   0.114   4.541   1.537
 9201SOL    HW128502   0.194   4.521   1.593
 9201SOL    HW228503   0.105   4.473   1.465
 9202SOL     OW28504   2.508   4.879   4.078
 9202SOL    HW128505   2.558   4.909   4.160
 9202SOL    HW228506   2.558   4.804   4.035
 9203SOL     OW28507   5.685   1.200   6.034
 9203SOL    HW128508   5.774   1.246   6.033
 9203SOL    HW228509   5.683   1.131   5.962
 9204SOL     OW28510   5.444   3.740   3.601
 9204SOL    HW128511   5.536   3.701   3.605
 9204SOL    HW228512   5.386   3.682   3.544
 9205SOL     OW28513   5.979   2.920   3.029
 9205SOL    HW128514   5.925   2.915   3.113
 9205SOL    HW228515   5.943   2.992   2.970
 9206SOL     OW28516   1.975   6.162   3.660
 9206SOL    HW128517   2.065   6.176   3.700
 9206SOL    HW228518   1.969   6.209   3.572
 9207SOL     OW28519   4.183   5.993   6.064
 9207SOL    HW128520   4.176   5.895   6.046
 9207SOL    HW228521   4.240   6.008   6.144
 9208SOL     OW28522   4.983   3.303   2.353
 9208SOL    HW128523   4.929   3.324   2.434
 9208SOL    HW228524   5.064   3.362   2.350
 9209SOL     OW28525   3.922   1.211   2.982
 9209SOL    HW128526   3.959   1.118   2.981
 9209SOL    HW228527   3.937   1.254   2.893
 9210SOL     OW28528   2.093   0.481   1.367
 9210SOL    HW128529   2.028   0.405   1.371
 9210SOL    HW228530   2.123   0.494   1.273
 9211SOL     OW28531   4.995   1.821   6.392
 9211SOL    HW128532   4.974   1.783   6.302
 9211SOL    HW228533   4.914   1.865   6.430
 9212SOL     OW28534   5.247   4.518   4.389
 9212SOL    HW128535   5.204   4.443   4.338
 9212SOL    HW228536   5.182   4.554   4.457
 9213SOL     OW28537   6.102   0.391   3.970
 9213SOL    HW128538   6.056   0.352   3.890
 9213SOL    HW228539   6.042   0.384   4.050
 9214SOL     OW28540   1.479   2.689   4.563
 9214SOL    HW128541   1.572   2.673   4.596
 9214SOL    HW228542   1.416   2.633   4.617
 9215SOL     OW28543   0.562   3.710   2.677
 9215SOL    HW128544   0.517   3.746   2.596
 9215SOL    HW228545   0.588   3.615   2.662
 9216SOL     OW28546   2.823   5.644   5.172
 9216SOL    HW128547   2.751   5.584   5.136
 9216SOL    HW228548   2.804   5.738   5.145
 9217SOL     OW28549   5.310   1.467   6.152
 9217SOL    HW128550   5.386   1.478   6.215
 9217SOL    HW228551   5.231   1.429   6.201
 9218SOL     OW28552   5.924   6.729   6.490
 9218SOL    HW128553   5.945   6.699   6.583
 9218SOL    HW228554   5.940   6.828   6.483
 9219SOL     OW28555   3.725   2.690   5.331
 9219SOL    HW128556   3.629   2.714   5.317
 9219SOL    HW228557   3.777   2.707   5.247
 9220SOL     OW28558   1.506   6.286   2.802
 9220SOL    HW128559   1.459   6.323   2.881
 9220SOL    HW228560   1.456   6.206   2.768
 9221SOL     OW28561   2.403   0.705   6.530
 9221SOL    HW128562   2.466   0.723   6.605
 9221SOL    HW228563   2.434   0.626   6.477
 9222SOL     OW28564   1.645   4.592   3.651
 9222SOL    HW128565   1.549   4.605   3.627
 9222SOL    HW228566   1.672   4.662   3.717
 9223SOL     OW28567   1.446   4.250   4.601
 9223SOL    HW128568   1.497   4.234   4.517
 9223SOL    HW228569   1.480   4.188   4.673
 9224SOL     OW28570   1.356   4.555   3.730
 9224SOL    HW128571   1.360   4.463   3.770
 9224SOL    HW228572   1.325   4.620   3.800
 9225SOL     OW28573   3.849   6.914   6.554
 9225SOL    HW128574   3.948   6.924   6.567
 9225SOL    HW228575   3.823   6.952   6.465
 9226SOL     OW28576   1.011   0.056   1.140
 9226SOL    HW128577   1.055   6.983   1.126
 9226SOL    HW228578   0.913   0.041   1.158
 9227SOL     OW28579   2.359   5.406   0.888
 9227SOL    HW128580   2.325   5.500   0.880
 9227SOL    HW228581   2.390   5.374   0.799
 9228SOL     OW28582   1.918   2.472   5.565
 9228SOL    HW128583   1.954   2.538   5.499
 9228SOL    HW228584   1.971   2.387   5.560
 9229SOL     OW28585   0.347   4.370   6.844
 9229SOL    HW128586   0.392   4.453   6.810
 9229SOL    HW228587   0.416   4.300   6.861
 9230SOL     OW28588   4.919   2.357   3.931
 9230SOL    HW128589   4.992   2.290   3.914
 9230SOL    HW228590   4.951   2.425   3.997
 9231SOL     OW28591   0.796   5.409   5.011
 9231SOL    HW128592   0.819   5.314   5.032
 9231SOL    HW228593   0.878   5.465   5.013
 9232SOL     OW28594   2.094   5.613   1.781
 9232SOL    HW128595   2.057   5.582   1.868
 9232SOL    HW228596   2.194   5.620   1.787
 9233SOL     OW28597   0.518   6.955   1.008
 9233SOL    HW128598   0.453   6.879   1.010
 9233SOL    HW228599   0.474   0.020   0.968
 9234SOL     OW28600   2.238   4.896   0.498
 9234SOL    HW128601   2.240   4.897   0.398
 9234SOL    HW228602   2.213   4.987   0.531
 9235SOL     OW28603   2.526   2.583   3.254
 9235SOL    HW128604   2.435   2.625   3.255
 9235SOL    HW228605   2.548   2.549   3.346
 9236SOL     OW28606   1.788   2.698   6.535
 9236SOL    HW128607   1.747   2.608   6.541
 9236SOL    HW228608   1.767   2.739   6.446
 9237SOL     OW28609   5.921   5.460   3.418
 9237SOL    HW128610   5.925   5.370   3.461
 9237SOL    HW228611   5.904   5.530   3.487
 9238SOL     OW28612   1.446   3.278   5.243
 9238SOL    HW128613   1.392   3.197   5.266
 9238SOL    HW228614   1.542   3.260   5.264
 9239SOL     OW28615   0.482   4.679   0.345
 9239SOL    HW128616   0.554   4.739   0.311
 9239SOL    HW228617   0.511   4.639   0.432
 9240SOL     OW28618   4.803   2.904   2.744
 9240SOL    HW128619   4.772   2.883   2.651
 9240SOL    HW228620   4.729   2.889   2.808
 9241SOL     OW28621   6.835   6.167   0.173
 9241SOL    HW128622   6.785   6.190   0.090
 9241SOL    HW228623   6.770   6.141   0.245
 9242SOL     OW28624   1.334   2.189   2.074
 9242SOL    HW128625   1.403   2.150   2.014
 9242SOL    HW228626   1.377   2.253   2.137
 9243SOL     OW28627   0.187   0.360   1.312
 9243SOL    HW128628   0.094   0.371   1.277
 9243SOL    HW228629   0.221   0.269   1.288
 9244SOL     OW28630   3.570   6.381   5.426
 9244SOL    HW128631   3.616   6.470   5.421
 9244SOL    HW228632   3.567   6.340   5.335
 9245SOL     OW28633   0.973   4.055   3.168
 9245SOL    HW128634   1.049   4.006   3.211
 9245SOL    HW228635   1.009   4.122   3.103
 9246SOL     OW28636   6.022   0.011   4.555
 9246SOL    HW128637   6.030   0.019   4.655
 9246SOL    HW228638   5.998   6.932   4.532
 9247SOL     OW28639   3.784   5.792   2.817
 9247SOL    HW128640   3.860   5.856   2.829
 9247SOL    HW228641   3.753   5.760   2.907
 9248SOL     OW28642   2.561   1.545   5.101
 9248SOL    HW128643   2.646   1.494   5.088
 9248SOL    HW228644   2.576   1.641   5.079
 9249SOL     OW28645   3.825   4.677   1.718
 9249SOL    HW128646   3.726   4.669   1.735
 9249SOL    HW228647   3.870   4.710   1.800
 9250SOL     OW28648   6.792   4.274   4.374
 9250SOL    HW128649   6.839   4.200   4.421
 9250SOL    HW228650   6.856   4.320   4.312
 9251SOL     OW28651   4.018   2.814   0.994
 9251SOL    HW128652   3.925   2.824   1.029
 9251SOL    HW228653   4.056   2.726   1.025
 9252SOL     OW28654   4.222   0.978   5.189
 9252SOL    HW128655   4.215   0.919   5.269
 9252SOL    HW228656   4.318   1.004   5.175
 9253SOL     OW28657   0.409   4.595   5.526
 9253SOL    HW128658   0.401   4.694   5.535
 9253SOL    HW228659   0.370   4.566   5.438
 9254SOL     OW28660   6.036   4.316   2.552
 9254SOL    HW128661   6.008   4.243   2.489
 9254SOL    HW228662   5.957   4.375   2.570
 9255SOL     OW28663   6.431   3.996   0.244
 9255SOL    HW128664   6.407   3.925   0.310
 9255SOL    HW228665   6.383   4.081   0.267
 9256SOL     OW28666   1.997   6.718   1.947
 9256SOL    HW128667   2.070   6.746   1.884
 9256SOL    HW228668   1.983   6.790   2.015
 9257SOL     OW28669   6.920   5.887   3.516
 9257SOL    HW128670   6.920   5.803   3.462
 9257SOL    HW228671   6.994   5.946   3.487
 9258SOL     OW28672   3.467   3.287   0.125
 9258SOL    HW128673   3.428   3.364   0.074
 9258SOL    HW228674   3.516   3.227   0.062
 9259SOL     OW28675   1.693   1.139   6.238
 9259SOL    HW128676   1.635   1.084   6.178
 9259SOL    HW228677   1.788   1.131   6.210
 9260SOL     OW28678   5.835   3.095   5.841
 9260SOL    HW128679   5.815   3.161   5.913
 9260SOL    HW228680   5.788   3.121   5.757
 9261SOL     OW28681   4.132   1.548   0.735
 9261SOL    HW128682   4.125   1.618   0.806
 9261SOL    HW228683   4.206   1.484   0.759
 9262SOL     OW28684   6.527   6.465   4.312
 9262SOL    HW128685   6.429   6.447   4.317
 9262SOL    HW228686   6.562   6.488   4.402
 9263SOL     OW28687   2.595   4.962   2.999
 9263SOL    HW128688   2.605   4.900   3.077
 9263SOL    HW228689   2.504   4.952   2.959
 9264SOL     OW28690   5.599   3.959   6.604
 9264SOL    HW128691   5.509   3.953   6.647
 9264SOL    HW228692   5.616   3.877   6.551
 9265SOL     OW28693   4.224   2.048   6.834
 9265SOL    HW128694   4.275   2.109   6.894
 9265SOL    HW228695   4.268   2.044   6.744
 9266SOL     OW28696   0.900   4.319   1.521
 9266SOL    HW128697   0.975   4.383   1.506
 9266SOL    HW228698   0.835   4.358   1.586
 9267SOL     OW28699   0.817   1.286   3.832
 9267SOL    HW128700   0.833   1.366   3.891
 9267SOL    HW228701   0.785   1.316   3.743
 9268SOL     OW28702   0.868   0.068   1.799
 9268SOL    HW128703   0.782   0.079   1.849
 9268SOL    HW228704   0.897   0.156   1.762
 9269SOL     OW28705   4.447   6.886   0.307
 9269SOL    HW128706   4.475   6.974   0.343
 9269SOL    HW228707   4.374   6.848   0.363
 9270SOL     OW28708   3.629   0.955   6.202
 9270SOL    HW128709   3.713   0.916   6.162
 9270SOL    HW228710   3.575   0.997   6.129
 9271SOL     OW28711   1.111   0.626   6.808
 9271SOL    HW128712   1.171   0.582   6.874
 9271SOL    HW228713   1.073   0.557   6.746
 9272SOL     OW28714   6.560   6.664   6.280
 9272SOL    HW128715   6.547   6.756   6.243
 9272SOL    HW228716   6.554   6.597   6.206
 9273SOL     OW28717   5.669   5.860   3.945
 9273SOL    HW128718   5.651   5.881   4.041
 9273SOL    HW228719   5.612   5.783   3.917
 9274SOL     OW28720   0.792   3.144   0.770
 9274SOL    HW128721   0.813   3.146   0.672
 9274SOL    HW228722   0.727   3.070   0.788
 9275SOL     OW28723   0.728   6.467   1.319
 9275SOL    HW128724   0.641   6.509   1.343
 9275SOL    HW228725   0.751   6.488   1.224
 9276SOL     OW28726   3.474   4.329   0.445
 9276SOL    HW128727   3.518   4.335   0.534
 9276SOL    HW228728   3.387   4.279   0.454
 9277SOL     OW28729   4.456   4.908   2.486
 9277SOL    HW128730   4.398   4.833   2.519
 9277SOL    HW228731   4.516   4.875   2.414
 9278SOL     OW28732   0.233   0.436   4.234
 9278SOL    HW128733   0.185   0.372   4.175
 9278SOL    HW228734   0.331   0.433   4.214
 9279SOL     OW28735   3.492   5.265   1.440
 9279SOL    HW128736   3.458   5.198   1.506
 9279SOL    HW228737   3.465   5.357   1.468
 9280SOL     OW28738   1.250   1.255   2.753
 9280SOL    HW128739   1.333   1.203   2.731
 9280SOL    HW228740   1.247   1.273   2.851
 9281SOL     OW28741   3.745   3.393   6.343
 9281SOL    HW128742   3.689   3.466   6.305
 9281SOL    HW228743   3.686   3.317   6.371
 9282SOL     OW28744   3.037   0.358   4.821
 9282SOL    HW128745   3.123   0.364   4.871
 9282SOL    HW228746   3.021   0.263   4.793
 9283SOL     OW28747   5.331   6.712   6.320
 9283SOL    HW128748   5.403   6.748   6.260
 9283SOL    HW228749   5.373   6.660   6.394
 9284SOL     OW28750   3.673   4.133   5.289
 9284SOL    HW128751   3.642   4.094   5.376
 9284SOL    HW228752   3.746   4.077   5.252
 9285SOL     OW28753   5.998   3.031   2.319
 9285SOL    HW128754   6.047   3.013   2.404
 9285SOL    HW228755   6.047   2.989   2.243
 9286SOL     OW28756   4.657   6.281   0.938
 9286SOL    HW128757   4.660   6.199   0.994
 9286SOL    HW228758   4.656   6.256   0.841
 9287SOL     OW28759   2.641   4.471   5.712
 9287SOL    HW128760   2.574   4.478   5.638
 9287SOL    HW228761   2.671   4.562   5.738
 9288SOL     OW28762   4.473   2.474   3.934
 9288SOL    HW128763   4.530   2.434   4.005
 9288SOL    HW228764   4.520   2.552   3.893
 9289SOL     OW28765   4.301   6.392   6.083
 9289SOL    HW128766   4.372   6.461   6.066
 9289SOL    HW228767   4.256   6.368   5.997
 9290SOL     OW28768   5.476   0.447   4.789
 9290SOL    HW128769   5.574   0.452   4.808
 9290SOL    HW228770   5.460   0.456   4.690
 9291SOL     OW28771   1.210   5.792   5.264
 9291SOL    HW128772   1.292   5.829   5.308
 9291SOL    HW228773   1.190   5.701   5.301
 9292SOL     OW28774   1.181   1.212   5.756
 9292SOL    HW128775   1.162   1.245   5.663
 9292SOL    HW228776   1.207   1.115   5.752
 9293SOL     OW28777   4.672   2.964   5.687
 9293SOL    HW128778   4.696   3.045   5.633
 9293SOL    HW228779   4.697   2.882   5.635
 9294SOL     OW28780   4.843   0.812   0.505
 9294SOL    HW128781   4.816   0.719   0.479
 9294SOL    HW228782   4.858   0.867   0.423
 9295SOL     OW28783   0.367   0.549   5.215
 9295SOL    HW128784   0.429   0.484   5.259
 9295SOL    HW228785   0.388   0.554   5.117
 9296SOL     OW28786   2.925   4.182   0.869
 9296SOL    HW128787   3.016   4.182   0.912
 9296SOL    HW228788   2.859   4.221   0.933
 9297SOL     OW28789   6.598   6.432   3.072
 9297SOL    HW128790   6.659   6.466   3.144
 9297SOL    HW228791   6.507   6.416   3.110
 9298SOL     OW28792   1.326   6.680   5.716
 9298SOL    HW128793   1.341   6.639   5.627
 9298SOL    HW228794   1.245   6.639   5.759
 9299SOL     OW28795   2.000   2.368   4.489
 9299SOL    HW128796   2.063   2.373   4.411
 9299SOL    HW228797   2.014   2.448   4.547
 9300SOL     OW28798   1.706   5.887   5.333
 9300SOL    HW128799   1.696   5.837   5.419
 9300SOL    HW228800   1.696   5.823   5.257
 9301SOL     OW28801   0.652   3.964   4.355
 9301SOL    HW128802   0.658   3.954   4.255
 9301SOL    HW228803   0.626   3.876   4.395
 9302SOL     OW28804   2.200   3.078   4.784
 9302SOL    HW128805   2.261   3.060   4.861
 9302SOL    HW228806   2.229   3.024   4.705
 9303SOL     OW28807   2.912   3.872   0.317
 9303SOL    HW128808   2.838   3.808   0.298
 9303SOL    HW228809   2.994   3.821   0.343
 9304SOL     OW28810   5.117   5.067   1.060
 9304SOL    HW128811   5.161   4.978   1.074
 9304SOL    HW228812   5.146   5.105   0.972
 9305SOL     OW28813   2.414   1.432   0.695
 9305SOL    HW128814   2.418   1.434   0.595
 9305SOL    HW228815   2.504   1.456   0.732
 9306SOL     OW28816   0.461   3.833   4.600
 9306SOL    HW128817   0.383   3.886   4.566
 9306SOL    HW228818   0.460   3.833   4.700
 9307SOL     OW28819   2.393   2.977   0.833
 9307SOL    HW128820   2.425   3.022   0.750
 9307SOL    HW228821   2.293   2.970   0.830
 9308SOL     OW28822   1.227   4.001   1.507
 9308SOL    HW128823   1.238   4.084   1.562
 9308SOL    HW228824   1.256   4.018   1.413
 9309SOL     OW28825   5.084   5.929   5.732
 9309SOL    HW128826   5.117   5.835   5.725
 9309SOL    HW228827   4.986   5.932   5.711
 9310SOL     OW28828   4.576   5.540   5.567
 9310SOL    HW128829   4.618   5.626   5.595
 9310SOL    HW228830   4.551   5.488   5.649
 9311SOL     OW28831   4.354   3.287   1.715
 9311SOL    HW128832   4.326   3.199   1.755
 9311SOL    HW228833   4.340   3.285   1.617
 9312SOL     OW28834   1.317   2.055   1.015
 9312SOL    HW128835   1.296   2.082   1.108
 9312SOL    HW228836   1.234   2.022   0.970
 9313SOL     OW28837   1.197   0.353   1.989
 9313SOL    HW128838   1.161   0.319   1.902
 9313SOL    HW228839   1.273   0.294   2.018
 9314SOL     OW28840   4.994   2.747   0.707
 9314SOL    HW128841   5.072   2.745   0.645
 9314SOL    HW228842   4.993   2.664   0.763
 9315SOL     OW28843   5.563   1.415   6.838
 9315SOL    HW128844   5.653   1.434   6.798
 9315SOL    HW228845   5.575   1.368   6.925
 9316SOL     OW28846   5.321   0.583   5.737
 9316SOL    HW128847   5.297   0.557   5.830
 9316SOL    HW228848   5.332   0.683   5.733
 9317SOL     OW28849   2.991   5.442   3.822
 9317SOL    HW128850   2.959   5.481   3.908
 9317SOL    HW228851   3.091   5.439   3.822
 9318SOL     OW28852   5.090   6.053   0.472
 9318SOL    HW128853   5.180   6.095   0.457
 9318SOL    HW228854   5.050   6.027   0.384
 9319SOL     OW28855   2.713   4.249   1.059
 9319SOL    HW128856   2.676   4.196   0.983
 9319SOL    HW228857   2.672   4.218   1.145
 9320SOL     OW28858   5.662   0.141   6.093
 9320SOL    HW128859   5.600   0.147   6.171
 9320SOL    HW228860   5.619   0.087   6.020
 9321SOL     OW28861   0.089   3.165   5.601
 9321SOL    HW128862   0.179   3.134   5.571
 9321SOL    HW228863   0.094   3.200   5.694
 9322SOL     OW28864   6.204   3.814   5.723
 9322SOL    HW128865   6.156   3.884   5.670
 9322SOL    HW228866   6.293   3.796   5.681
 9323SOL     OW28867   1.385   3.580   3.565
 9323SOL    HW128868   1.436   3.664   3.583
 9323SOL    HW228869   1.354   3.579   3.470
 9324SOL     OW28870   0.998   4.118   0.751
 9324SOL    HW128871   0.987   4.019   0.736
 9324SOL    HW228872   1.067   4.154   0.688
 9325SOL     OW28873   1.934   5.207   2.530
 9325SOL    HW128874   1.997   5.265   2.478
 9325SOL    HW228875   1.985   5.137   2.579
 9326SOL     OW28876   4.145   3.964   0.175
 9326SOL    HW128877   4.127   4.030   0.248
 9326SOL    HW228878   4.166   4.012   0.090
 9327SOL     OW28879   4.521   0.836   3.152
 9327SOL    HW128880   4.468   0.760   3.190
 9327SOL    HW228881   4.551   0.813   3.060
 9328SOL     OW28882   3.105   6.589   4.447
 9328SOL    HW128883   3.103   6.489   4.450
 9328SOL    HW228884   3.019   6.623   4.409
 9329SOL     OW28885   0.160   5.983   5.884
 9329SOL    HW128886   0.121   5.903   5.928
 9329SOL    HW228887   0.243   5.957   5.835
 9330SOL     OW28888   6.538   0.204   0.017
 9330SOL    HW128889   6.514   0.300   0.033
 9330SOL    HW228890   6.478   0.167   6.961
 9331SOL     OW28891   1.292   3.314   5.018
 9331SOL    HW128892   1.353   3.287   5.092
 9331SOL    HW228893   1.302   3.251   4.941
 9332SOL     OW28894   4.153   6.033   0.685
 9332SOL    HW128895   4.248   6.062   0.691
 9332SOL    HW228896   4.131   6.012   0.590
 9333SOL     OW28897   3.650   4.895   0.614
 9333SOL    HW128898   3.581   4.842   0.663
 9333SOL    HW228899   3.608   4.978   0.576
 9334SOL     OW28900   4.959   6.381   4.858
 9334SOL    HW128901   4.982   6.444   4.932
 9334SOL    HW228902   5.031   6.383   4.788
 9335SOL     OW28903   2.291   1.888   1.538
 9335SOL    HW128904   2.205   1.875   1.487
 9335SOL    HW228905   2.290   1.978   1.582
 9336SOL     OW28906   6.249   0.630   5.073
 9336SOL    HW128907   6.234   0.607   5.169
 9336SOL    HW228908   6.160   0.636   5.027
 9337SOL     OW28909   4.457   7.013   6.469
 9337SOL    HW128910   4.500   6.995   6.558
 9337SOL    HW228911   4.527   7.010   6.397
 9338SOL     OW28912   6.880   6.224   0.444
 9338SOL    HW128913   6.899   6.264   0.355
 9338SOL    HW228914   6.922   6.133   0.450
 9339SOL     OW28915   5.909   4.523   6.625
 9339SOL    HW128916   5.932   4.585   6.700
 9339SOL    HW228917   5.950   4.557   6.540
 9340SOL     OW28918   3.553   6.229   2.284
 9340SOL    HW128919   3.455   6.239   2.270
 9340SOL    HW228920   3.570   6.162   2.356
 9341SOL     OW28921   6.202   3.908   6.361
 9341SOL    HW128922   6.302   3.912   6.355
 9341SOL    HW228923   6.175   3.883   6.453
 9342SOL     OW28924   2.580   0.197   4.506
 9342SOL    HW128925   2.618   0.216   4.597
 9342SOL    HW228926   2.648   0.148   4.452
 9343SOL     OW28927   4.607   4.498   1.897
 9343SOL    HW128928   4.561   4.411   1.917
 9343SOL    HW228929   4.705   4.489   1.912
 9344SOL     OW28930   5.474   4.827   6.086
 9344SOL    HW128931   5.374   4.822   6.089
 9344SOL    HW228932   5.509   4.852   6.176
 9345SOL     OW28933   0.185   6.063   0.075
 9345SOL    HW128934   0.150   6.096   7.003
 9345SOL    HW228935   0.116   6.004   0.118
 9346SOL     OW28936   5.273   6.697   2.165
 9346SOL    HW128937   5.282   6.796   2.151
 9346SOL    HW228938   5.273   6.677   2.263
 9347SOL     OW28939   3.645   5.609   1.431
 9347SOL    HW128940   3.563   5.577   1.383
 9347SOL    HW228941   3.723   5.606   1.370
 9348SOL     OW28942   2.383   6.360   3.085
 9348SOL    HW128943   2.370   6.424   3.160
 9348SOL    HW228944   2.477   6.327   3.085
 9349SOL     OW28945   6.715   5.843   2.473
 9349SOL    HW128946   6.716   5.871   2.569
 9349SOL    HW228947   6.643   5.775   2.460
 9350SOL     OW28948   6.662   1.376   4.848
 9350SOL    HW128949   6.727   1.375   4.772
 9350SOL    HW228950   6.569   1.383   4.812
 9351SOL     OW28951   2.072   0.795   5.368
 9351SOL    HW128952   2.160   0.757   5.340
 9351SOL    HW228953   2.041   0.750   5.452
 9352SOL     OW28954   1.890   2.740   5.448
 9352SOL    HW128955   1.899   2.834   5.481
 9352SOL    HW228956   1.814   2.735   5.384
 9353SOL     OW28957   1.574   4.388   1.712
 9353SOL    HW128958   1.501   4.409   1.648
 9353SOL    HW228959   1.645   4.334   1.666
 9354SOL     OW28960   6.317   1.894   1.168
 9354SOL    HW128961   6.405   1.932   1.196
 9354SOL    HW228962   6.287   1.826   1.235
 9355SOL     OW28963   6.532   0.649   4.480
 9355SOL    HW128964   6.445   0.599   4.480
 9355SOL    HW228965   6.549   0.684   4.388
 9356SOL     OW28966   4.359   5.269   2.072
 9356SOL    HW128967   4.325   5.315   1.990
 9356SOL    HW228968   4.355   5.333   2.149
 9357SOL     OW28969   2.664   3.373   0.439
 9357SOL    HW128970   2.761   3.393   0.458
 9357SOL    HW228971   2.657   3.287   0.389
 9358SOL     OW28972   5.575   4.489   1.950
 9358SOL    HW128973   5.485   4.531   1.945
 9358SOL    HW228974   5.609   4.494   2.044
 9359SOL     OW28975   6.886   3.813   6.844
 9359SOL    HW128976   6.962   3.820   6.780
 9359SOL    HW228977   6.908   3.867   6.926
 9360SOL     OW28978   1.806   0.098   5.576
 9360SOL    HW128979   1.785   0.051   5.490
 9360SOL    HW228980   1.904   0.118   5.580
 9361SOL     OW28981   3.437   6.163   2.890
 9361SOL    HW128982   3.425   6.260   2.871
 9361SOL    HW228983   3.521   6.130   2.847
 9362SOL     OW28984   2.132   1.038   2.452
 9362SOL    HW128985   2.193   0.994   2.386
 9362SOL    HW228986   2.178   1.046   2.540
 9363SOL     OW28987   3.486   5.694   2.104
 9363SOL    HW128988   3.545   5.627   2.151
 9363SOL    HW228989   3.460   5.657   2.015
 9364SOL     OW28990   4.628   2.705   6.296
 9364SOL    HW128991   4.582   2.627   6.336
 9364SOL    HW228992   4.589   2.724   6.205
 9365SOL     OW28993   2.733   2.303   5.236
 9365SOL    HW128994   2.751   2.400   5.224
 9365SOL    HW228995   2.817   2.257   5.266
 9366SOL     OW28996   3.191   1.811   0.294
 9366SOL    HW128997   3.153   1.744   0.358
 9366SOL    HW228998   3.191   1.901   0.337
 9367SOL     OW28999   0.320   5.231   3.993
 9367SOL    HW129000   0.317   5.194   3.900
 9367SOL    HW229001   0.394   5.298   4.000
 9368SOL     OW29002   3.818   1.903   2.297
 9368SOL    HW129003   3.873   1.888   2.379
 9368SOL    HW229004   3.773   1.818   2.270
 9369SOL     OW29005   6.404   1.443   6.229
 9369SOL    HW129006   6.367   1.350   6.227
 9369SOL    HW229007   6.438   1.467   6.138
 9370SOL     OW29008   5.562   0.994   3.036
 9370SOL    HW129009   5.620   1.073   3.016
 9370SOL    HW229010   5.517   0.963   2.952
 9371SOL     OW29011   1.610   5.542   0.561
 9371SOL    HW129012   1.588   5.637   0.583
 9371SOL    HW229013   1.542   5.482   0.604
 9372SOL     OW29014   5.572   6.288   3.353
 9372SOL    HW129015   5.548   6.190   3.357
 9372SOL    HW229016   5.552   6.323   3.262
 9373SOL     OW29017   4.571   1.933   2.841
 9373SOL    HW129018   4.607   2.004   2.780
 9373SOL    HW229019   4.553   1.850   2.788
 9374SOL     OW29020   5.719   2.605   0.461
 9374SOL    HW129021   5.745   2.583   0.367
 9374SOL    HW229022   5.619   2.603   0.468
 9375SOL     OW29023   6.704   1.458   3.223
 9375SOL    HW129024   6.633   1.527   3.232
 9375SOL    HW229025   6.792   1.497   3.250
 9376SOL     OW29026   3.176   3.521   0.700
 9376SOL    HW129027   3.180   3.617   0.672
 9376SOL    HW229028   3.142   3.516   0.794
 9377SOL     OW29029   6.464   5.444   3.595
 9377SOL    HW129030   6.536   5.375   3.606
 9377SOL    HW229031   6.433   5.444   3.499
 9378SOL     OW29032   2.257   6.952   5.747
 9378SOL    HW129033   2.243   6.909   5.658
 9378SOL    HW229034   2.257   6.882   5.819
 9379SOL     OW29035   4.782   4.407   5.009
 9379SOL    HW129036   4.835   4.477   5.057
 9379SOL    HW229037   4.701   4.449   4.967
 9380SOL     OW29038   6.205   6.422   5.619
 9380SOL    HW129039   6.215   6.339   5.674
 9380SOL    HW229040   6.277   6.486   5.642
 9381SOL     OW29041   2.934   3.219   5.565
 9381SOL    HW129042   2.924   3.318   5.554
 9381SOL    HW229043   2.880   3.188   5.643
 9382SOL     OW29044   3.838   1.433   3.446
 9382SOL    HW129045   3.833   1.428   3.346
 9382SOL    HW229046   3.779   1.363   3.486
 9383SOL     OW29047   3.600   5.900   4.874
 9383SOL    HW129048   3.508   5.875   4.904
 9383SOL    HW229049   3.593   5.965   4.798
 9384SOL     OW29050   4.559   6.025   2.120
 9384SOL    HW129051   4.465   6.043   2.092
 9384SOL    HW229052   4.566   6.034   2.219
 9385SOL     OW29053   4.115   1.987   2.801
 9385SOL    HW129054   4.048   1.978   2.875
 9385SOL    HW229055   4.206   2.001   2.840
 9386SOL     OW29056   3.430   6.049   4.342
 9386SOL    HW129057   3.388   6.009   4.423
 9386SOL    HW229058   3.417   6.148   4.342
 9387SOL     OW29059   4.262   0.127   0.935
 9387SOL    HW129060   4.226   0.098   0.846
 9387SOL    HW229061   4.218   0.074   1.007
 9388SOL     OW29062   1.806   6.079   2.884
 9388SOL    HW129063   1.722   6.104   2.837
 9388SOL    HW229064   1.881   6.138   2.853
 9389SOL     OW29065   2.579   0.013   4.964
 9389SOL    HW129066   2.485   0.038   4.942
 9389SOL    HW229067   2.589   6.929   4.965
 9390SOL     OW29068   3.937   5.548   3.066
 9390SOL    HW129069   3.866   5.617   3.079
 9390SOL    HW229070   3.955   5.502   3.153
 9391SOL     OW29071   1.747   0.530   5.455
 9391SOL    HW129072   1.814   0.577   5.512
 9391SOL    HW229073   1.716   0.591   5.382
 9392SOL     OW29074   0.446   6.908   4.216
 9392SOL    HW129075   0.492   6.928   4.129
 9392SOL    HW229076   0.370   6.845   4.199
 9393SOL     OW29077   3.875   1.784   4.282
 9393SOL    HW129078   3.974   1.795   4.294
 9393SOL    HW229079   3.828   1.811   4.366
 9394SOL     OW29080   6.029   2.480   3.269
 9394SOL    HW129081   6.041   2.499   3.171
 9394SOL    HW229082   6.070   2.554   3.323
 9395SOL     OW29083   2.725   2.223   0.464
 9395SOL    HW129084   2.812   2.180   0.437
 9395SOL    HW229085   2.733   2.322   0.452
 9396SOL     OW29086   0.284   6.454   4.718
 9396SOL    HW129087   0.234   6.541   4.715
 9396SOL    HW229088   0.262   6.405   4.802
 9397SOL     OW29089   2.588   0.299   0.160
 9397SOL    HW129090   2.568   0.228   0.093
 9397SOL    HW229091   2.651   0.263   0.229
 9398SOL     OW29092   1.893   0.350   7.010
 9398SOL    HW129093   1.860   0.337   0.089
 9398SOL    HW229094   1.912   0.261   6.969
 9399SOL     OW29095   0.367   2.365   6.917
 9399SOL    HW129096   0.418   2.321   6.991
 9399SOL    HW229097   0.429   2.424   6.864
 9400SOL     OW29098   5.258   3.718   1.810
 9400SOL    HW129099   5.332   3.652   1.798
 9400SOL    HW229100   5.219   3.741   1.721
 9401SOL     OW29101   2.905   6.164   3.710
 9401SOL    HW129102   2.979   6.222   3.746
 9401SOL    HW229103   2.944   6.094   3.651
 9402SOL     OW29104   1.667   4.495   5.828
 9402SOL    HW129105   1.759   4.472   5.860
 9402SOL    HW229106   1.608   4.512   5.907
 9403SOL     OW29107   4.741   1.520   2.741
 9403SOL    HW129108   4.725   1.486   2.834
 9403SOL    HW229109   4.685   1.469   2.676
 9404SOL     OW29110   1.432   4.656   6.641
 9404SOL    HW129111   1.525   4.686   6.619
 9404SOL    HW229112   1.368   4.691   6.573
 9405SOL     OW29113   6.549   6.706   2.203
 9405SOL    HW129114   6.634   6.656   2.217
 9405SOL    HW229115   6.472   6.642   2.205
 9406SOL     OW29116   6.763   1.430   5.910
 9406SOL    HW129117   6.683   1.453   5.966
 9406SOL    HW229118   6.811   1.352   5.950
 9407SOL     OW29119   2.818   6.745   2.341
 9407SOL    HW129120   2.872   6.670   2.379
 9407SOL    HW229121   2.737   6.708   2.296
 9408SOL     OW29122   3.596   1.558   5.879
 9408SOL    HW129123   3.572   1.600   5.966
 9408SOL    HW229124   3.537   1.595   5.807
 9409SOL     OW29125   4.695   4.151   4.797
 9409SOL    HW129126   4.596   4.139   4.788
 9409SOL    HW229127   4.731   4.084   4.862
 9410SOL     OW29128   3.429   5.558   1.884
 9410SOL    HW129129   3.493   5.494   1.840
 9410SOL    HW229130   3.336   5.534   1.859
 9411SOL     OW29131   3.261   4.545   0.974
 9411SOL    HW129132   3.341   4.486   0.966
 9411SOL    HW229133   3.263   4.593   1.061
 9412SOL     OW29134   0.450   3.479   1.742
 9412SOL    HW129135   0.400   3.514   1.663
 9412SOL    HW229136   0.548   3.496   1.730
 9413SOL     OW29137   4.303   5.550   4.762
 9413SOL    HW129138   4.250   5.548   4.676
 9413SOL    HW229139   4.384   5.606   4.750
 9414SOL     OW29140   3.585   1.871   3.457
 9414SOL    HW129141   3.487   1.877   3.472
 9414SOL    HW229142   3.603   1.845   3.362
 9415SOL     OW29143   2.726   6.258   2.564
 9415SOL    HW129144   2.697   6.266   2.468
 9415SOL    HW229145   2.646   6.241   2.621
 9416SOL     OW29146   0.894   1.886   1.662
 9416SOL    HW129147   0.976   1.942   1.656
 9416SOL    HW229148   0.902   1.809   1.598
 9417SOL     OW29149   2.863   0.522   5.595
 9417SOL    HW129150   2.848   0.505   5.692
 9417SOL    HW229151   2.860   0.621   5.578
 9418SOL     OW29152   2.820   6.751   0.953
 9418SOL    HW129153   2.750   6.700   1.002
 9418SOL    HW229154   2.906   6.700   0.956
 9419SOL     OW29155   3.240   6.369   5.282
 9419SOL    HW129156   3.275   6.382   5.375
 9419SOL    HW229157   3.308   6.401   5.216
 9420SOL     OW29158   0.723   2.067   4.504
 9420SOL    HW129159   0.774   2.049   4.588
 9420SOL    HW229160   0.765   2.018   4.428
 9421SOL     OW29161   2.499   5.852   5.006
 9421SOL    HW129162   2.467   5.762   5.036
 9421SOL    HW229163   2.421   5.912   4.991
 9422SOL     OW29164   5.158   0.223   2.736
 9422SOL    HW129165   5.147   0.289   2.812
 9422SOL    HW229166   5.210   0.144   2.768
 9423SOL     OW29167   3.961   0.607   2.918
 9423SOL    HW129168   3.948   0.564   3.008
 9423SOL    HW229169   3.886   0.671   2.901
 9424SOL     OW29170   4.813   0.468   5.256
 9424SOL    HW129171   4.848   0.540   5.196
 9424SOL    HW229172   4.874   0.390   5.255
 9425SOL     OW29173   0.338   3.445   6.250
 9425SOL    HW129174   0.318   3.541   6.231
 9425SOL    HW229175   0.394   3.438   6.332
 9426SOL     OW29176   2.862   1.664   0.135
 9426SOL    HW129177   2.802   1.728   0.182
 9426SOL    HW229178   2.946   1.711   0.109
 9427SOL     OW29179   2.468   4.815   5.252
 9427SOL    HW129180   2.502   4.847   5.164
 9427SOL    HW229181   2.376   4.850   5.268
 9428SOL     OW29182   5.022   0.244   1.659
 9428SOL    HW129183   4.966   0.162   1.656
 9428SOL    HW229184   4.974   0.316   1.710
 9429SOL     OW29185   1.284   4.793   1.890
 9429SOL    HW129186   1.233   4.814   1.807
 9429SOL    HW229187   1.382   4.810   1.874
 9430SOL     OW29188   0.037   6.558   2.287
 9430SOL    HW129189   0.080   6.475   2.321
 9430SOL    HW229190   0.097   6.636   2.304
 9431SOL     OW29191   5.722   4.318   0.692
 9431SOL    HW129192   5.696   4.273   0.606
 9431SOL    HW229193   5.777   4.257   0.747
 9432SOL     OW29194   7.012   0.190   3.454
 9432SOL    HW129195   0.078   0.204   3.511
 9432SOL    HW229196   6.931   0.220   3.503
 9433SOL     OW29197   3.340   4.905   3.992
 9433SOL    HW129198   3.344   4.818   3.943
 9433SOL    HW229199   3.265   4.960   3.956
 9434SOL     OW29200   5.753   4.720   3.351
 9434SOL    HW129201   5.800   4.711   3.438
 9434SOL    HW229202   5.803   4.783   3.292
 9435SOL     OW29203   1.014   1.634   3.806
 9435SOL    HW129204   1.044   1.644   3.711
 9435SOL    HW229205   0.944   1.563   3.811
 9436SOL     OW29206   1.156   4.052   1.896
 9436SOL    HW129207   1.167   4.149   1.919
 9436SOL    HW229208   1.160   3.997   1.980
 9437SOL     OW29209   1.374   6.417   3.530
 9437SOL    HW129210   1.359   6.437   3.627
 9437SOL    HW229211   1.290   6.437   3.478
 9438SOL     OW29212   1.230   6.312   1.370
 9438SOL    HW129213   1.201   6.250   1.444
 9438SOL    HW229214   1.194   6.278   1.283
 9439SOL     OW29215   0.451   3.297   2.027
 9439SOL    HW129216   0.539   3.262   1.994
 9439SOL    HW229217   0.391   3.315   1.950
 9440SOL     OW29218   5.062   6.006   4.121
 9440SOL    HW129219   5.055   6.040   4.027
 9440SOL    HW229220   5.153   6.028   4.157
 9441SOL     OW29221   1.592   5.386   5.168
 9441SOL    HW129222   1.569   5.483   5.162
 9441SOL    HW229223   1.622   5.353   5.079
 9442SOL     OW29224   6.123   2.222   0.160
 9442SOL    HW129225   6.067   2.278   0.221
 9442SOL    HW229226   6.189   2.280   0.113
 9443SOL     OW29227   2.237   4.757   1.044
 9443SOL    HW129228   2.200   4.813   1.117
 9443SOL    HW229229   2.284   4.815   0.977
 9444SOL     OW29230   0.812   3.934   6.485
 9444SOL    HW129231   0.787   4.030   6.479
 9444SOL    HW229232   0.879   3.912   6.415
 9445SOL     OW29233   5.328   3.327   2.065
 9445SOL    HW129234   5.319   3.228   2.056
 9445SOL    HW229235   5.243   3.371   2.035
 9446SOL     OW29236   5.947   6.854   3.398
 9446SOL    HW129237   5.958   6.790   3.474
 9446SOL    HW229238   5.992   6.817   3.316
 9447SOL     OW29239   5.836   3.678   3.452
 9447SOL    HW129240   5.852   3.634   3.540
 9447SOL    HW229241   5.808   3.608   3.385
 9448SOL     OW29242   5.796   6.244   6.202
 9448SOL    HW129243   5.719   6.218   6.144
 9448SOL    HW229244   5.761   6.280   6.289
 9449SOL     OW29245   6.982   6.002   6.617
 9449SOL    HW129246   7.011   5.909   6.595
 9449SOL    HW229247   0.042   6.065   6.600
 9450SOL     OW29248   3.316   4.952   4.930
 9450SOL    HW129249   3.256   4.905   4.866
 9450SOL    HW229250   3.359   5.030   4.884
 9451SOL     OW29251   4.148   5.532   5.944
 9451SOL    HW129252   4.207   5.561   6.019
 9451SOL    HW229253   4.057   5.572   5.956
 9452SOL     OW29254   1.685   2.919   0.717
 9452SOL    HW129255   1.694   2.967   0.804
 9452SOL    HW229256   1.655   2.984   0.646
 9453SOL     OW29257   2.155   4.529   3.462
 9453SOL    HW129258   2.107   4.542   3.549
 9453SOL    HW229259   2.238   4.475   3.477
 9454SOL     OW29260   1.848   3.421   5.641
 9454SOL    HW129261   1.754   3.419   5.609
 9454SOL    HW229262   1.857   3.364   5.723
 9455SOL     OW29263   3.518   1.647   2.766
 9455SOL    HW129264   3.452   1.721   2.756
 9455SOL    HW229265   3.570   1.635   2.682
 9456SOL     OW29266   0.343   4.577   0.092
 9456SOL    HW129267   0.404   4.570   0.171
 9456SOL    HW229268   0.250   4.595   0.123
 9457SOL     OW29269   1.770   3.480   6.058
 9457SOL    HW129270   1.859   3.525   6.063
 9457SOL    HW229271   1.783   3.388   6.020
 9458SOL     OW29272   1.415   4.126   6.395
 9458SOL    HW129273   1.448   4.200   6.453
 9458SOL    HW229274   1.460   4.132   6.306
 9459SOL     OW29275   6.619   4.341   2.250
 9459SOL    HW129276   6.532   4.312   2.212
 9459SOL    HW229277   6.678   4.375   2.177
 9460SOL     OW29278   0.322   1.463   4.750
 9460SOL    HW129279   0.236   1.421   4.720
 9460SOL    HW229280   0.327   1.459   4.850
 9461SOL     OW29281   6.677   1.514   3.587
 9461SOL    HW129282   6.763   1.464   3.584
 9461SOL    HW229283   6.601   1.450   3.588
 9462SOL     OW29284   2.221   4.030   2.942
 9462SOL    HW129285   2.257   4.120   2.919
 9462SOL    HW229286   2.184   4.032   3.035
 9463SOL     OW29287   0.312   1.076   1.358
 9463SOL    HW129288   0.274   1.049   1.270
 9463SOL    HW229289   0.305   0.999   1.422
 9464SOL     OW29290   5.152   6.693   0.054
 9464SOL    HW129291   5.108   6.732   0.135
 9464SOL    HW229292   5.246   6.669   0.075
 9465SOL     OW29293   6.851   0.018   2.958
 9465SOL    HW129294   6.866   6.935   2.945
 9465SOL    HW229295   6.843   0.038   3.055
 9466SOL     OW29296   3.957   3.715   5.061
 9466SOL    HW129297   3.937   3.618   5.071
 9466SOL    HW229298   3.975   3.735   4.965
 9467SOL     OW29299   1.155   3.061   1.235
 9467SOL    HW129300   1.254   3.063   1.249
 9467SOL    HW229301   1.115   3.145   1.270
 9468SOL     OW29302   5.433   2.666   6.192
 9468SOL    HW129303   5.441   2.757   6.151
 9468SOL    HW229304   5.471   2.667   6.284
 9469SOL     OW29305   5.848   5.557   1.632
 9469SOL    HW129306   5.883   5.600   1.715
 9469SOL    HW229307   5.917   5.495   1.595
 9470SOL     OW29308   5.997   3.085   6.255
 9470SOL    HW129309   6.050   3.168   6.240
 9470SOL    HW229310   5.915   3.107   6.309
 9471SOL     OW29311   6.104   2.285   5.175
 9471SOL    HW129312   6.008   2.267   5.155
 9471SOL    HW229313   6.160   2.211   5.137
 9472SOL     OW29314   6.681   3.954   4.375
 9472SOL    HW129315   6.600   3.986   4.424
 9472SOL    HW229316   6.737   4.032   4.349
 9473SOL     OW29317   3.490   6.140   5.563
 9473SOL    HW129318   3.509   6.234   5.533
 9473SOL    HW229319   3.445   6.090   5.489
 9474SOL     OW29320   6.440   3.575   1.092
 9474SOL    HW129321   6.504   3.518   1.143
 9474SOL    HW229322   6.347   3.559   1.126
 9475SOL     OW29323   3.049   2.853   0.346
 9475SOL    HW129324   2.996   2.769   0.348
 9475SOL    HW229325   3.072   2.876   0.251
 9476SOL     OW29326   3.335   3.805   4.671
 9476SOL    HW129327   3.340   3.723   4.615
 9476SOL    HW229328   3.420   3.814   4.724
 9477SOL     OW29329   6.830   3.634   2.081
 9477SOL    HW129330   6.878   3.680   2.006
 9477SOL    HW229331   6.828   3.536   2.064
 9478SOL     OW29332   6.056   3.581   6.111
 9478SOL    HW129333   6.092   3.675   6.114
 9478SOL    HW229334   6.092   3.529   6.189
 9479SOL     OW29335   6.071   6.628   6.284
 9479SOL    HW129336   6.006   6.648   6.358
 9479SOL    HW229337   6.162   6.659   6.311
 9480SOL     OW29338   4.458   4.535   6.883
 9480SOL    HW129339   4.435   4.482   6.801
 9480SOL    HW229340   4.504   4.620   6.855
 9481SOL     OW29341   5.839   3.932   1.419
 9481SOL    HW129342   5.756   3.987   1.412
 9481SOL    HW229343   5.824   3.842   1.378
 9482SOL     OW29344   6.222   1.565   3.411
 9482SOL    HW129345   6.247   1.523   3.324
 9482SOL    HW229346   6.124   1.552   3.428
 9483SOL     OW29347   1.215   1.518   0.788
 9483SOL    HW129348   1.243   1.428   0.755
 9483SOL    HW229349   1.295   1.575   0.804
 9484SOL     OW29350   4.716   1.533   3.645
 9484SOL    HW129351   4.636   1.544   3.586
 9484SOL    HW229352   4.727   1.614   3.702
 9485SOL     OW29353   0.722   0.312   2.095
 9485SOL    HW129354   0.731   0.409   2.114
 9485SOL    HW229355   0.722   0.298   1.996
 9486SOL     OW29356   2.243   5.137   1.409
 9486SOL    HW129357   2.149   5.137   1.444
 9486SOL    HW229358   2.305   5.112   1.483
 9487SOL     OW29359   3.017   3.445   3.534
 9487SOL    HW129360   2.980   3.426   3.624
 9487SOL    HW229361   3.115   3.424   3.532
 9488SOL     OW29362   2.941   6.636   1.673
 9488SOL    HW129363   2.894   6.552   1.703
 9488SOL    HW229364   3.039   6.624   1.683
 9489SOL     OW29365   3.489   4.149   1.444
 9489SOL    HW129366   3.469   4.163   1.541
 9489SOL    HW229367   3.587   4.160   1.429
 9490SOL     OW29368   6.086   6.351   0.309
 9490SOL    HW129369   5.994   6.311   0.307
 9490SOL    HW229370   6.137   6.321   0.228
 9491SOL     OW29371   6.915   4.914   4.516
 9491SOL    HW129372   6.934   5.009   4.542
 9491SOL    HW229373   6.995   4.857   4.537
 9492SOL     OW29374   3.116   3.574   2.625
 9492SOL    HW129375   3.143   3.661   2.583
 9492SOL    HW229376   3.028   3.545   2.587
 9493SOL     OW29377   4.223   5.278   3.650
 9493SOL    HW129378   4.207   5.203   3.714
 9493SOL    HW229379   4.291   5.250   3.582
 9494SOL     OW29380   3.919   4.059   0.918
 9494SOL    HW129381   3.861   4.008   0.982
 9494SOL    HW229382   4.008   4.014   0.910
 9495SOL     OW29383   6.426   2.546   4.420
 9495SOL    HW129384   6.515   2.500   4.417
 9495SOL    HW229385   6.358   2.486   4.462
 9496SOL     OW29386   5.156   5.160   0.796
 9496SOL    HW129387   5.154   5.256   0.823
 9496SOL    HW229388   5.251   5.128   0.795
 9497SOL     OW29389   5.171   4.140   0.479
 9497SOL    HW129390   5.077   4.107   0.469
 9497SOL    HW229391   5.173   4.214   0.546
 9498SOL     OW29392   5.380   0.454   6.276
 9498SOL    HW129393   5.405   0.539   6.323
 9498SOL    HW229394   5.314   0.473   6.203
 9499SOL     OW29395   2.461   3.225   5.797
 9499SOL    HW129396   2.492   3.319   5.807
 9499SOL    HW229397   2.521   3.176   5.733
 9500SOL     OW29398   3.726   6.960   1.948
 9500SOL    HW129399   3.674   6.899   1.889
 9500SOL    HW229400   3.764   6.909   2.025
 9501SOL     OW29401   2.970   1.387   4.326
 9501SOL    HW129402   2.902   1.458   4.309
 9501SOL    HW229403   3.059   1.429   4.344
 9502SOL     OW29404   0.462   1.697   4.689
 9502SOL    HW129405   0.437   1.746   4.606
 9502SOL    HW229406   0.413   1.609   4.692
 9503SOL     OW29407   0.719   0.979   1.959
 9503SOL    HW129408   0.655   0.915   1.916
 9503SOL    HW229409   0.749   0.942   2.047
 9504SOL     OW29410   0.065   2.230   1.300
 9504SOL    HW129411   0.152   2.278   1.286
 9504SOL    HW229412   7.006   2.297   1.307
 9505SOL     OW29413   5.145   3.754   3.651
 9505SOL    HW129414   5.065   3.714   3.696
 9505SOL    HW229415   5.225   3.744   3.710
 9506SOL     OW29416   0.738   3.367   6.220
 9506SOL    HW129417   0.746   3.309   6.139
 9506SOL    HW229418   0.740   3.463   6.192
 9507SOL     OW29419   1.803   1.237   3.868
 9507SOL    HW129420   1.884   1.178   3.856
 9507SOL    HW229421   1.831   1.333   3.868
 9508SOL     OW29422   6.328   2.596   0.525
 9508SOL    HW129423   6.425   2.620   0.529
 9508SOL    HW229424   6.274   2.674   0.555
 9509SOL     OW29425   1.120   6.596   5.206
 9509SOL    HW129426   1.183   6.556   5.273
 9509SOL    HW229427   1.050   6.529   5.182
 9510SOL     OW29428   0.622   3.963   1.668
 9510SOL    HW129429   0.536   3.962   1.719
 9510SOL    HW229430   0.606   3.931   1.575
 9511SOL     OW29431   1.290   1.476   6.890
 9511SOL    HW129432   1.327   1.556   6.843
 9511SOL    HW229433   1.214   1.439   6.838
 9512SOL     OW29434   5.814   1.980   3.316
 9512SOL    HW129435   5.878   2.028   3.377
 9512SOL    HW229436   5.816   2.022   3.226
 9513SOL     OW29437   1.081   3.126   5.123
 9513SOL    HW129438   1.121   3.202   5.073
 9513SOL    HW229439   1.117   3.039   5.088
 9514SOL     OW29440   1.405   3.687   6.875
 9514SOL    HW129441   1.310   3.684   6.844
 9514SOL    HW229442   1.422   3.612   6.938
 9515SOL     OW29443   1.439   6.093   0.436
 9515SOL    HW129444   1.523   6.144   0.416
 9515SOL    HW229445   1.426   6.087   0.535
 9516SOL     OW29446   4.891   3.560   4.425
 9516SOL    HW129447   4.932   3.491   4.486
 9516SOL    HW229448   4.864   3.640   4.479
 9517SOL     OW29449   1.398   4.994   0.752
 9517SOL    HW129450   1.367   4.914   0.804
 9517SOL    HW229451   1.498   4.994   0.748
 9518SOL     OW29452   0.940   2.095   6.593
 9518SOL    HW129453   0.847   2.073   6.562
 9518SOL    HW229454   0.964   2.035   6.670
 9519SOL     OW29455   3.631   3.265   3.200
 9519SOL    HW129456   3.536   3.282   3.224
 9519SOL    HW229457   3.659   3.327   3.126
 9520SOL     OW29458   6.517   1.650   3.257
 9520SOL    HW129459   6.437   1.601   3.223
 9520SOL    HW229460   6.491   1.703   3.337
 9521SOL     OW29461   3.617   3.956   1.638
 9521SOL    HW129462   3.682   3.930   1.710
 9521SOL    HW229463   3.542   4.009   1.677
 9522SOL     OW29464   4.196   5.549   2.990
 9522SOL    HW129465   4.223   5.641   2.961
 9522SOL    HW229466   4.099   5.548   3.013
 9523SOL     OW29467   2.586   5.244   5.025
 9523SOL    HW129468   2.490   5.252   4.999
 9523SOL    HW229469   2.624   5.160   4.984
 9524SOL     OW29470   1.662   2.716   0.981
 9524SOL    HW129471   1.696   2.794   1.034
 9524SOL    HW229472   1.562   2.719   0.978
 9525SOL     OW29473   1.518   1.917   4.904
 9525SOL    HW129474   1.530   1.998   4.846
 9525SOL    HW229475   1.598   1.906   4.963
 9526SOL     OW29476   6.025   4.876   1.714
 9526SOL    HW129477   6.036   4.788   1.667
 9526SOL    HW229478   5.936   4.914   1.691
 9527SOL     OW29479   2.235   0.293   4.817
 9527SOL    HW129480   2.256   0.358   4.890
 9527SOL    HW229481   2.261   0.332   4.729
 9528SOL     OW29482   5.990   1.704   0.982
 9528SOL    HW129483   5.993   1.763   0.902
 9528SOL    HW229484   5.930   1.626   0.964
 9529SOL     OW29485   5.703   4.078   0.519
 9529SOL    HW129486   5.642   4.048   0.445
 9529SOL    HW229487   5.795   4.095   0.482
 9530SOL     OW29488   0.926   4.684   4.075
 9530SOL    HW129489   0.961   4.768   4.034
 9530SOL    HW229490   0.911   4.615   4.003
 9531SOL     OW29491   4.407   4.684   2.926
 9531SOL    HW129492   4.442   4.605   2.976
 9531SOL    HW229493   4.458   4.766   2.953
 9532SOL     OW29494   0.015   5.250   1.073
 9532SOL    HW129495   0.098   5.217   1.118
 9532SOL    HW229496   6.950   5.223   1.127
 9533SOL     OW29497   0.797   4.981   3.344
 9533SOL    HW129498   0.729   4.999   3.273
 9533SOL    HW229499   0.879   5.037   3.326
 9534SOL     OW29500   5.787   4.304   4.708
 9534SOL    HW129501   5.846   4.225   4.727
 9534SOL    HW229502   5.843   4.381   4.677
 9535SOL     OW29503   1.829   0.866   5.834
 9535SOL    HW129504   1.766   0.939   5.862
 9535SOL    HW229505   1.898   0.853   5.904
 9536SOL     OW29506   3.100   3.458   5.739
 9536SOL    HW129507   3.184   3.416   5.705
 9536SOL    HW229508   3.028   3.449   5.670
 9537SOL     OW29509   3.020   1.448   4.881
 9537SOL    HW129510   3.062   1.448   4.790
 9537SOL    HW229511   2.963   1.529   4.892
 9538SOL     OW29512   4.523   0.385   4.500
 9538SOL    HW129513   4.454   0.361   4.569
 9538SOL    HW229514   4.584   0.307   4.486
 9539SOL     OW29515   2.900   3.770   4.428
 9539SOL    HW129516   2.983   3.783   4.482
 9539SOL    HW229517   2.853   3.858   4.416
 9540SOL     OW29518   5.597   5.267   4.231
 9540SOL    HW129519   5.643   5.325   4.298
 9540SOL    HW229520   5.654   5.256   4.150
 9541SOL     OW29521   1.967   0.780   6.069
 9541SOL    HW129522   1.991   0.683   6.073
 9541SOL    HW229523   1.887   0.796   6.127
 9542SOL     OW29524   5.759   5.218   4.539
 9542SOL    HW129525   5.794   5.135   4.494
 9542SOL    HW229526   5.730   5.195   4.632
 9543SOL     OW29527   3.742   0.504   6.468
 9543SOL    HW129528   3.709   0.421   6.514
 9543SOL    HW229529   3.839   0.516   6.486
 9544SOL     OW29530   5.257   3.303   4.482
 9544SOL    HW129531   5.214   3.347   4.561
 9544SOL    HW229532   5.348   3.340   4.468
 9545SOL     OW29533   5.684   4.950   2.533
 9545SOL    HW129534   5.772   4.907   2.517
 9545SOL    HW229535   5.685   4.998   2.621
 9546SOL     OW29536   3.944   0.934   5.893
 9546SOL    HW129537   3.884   0.876   5.948
 9546SOL    HW229538   3.977   0.881   5.814
 9547SOL     OW29539   2.429   5.298   3.742
 9547SOL    HW129540   2.475   5.310   3.655
 9547SOL    HW229541   2.479   5.348   3.813
 9548SOL     OW29542   6.833   5.330   4.736
 9548SOL    HW129543   6.819   5.412   4.681
 9548SOL    HW229544   6.745   5.298   4.772
 9549SOL     OW29545   2.670   1.375   2.086
 9549SOL    HW129546   2.573   1.396   2.094
 9549SOL    HW229547   2.697   1.379   1.990
 9550SOL     OW29548   6.552   1.334   0.313
 9550SOL    HW129549   6.536   1.399   0.239
 9550SOL    HW229550   6.615   1.263   0.281
 9551SOL     OW29551   6.054   2.934   6.026
 9551SOL    HW129552   6.058   2.974   6.117
 9551SOL    HW229553   5.970   2.964   5.980
 9552SOL     OW29554   2.485   6.023   5.964
 9552SOL    HW129555   2.409   5.976   5.919
 9552SOL    HW229556   2.521   5.966   6.037
 9553SOL     OW29557   5.504   2.274   0.433
 9553SOL    HW129558   5.586   2.264   0.490
 9553SOL    HW229559   5.426   2.298   0.492
 9554SOL     OW29560   1.346   6.374   3.006
 9554SOL    HW129561   1.353   6.436   3.083
 9554SOL    HW229562   1.256   6.384   2.963
 9555SOL     OW29563   0.106   1.135   3.215
 9555SOL    HW129564   0.054   1.154   3.132
 9555SOL    HW229565   0.066   1.185   3.291
 9556SOL     OW29566   1.555   3.356   0.844
 9556SOL    HW129567   1.533   3.408   0.762
 9556SOL    HW229568   1.477   3.298   0.868
 9557SOL     OW29569   5.698   6.924   1.152
 9557SOL    HW129570   5.687   0.000   1.113
 9557SOL    HW229571   5.719   6.931   1.249
 9558SOL     OW29572   5.935   5.687   5.373
 9558SOL    HW129573   5.911   5.751   5.446
 9558SOL    HW229574   5.855   5.670   5.316
 9559SOL     OW29575   1.151   4.898   0.608
 9559SOL    HW129576   1.240   4.916   0.649
 9559SOL    HW229577   1.136   4.799   0.601
 9560SOL     OW29578   2.394   1.223   2.924
 9560SOL    HW129579   2.377   1.126   2.939
 9560SOL    HW229580   2.493   1.239   2.915
 9561SOL     OW29581   0.330   0.831   1.502
 9561SOL    HW129582   0.427   0.850   1.512
 9561SOL    HW229583   0.317   0.760   1.432
 9562SOL     OW29584   2.806   6.978   4.835
 9562SOL    HW129585   2.763   6.924   4.762
 9562SOL    HW229586   2.735   0.017   4.881
 9563SOL     OW29587   6.939   6.836   0.233
 9563SOL    HW129588   6.909   6.746   0.201
 9563SOL    HW229589   0.023   6.834   0.248
 9564SOL     OW29590   2.223   0.952   0.586
 9564SOL    HW129591   2.259   0.963   0.493
 9564SOL    HW229592   2.237   1.037   0.637
 9565SOL     OW29593   3.909   1.204   5.478
 9565SOL    HW129594   4.002   1.179   5.450
 9565SOL    HW229595   3.903   1.205   5.578
 9566SOL     OW29596   2.732   5.971   0.191
 9566SOL    HW129597   2.676   5.904   0.143
 9566SOL    HW229598   2.675   6.048   0.219
 9567SOL     OW29599   5.070   4.664   0.445
 9567SOL    HW129600   4.972   4.685   0.444
 9567SOL    HW229601   5.117   4.729   0.504
 9568SOL     OW29602   4.640   1.857   0.076
 9568SOL    HW129603   4.671   1.942   0.033
 9568SOL    HW229604   4.696   1.781   0.043
 9569SOL     OW29605   0.043   1.634   2.269
 9569SOL    HW129606   0.011   1.566   2.335
 9569SOL    HW229607   0.055   1.722   2.314
 9570SOL     OW29608   0.774   3.230   1.602
 9570SOL    HW129609   0.782   3.275   1.513
 9570SOL    HW229610   0.741   3.136   1.589
 9571SOL     OW29611   3.607   2.797   5.740
 9571SOL    HW129612   3.539   2.870   5.732
 9571SOL    HW229613   3.695   2.837   5.765
 9572SOL     OW29614   2.002   5.076   2.256
 9572SOL    HW129615   2.017   4.978   2.269
 9572SOL    HW229616   1.936   5.108   2.323
 9573SOL     OW29617   0.652   2.265   6.286
 9573SOL    HW129618   0.630   2.183   6.339
 9573SOL    HW229619   0.716   2.322   6.337
 9574SOL     OW29620   3.550   2.899   2.719
 9574SOL    HW129621   3.624   2.862   2.662
 9574SOL    HW229622   3.462   2.880   2.676
 9575SOL     OW29623   0.367   1.589   1.882
 9575SOL    HW129624   0.393   1.680   1.914
 9575SOL    HW229625   0.442   1.525   1.898
 9576SOL     OW29626   1.875   1.747   0.722
 9576SOL    HW129627   1.934   1.676   0.685
 9576SOL    HW229628   1.923   1.835   0.721
 9577SOL     OW29629   0.513   0.470   6.083
 9577SOL    HW129630   0.585   0.531   6.051
 9577SOL    HW229631   0.437   0.472   6.019
 9578SOL     OW29632   1.229   3.784   3.029
 9578SOL    HW129633   1.324   3.777   2.998
 9578SOL    HW229634   1.180   3.700   3.006
 9579SOL     OW29635   0.184   5.203   3.222
 9579SOL    HW129636   0.275   5.196   3.180
 9579SOL    HW229637   0.189   5.167   3.316
 9580SOL     OW29638   4.234   3.388   1.110
 9580SOL    HW129639   4.290   3.317   1.154
 9580SOL    HW229640   4.147   3.348   1.081
 9581SOL     OW29641   0.524   0.210   6.828
 9581SOL    HW129642   0.461   0.261   6.771
 9581SOL    HW229643   0.478   0.181   6.912
 9582SOL     OW29644   4.515   5.437   5.061
 9582SOL    HW129645   4.431   5.397   5.026
 9582SOL    HW229646   4.526   5.412   5.157
 9583SOL     OW29647   2.936   3.863   1.282
 9583SOL    HW129648   2.891   3.786   1.327
 9583SOL    HW229649   2.908   3.867   1.186
 9584SOL     OW29650   6.932   5.253   5.928
 9584SOL    HW129651   6.988   5.289   6.003
 9584SOL    HW229652   6.986   5.248   5.845
 9585SOL     OW29653   5.967   6.628   3.584
 9585SOL    HW129654   6.036   6.566   3.622
 9585SOL    HW229655   5.895   6.575   3.541
 9586SOL     OW29656   4.903   4.977   2.014
 9586SOL    HW129657   4.870   5.025   2.096
 9586SOL    HW229658   4.827   4.928   1.971
 9587SOL     OW29659   0.880   0.032   1.504
 9587SOL    HW129660   0.844   6.968   1.455
 9587SOL    HW229661   0.854   0.027   1.600
 9588SOL     OW29662   6.301   6.453   1.211
 9588SOL    HW129663   6.354   6.404   1.280
 9588SOL    HW229664   6.287   6.548   1.240
 9589SOL     OW29665   1.744   5.154   0.141
 9589SOL    HW129666   1.732   5.212   0.221
 9589SOL    HW229667   1.821   5.187   0.086
 9590SOL     OW29668   5.686   3.370   1.519
 9590SOL    HW129669   5.712   3.358   1.614
 9590SOL    HW229670   5.591   3.402   1.514
 9591SOL     OW29671   3.014   5.301   5.698
 9591SOL    HW129672   2.933   5.246   5.681
 9591SOL    HW229673   3.071   5.256   5.767
 9592SOL     OW29674   2.790   4.577   0.289
 9592SOL    HW129675   2.792   4.639   0.367
 9592SOL    HW229676   2.870   4.517   0.292
 9593SOL     OW29677   0.654   1.256   6.625
 9593SOL    HW129678   0.638   1.210   6.712
 9593SOL    HW229679   0.633   1.195   6.550
 9594SOL     OW29680   1.864   5.101   3.793
 9594SOL    HW129681   1.947   5.124   3.743
 9594SOL    HW229682   1.885   5.036   3.866
 9595SOL     OW29683   0.295   2.958   4.222
 9595SOL    HW129684   0.201   2.973   4.192
 9595SOL    HW229685   0.358   2.985   4.150
 9596SOL     OW29686   1.356   5.277   6.781
 9596SOL    HW129687   1.318   5.264   6.689
 9596SOL    HW229688   1.455   5.275   6.776
 9597SOL     OW29689   0.028   4.095   1.488
 9597SOL    HW129690   0.075   4.175   1.452
 9597SOL    HW229691   6.955   4.122   1.527
 9598SOL     OW29692   1.476   4.993   3.091
 9598SOL    HW129693   1.513   4.932   3.160
 9598SOL    HW229694   1.548   5.056   3.060
 9599SOL     OW29695   2.714   0.670   4.453
 9599SOL    HW129696   2.664   0.653   4.538
 9599SOL    HW229697   2.778   0.746   4.466
 9600SOL     OW29698   3.265   6.419   0.236
 9600SOL    HW129699   3.265   6.319   0.223
 9600SOL    HW229700   3.359   6.452   0.237
 9601SOL     OW29701   5.145   4.018   0.985
 9601SOL    HW129702   5.109   3.941   1.037
 9601SOL    HW229703   5.135   3.999   0.887
 9602SOL     OW29704   6.225   4.032   6.687
 9602SOL    HW129705   6.206   3.934   6.698
 9602SOL    HW229706   6.150   4.076   6.639
 9603SOL     OW29707   4.738   1.325   5.512
 9603SOL    HW129708   4.700   1.415   5.496
 9603SOL    HW229709   4.769   1.318   5.607
 9604SOL     OW29710   4.890   0.554   0.847
 9604SOL    HW129711   4.839   0.481   0.800
 9604SOL    HW229712   4.831   0.635   0.855
 9605SOL     OW29713   0.929   5.773   3.487
 9605SOL    HW129714   1.028   5.773   3.496
 9605SOL    HW229715   0.903   5.827   3.406
 9606SOL     OW29716   1.867   6.374   0.314
 9606SOL    HW129717   1.820   6.345   0.230
 9606SOL    HW229718   1.966   6.365   0.301
 9607SOL     OW29719   1.944   1.195   6.548
 9607SOL    HW129720   1.946   1.295   6.547
 9607SOL    HW229721   1.849   1.163   6.559
 9608SOL     OW29722   0.004   5.397   2.199
 9608SOL    HW129723   6.978   5.333   2.134
 9608SOL    HW229724   0.010   5.353   2.288
 9609SOL     OW29725   2.293   3.310   0.229
 9609SOL    HW129726   2.203   3.301   0.185
 9609SOL    HW229727   2.322   3.221   0.264
 9610SOL     OW29728   1.665   4.809   3.820
 9610SOL    HW129729   1.633   4.885   3.763
 9610SOL    HW229730   1.625   4.818   3.911
 9611SOL     OW29731   1.101   6.101   6.831
 9611SOL    HW129732   1.007   6.081   6.856
 9611SOL    HW229733   1.121   6.063   6.741
 9612SOL     OW29734   0.463   4.065   1.249
 9612SOL    HW129735   0.373   4.047   1.210
 9612SOL    HW229736   0.458   4.142   1.312
 9613SOL     OW29737   5.236   0.553   3.752
 9613SOL    HW129738   5.160   0.496   3.721
 9613SOL    HW229739   5.200   0.639   3.790
 9614SOL     OW29740   3.763   2.436   1.451
 9614SOL    HW129741   3.836   2.385   1.497
 9614SOL    HW229742   3.689   2.454   1.516
 9615SOL     OW29743   2.619   0.171   0.751
 9615SOL    HW129744   2.627   0.074   0.774
 9615SOL    HW229745   2.590   0.222   0.832
 9616SOL     OW29746   3.287   3.609   1.250
 9616SOL    HW129747   3.238   3.642   1.331
 9616SOL    HW229748   3.251   3.654   1.168
 9617SOL     OW29749   1.300   3.566   3.275
 9617SOL    HW129750   1.350   3.640   3.230
 9617SOL    HW229751   1.205   3.594   3.289
 9618SOL     OW29752   4.265   6.836   6.882
 9618SOL    HW129753   4.196   6.805   6.947
 9618SOL    HW229754   4.309   6.756   6.841
 9619SOL     OW29755   1.537   6.541   6.547
 9619SOL    HW129756   1.501   6.574   6.634
 9619SOL    HW229757   1.528   6.613   6.478
 9620SOL     OW29758   4.379   1.214   6.126
 9620SOL    HW129759   4.478   1.228   6.131
 9620SOL    HW229760   4.345   1.190   6.216
 9621SOL     OW29761   0.740   1.935   1.881
 9621SOL    HW129762   0.776   1.915   1.789
 9621SOL    HW229763   0.717   1.850   1.927
 9622SOL     OW29764   6.923   1.306   0.509
 9622SOL    HW129765   6.840   1.358   0.489
 9622SOL    HW229766   6.930   1.291   0.608
 9623SOL     OW29767   2.970   3.953   5.510
 9623SOL    HW129768   2.921   4.028   5.556
 9623SOL    HW229769   2.906   3.900   5.455
 9624SOL     OW29770   6.849   4.149   2.022
 9624SOL    HW129771   6.885   4.167   2.114
 9624SOL    HW229772   6.914   4.182   1.954
 9625SOL     OW29773   4.905   5.147   6.651
 9625SOL    HW129774   4.987   5.095   6.676
 9625SOL    HW229775   4.830   5.121   6.710
 9626SOL     OW29776   3.844   4.676   6.566
 9626SOL    HW129777   3.826   4.610   6.639
 9626SOL    HW229778   3.877   4.627   6.485
 9627SOL     OW29779   6.863   6.051   4.695
 9627SOL    HW129780   6.954   6.075   4.729
 9627SOL    HW229781   6.797   6.059   4.769
 9628SOL     OW29782   4.814   4.791   6.776
 9628SOL    HW129783   4.864   4.869   6.814
 9628SOL    HW229784   4.879   4.720   6.748
 9629SOL     OW29785   0.164   0.098   2.026
 9629SOL    HW129786   0.150   0.192   1.996
 9629SOL    HW229787   0.186   0.097   2.124
 9630SOL     OW29788   6.930   6.834   5.320
 9630SOL    HW129789   6.851   6.890   5.343
 9630SOL    HW229790   7.009   6.863   5.373
 9631SOL     OW29791   6.930   6.799   6.866
 9631SOL    HW129792   6.970   6.741   6.937
 9631SOL    HW229793   7.000   6.861   6.831
 9632SOL     OW29794   0.722   6.932   2.950
 9632SOL    HW129795   0.708   6.846   2.999
 9632SOL    HW229796   0.690   7.008   3.007
 9633SOL     OW29797   5.132   4.783   5.842
 9633SOL    HW129798   5.224   4.766   5.807
 9633SOL    HW229799   5.138   4.818   5.936
 9634SOL     OW29800   1.072   5.750   4.060
 9634SOL    HW129801   1.007   5.693   4.010
 9634SOL    HW229802   1.163   5.709   4.056
 9635SOL     OW29803   1.752   4.662   4.964
 9635SOL    HW129804   1.656   4.632   4.961
 9635SOL    HW229805   1.799   4.617   5.040
 9636SOL     OW29806   4.304   2.063   5.853
 9636SOL    HW129807   4.216   2.078   5.897
 9636SOL    HW229808   4.371   2.129   5.887
 9637SOL     OW29809   2.419   1.268   6.070
 9637SOL    HW129810   2.337   1.313   6.035
 9637SOL    HW229811   2.478   1.243   5.994
 9638SOL     OW29812   6.665   3.752   7.013
 9638SOL    HW129813   6.593   3.820   0.010
 9638SOL    HW229814   6.729   3.783   6.943
 9639SOL     OW29815   3.459   1.364   2.205
 9639SOL    HW129816   3.405   1.448   2.213
 9639SOL    HW229817   3.496   1.339   2.294
 9640SOL     OW29818   2.193   3.026   3.348
 9640SOL    HW129819   2.175   2.995   3.254
 9640SOL    HW229820   2.238   3.116   3.345
 9641SOL     OW29821   3.711   6.448   0.516
 9641SOL    HW129822   3.773   6.371   0.500
 9641SOL    HW229823   3.668   6.438   0.606
 9642SOL     OW29824   3.610   6.632   4.867
 9642SOL    HW129825   3.635   6.673   4.779
 9642SOL    HW229826   3.515   6.604   4.864
 9643SOL     OW29827   5.414   5.130   4.398
 9643SOL    HW129828   5.487   5.147   4.332
 9643SOL    HW229829   5.392   5.033   4.400
 9644SOL     OW29830   1.107   4.398   6.250
 9644SOL    HW129831   1.194   4.446   6.259
 9644SOL    HW229832   1.083   4.355   6.337
 9645SOL     OW29833   2.964   5.260   3.467
 9645SOL    HW129834   2.900   5.233   3.539
 9645SOL    HW229835   2.943   5.353   3.437
 9646SOL     OW29836   3.035   4.716   1.800
 9646SOL    HW129837   2.964   4.672   1.855
 9646SOL    HW229838   3.045   4.667   1.714
 9647SOL     OW29839   6.188   5.228   1.934
 9647SOL    HW129840   6.277   5.199   1.899
 9647SOL    HW229841   6.199   5.269   2.024
 9648SOL     OW29842   4.519   1.425   0.497
 9648SOL    HW129843   4.595   1.479   0.532
 9648SOL    HW229844   4.458   1.484   0.445
 9649SOL     OW29845   3.046   6.621   0.094
 9649SOL    HW129846   2.989   6.630   0.012
 9649SOL    HW229847   2.989   6.598   0.172
 9650SOL     OW29848   5.971   5.439   2.238
 9650SOL    HW129849   6.040   5.416   2.169
 9650SOL    HW229850   5.950   5.537   2.233
 9651SOL     OW29851   6.978   0.884   6.374
 9651SOL    HW129852   7.008   0.977   6.355
 9651SOL    HW229853   6.887   0.869   6.336
 9652SOL     OW29854   2.253   4.640   0.652
 9652SOL    HW129855   2.162   4.620   0.688
 9652SOL    HW229856   2.255   4.734   0.618
 9653SOL     OW29857   4.132   5.210   4.503
 9653SOL    HW129858   4.148   5.168   4.414
 9653SOL    HW229859   4.160   5.306   4.501
 9654SOL     OW29860   3.252   2.910   1.515
 9654SOL    HW129861   3.301   2.991   1.546
 9654SOL    HW229862   3.315   2.832   1.510
 9655SOL     OW29863   0.172   1.594   6.836
 9655SOL    HW129864   0.101   1.653   6.874
 9655SOL    HW229865   0.262   1.631   6.859
 9656SOL     OW29866   2.753   1.823   0.846
 9656SOL    HW129867   2.718   1.905   0.801
 9656SOL    HW229868   2.678   1.776   0.894
 9657SOL     OW29869   5.859   0.505   3.720
 9657SOL    HW129870   5.814   0.577   3.666
 9657SOL    HW229871   5.789   0.446   3.762
 9658SOL     OW29872   6.247   2.045   3.547
 9658SOL    HW129873   6.264   1.951   3.517
 9658SOL    HW229874   6.239   2.048   3.647
 9659SOL     OW29875   6.665   4.272   0.575
 9659SOL    HW129876   6.717   4.213   0.513
 9659SOL    HW229877   6.653   4.362   0.534
 9660SOL     OW29878   0.830   5.657   0.285
 9660SOL    HW129879   0.781   5.571   0.271
 9660SOL    HW229880   0.816   5.717   0.206
 9661SOL     OW29881   4.034   6.148   1.468
 9661SOL    HW129882   4.118   6.109   1.507
 9661SOL    HW229883   4.045   6.246   1.455
 9662SOL     OW29884   5.821   2.520   5.103
 9662SOL    HW129885   5.919   2.506   5.104
 9662SOL    HW229886   5.801   2.618   5.092
 9663SOL     OW29887   0.929   5.543   3.945
 9663SOL    HW129888   0.852   5.536   4.008
 9663SOL    HW229889   0.906   5.605   3.870
 9664SOL     OW29890   5.635   6.696   3.098
 9664SOL    HW129891   5.616   6.600   3.119
 9664SOL    HW229892   5.666   6.743   3.180
 9665SOL     OW29893   5.314   5.354   5.307
 9665SOL    HW129894   5.390   5.329   5.247
 9665SOL    HW229895   5.230   5.361   5.254
 9666SOL     OW29896   5.366   4.445   2.164
 9666SOL    HW129897   5.285   4.502   2.181
 9666SOL    HW229898   5.339   4.349   2.160
 9667SOL     OW29899   3.562   2.872   4.168
 9667SOL    HW129900   3.601   2.882   4.259
 9667SOL    HW229901   3.465   2.896   4.170
 9668SOL     OW29902   6.270   1.028   6.484
 9668SOL    HW129903   6.209   1.079   6.545
 9668SOL    HW229904   6.258   1.061   6.391
 9669SOL     OW29905   0.513   1.320   1.103
 9669SOL    HW129906   0.435   1.383   1.099
 9669SOL    HW229907   0.504   1.252   1.031
 9670SOL     OW29908   5.392   4.858   6.576
 9670SOL    HW129909   5.296   4.883   6.563
 9670SOL    HW229910   5.398   4.760   6.596
 9671SOL     OW29911   0.684   4.934   6.033
 9671SOL    HW129912   0.633   4.881   6.100
 9671SOL    HW229913   0.674   4.891   5.943
 9672SOL     OW29914   1.476   6.707   4.642
 9672SOL    HW129915   1.423   6.790   4.660
 9672SOL    HW229916   1.569   6.733   4.614
 9673SOL     OW29917   5.072   4.521   6.943
 9673SOL    HW129918   4.995   4.458   6.941
 9673SOL    HW229919   5.155   4.472   6.969
 9674SOL     OW29920   2.669   6.264   3.280
 9674SOL    HW129921   2.723   6.343   3.249
 9674SOL    HW229922   2.622   6.288   3.365
 9675SOL     OW29923   5.793   1.520   0.908
 9675SOL    HW129924   5.735   1.596   0.938
 9675SOL    HW229925   5.738   1.453   0.858
 9676SOL     OW29926   1.372   3.417   5.844
 9676SOL    HW129927   1.303   3.434   5.915
 9676SOL    HW229928   1.419   3.331   5.864
 9677SOL     OW29929   2.603   5.218   6.140
 9677SOL    HW129930   2.585   5.190   6.234
 9677SOL    HW229931   2.604   5.137   6.081
 9678SOL     OW29932   3.240   4.072   2.988
 9678SOL    HW129933   3.178   4.131   2.936
 9678SOL    HW229934   3.331   4.113   2.990
 9679SOL     OW29935   1.516   1.844   1.953
 9679SOL    HW129936   1.562   1.761   1.920
 9679SOL    HW229937   1.573   1.924   1.931
 9680SOL     OW29938   6.258   0.180   3.918
 9680SOL    HW129939   6.224   0.088   3.942
 9680SOL    HW229940   6.197   0.249   3.957
 9681SOL     OW29941   2.720   1.071   1.459
 9681SOL    HW129942   2.672   1.000   1.405
 9681SOL    HW229943   2.796   1.106   1.405
 9682SOL     OW29944   5.301   5.400   3.693
 9682SOL    HW129945   5.378   5.344   3.724
 9682SOL    HW229946   5.260   5.446   3.772
 9683SOL     OW29947   3.249   5.001   0.600
 9683SOL    HW129948   3.247   4.928   0.669
 9683SOL    HW229949   3.199   4.972   0.519
 9684SOL     OW29950   0.052   2.902   4.995
 9684SOL    HW129951   0.148   2.928   4.991
 9684SOL    HW229952   0.044   2.802   4.989
 9685SOL     OW29953   2.107   2.995   0.779
 9685SOL    HW129954   2.040   2.999   0.705
 9685SOL    HW229955   2.065   2.950   0.859
 9686SOL     OW29956   5.877   1.920   0.795
 9686SOL    HW129957   5.802   1.980   0.822
 9686SOL    HW229958   5.856   1.876   0.708
 9687SOL     OW29959   2.348   0.706   4.096
 9687SOL    HW129960   2.418   0.658   4.148
 9687SOL    HW229961   2.390   0.780   4.043
 9688SOL     OW29962   6.601   2.351   3.742
 9688SOL    HW129963   6.688   2.348   3.692
 9688SOL    HW229964   6.525   2.353   3.676
 9689SOL     OW29965   1.785   6.390   1.431
 9689SOL    HW129966   1.693   6.350   1.428
 9689SOL    HW229967   1.803   6.425   1.523
 9690SOL     OW29968   5.713   5.375   6.546
 9690SOL    HW129969   5.760   5.379   6.457
 9690SOL    HW229970   5.632   5.433   6.543
 9691SOL     OW29971   2.522   4.519   1.283
 9691SOL    HW129972   2.520   4.495   1.187
 9691SOL    HW229973   2.452   4.467   1.332
 9692SOL     OW29974   2.393   5.115   2.684
 9692SOL    HW129975   2.294   5.113   2.698
 9692SOL    HW229976   2.437   5.163   2.760
 9693SOL     OW29977   6.452   5.150   1.838
 9693SOL    HW129978   6.411   5.086   1.774
 9693SOL    HW229979   6.507   5.101   1.906
 9694SOL     OW29980   2.154   0.950   5.833
 9694SOL    HW129981   2.120   0.992   5.917
 9694SOL    HW229982   2.251   0.972   5.821
 9695SOL     OW29983   6.637   3.909   1.254
 9695SOL    HW129984   6.628   3.870   1.346
 9695SOL    HW229985   6.550   3.949   1.226
 9696SOL     OW29986   5.235   1.812   1.148
 9696SOL    HW129987   5.137   1.826   1.160
 9696SOL    HW229988   5.285   1.891   1.183
 9697SOL     OW29989   6.892   5.399   6.707
 9697SOL    HW129990   6.934   5.485   6.678
 9697SOL    HW229991   6.831   5.416   6.785
 9698SOL     OW29992   5.546   0.744   5.845
 9698SOL    HW129993   5.615   0.772   5.779
 9698SOL    HW229994   5.567   0.652   5.878
 9699SOL     OW29995   0.354   4.619   6.452
 9699SOL    HW129996   0.278   4.557   6.434
 9699SOL    HW229997   0.431   4.596   6.393
 9700SOL     OW29998   4.218   5.396   5.407
 9700SOL    HW129999   4.149   5.378   5.476
 9700SOL    HW230000   4.236   5.494   5.401
 9701SOL     OW30001   3.434   5.421   4.632
 9701SOL    HW130002   3.521   5.408   4.679
 9701SOL    HW230003   3.400   5.333   4.600
 9702SOL     OW30004   5.600   0.533   6.840
 9702SOL    HW130005   5.636   0.456   6.786
 9702SOL    HW230006   5.576   0.608   6.779
 9703SOL     OW30007   3.819   5.745   3.976
 9703SOL    HW130008   3.762   5.826   3.990
 9703SOL    HW230009   3.773   5.665   4.015
 9704SOL     OW30010   3.073   1.417   2.383
 9704SOL    HW130011   3.148   1.360   2.348
 9704SOL    HW230012   3.078   1.421   2.483
 9705SOL     OW30013   5.488   5.349   0.984
 9705SOL    HW130014   5.475   5.360   1.082
 9705SOL    HW230015   5.428   5.412   0.935
 9706SOL     OW30016   0.607   2.346   1.069
 9706SOL    HW130017   0.569   2.255   1.052
 9706SOL    HW230018   0.621   2.394   0.983
 9707SOL     OW30019   6.381   4.237   1.393
 9707SOL    HW130020   6.352   4.142   1.383
 9707SOL    HW230021   6.420   4.251   1.483
 9708SOL     OW30022   1.508   2.753   3.215
 9708SOL    HW130023   1.506   2.655   3.237
 9708SOL    HW230024   1.527   2.765   3.117
 9709SOL     OW30025   6.453   5.456   3.319
 9709SOL    HW130026   6.525   5.394   3.289
 9709SOL    HW230027   6.460   5.543   3.270
 9710SOL     OW30028   0.409   1.868   2.303
 9710SOL    HW130029   0.376   1.893   2.394
 9710SOL    HW230030   0.332   1.844   2.245
 9711SOL     OW30031   1.799   3.269   5.874
 9711SOL    HW130032   1.857   3.188   5.863
 9711SOL    HW230033   1.703   3.244   5.858
 9712SOL     OW30034   5.397   3.771   4.913
 9712SOL    HW130035   5.456   3.792   4.991
 9712SOL    HW230036   5.421   3.681   4.877
 9713SOL     OW30037   0.627   4.929   3.023
 9713SOL    HW130038   0.549   4.954   3.079
 9713SOL    HW230039   0.666   5.010   2.981
 9714SOL     OW30040   1.987   1.079   2.008
 9714SOL    HW130041   2.049   1.108   2.081
 9714SOL    HW230042   2.035   1.084   1.920
 9715SOL     OW30043   6.341   5.312   5.069
 9715SOL    HW130044   6.406   5.313   4.993
 9715SOL    HW230045   6.390   5.299   5.155
 9716SOL     OW30046   4.364   2.849   6.740
 9716SOL    HW130047   4.278   2.799   6.738
 9716SOL    HW230048   4.395   2.866   6.646
 9717SOL     OW30049   6.087   5.478   5.530
 9717SOL    HW130050   6.048   5.500   5.620
 9717SOL    HW230051   6.036   5.527   5.459
 9718SOL     OW30052   4.702   3.070   1.609
 9718SOL    HW130053   4.651   3.054   1.693
 9718SOL    HW230054   4.643   3.050   1.530
 9719SOL     OW30055   0.769   2.330   6.627
 9719SOL    HW130056   0.837   2.257   6.622
 9719SOL    HW230057   0.710   2.315   6.706
 9720SOL     OW30058   0.805   5.837   1.780
 9720SOL    HW130059   0.740   5.897   1.826
 9720SOL    HW230060   0.806   5.747   1.824
 9721SOL     OW30061   0.827   2.649   0.767
 9721SOL    HW130062   0.799   2.694   0.683
 9721SOL    HW230063   0.840   2.717   0.839
 9722SOL     OW30064   0.578   6.584   3.573
 9722SOL    HW130065   0.597   6.602   3.670
 9722SOL    HW230066   0.610   6.661   3.518
 9723SOL     OW30067   1.757   6.140   3.169
 9723SOL    HW130068   1.800   6.228   3.152
 9723SOL    HW230069   1.756   6.086   3.085
 9724SOL     OW30070   2.766   2.970   0.918
 9724SOL    HW130071   2.753   3.037   0.991
 9724SOL    HW230072   2.825   2.897   0.951
 9725SOL     OW30073   4.126   3.720   6.463
 9725SOL    HW130074   4.153   3.795   6.403
 9725SOL    HW230075   4.162   3.737   6.555
 9726SOL     OW30076   4.302   6.818   4.584
 9726SOL    HW130077   4.318   6.739   4.644
 9726SOL    HW230078   4.335   6.797   4.492
 9727SOL     OW30079   0.990   3.567   5.258
 9727SOL    HW130080   0.914   3.503   5.268
 9727SOL    HW230081   1.070   3.531   5.307
 9728SOL     OW30082   0.847   6.636   6.444
 9728SOL    HW130083   0.756   6.596   6.451
 9728SOL    HW230084   0.855   6.687   6.358
 9729SOL     OW30085   0.859   4.532   2.443
 9729SOL    HW130086   0.770   4.574   2.429
 9729SOL    HW230087   0.876   4.520   2.541
 9730SOL     OW30088   0.576   3.683   2.331
 9730SOL    HW130089   0.619   3.705   2.243
 9730SOL    HW230090   0.624   3.606   2.373
 9731SOL     OW30091   4.187   4.585   0.772
 9731SOL    HW130092   4.198   4.493   0.811
 9731SOL    HW230093   4.213   4.583   0.675
 9732SOL     OW30094   5.229   5.806   2.838
 9732SOL    HW130095   5.260   5.846   2.925
 9732SOL    HW230096   5.186   5.718   2.856
 9733SOL     OW30097   5.751   5.071   5.050
 9733SOL    HW130098   5.668   5.074   5.105
 9733SOL    HW230099   5.810   4.997   5.082
 9734SOL     OW30100   5.419   1.924   3.770
 9734SOL    HW130101   5.477   1.978   3.709
 9734SOL    HW230102   5.336   1.897   3.721
 9735SOL     OW30103   1.511   4.518   2.373
 9735SOL    HW130104   1.606   4.490   2.367
 9735SOL    HW230105   1.471   4.521   2.281
 9736SOL     OW30106   6.066   1.635   6.176
 9736SOL    HW130107   6.132   1.707   6.158
 9736SOL    HW230108   5.973   1.671   6.163
 9737SOL     OW30109   5.962   3.102   4.801
 9737SOL    HW130110   5.866   3.129   4.800
 9737SOL    HW230111   6.017   3.178   4.836
 9738SOL     OW30112   1.329   0.050   3.188
 9738SOL    HW130113   1.298   0.145   3.183
 9738SOL    HW230114   1.398   0.034   3.117
 9739SOL     OW30115   0.210   5.426   2.040
 9739SOL    HW130116   0.218   5.520   2.072
 9739SOL    HW230117   0.136   5.380   2.088
 9740SOL     OW30118   6.104   3.266   3.223
 9740SOL    HW130119   6.145   3.217   3.147
 9740SOL    HW230120   6.125   3.364   3.215
 9741SOL     OW30121   4.746   1.523   2.396
 9741SOL    HW130122   4.692   1.550   2.317
 9741SOL    HW230123   4.839   1.501   2.368
 9742SOL     OW30124   4.401   0.052   3.154
 9742SOL    HW130125   4.382   6.970   3.168
 9742SOL    HW230126   4.413   0.069   3.056
 9743SOL     OW30127   2.020   2.317   4.814
 9743SOL    HW130128   2.050   2.386   4.881
 9743SOL    HW230129   2.100   2.281   4.765
 9744SOL     OW30130   0.381   0.312   2.968
 9744SOL    HW130131   0.377   0.233   2.907
 9744SOL    HW230132   0.316   0.300   3.043
 9745SOL     OW30133   0.372   2.758   5.939
 9745SOL    HW130134   0.398   2.795   6.028
 9745SOL    HW230135   0.294   2.696   5.950
 9746SOL     OW30136   5.810   1.658   5.877
 9746SOL    HW130137   5.744   1.585   5.860
 9746SOL    HW230138   5.818   1.673   5.975
 9747SOL     OW30139   1.522   1.397   1.798
 9747SOL    HW130140   1.514   1.324   1.865
 9747SOL    HW230141   1.559   1.359   1.712
 9748SOL     OW30142   1.331   0.900   4.573
 9748SOL    HW130143   1.239   0.939   4.566
 9748SOL    HW230144   1.368   0.917   4.664
 9749SOL     OW30145   2.179   2.263   5.052
 9749SOL    HW130146   2.248   2.192   5.063
 9749SOL    HW230147   2.140   2.286   5.141
 9750SOL     OW30148   5.017   5.253   3.886
 9750SOL    HW130149   5.104   5.303   3.882
 9750SOL    HW230150   5.027   5.165   3.839
 9751SOL     OW30151   2.317   2.269   0.979
 9751SOL    HW130152   2.377   2.346   0.959
 9751SOL    HW230153   2.222   2.299   0.973
 9752SOL     OW30154   4.540   0.646   6.992
 9752SOL    HW130155   4.546   0.647   0.077
 9752SOL    HW230156   4.479   0.572   6.963
 9753SOL     OW30157   6.218   5.951   4.703
 9753SOL    HW130158   6.257   6.017   4.767
 9753SOL    HW230159   6.179   5.874   4.754
 9754SOL     OW30160   1.013   1.579   0.034
 9754SOL    HW130161   1.102   1.534   0.024
 9754SOL    HW230162   0.995   1.597   0.131
 9755SOL     OW30163   4.385   3.185   5.669
 9755SOL    HW130164   4.306   3.218   5.617
 9755SOL    HW230165   4.432   3.114   5.617
 9756SOL     OW30166   6.124   3.137   0.340
 9756SOL    HW130167   6.199   3.074   0.320
 9756SOL    HW230168   6.152   3.231   0.320
 9757SOL     OW30169   5.466   3.069   3.229
 9757SOL    HW130170   5.510   2.991   3.272
 9757SOL    HW230171   5.368   3.066   3.245
 9758SOL     OW30172   1.698   6.772   6.414
 9758SOL    HW130173   1.766   6.758   6.343
 9758SOL    HW230174   1.740   6.818   6.492
 9759SOL     OW30175   2.067   6.803   0.881
 9759SOL    HW130176   2.131   6.740   0.838
 9759SOL    HW230177   2.012   6.754   0.948
 9760SOL     OW30178   4.658   3.710   5.419
 9760SOL    HW130179   4.656   3.665   5.330
 9760SOL    HW230180   4.606   3.656   5.485
 9761SOL     OW30181   5.862   6.211   2.452
 9761SOL    HW130182   5.892   6.176   2.541
 9761SOL    HW230183   5.933   6.270   2.414
 9762SOL     OW30184   2.697   2.058   4.456
 9762SOL    HW130185   2.750   1.973   4.450
 9762SOL    HW230186   2.702   2.092   4.550
 9763SOL     OW30187   4.292   2.459   1.850
 9763SOL    HW130188   4.237   2.384   1.888
 9763SOL    HW230189   4.374   2.471   1.905
 9764SOL     OW30190   0.424   2.282   3.080
 9764SOL    HW130191   0.330   2.314   3.084
 9764SOL    HW230192   0.481   2.340   3.138
 9765SOL     OW30193   6.759   2.148   4.636
 9765SOL    HW130194   6.825   2.086   4.679
 9765SOL    HW230195   6.742   2.226   4.696
 9766SOL     OW30196   2.743   0.540   3.135
 9766SOL    HW130197   2.681   0.482   3.187
 9766SOL    HW230198   2.751   0.505   3.041
 9767SOL     OW30199   5.332   2.151   5.230
 9767SOL    HW130200   5.391   2.099   5.292
 9767SOL    HW230201   5.371   2.241   5.214
 9768SOL     OW30202   4.972   1.611   2.154
 9768SOL    HW130203   4.979   1.694   2.210
 9768SOL    HW230204   5.064   1.581   2.128
 9769SOL     OW30205   1.989   1.394   2.136
 9769SOL    HW130206   1.893   1.415   2.117
 9769SOL    HW230207   1.998   1.365   2.232
 9770SOL     OW30208   5.990   6.648   6.764
 9770SOL    HW130209   6.089   6.651   6.766
 9770SOL    HW230210   5.957   6.584   6.833
 9771SOL     OW30211   4.142   4.616   1.502
 9771SOL    HW130212   4.094   4.531   1.524
 9771SOL    HW230213   4.236   4.596   1.475
 9772SOL     OW30214   0.847   6.688   1.800
 9772SOL    HW130215   0.868   6.595   1.831
 9772SOL    HW230216   0.797   6.737   1.872
 9773SOL     OW30217   5.282   6.266   4.109
 9773SOL    HW130218   5.330   6.182   4.132
 9773SOL    HW230219   5.340   6.323   4.052
 9774SOL     OW30220   6.279   5.252   2.408
 9774SOL    HW130221   6.219   5.330   2.427
 9774SOL    HW230222   6.239   5.169   2.447
 9775SOL     OW30223   2.304   1.832   4.064
 9775SOL    HW130224   2.346   1.870   4.146
 9775SOL    HW230225   2.373   1.820   3.993
 9776SOL     OW30226   6.865   5.800   4.542
 9776SOL    HW130227   6.858   5.877   4.479
 9776SOL    HW230228   6.942   5.815   4.604
 9777SOL     OW30229   5.573   4.902   6.369
 9777SOL    HW130230   5.650   4.942   6.418
 9777SOL    HW230231   5.495   4.891   6.431
 9778SOL     OW30232   6.110   0.461   3.649
 9778SOL    HW130233   6.156   0.547   3.625
 9778SOL    HW230234   6.017   0.480   3.679
 9779SOL     OW30235   2.647   1.838   4.699
 9779SOL    HW130236   2.729   1.869   4.747
 9779SOL    HW230237   2.571   1.900   4.720
 9780SOL     OW30238   1.906   1.895   0.975
 9780SOL    HW130239   1.820   1.921   1.020
 9780SOL    HW230240   1.937   1.970   0.917
 9781SOL     OW30241   2.070   4.243   3.707
 9781SOL    HW130242   2.133   4.246   3.629
 9781SOL    HW230243   2.123   4.234   3.792
 9782SOL     OW30244   6.542   0.677   1.485
 9782SOL    HW130245   6.579   0.666   1.393
 9782SOL    HW230246   6.617   0.690   1.549
 9783SOL     OW30247   5.871   1.426   1.918
 9783SOL    HW130248   5.843   1.333   1.941
 9783SOL    HW230249   5.899   1.474   2.001
 9784SOL     OW30250   5.021   1.271   3.852
 9784SOL    HW130251   4.940   1.262   3.794
 9784SOL    HW230252   5.057   1.364   3.845
 9785SOL     OW30253   0.044   4.148   3.823
 9785SOL    HW130254   0.058   4.120   3.918
 9785SOL    HW230255   0.082   4.078   3.762
 9786SOL     OW30256   1.712   5.178   5.931
 9786SOL    HW130257   1.637   5.127   5.972
 9786SOL    HW230258   1.729   5.261   5.984
 9787SOL     OW30259   5.180   3.949   1.608
 9787SOL    HW130260   5.273   3.979   1.627
 9787SOL    HW230261   5.120   3.979   1.682
 9788SOL     OW30262   0.421   0.451   3.846
 9788SOL    HW130263   0.404   0.444   3.748
 9788SOL    HW230264   0.351   0.509   3.889
 9789SOL     OW30265   2.351   5.617   6.772
 9789SOL    HW130266   2.307   5.582   6.689
 9789SOL    HW230267   2.323   5.711   6.787
 9790SOL     OW30268   5.927   3.288   5.144
 9790SOL    HW130269   5.955   3.278   5.239
 9790SOL    HW230270   6.003   3.265   5.083
 9791SOL     OW30271   0.700   0.933   2.534
 9791SOL    HW130272   0.650   1.009   2.491
 9791SOL    HW230273   0.792   0.929   2.496
 9792SOL     OW30274   4.494   5.086   1.692
 9792SOL    HW130275   4.432   5.081   1.614
 9792SOL    HW230276   4.583   5.049   1.666
 9793SOL     OW30277   5.758   5.572   2.996
 9793SOL    HW130278   5.792   5.520   2.918
 9793SOL    HW230279   5.691   5.640   2.965
 9794SOL     OW30280   5.990   3.591   6.781
 9794SOL    HW130281   5.999   3.505   6.832
 9794SOL    HW230282   5.906   3.637   6.810
 9795SOL     OW30283   1.018   2.958   4.267
 9795SOL    HW130284   1.099   2.945   4.209
 9795SOL    HW230285   0.993   3.055   4.267
 9796SOL     OW30286   3.197   4.207   0.984
 9796SOL    HW130287   3.217   4.224   1.080
 9796SOL    HW230288   3.239   4.277   0.927
 9797SOL     OW30289   4.204   3.867   0.493
 9797SOL    HW130290   4.224   3.953   0.447
 9797SOL    HW230291   4.244   3.791   0.441
 9798SOL     OW30292   2.368   0.773   0.736
 9798SOL    HW130293   2.289   0.826   0.703
 9798SOL    HW230294   2.451   0.827   0.727
 9799SOL     OW30295   3.375   3.547   2.638
 9799SOL    HW130296   3.278   3.554   2.615
 9799SOL    HW230297   3.396   3.453   2.665
 9800SOL     OW30298   3.871   5.897   5.864
 9800SOL    HW130299   3.929   5.841   5.805
 9800SOL    HW230300   3.800   5.941   5.808
 9801SOL     OW30301   3.994   4.896   6.687
 9801SOL    HW130302   4.080   4.863   6.724
 9801SOL    HW230303   3.926   4.823   6.690
 9802SOL     OW30304   6.792   3.030   2.254
 9802SOL    HW130305   6.887   3.045   2.281
 9802SOL    HW230306   6.752   2.959   2.312
 9803SOL     OW30307   6.233   0.336   6.537
 9803SOL    HW130308   6.219   0.336   6.438
 9803SOL    HW230309   6.165   0.277   6.581
 9804SOL     OW30310   0.163   5.450   3.778
 9804SOL    HW130311   0.150   5.353   3.797
 9804SOL    HW230312   0.144   5.504   3.861
 9805SOL     OW30313   1.537   5.741   6.776
 9805SOL    HW130314   1.635   5.727   6.791
 9805SOL    HW230315   1.487   5.715   6.859
 9806SOL     OW30316   0.380   2.210   1.336
 9806SOL    HW130317   0.341   2.127   1.375
 9806SOL    HW230318   0.480   2.209   1.348
 9807SOL     OW30319   3.028   1.697   6.539
 9807SOL    HW130320   3.070   1.703   6.448
 9807SOL    HW230321   3.041   1.605   6.575
 9808SOL     OW30322   5.657   0.764   5.577
 9808SOL    HW130323   5.666   0.819   5.494
 9808SOL    HW230324   5.743   0.718   5.596
 9809SOL     OW30325   0.640   1.399   6.000
 9809SOL    HW130326   0.664   1.306   6.027
 9809SOL    HW230327   0.699   1.428   5.924
 9810SOL     OW30328   2.435   2.219   3.213
 9810SOL    HW130329   2.517   2.276   3.206
 9810SOL    HW230330   2.357   2.270   3.177
 9811SOL     OW30331   6.162   5.674   3.579
 9811SOL    HW130332   6.208   5.759   3.554
 9811SOL    HW230333   6.223   5.596   3.561
 9812SOL     OW30334   3.851   2.171   6.724
 9812SOL    HW130335   3.832   2.259   6.767
 9812SOL    HW230336   3.869   2.102   6.794
 9813SOL     OW30337   6.423   5.808   0.089
 9813SOL    HW130338   6.375   5.749   0.153
 9813SOL    HW230339   6.358   5.871   0.047
 9814SOL     OW30340   6.456   0.631   6.347
 9814SOL    HW130341   6.441   0.658   6.442
 9814SOL    HW230342   6.434   0.707   6.286
 9815SOL     OW30343   6.593   2.049   1.224
 9815SOL    HW130344   6.624   2.141   1.197
 9815SOL    HW230345   6.664   1.982   1.200
 9816SOL     OW30346   6.402   0.823   6.159
 9816SOL    HW130347   6.426   0.912   6.120
 9816SOL    HW230348   6.314   0.793   6.121
 9817SOL     OW30349   3.180   5.665   1.644
 9817SOL    HW130350   3.111   5.687   1.575
 9817SOL    HW230351   3.215   5.750   1.684
 9818SOL     OW30352   1.951   1.478   3.358
 9818SOL    HW130353   2.041   1.445   3.387
 9818SOL    HW230354   1.963   1.549   3.289
 9819SOL     OW30355   5.701   4.540   4.865
 9819SOL    HW130356   5.715   4.532   4.963
 9819SOL    HW230357   5.721   4.452   4.821
 9820SOL     OW30358   2.894   2.404   6.329
 9820SOL    HW130359   2.907   2.459   6.246
 9820SOL    HW230360   2.839   2.456   6.394
 9821SOL     OW30361   4.611   2.083   1.381
 9821SOL    HW130362   4.601   1.984   1.368
 9821SOL    HW230363   4.578   2.131   1.300
 9822SOL     OW30364   3.984   5.707   4.445
 9822SOL    HW130365   4.034   5.644   4.385
 9822SOL    HW230366   3.970   5.664   4.534
 9823SOL     OW30367   1.310   0.471   2.226
 9823SOL    HW130368   1.371   0.526   2.170
 9823SOL    HW230369   1.253   0.414   2.167
 9824SOL     OW30370   2.671   6.049   5.430
 9824SOL    HW130371   2.671   5.949   5.434
 9824SOL    HW230372   2.728   6.085   5.504
 9825SOL     OW30373   5.288   6.200   4.992
 9825SOL    HW130374   5.346   6.121   4.973
 9825SOL    HW230375   5.271   6.206   5.091
 9826SOL     OW30376   3.791   0.095   5.474
 9826SOL    HW130377   3.758   0.029   5.406
 9826SOL    HW230378   3.755   0.070   5.564
 9827SOL     OW30379   2.040   5.474   2.810
 9827SOL    HW130380   2.077   5.383   2.830
 9827SOL    HW230381   2.094   5.516   2.737
 9828SOL     OW30382   3.519   1.947   4.771
 9828SOL    HW130383   3.476   1.981   4.686
 9828SOL    HW230384   3.600   1.894   4.748
 9829SOL     OW30385   5.320   6.282   5.991
 9829SOL    HW130386   5.297   6.340   6.069
 9829SOL    HW230387   5.407   6.311   5.951
 9830SOL     OW30388   5.813   1.233   2.548
 9830SOL    HW130389   5.823   1.141   2.584
 9830SOL    HW230390   5.728   1.273   2.582
 9831SOL     OW30391   0.381   4.610   1.950
 9831SOL    HW130392   0.479   4.610   1.934
 9831SOL    HW230393   0.350   4.704   1.970
 9832SOL     OW30394   5.047   4.679   4.479
 9832SOL    HW130395   4.959   4.652   4.517
 9832SOL    HW230396   5.033   4.725   4.391
 9833SOL     OW30397   3.642   3.986   3.410
 9833SOL    HW130398   3.582   4.066   3.422
 9833SOL    HW230399   3.586   3.907   3.386
 9834SOL     OW30400   2.587   5.444   5.595
 9834SOL    HW130401   2.568   5.356   5.551
 9834SOL    HW230402   2.586   5.516   5.525
 9835SOL     OW30403   3.711   4.119   4.252
 9835SOL    HW130404   3.721   4.122   4.352
 9835SOL    HW230405   3.712   4.024   4.221
 9836SOL     OW30406   0.954   4.082   5.864
 9836SOL    HW130407   1.022   4.017   5.898
 9836SOL    HW230408   0.867   4.065   5.909
 9837SOL     OW30409   5.388   2.146   1.757
 9837SOL    HW130410   5.451   2.076   1.792
 9837SOL    HW230411   5.432   2.195   1.681
 9838SOL     OW30412   1.531   6.276   1.399
 9838SOL    HW130413   1.537   6.269   1.300
 9838SOL    HW230414   1.445   6.322   1.424
 9839SOL     OW30415   4.571   1.197   4.094
 9839SOL    HW130416   4.650   1.232   4.143
 9839SOL    HW230417   4.600   1.125   4.030
 9840SOL     OW30418   5.244   1.198   6.805
 9840SOL    HW130419   5.246   1.250   6.890
 9840SOL    HW230420   5.278   1.106   6.821
 9841SOL     OW30421   0.031   5.613   3.622
 9841SOL    HW130422   6.952   5.580   3.614
 9841SOL    HW230423   0.086   5.546   3.672
 9842SOL     OW30424   3.487   3.017   0.474
 9842SOL    HW130425   3.402   2.988   0.519
 9842SOL    HW230426   3.499   3.115   0.487
 9843SOL     OW30427   6.485   0.383   1.499
 9843SOL    HW130428   6.468   0.345   1.590
 9843SOL    HW230429   6.471   0.482   1.501
 9844SOL     OW30430   5.682   0.495   4.389
 9844SOL    HW130431   5.667   0.447   4.303
 9844SOL    HW230432   5.731   0.580   4.371
 9845SOL     OW30433   1.247   2.065   2.537
 9845SOL    HW130434   1.172   2.105   2.589
 9845SOL    HW230435   1.221   2.060   2.440
 9846SOL     OW30436   5.295   1.136   0.978
 9846SOL    HW130437   5.231   1.208   1.005
 9846SOL    HW230438   5.374   1.137   1.038
 9847SOL     OW30439   3.723   2.853   1.768
 9847SOL    HW130440   3.685   2.898   1.687
 9847SOL    HW230441   3.780   2.918   1.818
 9848SOL     OW30442   3.117   4.122   5.273
 9848SOL    HW130443   3.044   4.188   5.291
 9848SOL    HW230444   3.139   4.072   5.357
 9849SOL     OW30445   1.321   0.731   6.624
 9849SOL    HW130446   1.240   0.749   6.679
 9849SOL    HW230447   1.329   0.632   6.608
 9850SOL     OW30448   0.490   0.373   4.169
 9850SOL    HW130449   0.536   0.312   4.105
 9850SOL    HW230450   0.559   0.427   4.218
 9851SOL     OW30451   3.389   5.166   4.780
 9851SOL    HW130452   3.451   5.121   4.716
 9851SOL    HW230453   3.439   5.236   4.832
 9852SOL     OW30454   1.258   1.573   6.336
 9852SOL    HW130455   1.251   1.474   6.342
 9852SOL    HW230456   1.297   1.598   6.247
 9853SOL     OW30457   0.173   3.978   4.497
 9853SOL    HW130458   0.208   4.072   4.500
 9853SOL    HW230459   0.211   3.931   4.418
 9854SOL     OW30460   1.380   5.735   6.040
 9854SOL    HW130461   1.397   5.637   6.055
 9854SOL    HW230462   1.442   5.769   5.970
 9855SOL     OW30463   0.867   3.429   0.520
 9855SOL    HW130464   0.820   3.341   0.515
 9855SOL    HW230465   0.833   3.488   0.447
 9856SOL     OW30466   5.749   5.045   3.812
 9856SOL    HW130467   5.840   5.029   3.773
 9856SOL    HW230468   5.709   4.957   3.839
 9857SOL     OW30469   5.334   2.700   3.484
 9857SOL    HW130470   5.397   2.775   3.462
 9857SOL    HW230471   5.241   2.735   3.487
 9858SOL     OW30472   1.140   6.585   2.149
 9858SOL    HW130473   1.238   6.601   2.158
 9858SOL    HW230474   1.095   6.598   2.237
 9859SOL     OW30475   6.682   4.570   5.107
 9859SOL    HW130476   6.735   4.589   5.190
 9859SOL    HW230477   6.599   4.519   5.131
 9860SOL     OW30478   1.923   2.566   5.046
 9860SOL    HW130479   1.846   2.552   4.984
 9860SOL    HW230480   1.919   2.499   5.120
 9861SOL     OW30481   2.989   1.485   3.858
 9861SOL    HW130482   2.948   1.463   3.769
 9861SOL    HW230483   2.940   1.436   3.930
 9862SOL     OW30484   2.211   4.513   1.146
 9862SOL    HW130485   2.271   4.451   1.096
 9862SOL    HW230486   2.224   4.607   1.114
 9863SOL     OW30487   3.042   5.780   0.771
 9863SOL    HW130488   3.102   5.835   0.712
 9863SOL    HW230489   2.957   5.759   0.722
 9864SOL     OW30490   2.900   6.440   5.121
 9864SOL    HW130491   2.965   6.366   5.102
 9864SOL    HW230492   2.825   6.406   5.177
 9865SOL     OW30493   0.482   7.003   5.296
 9865SOL    HW130494   0.425   0.066   5.275
 9865SOL    HW230495   0.431   6.919   5.277
 9866SOL     OW30496   5.908   4.546   4.617
 9866SOL    HW130497   5.926   4.578   4.524
 9866SOL    HW230498   5.830   4.597   4.655
 9867SOL     OW30499   4.929   1.876   2.272
 9867SOL    HW130500   4.938   1.920   2.361
 9867SOL    HW230501   4.889   1.940   2.207
 9868SOL     OW30502   1.074   4.171   3.474
 9868SOL    HW130503   1.171   4.157   3.454
 9868SOL    HW230504   1.020   4.152   3.391
 9869SOL     OW30505   0.181   2.356   0.589
 9869SOL    HW130506   0.209   2.369   0.685
 9869SOL    HW230507   0.084   2.330   0.586
 9870SOL     OW30508   3.922   1.526   1.911
 9870SOL    HW130509   3.829   1.545   1.941
 9870SOL    HW230510   3.984   1.532   1.990
 9871SOL     OW30511   6.680   3.263   5.406
 9871SOL    HW130512   6.765   3.218   5.434
 9871SOL    HW230513   6.664   3.246   5.309
 9872SOL     OW30514   2.355   5.600   5.039
 9872SOL    HW130515   2.291   5.611   5.115
 9872SOL    HW230516   2.330   5.520   4.986
 9873SOL     OW30517   1.959   2.229   5.796
 9873SOL    HW130518   1.878   2.241   5.853
 9873SOL    HW230519   2.034   2.283   5.832
 9874SOL     OW30520   0.755   2.969   4.505
 9874SOL    HW130521   0.756   2.883   4.556
 9874SOL    HW230522   0.717   2.953   4.414
 9875SOL     OW30523   0.323   6.256   0.738
 9875SOL    HW130524   0.268   6.333   0.704
 9875SOL    HW230525   0.403   6.243   0.680
 9876SOL     OW30526   3.475   0.123   3.460
 9876SOL    HW130527   3.424   0.203   3.430
 9876SOL    HW230528   3.491   0.128   3.559
 9877SOL     OW30529   7.008   4.390   4.520
 9877SOL    HW130530   0.002   4.420   4.425
 9877SOL    HW230531   6.969   4.299   4.523
 9878SOL     OW30532   1.849   2.881   6.853
 9878SOL    HW130533   1.931   2.917   6.897
 9878SOL    HW230534   1.784   2.955   6.837
 9879SOL     OW30535   1.308   4.709   6.163
 9879SOL    HW130536   1.322   4.619   6.205
 9879SOL    HW230537   1.217   4.712   6.123
 9880SOL     OW30538   2.557   1.090   0.434
 9880SOL    HW130539   2.643   1.084   0.484
 9880SOL    HW230540   2.511   1.001   0.436
 9881SOL     OW30541   5.281   0.485   4.306
 9881SOL    HW130542   5.218   0.490   4.384
 9881SOL    HW230543   5.351   0.416   4.324
 9882SOL     OW30544   3.861   2.965   4.965
 9882SOL    HW130545   3.764   2.948   4.981
 9882SOL    HW230546   3.873   3.003   4.873
 9883SOL     OW30547   1.623   6.027   1.991
 9883SOL    HW130548   1.646   6.125   1.989
 9883SOL    HW230549   1.632   5.993   2.084
 9884SOL     OW30550   1.637   3.064   6.883
 9884SOL    HW130551   1.655   3.148   6.832
 9884SOL    HW230552   1.605   3.087   6.975
 9885SOL     OW30553   6.706   3.045   4.345
 9885SOL    HW130554   6.650   3.062   4.264
 9885SOL    HW230555   6.668   2.968   4.397
 9886SOL     OW30556   5.767   6.110   1.869
 9886SOL    HW130557   5.752   6.203   1.902
 9886SOL    HW230558   5.768   6.109   1.769
 9887SOL     OW30559   4.324   6.587   0.528
 9887SOL    HW130560   4.376   6.571   0.444
 9887SOL    HW230561   4.253   6.517   0.537
 9888SOL     OW30562   5.537   5.479   2.369
 9888SOL    HW130563   5.491   5.457   2.283
 9888SOL    HW230564   5.630   5.441   2.367
 9889SOL     OW30565   6.742   5.011   2.822
 9889SOL    HW130566   6.671   4.950   2.786
 9889SOL    HW230567   6.826   4.959   2.835
 9890SOL     OW30568   6.563   2.712   0.622
 9890SOL    HW130569   6.633   2.782   0.609
 9890SOL    HW230570   6.582   2.662   0.707
 9891SOL     OW30571   4.825   5.390   0.855
 9891SOL    HW130572   4.880   5.473   0.845
 9891SOL    HW230573   4.866   5.331   0.925
 9892SOL     OW30574   2.205   5.145   3.875
 9892SOL    HW130575   2.277   5.190   3.822
 9892SOL    HW230576   2.149   5.214   3.920
 9893SOL     OW30577   5.876   5.263   2.725
 9893SOL    HW130578   5.959   5.284   2.675
 9893SOL    HW230579   5.898   5.250   2.822
 9894SOL     OW30580   3.841   1.987   5.991
 9894SOL    HW130581   3.804   2.046   6.063
 9894SOL    HW230582   3.934   2.016   5.968
 9895SOL     OW30583   5.288   2.441   6.526
 9895SOL    HW130584   5.281   2.348   6.563
 9895SOL    HW230585   5.341   2.498   6.589
 9896SOL     OW30586   3.315   3.295   0.672
 9896SOL    HW130587   3.333   3.265   0.578
 9896SOL    HW230588   3.248   3.368   0.672
 9897SOL     OW30589   4.722   1.369   3.002
 9897SOL    HW130590   4.800   1.372   3.065
 9897SOL    HW230591   4.705   1.274   2.976
 9898SOL     OW30592   1.005   5.288   5.465
 9898SOL    HW130593   1.010   5.382   5.498
 9898SOL    HW230594   1.051   5.227   5.530
 9899SOL     OW30595   5.619   4.523   2.280
 9899SOL    HW130596   5.626   4.622   2.271
 9899SOL    HW230597   5.530   4.493   2.246
 9900SOL     OW30598   1.216   2.075   3.721
 9900SOL    HW130599   1.181   2.076   3.627
 9900SOL    HW230600   1.168   2.143   3.776
 9901SOL     OW30601   2.050   2.044   6.435
 9901SOL    HW130602   2.086   1.961   6.391
 9901SOL    HW230603   2.099   2.060   6.521
 9902SOL     OW30604   3.621   3.507   0.847
 9902SOL    HW130605   3.544   3.526   0.908
 9902SOL    HW230606   3.616   3.411   0.816
 9903SOL     OW30607   4.369   1.423   2.322
 9903SOL    HW130608   4.301   1.492   2.345
 9903SOL    HW230609   4.407   1.385   2.407
 9904SOL     OW30610   6.392   3.059   0.274
 9904SOL    HW130611   6.359   2.992   0.209
 9904SOL    HW230612   6.492   3.060   0.273
 9905SOL     OW30613   1.356   6.356   6.782
 9905SOL    HW130614   1.291   6.375   6.709
 9905SOL    HW230615   1.392   6.263   6.771
 9906SOL     OW30616   1.709   2.296   5.938
 9906SOL    HW130617   1.729   2.299   6.035
 9906SOL    HW230618   1.624   2.245   5.923
 9907SOL     OW30619   2.471   5.766   3.273
 9907SOL    HW130620   2.435   5.825   3.202
 9907SOL    HW230621   2.488   5.819   3.356
 9908SOL     OW30622   0.679   3.474   6.482
 9908SOL    HW130623   0.706   3.566   6.513
 9908SOL    HW230624   0.745   3.440   6.416
 9909SOL     OW30625   2.968   1.711   2.661
 9909SOL    HW130626   3.013   1.743   2.744
 9909SOL    HW230627   3.006   1.621   2.636
 9910SOL     OW30628   0.048   4.800   1.128
 9910SOL    HW130629   0.108   4.814   1.050
 9910SOL    HW230630   0.094   4.830   1.212
 9911SOL     OW30631   4.567   4.896   2.979
 9911SOL    HW130632   4.611   4.907   2.891
 9911SOL    HW230633   4.534   4.985   3.012
 9912SOL     OW30634   4.508   1.127   2.173
 9912SOL    HW130635   4.497   1.133   2.074
 9912SOL    HW230636   4.605   1.132   2.196
 9913SOL     OW30637   5.372   2.939   2.532
 9913SOL    HW130638   5.296   2.964   2.593
 9913SOL    HW230639   5.347   2.858   2.480
 9914SOL     OW30640   1.628   0.316   5.598
 9914SOL    HW130641   1.671   0.400   5.564
 9914SOL    HW230642   1.698   0.246   5.611
 9915SOL     OW30643   5.181   3.324   4.233
 9915SOL    HW130644   5.211   3.295   4.324
 9915SOL    HW230645   5.081   3.320   4.228
 9916SOL     OW30646   2.063   3.183   2.681
 9916SOL    HW130647   2.014   3.220   2.760
 9916SOL    HW230648   2.120   3.106   2.711
 9917SOL     OW30649   3.474   3.915   5.033
 9917SOL    HW130650   3.415   3.869   5.100
 9917SOL    HW230651   3.463   4.014   5.042
 9918SOL     OW30652   2.093   1.518   6.022
 9918SOL    HW130653   2.156   1.497   5.947
 9918SOL    HW230654   2.029   1.442   6.035
 9919SOL     OW30655   1.180   5.930   2.484
 9919SOL    HW130656   1.151   5.982   2.565
 9919SOL    HW230657   1.143   5.838   2.489
 9920SOL     OW30658   3.981   0.160   2.034
 9920SOL    HW130659   3.913   0.169   1.961
 9920SOL    HW230660   4.032   0.075   2.022
 9921SOL     OW30661   5.745   0.354   3.252
 9921SOL    HW130662   5.808   0.342   3.175
 9921SOL    HW230663   5.769   0.291   3.326
 9922SOL     OW30664   4.200   4.815   1.038
 9922SOL    HW130665   4.234   4.850   1.125
 9922SOL    HW230666   4.103   4.793   1.047
 9923SOL     OW30667   6.592   2.070   6.311
 9923SOL    HW130668   6.522   2.141   6.315
 9923SOL    HW230669   6.555   1.988   6.268
 9924SOL     OW30670   5.576   1.307   2.679
 9924SOL    HW130671   5.488   1.261   2.668
 9924SOL    HW230672   5.593   1.324   2.776
 9925SOL     OW30673   2.592   3.739   5.551
 9925SOL    HW130674   2.534   3.815   5.582
 9925SOL    HW230675   2.589   3.734   5.451
 9926SOL     OW30676   1.636   1.432   1.025
 9926SOL    HW130677   1.692   1.433   1.107
 9926SOL    HW230678   1.566   1.361   1.033
 9927SOL     OW30679   1.076   1.801   2.184
 9927SOL    HW130680   1.176   1.788   2.183
 9927SOL    HW230681   1.055   1.896   2.208
 9928SOL     OW30682   0.484   4.726   1.679
 9928SOL    HW130683   0.416   4.780   1.629
 9928SOL    HW230684   0.531   4.665   1.616
 9929SOL     OW30685   3.452   4.414   5.594
 9929SOL    HW130686   3.418   4.325   5.627
 9929SOL    HW230687   3.430   4.424   5.497
 9930SOL     OW30688   0.303   0.726   6.391
 9930SOL    HW130689   0.240   0.696   6.319
 9930SOL    HW230690   0.336   0.818   6.369
 9931SOL     OW30691   1.137   6.520   4.642
 9931SOL    HW130692   1.115   6.616   4.624
 9931SOL    HW230693   1.236   6.508   4.645
 9932SOL     OW30694   1.575   1.982   0.540
 9932SOL    HW130695   1.558   2.035   0.623
 9932SOL    HW230696   1.586   1.885   0.564
 9933SOL     OW30697   2.914   0.602   3.346
 9933SOL    HW130698   2.862   0.576   3.265
 9933SOL    HW230699   2.863   0.670   3.398
 9934SOL     OW30700   5.790   1.531   6.513
 9934SOL    HW130701   5.874   1.502   6.467
 9934SOL    HW230702   5.730   1.452   6.526
 9935SOL     OW30703   2.981   2.061   0.440
 9935SOL    HW130704   3.037   2.121   0.497
 9935SOL    HW230705   2.979   1.970   0.480
 9936SOL     OW30706   4.920   4.945   5.791
 9936SOL    HW130707   4.954   5.039   5.782
 9936SOL    HW230708   4.997   4.882   5.797
 9937SOL     OW30709   0.045   0.208   2.866
 9937SOL    HW130710   0.125   0.154   2.840
 9937SOL    HW230711   6.981   0.147   2.873
 9938SOL     OW30712   6.619   1.376   4.377
 9938SOL    HW130713   6.708   1.365   4.422
 9938SOL    HW230714   6.547   1.381   4.445
 9939SOL     OW30715   2.093   3.706   1.243
 9939SOL    HW130716   2.045   3.632   1.290
 9939SOL    HW230717   2.035   3.743   1.171
 9940SOL     OW30718   0.516   0.209   3.384
 9940SOL    HW130719   0.484   0.201   3.289
 9940SOL    HW230720   0.588   0.278   3.389
 9941SOL     OW30721   4.005   5.436   5.588
 9941SOL    HW130722   4.079   5.493   5.624
 9941SOL    HW230723   3.919   5.461   5.632
 9942SOL     OW30724   4.487   4.587   3.244
 9942SOL    HW130725   4.542   4.571   3.326
 9942SOL    HW230726   4.396   4.619   3.270
 9943SOL     OW30727   1.845   3.936   0.052
 9943SOL    HW130728   1.750   3.906   0.063
 9943SOL    HW230729   1.907   3.859   0.065
 9944SOL     OW30730   1.642   4.889   0.050
 9944SOL    HW130731   1.662   4.982   0.082
 9944SOL    HW230732   1.584   4.893   6.985
 9945SOL     OW30733   6.319   4.236   0.338
 9945SOL    HW130734   6.260   4.236   0.257
 9945SOL    HW230735   6.263   4.220   0.420
 9946SOL     OW30736   5.930   0.821   2.887
 9946SOL    HW130737   5.891   0.817   2.979
 9946SOL    HW230738   5.875   0.881   2.829
 9947SOL     OW30739   1.031   2.636   4.303
 9947SOL    HW130740   1.115   2.619   4.251
 9947SOL    HW230741   1.008   2.733   4.299
 9948SOL     OW30742   6.108   6.946   3.642
 9948SOL    HW130743   6.091   6.940   3.544
 9948SOL    HW230744   6.024   6.923   3.692
 9949SOL     OW30745   6.459   4.302   5.137
 9949SOL    HW130746   6.444   4.352   5.222
 9949SOL    HW230747   6.428   4.358   5.060
 9950SOL     OW30748   6.728   4.629   6.304
 9950SOL    HW130749   6.824   4.602   6.295
 9950SOL    HW230750   6.686   4.632   6.213
 9951SOL     OW30751   0.810   3.034   2.416
 9951SOL    HW130752   0.876   2.982   2.361
 9951SOL    HW230753   0.718   3.014   2.383
 9952SOL     OW30754   0.782   3.644   1.314
 9952SOL    HW130755   0.789   3.742   1.334
 9952SOL    HW230756   0.853   3.595   1.364
 9953SOL     OW30757   6.649   2.505   3.333
 9953SOL    HW130758   6.697   2.579   3.380
 9953SOL    HW230759   6.563   2.539   3.295
 9954SOL     OW30760   2.902   1.486   5.388
 9954SOL    HW130761   2.959   1.468   5.308
 9954SOL    HW230762   2.939   1.439   5.468
 9955SOL     OW30763   4.361   3.458   0.678
 9955SOL    HW130764   4.407   3.384   0.726
 9955SOL    HW230765   4.271   3.474   0.719
 9956SOL     OW30766   1.231   4.466   2.731
 9956SOL    HW130767   1.256   4.521   2.810
 9956SOL    HW230768   1.168   4.394   2.758
 9957SOL     OW30769   5.374   6.959   1.611
 9957SOL    HW130770   5.398   6.973   1.515
 9957SOL    HW230771   5.439   7.007   1.669
 9958SOL     OW30772   3.867   4.649   6.253
 9958SOL    HW130773   3.932   4.667   6.179
 9958SOL    HW230774   3.824   4.735   6.280
 9959SOL     OW30775   4.394   4.062   1.400
 9959SOL    HW130776   4.312   4.040   1.347
 9959SOL    HW230777   4.370   4.073   1.497
 9960SOL     OW30778   6.521   6.444   1.421
 9960SOL    HW130779   6.496   6.371   1.484
 9960SOL    HW230780   6.600   6.415   1.366
 9961SOL     OW30781   1.567   4.023   1.609
 9961SOL    HW130782   1.644   3.971   1.643
 9961SOL    HW230783   1.493   4.023   1.676
 9962SOL     OW30784   3.670   5.981   1.832
 9962SOL    HW130785   3.698   6.056   1.772
 9962SOL    HW230786   3.631   5.907   1.777
 9963SOL     OW30787   2.417   1.887   0.632
 9963SOL    HW130788   2.458   1.949   0.564
 9963SOL    HW230789   2.352   1.939   0.688
 9964SOL     OW30790   4.586   4.529   5.420
 9964SOL    HW130791   4.535   4.580   5.490
 9964SOL    HW230792   4.650   4.591   5.374
 9965SOL     OW30793   2.834   6.365   4.798
 9965SOL    HW130794   2.736   6.345   4.800
 9965SOL    HW230795   2.886   6.281   4.808
 9966SOL     OW30796   2.926   4.826   2.071
 9966SOL    HW130797   2.917   4.750   2.008
 9966SOL    HW230798   2.841   4.836   2.124
 9967SOL     OW30799   6.021   6.470   2.701
 9967SOL    HW130800   6.089   6.401   2.674
 9967SOL    HW230801   5.941   6.463   2.641
 9968SOL     OW30802   4.584   5.823   6.941
 9968SOL    HW130803   4.493   5.790   6.966
 9968SOL    HW230804   4.611   5.896   7.004
 9969SOL     OW30805   0.822   4.329   4.909
 9969SOL    HW130806   0.821   4.230   4.923
 9969SOL    HW230807   0.807   4.349   4.812
 9970SOL     OW30808   5.311   5.509   1.551
 9970SOL    HW130809   5.358   5.572   1.488
 9970SOL    HW230810   5.369   5.428   1.564
 9971SOL     OW30811   1.241   2.990   1.716
 9971SOL    HW130812   1.141   2.994   1.725
 9971SOL    HW230813   1.283   3.031   1.797
 9972SOL     OW30814   3.345   3.793   0.788
 9972SOL    HW130815   3.272   3.819   0.724
 9972SOL    HW230816   3.429   3.843   0.764
 9973SOL     OW30817   4.036   2.141   4.261
 9973SOL    HW130818   4.058   2.050   4.225
 9973SOL    HW230819   4.109   2.205   4.238
 9974SOL     OW30820   6.781   2.355   3.514
 9974SOL    HW130821   6.714   2.391   3.450
 9974SOL    HW230822   6.872   2.387   3.488
 9975SOL     OW30823   0.937   5.297   6.942
 9975SOL    HW130824   0.852   5.258   6.906
 9975SOL    HW230825   0.965   5.375   6.885
 9976SOL     OW30826   1.667   5.483   5.882
 9976SOL    HW130827   1.731   5.560   5.885
 9976SOL    HW230828   1.694   5.421   5.808
 9977SOL     OW30829   5.456   4.914   5.001
 9977SOL    HW130830   5.391   4.861   4.946
 9977SOL    HW230831   5.408   4.990   5.044
 9978SOL     OW30832   0.247   2.037   5.883
 9978SOL    HW130833   0.154   2.069   5.905
 9978SOL    HW230834   0.313   2.106   5.912
 9979SOL     OW30835   5.215   3.429   6.164
 9979SOL    HW130836   5.168   3.362   6.221
 9979SOL    HW230837   5.150   3.499   6.134
 9980SOL     OW30838   1.601   0.934   0.115
 9980SOL    HW130839   1.656   1.015   0.092
 9980SOL    HW230840   1.513   0.939   0.069
 9981SOL     OW30841   1.371   2.418   1.132
 9981SOL    HW130842   1.456   2.369   1.111
 9981SOL    HW230843   1.393   2.506   1.174
 9982SOL     OW30844   2.024   1.109   4.824
 9982SOL    HW130845   2.092   1.063   4.882
 9982SOL    HW230846   2.022   1.206   4.846
 9983SOL     OW30847   5.962   2.589   2.779
 9983SOL    HW130848   5.950   2.512   2.716
 9983SOL    HW230849   5.888   2.655   2.766
 9984SOL     OW30850   0.047   6.193   1.342
 9984SOL    HW130851   0.045   6.128   1.266
 9984SOL    HW230852   6.990   6.170   1.407
 9985SOL     OW30853   3.486   5.050   0.825
 9985SOL    HW130854   3.393   5.070   0.793
 9985SOL    HW230855   3.552   5.098   0.768
 9986SOL     OW30856   5.183   4.308   0.718
 9986SOL    HW130857   5.253   4.304   0.790
 9986SOL    HW230858   5.134   4.395   0.725
 9987SOL     OW30859   5.216   3.182   1.708
 9987SOL    HW130860   5.120   3.207   1.711
 9987SOL    HW230861   5.231   3.098   1.761
 9988SOL     OW30862   6.817   5.098   4.174
 9988SOL    HW130863   6.793   5.155   4.253
 9988SOL    HW230864   6.867   5.153   4.107
 9989SOL     OW30865   5.922   3.368   1.982
 9989SOL    HW130866   5.910   3.450   1.925
 9989SOL    HW230867   6.019   3.343   1.984
 9990SOL     OW30868   0.372   6.698   3.299
 9990SOL    HW130869   0.362   6.749   3.213
 9990SOL    HW230870   0.358   6.759   3.376
 9991SOL     OW30871   1.480   3.833   3.696
 9991SOL    HW130872   1.482   3.894   3.776
 9991SOL    HW230873   1.505   3.884   3.614
 9992SOL     OW30874   3.297   3.947   1.093
 9992SOL    HW130875   3.275   4.029   1.041
 9992SOL    HW230876   3.330   3.876   1.031
 9993SOL     OW30877   3.324   6.259   3.803
 9993SOL    HW130878   3.341   6.192   3.731
 9993SOL    HW230879   3.225   6.273   3.813
 9994SOL     OW30880   0.066   4.001   3.240
 9994SOL    HW130881   0.106   3.910   3.253
 9994SOL    HW230882   0.062   4.022   3.142
 9995SOL     OW30883   3.293   1.104   3.809
 9995SOL    HW130884   3.218   1.079   3.870
 9995SOL    HW230885   3.380   1.093   3.858
 9996SOL     OW30886   2.843   4.120   0.403
 9996SOL    HW130887   2.764   4.165   0.361
 9996SOL    HW230888   2.848   4.025   0.373
 9997SOL     OW30889   5.207   1.790   3.657
 9997SOL    HW130890   5.176   1.811   3.564
 9997SOL    HW230891   5.137   1.817   3.723
 9998SOL     OW30892   4.982   3.646   2.416
 9998SOL    HW130893   5.054   3.621   2.351
 9998SOL    HW230894   4.919   3.710   2.373
 9999SOL     OW30895   0.781   0.186   4.253
 9999SOL    HW130896   0.872   0.145   4.251
 9999SOL    HW230897   0.714   0.117   4.278
10000SOL     OW30898   5.519   1.557   1.495
10000SOL    HW130899   5.489   1.647   1.528
10000SOL    HW230900   5.608   1.566   1.450
10001SOL     OW30901   3.544   6.508   2.339
10001SOL    HW130902   3.636   6.547   2.347
10001SOL    HW230903   3.551   6.410   2.321
10002SOL     OW30904   2.082   1.308   0.799
10002SOL    HW130905   2.130   1.395   0.809
10002SOL    HW230906   2.149   1.234   0.790
10003SOL     OW30907   2.725   1.788   2.293
10003SOL    HW130908   2.790   1.856   2.261
10003SOL    HW230909   2.761   1.696   2.277
10004SOL     OW30910   5.503   4.677   4.734
10004SOL    HW130911   5.421   4.669   4.790
10004SOL    HW230912   5.578   4.626   4.777
10005SOL     OW30913   3.146   5.302   3.064
10005SOL    HW130914   3.108   5.371   3.126
10005SOL    HW230915   3.132   5.211   3.104
10006SOL     OW30916   5.546   0.461   5.134
10006SOL    HW130917   5.599   0.481   5.052
10006SOL    HW230918   5.487   0.383   5.117
10007SOL     OW30919   0.574   3.478   4.365
10007SOL    HW130920   0.543   3.383   4.372
10007SOL    HW230921   0.670   3.484   4.394
10008SOL     OW30922   4.309   1.898   3.926
10008SOL    HW130923   4.353   1.980   3.962
10008SOL    HW230924   4.327   1.891   3.828
10009SOL     OW30925   1.668   3.904   1.356
10009SOL    HW130926   1.603   3.957   1.411
10009SOL    HW230927   1.712   3.835   1.414
10010SOL     OW30928   2.951   5.563   6.877
10010SOL    HW130929   2.909   5.473   6.879
10010SOL    HW230930   2.886   5.629   6.839
10011SOL     OW30931   0.454   4.564   6.701
10011SOL    HW130932   0.553   4.580   6.704
10011SOL    HW230933   0.417   4.597   6.614
10012SOL     OW30934   4.741   0.332   2.160
10012SOL    HW130935   4.714   0.239   2.185
10012SOL    HW230936   4.663   0.394   2.170
10013SOL     OW30937   1.137   4.735   4.279
10013SOL    HW130938   1.066   4.717   4.211
10013SOL    HW230939   1.219   4.770   4.234
10014SOL     OW30940   1.661   0.081   2.543
10014SOL    HW130941   1.720   0.159   2.563
10014SOL    HW230942   1.693   0.001   2.592
10015SOL     OW30943   3.745   5.016   0.062
10015SOL    HW130944   3.763   5.056   6.987
10015SOL    HW230945   3.831   4.989   0.104
10016SOL     OW30946   2.309   1.502   5.171
10016SOL    HW130947   2.398   1.546   5.157
10016SOL    HW230948   2.238   1.573   5.178
10017SOL     OW30949   2.280   1.602   2.944
10017SOL    HW130950   2.192   1.596   2.899
10017SOL    HW230951   2.350   1.559   2.888
10018SOL     OW30952   6.875   3.979   5.661
10018SOL    HW130953   6.891   4.055   5.598
10018SOL    HW230954   6.949   3.912   5.653
10019SOL     OW30955   0.392   1.217   3.223
10019SOL    HW130956   0.421   1.197   3.317
10019SOL    HW230957   0.296   1.194   3.213
10020SOL     OW30958   0.241   1.213   2.148
10020SOL    HW130959   0.181   1.134   2.159
10020SOL    HW230960   0.258   1.229   2.051
10021SOL     OW30961   1.093   3.122   1.983
10021SOL    HW130962   1.089   3.205   2.039
10021SOL    HW230963   1.012   3.117   1.925
10022SOL     OW30964   2.209   5.825   0.117
10022SOL    HW130965   2.228   5.923   0.110
10022SOL    HW230966   2.222   5.782   0.028
10023SOL     OW30967   2.847   6.102   5.669
10023SOL    HW130968   2.923   6.160   5.638
10023SOL    HW230969   2.882   6.011   5.693
10024SOL     OW30970   0.704   5.163   2.904
10024SOL    HW130971   0.625   5.222   2.923
10024SOL    HW230972   0.777   5.218   2.863
10025SOL     OW30973   1.687   2.842   2.309
10025SOL    HW130974   1.668   2.940   2.314
10025SOL    HW230975   1.759   2.826   2.241
10026SOL     OW30976   5.049   0.634   3.523
10026SOL    HW130977   5.127   0.688   3.553
10026SOL    HW230978   4.999   0.600   3.602
10027SOL     OW30979   0.734   2.878   5.068
10027SOL    HW130980   0.652   2.827   5.094
10027SOL    HW230981   0.810   2.852   5.128
10028SOL     OW30982   2.866   1.333   0.697
10028SOL    HW130983   2.832   1.269   0.767
10028SOL    HW230984   2.946   1.293   0.653
10029SOL     OW30985   0.962   3.440   3.602
10029SOL    HW130986   0.893   3.368   3.602
10029SOL    HW230987   0.921   3.526   3.632
10030SOL     OW30988   3.185   6.846   4.928
10030SOL    HW130989   3.246   6.925   4.932
10030SOL    HW230990   3.167   6.822   4.833
10031SOL     OW30991   4.606   5.075   4.848
10031SOL    HW130992   4.667   5.026   4.786
10031SOL    HW230993   4.528   5.017   4.871
10032SOL     OW30994   3.782   0.322   6.101
10032SOL    HW130995   3.802   0.286   6.193
10032SOL    HW230996   3.687   0.300   6.077
10033SOL     OW30997   4.104   1.727   4.640
10033SOL    HW130998   4.111   1.700   4.736
10033SOL    HW230999   4.067   1.819   4.634
10034SOL     OW31000   2.502   1.231   3.712
10034SOL    HW131001   2.443   1.253   3.790
10034SOL    HW231002   2.482   1.293   3.636
10035SOL     OW31003   5.679   4.065   0.968
10035SOL    HW131004   5.749   4.129   0.936
10035SOL    HW231005   5.661   3.998   0.896
10036SOL     OW31006   6.659   0.871   0.822
10036SOL    HW131007   6.648   0.849   0.920
10036SOL    HW231008   6.652   0.969   0.809
10037SOL     OW31009   6.302   6.709   6.388
10037SOL    HW131010   6.395   6.709   6.352
10037SOL    HW231011   6.298   6.653   6.471
10038SOL     OW31012   4.409   6.984   6.166
10038SOL    HW131013   4.431   6.909   6.104
10038SOL    HW231014   4.310   6.984   6.184
10039SOL     OW31015   5.635   6.627   5.179
10039SOL    HW131016   5.582   6.560   5.127
10039SOL    HW231017   5.687   6.581   5.251
10040SOL     OW31018   4.525   6.161   6.095
10040SOL    HW131019   4.557   6.146   6.188
10040SOL    HW231020   4.449   6.225   6.096
10041SOL     OW31021   5.656   5.148   6.170
10041SOL    HW131022   5.660   5.056   6.209
10041SOL    HW231023   5.562   5.182   6.176
10042SOL     OW31024   0.404   0.906   5.440
10042SOL    HW131025   0.375   0.822   5.486
10042SOL    HW231026   0.475   0.951   5.494
10043SOL     OW31027   0.651   0.702   3.779
10043SOL    HW131028   0.608   0.792   3.791
10043SOL    HW231029   0.640   0.673   3.685
10044SOL     OW31030   2.488   1.911   3.780
10044SOL    HW131031   2.513   1.962   3.863
10044SOL    HW231032   2.561   1.920   3.712
10045SOL     OW31033   5.116   0.199   3.925
10045SOL    HW131034   5.125   0.103   3.950
10045SOL    HW231035   5.207   0.238   3.909
10046SOL     OW31036   1.396   2.064   1.774
10046SOL    HW131037   1.364   1.980   1.818
10046SOL    HW231038   1.494   2.075   1.790
10047SOL     OW31039   6.049   3.375   4.879
10047SOL    HW131040   5.955   3.408   4.876
10047SOL    HW231041   6.112   3.451   4.866
10048SOL     OW31042   3.354   2.084   2.478
10048SOL    HW131043   3.256   2.096   2.462
10048SOL    HW231044   3.405   2.123   2.401
10049SOL     OW31045   0.489   1.060   6.794
10049SOL    HW131046   0.576   1.014   6.815
10049SOL    HW231047   0.455   1.027   6.705
10050SOL     OW31048   6.322   2.442   5.002
10050SOL    HW131049   6.271   2.376   4.947
10050SOL    HW231050   6.361   2.396   5.082
10051SOL     OW31051   6.286   2.661   4.816
10051SOL    HW131052   6.322   2.582   4.866
10051SOL    HW231053   6.323   2.745   4.857
10052SOL     OW31054   1.613   2.130   2.458
10052SOL    HW131055   1.703   2.117   2.500
10052SOL    HW231056   1.590   2.050   2.402
10053SOL     OW31057   3.223   5.242   1.754
10053SOL    HW131058   3.262   5.236   1.846
10053SOL    HW231059   3.277   5.187   1.691
10054SOL     OW31060   3.960   6.346   5.918
10054SOL    HW131061   3.900   6.286   5.970
10054SOL    HW231062   3.916   6.370   5.831
10055SOL     OW31063   5.584   2.519   5.529
10055SOL    HW131064   5.601   2.572   5.612
10055SOL    HW231065   5.487   2.522   5.507
10056SOL     OW31066   6.644   5.195   0.361
10056SOL    HW131067   6.703   5.267   0.398
10056SOL    HW231068   6.577   5.236   0.299
10057SOL     OW31069   3.982   1.119   4.198
10057SOL    HW131070   3.954   1.214   4.185
10057SOL    HW231071   3.982   1.072   4.110
10058SOL     OW31072   0.701   3.694   4.201
10058SOL    HW131073   0.801   3.704   4.203
10058SOL    HW231074   0.671   3.642   4.281
10059SOL     OW31075   5.612   6.336   0.419
10059SOL    HW131076   5.651   6.303   0.505
10059SOL    HW231077   5.566   6.424   0.435
10060SOL     OW31078   2.396   1.349   2.045
10060SOL    HW131079   2.437   1.364   1.956
10060SOL    HW231080   2.336   1.426   2.067
10061SOL     OW31081   5.190   1.260   4.600
10061SOL    HW131082   5.092   1.252   4.577
10061SOL    HW231083   5.243   1.268   4.515
10062SOL     OW31084   6.066   6.740   4.965
10062SOL    HW131085   6.147   6.690   4.995
10062SOL    HW231086   5.984   6.684   4.980
10063SOL     OW31087   1.729   2.038   3.271
10063SOL    HW131088   1.743   1.963   3.337
10063SOL    HW231089   1.667   2.008   3.199
10064SOL     OW31090   6.066   5.770   6.170
10064SOL    HW131091   6.098   5.865   6.167
10064SOL    HW231092   6.096   5.723   6.087
10065SOL     OW31093   2.087   0.835   1.808
10065SOL    HW131094   2.154   0.781   1.858
10065SOL    HW231095   2.132   0.914   1.766
10066SOL     OW31096   1.546   1.221   4.347
10066SOL    HW131097   1.589   1.219   4.438
10066SOL    HW231098   1.602   1.274   4.284
10067SOL     OW31099   5.593   3.739   5.564
10067SOL    HW131100   5.603   3.762   5.661
10067SOL    HW231101   5.673   3.770   5.514
10068SOL     OW31102   5.815   3.424   4.409
10068SOL    HW131103   5.885   3.368   4.455
10068SOL    HW231104   5.747   3.364   4.367
10069SOL     OW31105   1.875   5.343   3.562
10069SOL    HW131106   1.786   5.383   3.584
10069SOL    HW231107   1.944   5.415   3.560
10070SOL     OW31108   0.208   0.085   5.110
10070SOL    HW131109   0.268   0.133   5.174
10070SOL    HW231110   0.209   0.131   5.022
10071SOL     OW31111   5.036   5.747   3.694
10071SOL    HW131112   4.958   5.745   3.632
10071SOL    HW231113   5.118   5.774   3.643
10072SOL     OW31114   0.702   6.073   4.058
10072SOL    HW131115   0.792   6.037   4.083
10072SOL    HW231116   0.694   6.077   3.959
10073SOL     OW31117   6.420   4.043   4.524
10073SOL    HW131118   6.474   3.996   4.594
10073SOL    HW231119   6.347   4.096   4.568
10074SOL     OW31120   0.830   0.453   5.324
10074SOL    HW131121   0.802   0.412   5.410
10074SOL    HW231122   0.768   0.528   5.301
10075SOL     OW31123   1.400   2.547   2.553
10075SOL    HW131124   1.398   2.447   2.555
10075SOL    HW231125   1.466   2.580   2.621
10076SOL     OW31126   5.668   0.337   3.830
10076SOL    HW131127   5.608   0.412   3.860
10076SOL    HW231128   5.654   0.322   3.732
10077SOL     OW31129   3.079   2.236   6.568
10077SOL    HW131130   3.110   2.318   6.520
10077SOL    HW231131   3.153   2.200   6.624
10078SOL     OW31132   7.001   6.225   4.001
10078SOL    HW131133   0.078   6.194   4.023
10078SOL    HW231134   6.967   6.285   4.073
10079SOL     OW31135   1.042   3.450   1.869
10079SOL    HW131136   0.997   3.387   1.932
10079SOL    HW231137   1.042   3.411   1.777
10080SOL     OW31138   3.122   1.244   5.679
10080SOL    HW131139   3.090   1.338   5.684
10080SOL    HW231140   3.051   1.183   5.714
10081SOL     OW31141   0.471   0.508   0.039
10081SOL    HW131142   0.374   0.525   0.025
10081SOL    HW231143   0.525   0.581   7.013
10082SOL     OW31144   0.242   4.461   2.245
10082SOL    HW131145   0.334   4.424   2.258
10082SOL    HW231146   0.204   4.426   2.160
10083SOL     OW31147   5.105   0.673   2.481
10083SOL    HW131148   5.038   0.746   2.466
10083SOL    HW231149   5.083   0.595   2.422
10084SOL     OW31150   3.150   0.707   6.115
10084SOL    HW131151   3.109   0.796   6.096
10084SOL    HW231152   3.125   0.642   6.043
10085SOL     OW31153   0.442   6.202   2.249
10085SOL    HW131154   0.370   6.183   2.181
10085SOL    HW231155   0.524   6.232   2.202
10086SOL     OW31156   5.795   5.271   1.679
10086SOL    HW131157   5.884   5.312   1.659
10086SOL    HW231158   5.793   5.241   1.774
10087SOL     OW31159   0.245   0.073   4.149
10087SOL    HW131160   0.206   0.104   4.235
10087SOL    HW231161   0.324   0.014   4.167
10088SOL     OW31162   6.810   0.093   0.172
10088SOL    HW131163   6.721   0.132   0.150
10088SOL    HW231164   6.803   7.009   0.178
10089SOL     OW31165   2.536   2.555   2.974
10089SOL    HW131166   2.559   2.574   3.070
10089SOL    HW231167   2.453   2.499   2.971
10090SOL     OW31168   1.324   4.754   0.884
10090SOL    HW131169   1.257   4.693   0.841
10090SOL    HW231170   1.278   4.814   0.949
10091SOL     OW31171   1.342   3.379   5.553
10091SOL    HW131172   1.336   3.385   5.652
10091SOL    HW231173   1.311   3.465   5.512
10092SOL     OW31174   2.060   3.481   5.058
10092SOL    HW131175   2.121   3.559   5.071
10092SOL    HW231176   2.076   3.415   5.132
10093SOL     OW31177   0.777   4.441   5.151
10093SOL    HW131178   0.803   4.400   5.063
10093SOL    HW231179   0.713   4.516   5.136
10094SOL     OW31180   2.017   6.212   2.023
10094SOL    HW131181   2.103   6.264   2.017
10094SOL    HW231182   1.942   6.268   1.987
10095SOL     OW31183   6.334   2.174   5.790
10095SOL    HW131184   6.310   2.264   5.828
10095SOL    HW231185   6.425   2.148   5.822
10096SOL     OW31186   5.612   5.141   2.129
10096SOL    HW131187   5.535   5.203   2.140
10096SOL    HW231188   5.577   5.048   2.115
10097SOL     OW31189   0.963   0.987   0.053
10097SOL    HW131190   1.043   0.929   0.065
10097SOL    HW231191   0.931   1.019   0.142
10098SOL     OW31192   2.319   0.704   5.339
10098SOL    HW131193   2.293   0.607   5.345
10098SOL    HW231194   2.396   0.713   5.275
10099SOL     OW31195   0.071   4.890   0.295
10099SOL    HW131196   6.995   4.904   0.334
10099SOL    HW231197   0.073   4.805   0.243
10100SOL     OW31198   5.234   0.074   4.503
10100SOL    HW131199   5.143   0.036   4.515
10100SOL    HW231200   5.251   0.143   4.574
10101SOL     OW31201   5.607   4.278   1.767
10101SOL    HW131202   5.610   4.356   1.829
10101SOL    HW231203   5.666   4.205   1.802
10102SOL     OW31204   1.554   1.202   2.854
10102SOL    HW131205   1.631   1.233   2.800
10102SOL    HW231206   1.502   1.280   2.887
10103SOL     OW31207   2.214   1.511   5.789
10103SOL    HW131208   2.126   1.554   5.771
10103SOL    HW231209   2.265   1.502   5.703
10104SOL     OW31210   1.523   2.654   4.297
10104SOL    HW131211   1.597   2.591   4.276
10104SOL    HW231212   1.516   2.666   4.396
10105SOL     OW31213   1.182   0.868   0.158
10105SOL    HW131214   1.122   0.797   0.195
10105SOL    HW231215   1.252   0.827   0.100
10106SOL     OW31216   4.326   5.979   1.090
10106SOL    HW131217   4.391   5.963   1.016
10106SOL    HW231218   4.375   5.992   1.176
10107SOL     OW31219   0.414   2.304   6.580
10107SOL    HW131220   0.426   2.237   6.653
10107SOL    HW231221   0.503   2.338   6.550
10108SOL     OW31222   6.405   6.230   6.844
10108SOL    HW131223   6.427   6.284   6.763
10108SOL    HW231224   6.403   6.133   6.820
10109SOL     OW31225   3.695   6.489   1.040
10109SOL    HW131226   3.711   6.416   1.106
10109SOL    HW231227   3.782   6.516   0.998
10110SOL     OW31228   4.640   6.457   4.987
10110SOL    HW131229   4.686   6.542   5.013
10110SOL    HW231230   4.637   6.395   5.065
10111SOL     OW31231   5.619   3.187   3.989
10111SOL    HW131232   5.633   3.255   3.917
10111SOL    HW231233   5.637   3.096   3.952
10112SOL     OW31234   5.338   4.232   4.553
10112SOL    HW131235   5.377   4.279   4.474
10112SOL    HW231236   5.306   4.141   4.526
10113SOL     OW31237   4.223   0.400   5.332
10113SOL    HW131238   4.236   0.428   5.427
10113SOL    HW231239   4.294   0.441   5.275
10114SOL     OW31240   5.266   0.304   1.103
10114SOL    HW131241   5.298   0.282   1.194
10114SOL    HW231242   5.319   0.253   1.035
10115SOL     OW31243   3.058   1.752   3.570
10115SOL    HW131244   3.036   1.850   3.569
10115SOL    HW231245   2.999   1.706   3.637
10116SOL     OW31246   0.224   6.559   0.263
10116SOL    HW131247   0.227   6.459   0.252
10116SOL    HW231248   0.313   6.598   0.237
10117SOL     OW31249   6.858   6.413   4.920
10117SOL    HW131250   6.805   6.330   4.940
10117SOL    HW231251   6.879   6.416   4.823
10118SOL     OW31252   1.177   5.279   3.243
10118SOL    HW131253   1.223   5.259   3.156
10118SOL    HW231254   1.188   5.376   3.264
10119SOL     OW31255   0.668   6.691   4.325
10119SOL    HW131256   0.674   6.600   4.285
10119SOL    HW231257   0.587   6.738   4.290
10120SOL     OW31258   1.196   3.874   4.296
10120SOL    HW131259   1.259   3.909   4.226
10120SOL    HW231260   1.247   3.851   4.379
10121SOL     OW31261   6.432   4.426   6.396
10121SOL    HW131262   6.497   4.501   6.384
10121SOL    HW231263   6.434   4.395   6.491
10122SOL     OW31264   5.755   3.235   0.693
10122SOL    HW131265   5.793   3.181   0.618
10122SOL    HW231266   5.803   3.322   0.699
10123SOL     OW31267   6.605   6.791   0.214
10123SOL    HW131268   6.565   6.844   0.139
10123SOL    HW231269   6.674   6.729   0.178
10124SOL     OW31270   1.909   3.336   6.896
10124SOL    HW131271   1.980   3.267   6.909
10124SOL    HW231272   1.910   3.368   6.801
10125SOL     OW31273   1.556   0.455   2.617
10125SOL    HW131274   1.534   0.479   2.523
10125SOL    HW231275   1.655   0.450   2.627
10126SOL     OW31276   0.068   6.802   6.492
10126SOL    HW131277   0.084   6.876   6.427
10126SOL    HW231278   0.056   6.840   6.584
10127SOL     OW31279   2.070   4.633   5.918
10127SOL    HW131280   2.002   4.693   5.961
10127SOL    HW231281   2.155   4.684   5.903
10128SOL     OW31282   1.522   1.299   1.295
10128SOL    HW131283   1.480   1.266   1.211
10128SOL    HW231284   1.547   1.222   1.353
10129SOL     OW31285   5.172   3.034   3.954
10129SOL    HW131286   5.214   3.125   3.959
10129SOL    HW231287   5.210   2.984   3.877
10130SOL     OW31288   1.997   4.311   2.049
10130SOL    HW131289   1.909   4.334   2.007
10130SOL    HW231290   2.021   4.381   2.116
10131SOL     OW31291   0.704   0.449   3.320
10131SOL    HW131292   0.662   0.533   3.354
10131SOL    HW231293   0.663   0.425   3.231
10132SOL     OW31294   3.008   0.063   4.463
10132SOL    HW131295   3.017   0.004   4.383
10132SOL    HW231296   3.077   0.136   4.458
10133SOL     OW31297   4.804   6.072   1.356
10133SOL    HW131298   4.764   6.071   1.264
10133SOL    HW231299   4.731   6.073   1.424
10134SOL     OW31300   6.662   6.459   3.731
10134SOL    HW131301   6.709   6.539   3.767
10134SOL    HW231302   6.707   6.376   3.765
10135SOL     OW31303   4.855   3.366   3.394
10135SOL    HW131304   4.864   3.447   3.336
10135SOL    HW231305   4.874   3.390   3.489
10136SOL     OW31306   5.505   0.745   3.115
10136SOL    HW131307   5.571   0.669   3.108
10136SOL    HW231308   5.549   0.830   3.086
10137SOL     OW31309   5.939   4.294   3.960
10137SOL    HW131310   6.034   4.261   3.969
10137SOL    HW231311   5.898   4.302   4.051
10138SOL     OW31312   5.241   2.055   0.747
10138SOL    HW131313   5.279   2.097   0.829
10138SOL    HW231314   5.185   1.976   0.773
10139SOL     OW31315   3.779   3.930   3.185
10139SOL    HW131316   3.765   4.005   3.121
10139SOL    HW231317   3.761   3.961   3.278
10140SOL     OW31318   6.399   6.318   6.046
10140SOL    HW131319   6.493   6.287   6.035
10140SOL    HW231320   6.380   6.394   5.984
10141SOL     OW31321   3.285   1.766   4.467
10141SOL    HW131322   3.209   1.829   4.452
10141SOL    HW231323   3.269   1.682   4.414
10142SOL     OW31324   6.208   6.493   4.734
10142SOL    HW131325   6.193   6.472   4.830
10142SOL    HW231326   6.227   6.591   4.724
10143SOL     OW31327   4.192   0.947   0.078
10143SOL    HW131328   4.248   0.867   0.100
10143SOL    HW231329   4.235   1.029   0.116
10144SOL     OW31330   3.453   6.588   6.204
10144SOL    HW131331   3.523   6.654   6.230
10144SOL    HW231332   3.490   6.527   6.133
10145SOL     OW31333   3.019   5.326   5.428
10145SOL    HW131334   3.036   5.301   5.523
10145SOL    HW231335   3.107   5.332   5.380
10146SOL     OW31336   4.178   5.140   4.251
10146SOL    HW131337   4.085   5.114   4.223
10146SOL    HW231338   4.242   5.069   4.222
10147SOL     OW31339   5.830   4.167   5.004
10147SOL    HW131340   5.899   4.118   4.951
10147SOL    HW231341   5.739   4.142   4.971
10148SOL     OW31342   5.034   5.396   6.979
10148SOL    HW131343   5.056   5.327   0.033
10148SOL    HW231344   4.954   5.448   7.010
10149SOL     OW31345   5.529   2.525   1.002
10149SOL    HW131346   5.589   2.488   1.073
10149SOL    HW231347   5.560   2.617   0.978
10150SOL     OW31348   3.959   3.367   0.546
10150SOL    HW131349   4.015   3.284   0.542
10150SOL    HW231350   3.933   3.384   0.641
10151SOL     OW31351   0.932   6.767   0.279
10151SOL    HW131352   0.991   6.700   0.234
10151SOL    HW231353   0.970   6.791   0.368
10152SOL     OW31354   0.680   6.402   4.656
10152SOL    HW131355   0.624   6.361   4.728
10152SOL    HW231356   0.769   6.428   4.693
10153SOL     OW31357   4.781   6.258   3.819
10153SOL    HW131358   4.799   6.249   3.917
10153SOL    HW231359   4.694   6.213   3.797
10154SOL     OW31360   5.539   6.972   4.933
10154SOL    HW131361   5.588   6.941   5.014
10154SOL    HW231362   5.597   6.959   4.852
10155SOL     OW31363   3.475   2.287   5.641
10155SOL    HW131364   3.531   2.288   5.723
10155SOL    HW231365   3.513   2.221   5.576
10156SOL     OW31366   6.398   1.529   2.691
10156SOL    HW131367   6.404   1.609   2.750
10156SOL    HW231368   6.303   1.495   2.690
10157SOL     OW31369   6.053   2.121   6.669
10157SOL    HW131370   6.017   2.148   6.758
10157SOL    HW231371   5.981   2.127   6.600
10158SOL     OW31372   6.059   3.747   1.018
10158SOL    HW131373   6.146   3.753   0.968
10158SOL    HW231374   5.990   3.705   0.959
10159SOL     OW31375   2.597   2.787   6.237
10159SOL    HW131376   2.643   2.723   6.298
10159SOL    HW231377   2.647   2.792   6.150
10160SOL     OW31378   2.123   3.000   2.259
10160SOL    HW131379   2.036   3.042   2.231
10160SOL    HW231380   2.167   2.960   2.179
10161SOL     OW31381   3.096   2.951   6.373
10161SOL    HW131382   3.143   2.945   6.285
10161SOL    HW231383   3.105   2.865   6.422
10162SOL     OW31384   3.637   4.365   0.662
10162SOL    HW131385   3.657   4.316   0.747
10162SOL    HW231386   3.720   4.369   0.606
10163SOL     OW31387   5.961   4.989   6.224
10163SOL    HW131388   6.029   4.980   6.151
10163SOL    HW231389   5.900   4.910   6.223
10164SOL     OW31390   5.818   3.458   4.806
10164SOL    HW131391   5.778   3.465   4.714
10164SOL    HW231392   5.830   3.549   4.844
10165SOL     OW31393   0.414   1.966   3.091
10165SOL    HW131394   0.400   2.065   3.095
10165SOL    HW231395   0.354   1.926   3.022
10166SOL     OW31396   3.234   1.739   1.712
10166SOL    HW131397   3.215   1.814   1.648
10166SOL    HW231398   3.326   1.751   1.750
10167SOL     OW31399   2.607   3.131   0.257
10167SOL    HW131400   2.671   3.073   0.308
10167SOL    HW231401   2.518   3.085   0.252
10168SOL     OW31402   5.938   3.808   5.839
10168SOL    HW131403   6.033   3.814   5.807
10168SOL    HW231404   5.910   3.712   5.842
10169SOL     OW31405   6.667   4.471   3.661
10169SOL    HW131406   6.705   4.523   3.737
10169SOL    HW231407   6.719   4.387   3.648
10170SOL     OW31408   1.459   5.469   6.048
10170SOL    HW131409   1.513   5.466   5.964
10170SOL    HW231410   1.514   5.435   6.124
10171SOL     OW31411   6.494   2.919   5.664
10171SOL    HW131412   6.396   2.911   5.682
10171SOL    HW231413   6.538   2.969   5.739
10172SOL     OW31414   6.617   6.538   4.547
10172SOL    HW131415   6.687   6.609   4.554
10172SOL    HW231416   6.528   6.577   4.569
10173SOL     OW31417   0.627   2.520   1.337
10173SOL    HW131418   0.621   2.519   1.238
10173SOL    HW231419   0.535   2.527   1.376
10174SOL     OW31420   5.381   5.284   2.182
10174SOL    HW131421   5.314   5.214   2.208
10174SOL    HW231422   5.334   5.367   2.155
10175SOL     OW31423   5.310   2.241   4.036
10175SOL    HW131424   5.240   2.171   4.050
10175SOL    HW231425   5.401   2.199   4.040
10176SOL     OW31426   1.102   3.514   5.800
10176SOL    HW131427   1.200   3.502   5.784
10176SOL    HW231428   1.053   3.510   5.713
10177SOL     OW31429   2.436   0.684   0.450
10177SOL    HW131430   2.408   0.705   0.543
10177SOL    HW231431   2.533   0.706   0.439
10178SOL     OW31432   6.898   0.743   5.758
10178SOL    HW131433   6.958   0.747   5.678
10178SOL    HW231434   6.823   0.679   5.740
10179SOL     OW31435   1.007   1.624   6.443
10179SOL    HW131436   1.098   1.585   6.430
10179SOL    HW231437   0.950   1.602   6.364
10180SOL     OW31438   3.871   0.238   6.379
10180SOL    HW131439   3.808   0.210   6.451
10180SOL    HW231440   3.964   0.244   6.416
10181SOL     OW31441   5.656   2.699   1.727
10181SOL    HW131442   5.619   2.789   1.704
10181SOL    HW231443   5.681   2.697   1.823
10182SOL     OW31444   4.017   0.946   1.061
10182SOL    HW131445   4.002   1.045   1.050
10182SOL    HW231446   3.932   0.903   1.094
10183SOL     OW31447   0.124   2.410   6.758
10183SOL    HW131448   0.078   2.332   6.717
10183SOL    HW231449   0.216   2.383   6.786
10184SOL     OW31450   3.907   0.825   6.436
10184SOL    HW131451   3.817   0.827   6.481
10184SOL    HW231452   3.908   0.752   6.369
10185SOL     OW31453   5.703   6.026   2.137
10185SOL    HW131454   5.750   6.062   2.057
10185SOL    HW231455   5.759   5.954   2.180
10186SOL     OW31456   6.027   4.008   3.793
10186SOL    HW131457   6.113   4.031   3.839
10186SOL    HW231458   6.043   4.000   3.694
10187SOL     OW31459   0.426   3.256   0.512
10187SOL    HW131460   0.420   3.193   0.435
10187SOL    HW231461   0.442   3.205   0.596
10188SOL     OW31462   3.453   5.667   0.684
10188SOL    HW131463   3.477   5.747   0.739
10188SOL    HW231464   3.469   5.687   0.588
10189SOL     OW31465   0.898   0.963   6.364
10189SOL    HW131466   0.980   0.926   6.407
10189SOL    HW231467   0.839   0.888   6.334
10190SOL     OW31468   4.934   3.044   2.019
10190SOL    HW131469   4.846   3.002   1.996
10190SOL    HW231470   4.933   3.140   1.992
10191SOL     OW31471   5.574   5.407   5.156
10191SOL    HW131472   5.648   5.342   5.173
10191SOL    HW231473   5.530   5.384   5.069
10192SOL     OW31474   4.566   0.982   5.565
10192SOL    HW131475   4.533   1.075   5.582
10192SOL    HW231476   4.659   0.986   5.529
10193SOL     OW31477   4.152   3.246   2.001
10193SOL    HW131478   4.158   3.164   1.944
10193SOL    HW231479   4.106   3.224   2.087
10194SOL     OW31480   5.627   5.583   5.368
10194SOL    HW131481   5.599   5.542   5.282
10194SOL    HW231482   5.547   5.620   5.416
10195SOL     OW31483   6.314   5.568   0.732
10195SOL    HW131484   6.270   5.633   0.671
10195SOL    HW231485   6.394   5.611   0.775
10196SOL     OW31486   4.554   1.751   4.071
10196SOL    HW131487   4.544   1.696   3.988
10196SOL    HW231488   4.494   1.831   4.067
10197SOL     OW31489   5.882   1.980   5.685
10197SOL    HW131490   5.938   2.038   5.745
10197SOL    HW231491   5.788   1.978   5.719
10198SOL     OW31492   2.521   0.042   2.368
10198SOL    HW131493   2.507   6.961   2.343
10198SOL    HW231494   2.616   0.055   2.398
10199SOL     OW31495   2.436   2.346   6.907
10199SOL    HW131496   2.400   2.253   6.903
10199SOL    HW231497   2.525   2.345   6.953
10200SOL     OW31498   4.875   1.680   6.968
10200SOL    HW131499   4.818   1.649   0.029
10200SOL    HW231500   4.847   1.633   6.884
10201SOL     OW31501   1.355   4.099   0.901
10201SOL    HW131502   1.355   4.164   0.825
10201SOL    HW231503   1.438   4.111   0.956
10202SOL     OW31504   3.467   3.291   0.438
10202SOL    HW131505   3.541   3.350   0.469
10202SOL    HW231506   3.478   3.273   0.340
10203SOL     OW31507   6.241   3.210   3.468
10203SOL    HW131508   6.244   3.298   3.515
10203SOL    HW231509   6.172   3.212   3.396
10204SOL     OW31510   5.264   6.022   0.211
10204SOL    HW131511   5.166   6.008   0.223
10204SOL    HW231512   5.285   6.033   0.114
10205SOL     OW31513   1.798   0.806   1.461
10205SOL    HW131514   1.778   0.846   1.550
10205SOL    HW231515   1.882   0.845   1.424
10206SOL     OW31516   0.063   0.796   0.496
10206SOL    HW131517   0.117   0.874   0.528
10206SOL    HW231518   0.125   0.727   0.459
10207SOL     OW31519   1.238   1.876   6.794
10207SOL    HW131520   1.263   1.952   6.734
10207SOL    HW231521   1.274   1.791   6.756
10208SOL     OW31522   5.770   4.203   3.757
10208SOL    HW131523   5.841   4.245   3.814
10208SOL    HW231524   5.795   4.108   3.738
10209SOL     OW31525   0.430   0.157   0.052
10209SOL    HW131526   0.446   0.063   0.081
10209SOL    HW231527   0.343   0.189   0.089
10210SOL     OW31528   4.724   6.322   2.192
10210SOL    HW131529   4.628   6.338   2.167
10210SOL    HW231530   4.757   6.240   2.145
10211SOL     OW31531   3.994   6.501   4.689
10211SOL    HW131532   4.087   6.464   4.691
10211SOL    HW231533   3.931   6.428   4.663
10212SOL     OW31534   0.779   0.250   5.540
10212SOL    HW131535   0.822   0.274   5.627
10212SOL    HW231536   0.773   0.151   5.532
10213SOL     OW31537   5.461   3.152   0.953
10213SOL    HW131538   5.515   3.218   1.005
10213SOL    HW231539   5.468   3.062   0.996
10214SOL     OW31540   1.628   1.533   2.325
10214SOL    HW131541   1.656   1.438   2.341
10214SOL    HW231542   1.532   1.544   2.351
10215SOL     OW31543   4.089   3.837   3.484
10215SOL    HW131544   4.179   3.879   3.477
10215SOL    HW231545   4.057   3.809   3.393
10216SOL     OW31546   0.254   1.360   1.373
10216SOL    HW131547   0.165   1.371   1.417
10216SOL    HW231548   0.273   1.263   1.360
10217SOL     OW31549   3.074   2.170   3.241
10217SOL    HW131550   3.172   2.187   3.241
10217SOL    HW231551   3.048   2.120   3.159
10218SOL     OW31552   1.733   1.464   1.404
10218SOL    HW131553   1.654   1.404   1.416
10218SOL    HW231554   1.799   1.421   1.343
10219SOL     OW31555   6.943   2.221   2.593
10219SOL    HW131556   6.854   2.181   2.615
10219SOL    HW231557   6.949   2.240   2.495
10220SOL     OW31558   4.574   2.077   1.087
10220SOL    HW131559   4.672   2.060   1.095
10220SOL    HW231560   4.525   1.990   1.088
10221SOL     OW31561   0.497   5.020   2.748
10221SOL    HW131562   0.585   5.044   2.789
10221SOL    HW231563   0.490   5.061   2.657
10222SOL     OW31564   2.681   3.388   6.173
10222SOL    HW131565   2.621   3.446   6.228
10222SOL    HW231566   2.649   3.293   6.177
10223SOL     OW31567   0.643   4.925   1.327
10223SOL    HW131568   0.731   4.887   1.352
10223SOL    HW231569   0.642   5.024   1.346
10224SOL     OW31570   0.017   3.479   4.245
10224SOL    HW131571   6.966   3.432   4.187
10224SOL    HW231572   6.990   3.562   4.282
10225SOL     OW31573   1.537   4.942   5.769
10225SOL    HW131574   1.625   4.900   5.744
10225SOL    HW231575   1.513   4.915   5.863
10226SOL     OW31576   2.664   0.361   6.776
10226SOL    HW131577   2.637   0.368   6.872
10226SOL    HW231578   2.737   0.293   6.767
10227SOL     OW31579   5.237   4.845   0.620
10227SOL    HW131580   5.169   4.866   0.690
10227SOL    HW231581   5.285   4.760   0.645
10228SOL     OW31582   0.374   6.979   1.878
10228SOL    HW131583   0.443   0.029   1.910
10228SOL    HW231584   0.293   6.985   1.936
10229SOL     OW31585   0.966   3.142   4.613
10229SOL    HW131586   0.878   3.097   4.600
10229SOL    HW231587   0.951   3.240   4.627
10230SOL     OW31588   5.524   5.753   2.877
10230SOL    HW131589   5.488   5.669   2.838
10230SOL    HW231590   5.520   5.748   2.977
10231SOL     OW31591   0.121   5.515   5.083
10231SOL    HW131592   0.057   5.473   5.148
10231SOL    HW231593   0.146   5.448   5.013
10232SOL     OW31594   2.805   1.073   3.829
10232SOL    HW131595   2.820   1.159   3.877
10232SOL    HW231596   2.712   1.071   3.792
10233SOL     OW31597   3.968   3.967   4.623
10233SOL    HW131598   3.948   3.977   4.721
10233SOL    HW231599   3.890   3.997   4.569
10234SOL     OW31600   6.122   1.661   1.245
10234SOL    HW131601   6.041   1.689   1.194
10234SOL    HW231602   6.097   1.647   1.341
10235SOL     OW31603   1.886   2.748   2.154
10235SOL    HW131604   1.809   2.709   2.104
10235SOL    HW231605   1.959   2.774   2.090
10236SOL     OW31606   2.790   6.841   0.220
10236SOL    HW131607   2.795   6.904   0.143
10236SOL    HW231608   2.833   6.882   0.300
10237SOL     OW31609   0.075   3.039   0.180
10237SOL    HW131610   0.127   3.051   0.096
10237SOL    HW231611   7.001   2.999   0.159
10238SOL     OW31612   4.146   4.276   1.562
10238SOL    HW131613   4.073   4.225   1.516
10238SOL    HW231614   4.226   4.217   1.574
10239SOL     OW31615   1.100   2.884   4.524
10239SOL    HW131616   1.115   2.894   4.425
10239SOL    HW231617   1.046   2.960   4.558
10240SOL     OW31618   2.038   5.404   2.325
10240SOL    HW131619   2.035   5.503   2.313
10240SOL    HW231620   2.010   5.360   2.240
10241SOL     OW31621   5.322   0.479   2.304
10241SOL    HW131622   5.328   0.432   2.392
10241SOL    HW231623   5.413   0.506   2.274
10242SOL     OW31624   6.608   1.510   0.869
10242SOL    HW131625   6.668   1.459   0.807
10242SOL    HW231626   6.558   1.580   0.818
10243SOL     OW31627   2.438   4.498   1.751
10243SOL    HW131628   2.510   4.566   1.764
10243SOL    HW231629   2.478   4.407   1.745
10244SOL     OW31630   2.101   4.241   0.493
10244SOL    HW131631   2.132   4.150   0.523
10244SOL    HW231632   2.175   4.307   0.507
10245SOL     OW31633   3.394   3.593   0.952
10245SOL    HW131634   3.368   3.657   0.880
10245SOL    HW231635   3.318   3.531   0.971
10246SOL     OW31636   3.281   4.149   3.976
10246SOL    HW131637   3.214   4.089   4.021
10246SOL    HW231638   3.362   4.158   4.033
10247SOL     OW31639   6.817   4.242   6.156
10247SOL    HW131640   6.731   4.231   6.205
10247SOL    HW231641   6.893   4.216   6.216
10248SOL     OW31642   1.089   6.690   2.593
10248SOL    HW131643   1.018   6.717   2.658
10248SOL    HW231644   1.151   6.767   2.577
10249SOL     OW31645   3.237   5.875   6.714
10249SOL    HW131646   3.309   5.941   6.736
10249SOL    HW231647   3.148   5.921   6.718
10250SOL     OW31648   6.473   3.233   1.166
10250SOL    HW131649   6.470   3.217   1.265
10250SOL    HW231650   6.546   3.298   1.145
10251SOL     OW31651   2.134   1.690   4.537
10251SOL    HW131652   2.151   1.692   4.438
10251SOL    HW231653   2.046   1.647   4.555
10252SOL     OW31654   3.914   3.631   6.302
10252SOL    HW131655   3.983   3.654   6.370
10252SOL    HW231656   3.856   3.558   6.337
10253SOL     OW31657   2.934   6.078   0.655
10253SOL    HW131658   2.956   6.030   0.570
10253SOL    HW231659   2.969   6.171   0.651
10254SOL     OW31660   4.921   1.521   5.257
10254SOL    HW131661   4.918   1.432   5.303
10254SOL    HW231662   4.870   1.588   5.311
10255SOL     OW31663   2.408   6.883   0.916
10255SOL    HW131664   2.499   6.890   0.874
10255SOL    HW231665   2.339   6.913   0.851
10256SOL     OW31666   4.018   1.644   2.362
10256SOL    HW131667   4.114   1.655   2.385
10256SOL    HW231668   4.009   1.620   2.266
10257SOL     OW31669   1.724   5.679   3.846
10257SOL    HW131670   1.732   5.773   3.878
10257SOL    HW231671   1.630   5.661   3.818
10258SOL     OW31672   3.663   2.118   2.904
10258SOL    HW131673   3.652   2.117   2.805
10258SOL    HW231674   3.757   2.095   2.928
10259SOL     OW31675   0.797   4.082   3.370
10259SOL    HW131676   0.850   4.051   3.291
10259SOL    HW231677   0.783   4.006   3.433
10260SOL     OW31678   0.738   1.594   3.097
10260SOL    HW131679   0.673   1.523   3.068
10260SOL    HW231680   0.689   1.679   3.115
10261SOL     OW31681   6.979   5.157   0.789
10261SOL    HW131682   6.886   5.120   0.793
10261SOL    HW231683   6.995   5.218   0.866
10262SOL     OW31684   3.029   6.616   6.421
10262SOL    HW131685   2.953   6.552   6.433
10262SOL    HW231686   3.114   6.565   6.409
10263SOL     OW31687   5.713   7.010   0.551
10263SOL    HW131688   5.760   6.949   0.487
10263SOL    HW231689   5.615   7.008   0.533
10264SOL     OW31690   0.189   6.208   6.667
10264SOL    HW131691   0.131   6.281   6.631
10264SOL    HW231692   0.159   6.182   6.758
10265SOL     OW31693   3.289   2.439   0.368
10265SOL    HW131694   3.332   2.363   0.417
10265SOL    HW231695   3.358   2.507   0.344
10266SOL     OW31696   3.728   2.895   3.495
10266SOL    HW131697   3.744   2.976   3.437
10266SOL    HW231698   3.813   2.846   3.509
10267SOL     OW31699   5.325   1.520   0.666
10267SOL    HW131700   5.310   1.427   0.634
10267SOL    HW231701   5.324   1.521   0.766
10268SOL     OW31702   6.069   6.427   2.408
10268SOL    HW131703   6.115   6.510   2.441
10268SOL    HW231704   6.049   6.437   2.310
10269SOL     OW31705   0.810   3.293   5.769
10269SOL    HW131706   0.889   3.271   5.826
10269SOL    HW231707   0.767   3.208   5.737
10270SOL     OW31708   3.064   5.319   2.334
10270SOL    HW131709   3.098   5.402   2.291
10270SOL    HW231710   3.140   5.256   2.349
10271SOL     OW31711   3.761   2.364   0.383
10271SOL    HW131712   3.679   2.420   0.386
10271SOL    HW231713   3.839   2.418   0.416
10272SOL     OW31714   0.722   0.936   5.247
10272SOL    HW131715   0.753   0.990   5.324
10272SOL    HW231716   0.742   0.984   5.161
10273SOL     OW31717   3.366   6.026   3.128
10273SOL    HW131718   3.383   6.074   3.042
10273SOL    HW231719   3.336   6.091   3.197
10274SOL     OW31720   1.078   5.001   5.933
10274SOL    HW131721   1.091   4.920   5.991
10274SOL    HW231722   1.103   4.978   5.839
10275SOL     OW31723   0.241   0.753   2.304
10275SOL    HW131724   0.299   0.814   2.250
10275SOL    HW231725   0.286   0.731   2.390
10276SOL     OW31726   4.930   6.126   5.352
10276SOL    HW131727   4.880   6.090   5.274
10276SOL    HW231728   4.982   6.053   5.395
10277SOL     OW31729   1.481   6.314   4.807
10277SOL    HW131730   1.392   6.271   4.791
10277SOL    HW231731   1.554   6.252   4.778
10278SOL     OW31732   1.259   1.517   3.437
10278SOL    HW131733   1.336   1.470   3.480
10278SOL    HW231734   1.292   1.577   3.365
10279SOL     OW31735   1.739   5.025   4.466
10279SOL    HW131736   1.670   5.077   4.516
10279SOL    HW231737   1.823   5.022   4.520
10280SOL     OW31738   6.607   2.591   6.314
10280SOL    HW131739   6.596   2.527   6.239
10280SOL    HW231740   6.664   2.668   6.286
10281SOL     OW31741   6.091   1.814   4.205
10281SOL    HW131742   6.062   1.893   4.150
10281SOL    HW231743   6.168   1.769   4.160
10282SOL     OW31744   5.325   3.558   3.863
10282SOL    HW131745   5.352   3.512   3.779
10282SOL    HW231746   5.344   3.500   3.942
10283SOL     OW31747   1.728   3.123   0.929
10283SOL    HW131748   1.729   3.153   1.025
10283SOL    HW231749   1.672   3.186   0.875
10284SOL     OW31750   5.367   1.771   5.255
10284SOL    HW131751   5.337   1.808   5.167
10284SOL    HW231752   5.453   1.815   5.282
10285SOL     OW31753   4.883   6.236   3.187
10285SOL    HW131754   4.892   6.152   3.134
10285SOL    HW231755   4.873   6.314   3.125
10286SOL     OW31756   4.303   0.615   4.028
10286SOL    HW131757   4.326   0.689   4.091
10286SOL    HW231758   4.266   0.655   3.944
10287SOL     OW31759   2.574   5.347   1.655
10287SOL    HW131760   2.633   5.388   1.725
10287SOL    HW231761   2.485   5.324   1.696
10288SOL     OW31762   4.730   6.148   3.413
10288SOL    HW131763   4.661   6.081   3.386
10288SOL    HW231764   4.781   6.178   3.332
10289SOL     OW31765   2.984   6.276   0.436
10289SOL    HW131766   2.996   6.181   0.406
10289SOL    HW231767   3.026   6.338   0.370
10290SOL     OW31768   2.855   3.468   2.890
10290SOL    HW131769   2.762   3.492   2.863
10290SOL    HW231770   2.917   3.484   2.814
10291SOL     OW31771   3.694   1.834   2.873
10291SOL    HW131772   3.594   1.824   2.866
10291SOL    HW231773   3.721   1.923   2.836
10292SOL     OW31774   1.060   2.061   4.885
10292SOL    HW131775   1.122   1.989   4.856
10292SOL    HW231776   1.044   2.125   4.810
10293SOL     OW31777   1.174   3.004   2.549
10293SOL    HW131778   1.172   2.915   2.595
10293SOL    HW231779   1.162   2.990   2.451
10294SOL     OW31780   4.443   1.415   3.433
10294SOL    HW131781   4.406   1.390   3.343
10294SOL    HW231782   4.382   1.380   3.504
10295SOL     OW31783   0.780   3.012   5.728
10295SOL    HW131784   0.687   2.976   5.734
10295SOL    HW231785   0.846   2.940   5.750
10296SOL     OW31786   5.474   1.087   6.237
10296SOL    HW131787   5.531   1.138   6.172
10296SOL    HW231788   5.501   0.991   6.237
10297SOL     OW31789   1.746   0.819   6.243
10297SOL    HW131790   1.809   0.799   6.318
10297SOL    HW231791   1.689   0.898   6.267
10298SOL     OW31792   2.538   4.570   0.785
10298SOL    HW131793   2.613   4.615   0.834
10298SOL    HW231794   2.460   4.633   0.777
10299SOL     OW31795   3.781   4.920   2.828
10299SOL    HW131796   3.687   4.939   2.799
10299SOL    HW231797   3.815   4.839   2.780
10300SOL     OW31798   1.393   3.970   1.808
10300SOL    HW131799   1.299   4.002   1.797
10300SOL    HW231800   1.411   3.950   1.904
10301SOL     OW31801   4.526   2.040   5.201
10301SOL    HW131802   4.452   2.023   5.267
10301SOL    HW231803   4.504   2.121   5.147
10302SOL     OW31804   2.523   6.365   4.575
10302SOL    HW131805   2.450   6.366   4.506
10302SOL    HW231806   2.551   6.459   4.596
10303SOL     OW31807   1.395   5.899   3.667
10303SOL    HW131808   1.354   5.960   3.599
10303SOL    HW231809   1.477   5.942   3.706
10304SOL     OW31810   5.797   0.163   1.616
10304SOL    HW131811   5.877   0.103   1.603
10304SOL    HW231812   5.729   0.116   1.672
10305SOL     OW31813   1.712   3.839   5.700
10305SOL    HW131814   1.685   3.824   5.605
10305SOL    HW231815   1.736   3.935   5.713
10306SOL     OW31816   5.451   5.734   0.105
10306SOL    HW131817   5.357   5.731   0.070
10306SOL    HW231818   5.468   5.823   0.147
10307SOL     OW31819   3.085   1.887   5.336
10307SOL    HW131820   3.121   1.816   5.277
10307SOL    HW231821   2.994   1.860   5.369
10308SOL     OW31822   2.153   3.875   2.730
10308SOL    HW131823   2.148   3.926   2.644
10308SOL    HW231824   2.190   3.934   2.802
10309SOL     OW31825   0.347   1.982   0.314
10309SOL    HW131826   0.375   2.069   0.355
10309SOL    HW231827   0.280   1.938   0.373
10310SOL     OW31828   3.341   3.995   0.432
10310SOL    HW131829   3.307   4.082   0.468
10310SOL    HW231830   3.376   4.008   0.339
10311SOL     OW31831   6.768   5.511   0.503
10311SOL    HW131832   6.860   5.471   0.504
10311SOL    HW231833   6.731   5.511   0.596
10312SOL     OW31834   3.798   6.590   2.391
10312SOL    HW131835   3.893   6.588   2.361
10312SOL    HW231836   3.794   6.580   2.491
10313SOL     OW31837   4.223   5.594   2.000
10313SOL    HW131838   4.249   5.567   2.093
10313SOL    HW231839   4.132   5.558   1.980
10314SOL     OW31840   6.516   0.581   0.937
10314SOL    HW131841   6.501   0.616   1.030
10314SOL    HW231842   6.435   0.597   0.882
10315SOL     OW31843   5.529   5.934   4.850
10315SOL    HW131844   5.444   5.897   4.887
10315SOL    HW231845   5.552   6.018   4.900
10316SOL     OW31846   6.244   2.434   5.796
10316SOL    HW131847   6.146   2.447   5.811
10316SOL    HW231848   6.265   2.446   5.699
10317SOL     OW31849   4.341   5.975   6.298
10317SOL    HW131850   4.440   5.962   6.308
10317SOL    HW231851   4.294   5.913   6.361
10318SOL     OW31852   4.907   0.312   6.762
10318SOL    HW131853   4.851   0.289   6.682
10318SOL    HW231854   4.860   0.383   6.815
10319SOL     OW31855   0.287   3.558   5.463
10319SOL    HW131856   0.351   3.568   5.540
10319SOL    HW231857   0.197   3.531   5.497
10320SOL     OW31858   0.948   6.657   2.344
10320SOL    HW131859   0.863   6.709   2.356
10320SOL    HW231860   1.009   6.675   2.422
10321SOL     OW31861   4.796   2.032   1.984
10321SOL    HW131862   4.858   1.970   1.937
10321SOL    HW231863   4.730   2.070   1.919
10322SOL     OW31864   5.404   5.625   4.943
10322SOL    HW131865   5.337   5.697   4.927
10322SOL    HW231866   5.444   5.636   5.034
10323SOL     OW31867   6.110   4.377   5.630
10323SOL    HW131868   6.112   4.476   5.642
10323SOL    HW231869   6.078   4.355   5.538
10324SOL     OW31870   3.315   2.902   2.044
10324SOL    HW131871   3.268   2.988   2.065
10324SOL    HW231872   3.291   2.872   1.952
10325SOL     OW31873   6.312   4.411   1.811
10325SOL    HW131874   6.364   4.327   1.825
10325SOL    HW231875   6.235   4.394   1.749
10326SOL     OW31876   4.362   4.351   6.685
10326SOL    HW131877   4.279   4.311   6.722
10326SOL    HW231878   4.342   4.400   6.600
10327SOL     OW31879   2.495   2.324   0.637
10327SOL    HW131880   2.432   2.288   0.568
10327SOL    HW231881   2.581   2.352   0.593
10328SOL     OW31882   6.531   2.532   1.018
10328SOL    HW131883   6.600   2.591   1.061
10328SOL    HW231884   6.441   2.572   1.028
10329SOL     OW31885   3.153   0.794   3.986
10329SOL    HW131886   3.193   0.746   3.908
10329SOL    HW231887   3.107   0.877   3.954
10330SOL     OW31888   4.025   1.192   2.302
10330SOL    HW131889   4.125   1.197   2.309
10330SOL    HW231890   3.990   1.130   2.371
10331SOL     OW31891   6.727   7.008   6.111
10331SOL    HW131892   6.633   6.989   6.080
10331SOL    HW231893   6.725   0.059   6.185
10332SOL     OW31894   6.995   0.554   1.050
10332SOL    HW131895   6.916   0.542   0.989
10332SOL    HW231896   6.976   0.511   1.138
10333SOL     OW31897   0.480   4.532   5.233
10333SOL    HW131898   0.456   4.435   5.246
10333SOL    HW231899   0.486   4.552   5.135
10334SOL     OW31900   3.275   0.515   4.872
10334SOL    HW131901   3.249   0.597   4.923
10334SOL    HW231902   3.293   0.540   4.776
10335SOL     OW31903   2.776   4.033   6.578
10335SOL    HW131904   2.680   4.029   6.607
10335SOL    HW231905   2.785   3.991   6.488
10336SOL     OW31906   6.794   0.337   1.763
10336SOL    HW131907   6.740   0.279   1.702
10336SOL    HW231908   6.855   0.394   1.709
10337SOL     OW31909   0.173   6.102   6.288
10337SOL    HW131910   0.221   6.098   6.376
10337SOL    HW231911   0.204   6.182   6.236
10338SOL     OW31912   2.130   6.533   2.243
10338SOL    HW131913   2.214   6.536   2.297
10338SOL    HW231914   2.077   6.617   2.258
10339SOL     OW31915   4.552   3.918   6.756
10339SOL    HW131916   4.463   3.946   6.721
10339SOL    HW231917   4.610   3.888   6.679
10340SOL     OW31918   1.326   3.562   1.013
10340SOL    HW131919   1.345   3.589   0.919
10340SOL    HW231920   1.247   3.500   1.015
10341SOL     OW31921   2.136   3.272   2.398
10341SOL    HW131922   2.142   3.181   2.359
10341SOL    HW231923   2.112   3.265   2.495
10342SOL     OW31924   1.615   0.185   4.662
10342SOL    HW131925   1.533   0.144   4.621
10342SOL    HW231926   1.633   0.273   4.619
10343SOL     OW31927   3.455   5.448   6.840
10343SOL    HW131928   3.378   5.505   6.811
10343SOL    HW231929   3.445   5.356   6.801
10344SOL     OW31930   4.149   3.128   1.009
10344SOL    HW131931   4.175   3.071   1.087
10344SOL    HW231932   4.219   3.123   0.939
10345SOL     OW31933   1.565   1.293   5.975
10345SOL    HW131934   1.469   1.315   5.958
10345SOL    HW231935   1.577   1.263   6.070
10346SOL     OW31936   0.464   5.304   1.627
10346SOL    HW131937   0.431   5.380   1.571
10346SOL    HW231938   0.392   5.273   1.688
10347SOL     OW31939   3.938   1.706   3.425
10347SOL    HW131940   4.034   1.680   3.411
10347SOL    HW231941   3.887   1.628   3.461
10348SOL     OW31942   6.607   2.218   6.951
10348SOL    HW131943   6.555   2.222   6.865
10348SOL    HW231944   6.705   2.220   6.931
10349SOL     OW31945   1.369   0.786   7.004
10349SOL    HW131946   1.357   0.688   0.004
10349SOL    HW231947   1.428   0.801   6.925
10350SOL     OW31948   2.498   6.212   4.858
10350SOL    HW131949   2.566   6.145   4.828
10350SOL    HW231950   2.495   6.288   4.793
10351SOL     OW31951   4.461   4.619   6.195
10351SOL    HW131952   4.516   4.539   6.172
10351SOL    HW231953   4.429   4.662   6.111
10352SOL     OW31954   3.695   1.246   6.179
10352SOL    HW131955   3.691   1.166   6.240
10352SOL    HW231956   3.627   1.313   6.209
10353SOL     OW31957   6.443   3.247   5.596
10353SOL    HW131958   6.525   3.261   5.541
10353SOL    HW231959   6.418   3.150   5.593
10354SOL     OW31960   5.536   2.579   2.608
10354SOL    HW131961   5.570   2.672   2.620
10354SOL    HW231962   5.565   2.544   2.519
10355SOL     OW31963   2.363   6.628   1.976
10355SOL    HW131964   2.340   6.593   2.066
10355SOL    HW231965   2.457   6.602   1.952
10356SOL     OW31966   0.759   4.849   4.952
10356SOL    HW131967   0.848   4.816   4.984
10356SOL    HW231968   0.773   4.913   4.877
10357SOL     OW31969   1.392   2.772   6.356
10357SOL    HW131970   1.400   2.742   6.261
10357SOL    HW231971   1.483   2.781   6.396
10358SOL     OW31972   6.788   3.369   3.100
10358SOL    HW131973   6.744   3.336   3.016
10358SOL    HW231974   6.882   3.337   3.104
10359SOL     OW31975   1.000   2.207   1.145
10359SOL    HW131976   0.902   2.185   1.154
10359SOL    HW231977   1.015   2.301   1.174
10360SOL     OW31978   4.698   4.623   3.424
10360SOL    HW131979   4.749   4.677   3.358
10360SOL    HW231980   4.760   4.559   3.470
10361SOL     OW31981   3.051   6.360   3.271
10361SOL    HW131982   3.058   6.421   3.350
10361SOL    HW231983   3.018   6.271   3.301
10362SOL     OW31984   0.652   4.937   4.576
10362SOL    HW131985   0.673   4.839   4.582
10362SOL    HW231986   0.736   4.989   4.560
10363SOL     OW31987   4.641   1.038   1.627
10363SOL    HW131988   4.649   1.133   1.598
10363SOL    HW231989   4.723   0.987   1.598
10364SOL     OW31990   3.098   2.960   1.275
10364SOL    HW131991   3.138   2.943   1.366
10364SOL    HW231992   3.127   3.050   1.243
10365SOL     OW31993   4.315   4.427   6.415
10365SOL    HW131994   4.334   4.504   6.355
10365SOL    HW231995   4.222   4.395   6.400
10366SOL     OW31996   2.820   0.404   4.435
10366SOL    HW131997   2.778   0.492   4.456
10366SOL    HW231998   2.759   0.330   4.465
10367SOL     OW31999   6.494   2.319   2.762
10367SOL    HW132000   6.537   2.384   2.699
10367SOL    HW232001   6.396   2.315   2.744
10368SOL     OW32002   1.665   1.628   1.844
10368SOL    HW132003   1.592   1.561   1.833
10368SOL    HW232004   1.700   1.656   1.754
10369SOL     OW32005   4.267   0.532   5.566
10369SOL    HW132006   4.170   0.531   5.591
10369SOL    HW232007   4.283   0.604   5.498
10370SOL     OW32008   5.258   1.540   5.349
10370SOL    HW132009   5.324   1.478   5.307
10370SOL    HW232010   5.295   1.633   5.349
10371SOL     OW32011   3.116   5.636   4.915
10371SOL    HW132012   3.069   5.574   4.978
10371SOL    HW232013   3.176   5.697   4.966
10372SOL     OW32014   1.365   1.393   5.848
10372SOL    HW132015   1.385   1.461   5.777
10372SOL    HW232016   1.281   1.343   5.823
10373SOL     OW32017   2.135   6.244   4.812
10373SOL    HW132018   2.039   6.223   4.824
10373SOL    HW232019   2.177   6.176   4.752
10374SOL     OW32020   3.843   1.408   2.747
10374SOL    HW132021   3.841   1.417   2.647
10374SOL    HW232022   3.852   1.498   2.789
10375SOL     OW32023   4.031   2.084   6.543
10375SOL    HW132024   3.984   2.147   6.605
10375SOL    HW232025   4.113   2.049   6.587
10376SOL     OW32026   0.966   6.299   3.956
10376SOL    HW132027   0.983   6.396   3.970
10376SOL    HW232028   0.907   6.287   3.876
10377SOL     OW32029   6.752   0.553   3.879
10377SOL    HW132030   6.829   0.538   3.941
10377SOL    HW232031   6.683   0.609   3.925
10378SOL     OW32032   6.873   1.132   5.999
10378SOL    HW132033   6.968   1.130   5.968
10378SOL    HW232034   6.821   1.060   5.953
10379SOL     OW32035   4.021   0.473   5.056
10379SOL    HW132036   4.111   0.485   5.014
10379SOL    HW232037   4.014   0.381   5.094
10380SOL     OW32038   6.300   1.462   3.169
10380SOL    HW132039   6.313   1.372   3.127
10380SOL    HW232040   6.262   1.525   3.101
10381SOL     OW32041   4.819   5.482   6.104
10381SOL    HW132042   4.866   5.445   6.185
10381SOL    HW232043   4.873   5.461   6.023
10382SOL     OW32044   2.408   4.750   5.869
10382SOL    HW132045   2.384   4.773   5.963
10382SOL    HW232046   2.508   4.749   5.860
10383SOL     OW32047   0.897   3.282   0.969
10383SOL    HW132048   0.838   3.352   1.008
10383SOL    HW232049   0.852   3.240   0.891
10384SOL     OW32050   0.915   0.262   0.388
10384SOL    HW132051   0.937   0.246   0.292
10384SOL    HW232052   0.818   0.241   0.404
10385SOL     OW32053   4.901   0.076   6.485
10385SOL    HW132054   4.850   0.161   6.494
10385SOL    HW232055   4.960   0.081   6.404
10386SOL     OW32056   0.420   3.745   4.859
10386SOL    HW132057   0.483   3.734   4.936
10386SOL    HW232058   0.397   3.655   4.822
10387SOL     OW32059   3.975   1.859   2.550
10387SOL    HW132060   3.982   1.763   2.521
10387SOL    HW232061   4.033   1.874   2.630
10388SOL     OW32062   0.831   5.639   3.692
10388SOL    HW132063   0.856   5.700   3.616
10388SOL    HW232064   0.736   5.655   3.717
10389SOL     OW32065   0.340   6.000   2.411
10389SOL    HW132066   0.422   5.955   2.444
10389SOL    HW232067   0.366   6.082   2.360
10390SOL     OW32068   1.505   3.581   2.276
10390SOL    HW132069   1.599   3.596   2.305
10390SOL    HW232070   1.492   3.615   2.183
10391SOL     OW32071   1.502   5.868   5.567
10391SOL    HW132072   1.477   5.778   5.531
10391SOL    HW232073   1.595   5.865   5.604
10392SOL     OW32074   6.388   3.948   0.733
10392SOL    HW132075   6.481   3.927   0.765
10392SOL    HW232076   6.378   4.047   0.721
10393SOL     OW32077   0.845   1.575   2.689
10393SOL    HW132078   0.747   1.587   2.677
10393SOL    HW232079   0.894   1.623   2.616
10394SOL     OW32080   2.746   6.868   6.166
10394SOL    HW132081   2.824   6.908   6.117
10394SOL    HW232082   2.735   6.915   6.253
10395SOL     OW32083   6.417   1.015   4.908
10395SOL    HW132084   6.512   1.043   4.896
10395SOL    HW232085   6.397   0.939   4.846
10396SOL     OW32086   1.284   0.764   3.472
10396SOL    HW132087   1.313   0.837   3.533
10396SOL    HW232088   1.198   0.725   3.505
10397SOL     OW32089   3.753   1.667   3.904
10397SOL    HW132090   3.681   1.690   3.839
10397SOL    HW232091   3.834   1.634   3.855
10398SOL     OW32092   6.386   2.374   0.028
10398SOL    HW132093   6.460   2.312   0.002
10398SOL    HW232094   6.312   2.369   6.977
10399SOL     OW32095   4.805   1.739   5.389
10399SOL    HW132096   4.883   1.725   5.450
10399SOL    HW232097   4.724   1.696   5.429
10400SOL     OW32098   3.683   5.844   2.230
10400SOL    HW132099   3.628   5.837   2.147
10400SOL    HW232100   3.698   5.753   2.268
10401SOL     OW32101   6.795   6.910   2.155
10401SOL    HW132102   6.734   6.836   2.125
10401SOL    HW232103   6.803   6.907   2.255
10402SOL     OW32104   0.514   2.912   5.742
10402SOL    HW132105   0.523   2.842   5.671
10402SOL    HW232106   0.474   2.871   5.824
10403SOL     OW32107   5.245   1.268   2.659
10403SOL    HW132108   5.160   1.321   2.670
10403SOL    HW232109   5.235   1.204   2.583
10404SOL     OW32110   0.831   6.707   3.768
10404SOL    HW132111   0.733   6.692   3.783
10404SOL    HW232112   0.872   6.624   3.733
10405SOL     OW32113   1.837   5.574   5.270
10405SOL    HW132114   1.925   5.614   5.242
10405SOL    HW232115   1.773   5.577   5.193
10406SOL     OW32116   1.905   4.276   4.755
10406SOL    HW132117   1.863   4.311   4.672
10406SOL    HW232118   1.990   4.228   4.732
10407SOL     OW32119   1.376   0.745   6.023
10407SOL    HW132120   1.421   0.707   5.942
10407SOL    HW232121   1.322   0.673   6.068
10408SOL     OW32122   4.357   6.107   2.995
10408SOL    HW132123   4.378   6.203   3.017
10408SOL    HW232124   4.287   6.104   2.924
10409SOL     OW32125   0.181   4.779   1.444
10409SOL    HW132126   0.259   4.759   1.385
10409SOL    HW232127   0.158   4.697   1.498
10410SOL     OW32128   5.048   0.552   1.500
10410SOL    HW132129   4.992   0.546   1.582
10410SOL    HW232130   4.995   0.522   1.421
10411SOL     OW32131   2.399   4.699   4.255
10411SOL    HW132132   2.442   4.778   4.211
10411SOL    HW232133   2.368   4.725   4.347
10412SOL     OW32134   0.491   1.493   0.159
10412SOL    HW132135   0.409   1.528   0.204
10412SOL    HW232136   0.476   1.398   0.131
10413SOL     OW32137   1.316   2.287   0.691
10413SOL    HW132138   1.275   2.292   0.782
10413SOL    HW232139   1.264   2.224   0.634
10414SOL     OW32140   4.976   6.305   6.407
10414SOL    HW132141   4.911   6.273   6.476
10414SOL    HW232142   5.049   6.356   6.452
10415SOL     OW32143   1.274   5.155   3.678
10415SOL    HW132144   1.255   5.162   3.776
10415SOL    HW232145   1.272   5.059   3.650
10416SOL     OW32146   6.281   1.562   5.795
10416SOL    HW132147   6.248   1.535   5.886
10416SOL    HW232148   6.278   1.661   5.787
10417SOL     OW32149   4.149   4.717   3.056
10417SOL    HW132150   4.229   4.725   2.997
10417SOL    HW232151   4.179   4.698   3.149
10418SOL     OW32152   6.864   4.420   5.748
10418SOL    HW132153   6.961   4.417   5.721
10418SOL    HW232154   6.857   4.445   5.844
10419SOL     OW32155   3.312   1.486   5.287
10419SOL    HW132156   3.319   1.401   5.339
10419SOL    HW232157   3.370   1.480   5.205
10420SOL     OW32158   6.900   3.567   2.607
10420SOL    HW132159   6.818   3.510   2.616
10420SOL    HW232160   6.916   3.617   2.692
10421SOL     OW32161   1.372   4.366   3.939
10421SOL    HW132162   1.292   4.306   3.937
10421SOL    HW232163   1.364   4.429   4.017
10422SOL     OW32164   6.774   4.216   5.330
10422SOL    HW132165   6.737   4.250   5.244
10422SOL    HW232166   6.755   4.118   5.337
10423SOL     OW32167   3.476   4.951   4.236
10423SOL    HW132168   3.434   4.944   4.146
10423SOL    HW232169   3.479   5.047   4.264
10424SOL     OW32170   4.100   1.090   6.883
10424SOL    HW132171   4.124   1.183   6.910
10424SOL    HW232172   4.143   1.025   6.946
10425SOL     OW32173   1.116   6.827   1.502
10425SOL    HW132174   1.117   6.904   1.566
10425SOL    HW232175   1.209   6.792   1.490
10426SOL     OW32176   4.751   3.121   5.238
10426SOL    HW132177   4.671   3.142   5.294
10426SOL    HW232178   4.820   3.193   5.249
10427SOL     OW32179   5.151   5.641   5.111
10427SOL    HW132180   5.106   5.592   5.186
10427SOL    HW232181   5.245   5.662   5.138
10428SOL     OW32182   1.098   1.888   3.176
10428SOL    HW132183   1.169   1.914   3.242
10428SOL    HW232184   1.109   1.940   3.092
10429SOL     OW32185   1.099   3.601   2.259
10429SOL    HW132186   1.065   3.624   2.168
10429SOL    HW232187   1.191   3.564   2.252
10430SOL     OW32188   3.642   5.948   4.190
10430SOL    HW132189   3.558   5.979   4.235
10430SOL    HW232190   3.691   6.026   4.153
10431SOL     OW32191   2.425   1.976   4.769
10431SOL    HW132192   2.387   2.065   4.795
10431SOL    HW232193   2.351   1.910   4.760
10432SOL     OW32194   0.107   6.781   4.905
10432SOL    HW132195   0.188   6.726   4.924
10432SOL    HW232196   0.046   6.781   4.984
10433SOL     OW32197   2.027   0.324   1.829
10433SOL    HW132198   1.999   0.363   1.917
10433SOL    HW232199   2.032   0.396   1.760
10434SOL     OW32200   5.010   0.127   5.814
10434SOL    HW132201   4.960   0.187   5.752
10434SOL    HW232202   5.004   0.032   5.781
10435SOL     OW32203   1.057   2.266   6.207
10435SOL    HW132204   1.137   2.255   6.267
10435SOL    HW232205   0.974   2.272   6.263
10436SOL     OW32206   6.992   4.069   5.115
10436SOL    HW132207   0.055   4.009   5.132
10436SOL    HW232208   0.009   4.159   5.086
10437SOL     OW32209   4.709   5.216   5.101
10437SOL    HW132210   4.660   5.143   5.053
10437SOL    HW232211   4.666   5.304   5.081
10438SOL     OW32212   0.120   6.718   6.095
10438SOL    HW132213   0.052   6.666   6.045
10438SOL    HW232214   0.081   6.806   6.123
10439SOL     OW32215   6.371   0.827   4.729
10439SOL    HW132216   6.306   0.797   4.659
10439SOL    HW232217   6.442   0.757   4.740
10440SOL     OW32218   6.808   1.527   6.769
10440SOL    HW132219   6.889   1.487   6.814
10440SOL    HW232220   6.820   1.625   6.760
10441SOL     OW32221   3.509   1.582   1.411
10441SOL    HW132222   3.599   1.624   1.424
10441SOL    HW232223   3.448   1.646   1.365
10442SOL     OW32224   3.043   0.921   5.178
10442SOL    HW132225   2.982   0.843   5.162
10442SOL    HW232226   3.095   0.906   5.262
10443SOL     OW32227   0.307   2.177   2.782
10443SOL    HW132228   0.259   2.222   2.706
10443SOL    HW232229   0.249   2.178   2.863
10444SOL     OW32230   3.520   4.938   3.668
10444SOL    HW132231   3.596   4.994   3.636
10444SOL    HW232232   3.551   4.882   3.745
10445SOL     OW32233   0.618   4.069   2.168
10445SOL    HW132234   0.695   4.072   2.232
10445SOL    HW232235   0.622   3.983   2.117
10446SOL     OW32236   1.735   4.272   5.030
10446SOL    HW132237   1.804   4.266   5.103
10446SOL    HW232238   1.778   4.308   4.947
10447SOL     OW32239   6.132   1.921   3.191
10447SOL    HW132240   6.224   1.944   3.224
10447SOL    HW232241   6.094   1.998   3.141
10448SOL     OW32242   3.087   0.813   3.592
10448SOL    HW132243   3.064   0.909   3.607
10448SOL    HW232244   3.026   0.755   3.647
10449SOL     OW32245   3.473   5.750   6.932
10449SOL    HW132246   3.388   5.751   6.880
10449SOL    HW232247   3.546   5.709   6.876
10450SOL     OW32248   6.196   0.174   6.280
10450SOL    HW132249   6.097   0.165   6.296
10450SOL    HW232250   6.219   0.269   6.263
10451SOL     OW32251   2.099   0.790   4.146
10451SOL    HW132252   2.195   0.767   4.129
10451SOL    HW232253   2.049   0.708   4.171
10452SOL     OW32254   6.539   2.710   2.864
10452SOL    HW132255   6.620   2.759   2.896
10452SOL    HW232256   6.462   2.773   2.860
10453SOL     OW32257   4.215   6.572   2.586
10453SOL    HW132258   4.313   6.558   2.599
10453SOL    HW232259   4.174   6.602   2.672
10454SOL     OW32260   6.542   1.533   6.779
10454SOL    HW132261   6.641   1.525   6.774
10454SOL    HW232262   6.502   1.497   6.694
10455SOL     OW32263   6.260   6.460   4.249
10455SOL    HW132264   6.299   6.421   4.166
10455SOL    HW232265   6.175   6.412   4.272
10456SOL     OW32266   0.034   5.603   0.039
10456SOL    HW132267   0.008   5.509   0.063
10456SOL    HW232268   6.975   5.646   7.003
10457SOL     OW32269   4.428   3.442   0.122
10457SOL    HW132270   4.437   3.394   0.210
10457SOL    HW232271   4.411   3.539   0.139
10458SOL     OW32272   6.983   0.213   5.690
10458SOL    HW132273   6.929   0.157   5.753
10458SOL    HW232274   6.923   0.253   5.621
10459SOL     OW32275   0.119   5.437   0.901
10459SOL    HW132276   0.208   5.393   0.886
10459SOL    HW232277   0.067   5.384   0.968
10460SOL     OW32278   6.727   3.984   1.618
10460SOL    HW132279   6.644   3.962   1.566
10460SOL    HW232280   6.721   3.943   1.709
10461SOL     OW32281   6.236   4.550   5.214
10461SOL    HW132282   6.303   4.501   5.270
10461SOL    HW232283   6.278   4.634   5.179
10462SOL     OW32284   4.971   1.913   1.594
10462SOL    HW132285   4.897   1.860   1.637
10462SOL    HW232286   5.001   1.985   1.657
10463SOL     OW32287   4.972   1.989   6.170
10463SOL    HW132288   4.995   2.052   6.244
10463SOL    HW232289   4.885   1.944   6.191
10464SOL     OW32290   5.388   5.161   2.669
10464SOL    HW132291   5.383   5.061   2.665
10464SOL    HW232292   5.467   5.192   2.616
10465SOL     OW32293   5.252   3.834   2.847
10465SOL    HW132294   5.237   3.751   2.902
10465SOL    HW232295   5.271   3.808   2.752
10466SOL     OW32296   5.207   4.196   6.062
10466SOL    HW132297   5.135   4.129   6.077
10466SOL    HW232298   5.296   4.150   6.062
10467SOL     OW32299   1.894   2.345   6.738
10467SOL    HW132300   1.889   2.347   6.638
10467SOL    HW232301   1.888   2.438   6.774
10468SOL     OW32302   3.224   5.007   3.594
10468SOL    HW132303   3.234   5.067   3.514
10468SOL    HW232304   3.311   4.963   3.614
10469SOL     OW32305   4.989   3.669   5.816
10469SOL    HW132306   4.957   3.613   5.740
10469SOL    HW232307   5.032   3.752   5.780
10470SOL     OW32308   2.388   1.653   3.399
10470SOL    HW132309   2.368   1.734   3.454
10470SOL    HW232310   2.448   1.680   3.323
10471SOL     OW32311   2.568   0.791   6.740
10471SOL    HW132312   2.552   0.725   6.813
10471SOL    HW232313   2.552   0.884   6.774
10472SOL     OW32314   2.924   5.228   0.878
10472SOL    HW132315   3.022   5.230   0.860
10472SOL    HW232316   2.907   5.239   0.976
10473SOL     OW32317   5.147   5.672   6.167
10473SOL    HW132318   5.085   5.749   6.151
10473SOL    HW232319   5.241   5.707   6.175
10474SOL     OW32320   5.222   0.691   4.136
10474SOL    HW132321   5.248   0.624   4.206
10474SOL    HW232322   5.131   0.727   4.157
10475SOL     OW32323   2.480   6.180   1.872
10475SOL    HW132324   2.493   6.173   1.773
10475SOL    HW232325   2.568   6.196   1.916
10476SOL     OW32326   4.996   6.190   5.833
10476SOL    HW132327   4.929   6.201   5.906
10476SOL    HW232328   4.999   6.094   5.805
10477SOL     OW32329   0.044   6.197   3.693
10477SOL    HW132330   0.123   6.195   3.632
10477SOL    HW232331   0.057   6.267   3.763
10478SOL     OW32332   6.155   6.780   0.011
10478SOL    HW132333   6.172   6.710   0.080
10478SOL    HW232334   6.058   6.807   0.014
10479SOL     OW32335   6.747   2.664   2.172
10479SOL    HW132336   6.676   2.637   2.238
10479SOL    HW232337   6.835   2.669   2.218
10480SOL     OW32338   1.749   0.490   2.403
10480SOL    HW132339   1.735   0.547   2.322
10480SOL    HW232340   1.710   0.400   2.388
10481SOL     OW32341   0.809   6.468   3.375
10481SOL    HW132342   0.725   6.469   3.321
10481SOL    HW232343   0.857   6.555   3.362
10482SOL     OW32344   6.073   4.708   4.890
10482SOL    HW132345   6.127   4.735   4.811
10482SOL    HW232346   6.080   4.609   4.903
10483SOL     OW32347   5.810   5.213   0.624
10483SOL    HW132348   5.870   5.138   0.595
10483SOL    HW232349   5.717   5.195   0.594
10484SOL     OW32350   5.194   0.890   0.937
10484SOL    HW132351   5.110   0.873   0.989
10484SOL    HW232352   5.221   0.986   0.949
10485SOL     OW32353   3.677   4.082   6.449
10485SOL    HW132354   3.729   4.157   6.408
10485SOL    HW232355   3.740   4.016   6.490
10486SOL     OW32356   6.573   2.114   0.867
10486SOL    HW132357   6.597   2.042   0.803
10486SOL    HW232358   6.480   2.146   0.848
10487SOL     OW32359   5.086   6.510   2.110
10487SOL    HW132360   5.148   6.586   2.125
10487SOL    HW232361   5.025   6.532   2.034
10488SOL     OW32362   2.475   3.403   6.508
10488SOL    HW132363   2.451   3.365   6.597
10488SOL    HW232364   2.416   3.363   6.438
10489SOL     OW32365   0.676   6.723   5.772
10489SOL    HW132366   0.757   6.769   5.809
10489SOL    HW232367   0.598   6.740   5.831
10490SOL     OW32368   5.727   1.716   2.770
10490SOL    HW132369   5.823   1.695   2.748
10490SOL    HW232370   5.667   1.671   2.704
10491SOL     OW32371   1.613   3.259   6.670
10491SOL    HW132372   1.640   3.348   6.706
10491SOL    HW232373   1.654   3.245   6.579
10492SOL     OW32374   5.328   3.859   5.418
10492SOL    HW132375   5.377   3.811   5.491
10492SOL    HW232376   5.268   3.928   5.458
10493SOL     OW32377   3.204   0.465   1.730
10493SOL    HW132378   3.120   0.520   1.731
10493SOL    HW232379   3.221   0.433   1.637
10494SOL     OW32380   5.216   2.786   5.701
10494SOL    HW132381   5.244   2.878   5.731
10494SOL    HW232382   5.267   2.762   5.618
10495SOL     OW32383   2.000   0.113   0.986
10495SOL    HW132384   2.019   0.015   0.977
10495SOL    HW232385   1.903   0.126   1.008
10496SOL     OW32386   0.346   6.749   1.008
10496SOL    HW132387   0.309   6.801   0.931
10496SOL    HW232388   0.318   6.653   0.999
10497SOL     OW32389   2.217   6.493   1.771
10497SOL    HW132390   2.262   6.439   1.699
10497SOL    HW232391   2.275   6.572   1.794
10498SOL     OW32392   2.767   6.934   1.485
10498SOL    HW132393   2.730   6.887   1.404
10498SOL    HW232394   2.845   6.882   1.520
10499SOL     OW32395   2.571   6.568   2.245
10499SOL    HW132396   2.627   6.492   2.213
10499SOL    HW232397   2.511   6.537   2.318
10500SOL     OW32398   0.502   1.077   5.645
10500SOL    HW132399   0.600   1.093   5.628
10500SOL    HW232400   0.452   1.162   5.630
10501SOL     OW32401   1.634   5.821   3.434
10501SOL    HW132402   1.654   5.773   3.519
10501SOL    HW232403   1.707   5.887   3.414
10502SOL     OW32404   3.226   6.793   1.066
10502SOL    HW132405   3.299   6.856   1.094
10502SOL    HW232406   3.159   6.842   1.010
10503SOL     OW32407   4.474   2.540   0.705
10503SOL    HW132408   4.435   2.598   0.776
10503SOL    HW232409   4.407   2.469   0.679
10504SOL     OW32410   1.698   2.664   0.321
10504SOL    HW132411   1.701   2.688   0.418
10504SOL    HW232412   1.748   2.579   0.305
10505SOL     OW32413   6.180   5.479   0.421
10505SOL    HW132414   6.096   5.477   0.475
10505SOL    HW232415   6.214   5.385   0.408
10506SOL     OW32416   0.777   5.181   6.367
10506SOL    HW132417   0.713   5.207   6.295
10506SOL    HW232418   0.788   5.081   6.368
10507SOL     OW32419   2.242   6.096   0.001
10507SOL    HW132420   2.291   6.183   7.005
10507SOL    HW232421   2.144   6.111   7.002
10508SOL     OW32422   5.828   5.961   4.397
10508SOL    HW132423   5.818   5.865   4.369
10508SOL    HW232424   5.737   6.002   4.409
10509SOL     OW32425   1.000   6.807   5.611
10509SOL    HW132426   0.922   6.859   5.578
10509SOL    HW232427   0.999   6.715   5.572
10510SOL     OW32428   5.900   5.232   5.856
10510SOL    HW132429   5.944   5.210   5.769
10510SOL    HW232430   5.833   5.162   5.878
10511SOL     OW32431   4.827   2.633   1.114
10511SOL    HW132432   4.894   2.706   1.121
10511SOL    HW232433   4.788   2.613   1.204
10512SOL     OW32434   3.771   0.777   6.028
10512SOL    HW132435   3.721   0.736   5.951
10512SOL    HW232436   3.817   0.705   6.080
10513SOL     OW32437   0.107   2.871   5.835
10513SOL    HW132438   0.207   2.869   5.844
10513SOL    HW232439   0.066   2.891   5.924
10514SOL     OW32440   0.128   3.697   0.395
10514SOL    HW132441   0.090   3.666   0.308
10514SOL    HW232442   0.128   3.621   0.460
10515SOL     OW32443   5.652   3.250   3.211
10515SOL    HW132444   5.735   3.227   3.261
10515SOL    HW232445   5.595   3.169   3.200
10516SOL     OW32446   4.695   1.189   6.640
10516SOL    HW132447   4.739   1.114   6.590
10516SOL    HW232448   4.717   1.183   6.737
10517SOL     OW32449   0.773   2.191   2.446
10517SOL    HW132450   0.761   2.277   2.395
10517SOL    HW232451   0.843   2.204   2.516
10518SOL     OW32452   1.291   5.059   0.145
10518SOL    HW132453   1.201   5.069   0.102
10518SOL    HW232454   1.306   4.964   0.169
10519SOL     OW32455   3.113   2.560   6.005
10519SOL    HW132456   3.159   2.515   6.082
10519SOL    HW232457   3.173   2.560   5.926
10520SOL     OW32458   2.289   2.591   6.527
10520SOL    HW132459   2.230   2.668   6.504
10520SOL    HW232460   2.322   2.601   6.621
10521SOL     OW32461   6.294   5.370   1.617
10521SOL    HW132462   6.360   5.322   1.675
10521SOL    HW232463   6.342   5.432   1.555
10522SOL     OW32464   6.234   0.513   0.724
10522SOL    HW132465   6.217   0.565   0.807
10522SOL    HW232466   6.214   0.570   0.644
10523SOL     OW32467   6.939   6.464   4.676
10523SOL    HW132468   0.014   6.487   4.712
10523SOL    HW232469   6.889   6.548   4.657
10524SOL     OW32470   1.819   1.869   4.943
10524SOL    HW132471   1.829   1.807   5.021
10524SOL    HW232472   1.896   1.933   4.942
10525SOL     OW32473   3.273   6.766   5.533
10525SOL    HW132474   3.189   6.764   5.588
10525SOL    HW232475   3.302   6.673   5.512
10526SOL     OW32476   0.277   0.557   2.977
10526SOL    HW132477   0.192   0.559   2.924
10526SOL    HW232478   0.321   0.468   2.966
10527SOL     OW32479   0.649   2.605   3.999
10527SOL    HW132480   0.626   2.554   4.082
10527SOL    HW232481   0.619   2.555   3.919
10528SOL     OW32482   1.100   4.204   5.368
10528SOL    HW132483   1.024   4.265   5.346
10528SOL    HW232484   1.162   4.197   5.289
10529SOL     OW32485   1.138   6.202   3.240
10529SOL    HW132486   1.236   6.190   3.258
10529SOL    HW232487   1.092   6.226   3.326
10530SOL     OW32488   1.638   1.059   5.882
10530SOL    HW132489   1.586   1.017   5.957
10530SOL    HW232490   1.617   1.157   5.878
10531SOL     OW32491   1.073   3.649   4.692
10531SOL    HW132492   1.159   3.636   4.741
10531SOL    HW232493   1.039   3.742   4.710
10532SOL     OW32494   2.287   3.350   0.618
10532SOL    HW132495   2.224   3.289   0.570
10532SOL    HW232496   2.258   3.445   0.603
10533SOL     OW32497   3.225   1.511   4.343
10533SOL    HW132498   3.200   1.578   4.273
10533SOL    HW232499   3.319   1.480   4.327
10534SOL     OW32500   0.086   5.749   0.822
10534SOL    HW132501   0.116   5.751   0.918
10534SOL    HW232502   0.089   5.654   0.789
10535SOL     OW32503   0.411   2.707   2.122
10535SOL    HW132504   0.448   2.747   2.038
10535SOL    HW232505   0.446   2.614   2.132
10536SOL     OW32506   3.672   0.465   2.845
10536SOL    HW132507   3.724   0.415   2.914
10536SOL    HW232508   3.616   0.535   2.890
10537SOL     OW32509   3.131   5.800   2.810
10537SOL    HW132510   3.132   5.895   2.781
10537SOL    HW232511   3.040   5.775   2.843
10538SOL     OW32512   4.868   2.841   6.751
10538SOL    HW132513   4.826   2.752   6.738
10538SOL    HW232514   4.872   2.889   6.663
10539SOL     OW32515   0.854   4.279   6.563
10539SOL    HW132516   0.896   4.368   6.580
10539SOL    HW232517   0.822   4.274   6.469
10540SOL     OW32518   1.600   1.043   5.320
10540SOL    HW132519   1.540   1.068   5.245
10540SOL    HW232520   1.683   1.000   5.284
10541SOL     OW32521   3.557   3.582   1.895
10541SOL    HW132522   3.631   3.623   1.843
10541SOL    HW232523   3.493   3.654   1.924
10542SOL     OW32524   6.791   1.573   0.102
10542SOL    HW132525   6.786   1.669   0.133
10542SOL    HW232526   6.857   1.524   0.159
10543SOL     OW32527   0.624   0.925   4.930
10543SOL    HW132528   0.547   0.913   4.992
10543SOL    HW232529   0.598   0.987   4.856
10544SOL     OW32530   1.936   0.313   3.163
10544SOL    HW132531   1.982   0.293   3.250
10544SOL    HW232532   1.898   0.406   3.166
10545SOL     OW32533   6.218   0.795   2.875
10545SOL    HW132534   6.225   0.829   2.969
10545SOL    HW232535   6.122   0.774   2.855
10546SOL     OW32536   0.714   0.795   6.235
10546SOL    HW132537   0.738   0.700   6.252
10546SOL    HW232538   0.622   0.800   6.196
10547SOL     OW32539   4.826   1.509   1.559
10547SOL    HW132540   4.816   1.575   1.633
10547SOL    HW232541   4.808   1.554   1.471
10548SOL     OW32542   4.972   3.661   5.119
10548SOL    HW132543   4.997   3.677   5.215
10548SOL    HW232544   4.897   3.595   5.115
10549SOL     OW32545   6.779   0.731   2.464
10549SOL    HW132546   6.786   0.638   2.428
10549SOL    HW232547   6.690   0.742   2.509
10550SOL     OW32548   4.252   6.510   4.442
10550SOL    HW132549   4.333   6.559   4.411
10550SOL    HW232550   4.172   6.569   4.432
10551SOL     OW32551   1.200   2.844   5.121
10551SOL    HW132552   1.106   2.816   5.135
10551SOL    HW232553   1.231   2.812   5.031
10552SOL     OW32554   3.791   2.024   5.701
10552SOL    HW132555   3.717   2.069   5.651
10552SOL    HW232556   3.779   2.039   5.799
10553SOL     OW32557   1.135   4.538   1.977
10553SOL    HW132558   1.127   4.563   2.073
10553SOL    HW232559   1.193   4.604   1.930
10554SOL     OW32560   5.298   5.030   6.968
10554SOL    HW132561   5.239   4.955   6.940
10554SOL    HW232562   5.394   5.001   6.966
10555SOL     OW32563   3.125   1.926   1.144
10555SOL    HW132564   3.100   2.003   1.203
10555SOL    HW232565   3.118   1.954   1.048
10556SOL     OW32566   1.363   3.023   5.273
10556SOL    HW132567   1.311   2.972   5.205
10556SOL    HW232568   1.450   2.979   5.291
10557SOL     OW32569   1.145   2.773   3.165
10557SOL    HW132570   1.084   2.846   3.134
10557SOL    HW232571   1.203   2.807   3.239
10558SOL     OW32572   3.928   6.957   4.790
10558SOL    HW132573   3.974   6.915   4.712
10558SOL    HW232574   3.835   6.984   4.764
10559SOL     OW32575   3.662   1.010   0.622
10559SOL    HW132576   3.682   1.092   0.675
10559SOL    HW232577   3.736   0.992   0.558
10560SOL     OW32578   2.149   5.965   4.432
10560SOL    HW132579   2.189   5.993   4.519
10560SOL    HW232580   2.165   5.867   4.418
10561SOL     OW32581   2.680   5.096   0.300
10561SOL    HW132582   2.774   5.120   0.277
10561SOL    HW232583   2.674   5.071   0.397
10562SOL     OW32584   5.024   6.315   0.272
10562SOL    HW132585   4.990   6.226   0.302
10562SOL    HW232586   5.116   6.329   0.308
10563SOL     OW32587   1.463   0.789   3.866
10563SOL    HW132588   1.487   0.866   3.925
10563SOL    HW232589   1.465   0.818   3.771
10564SOL     OW32590   5.598   6.804   2.139
10564SOL    HW132591   5.610   6.717   2.186
10564SOL    HW232592   5.579   6.876   2.206
10565SOL     OW32593   0.460   0.791   6.108
10565SOL    HW132594   0.446   0.834   6.018
10565SOL    HW232595   0.403   0.709   6.114
10566SOL     OW32596   4.502   3.086   6.963
10566SOL    HW132597   4.485   3.061   0.043
10566SOL    HW232598   4.460   3.175   6.944
10567SOL     OW32599   2.270   2.987   3.748
10567SOL    HW132600   2.205   3.043   3.697
10567SOL    HW232601   2.322   2.929   3.684
10568SOL     OW32602   5.509   1.102   1.154
10568SOL    HW132603   5.553   1.018   1.121
10568SOL    HW232604   5.544   1.124   1.244
10569SOL     OW32605   6.575   3.031   2.064
10569SOL    HW132606   6.658   3.033   2.119
10569SOL    HW232607   6.553   3.124   2.033
10570SOL     OW32608   2.150   4.980   2.548
10570SOL    HW132609   2.210   4.966   2.470
10570SOL    HW232610   2.172   4.913   2.620
10571SOL     OW32611   6.701   5.231   4.417
10571SOL    HW132612   6.800   5.243   4.410
10571SOL    HW232613   6.655   5.314   4.386
10572SOL     OW32614   6.236   3.447   3.604
10572SOL    HW132615   6.190   3.509   3.667
10572SOL    HW232616   6.250   3.494   3.516
10573SOL     OW32617   5.772   5.906   3.713
10573SOL    HW132618   5.723   5.909   3.800
10573SOL    HW232619   5.777   5.997   3.674
10574SOL     OW32620   1.942   2.073   3.747
10574SOL    HW132621   2.012   2.057   3.817
10574SOL    HW232622   1.872   2.134   3.783
10575SOL     OW32623   0.651   1.050   3.647
10575SOL    HW132624   0.617   0.991   3.720
10575SOL    HW232625   0.691   1.133   3.687
10576SOL     OW32626   0.658   6.493   5.333
10576SOL    HW132627   0.751   6.457   5.322
10576SOL    HW232628   0.602   6.467   5.255
10577SOL     OW32629   1.393   2.515   6.574
10577SOL    HW132630   1.428   2.510   6.480
10577SOL    HW232631   1.469   2.521   6.638
10578SOL     OW32632   6.618   0.376   3.712
10578SOL    HW132633   6.525   0.375   3.747
10578SOL    HW232634   6.673   0.441   3.764
10579SOL     OW32635   3.930   1.802   0.269
10579SOL    HW132636   3.874   1.720   0.278
10579SOL    HW232637   3.995   1.791   0.194
10580SOL     OW32638   6.305   0.089   0.203
10580SOL    HW132639   6.311   0.012   0.140
10580SOL    HW232640   6.387   0.147   0.193
10581SOL     OW32641   5.897   0.132   2.883
10581SOL    HW132642   5.835   0.097   2.953
10581SOL    HW232643   5.866   0.101   2.793
10582SOL     OW32644   3.716   4.887   6.334
10582SOL    HW132645   3.659   4.887   6.416
10582SOL    HW232646   3.804   4.929   6.355
10583SOL     OW32647   4.312   0.948   5.525
10583SOL    HW132648   4.293   0.904   5.613
10583SOL    HW232649   4.406   0.982   5.525
10584SOL     OW32650   5.943   6.780   1.161
10584SOL    HW132651   5.929   6.758   1.065
10584SOL    HW232652   5.857   6.811   1.202
10585SOL     OW32653   1.532   3.173   5.856
10585SOL    HW132654   1.523   3.131   5.947
10585SOL    HW232655   1.580   3.110   5.795
10586SOL     OW32656   1.728   5.862   5.658
10586SOL    HW132657   1.802   5.912   5.704
10586SOL    HW232658   1.757   5.768   5.642
10587SOL     OW32659   6.115   3.940   0.190
10587SOL    HW132660   6.065   3.905   0.110
10587SOL    HW232661   6.115   4.040   0.188
10588SOL     OW32662   0.923   4.227   2.113
10588SOL    HW132663   0.924   4.182   2.024
10588SOL    HW232664   0.846   4.291   2.117
10589SOL     OW32665   5.298   1.274   4.332
10589SOL    HW132666   5.288   1.359   4.279
10589SOL    HW232667   5.383   1.229   4.306
10590SOL     OW32668   1.277   0.471   1.691
10590SOL    HW132669   1.238   0.420   1.614
10590SOL    HW232670   1.368   0.433   1.712
10591SOL     OW32671   1.443   1.683   5.427
10591SOL    HW132672   1.540   1.678   5.453
10591SOL    HW232673   1.430   1.633   5.342
10592SOL     OW32674   5.312   2.769   0.932
10592SOL    HW132675   5.396   2.804   0.973
10592SOL    HW232676   5.297   2.675   0.961
10593SOL     OW32677   3.180   5.187   0.808
10593SOL    HW132678   3.165   5.131   0.726
10593SOL    HW232679   3.228   5.271   0.783
10594SOL     OW32680   5.575   1.936   3.502
10594SOL    HW132681   5.522   1.872   3.447
10594SOL    HW232682   5.546   2.029   3.482
10595SOL     OW32683   3.357   0.185   5.936
10595SOL    HW132684   3.276   0.220   5.983
10595SOL    HW232685   3.329   0.122   5.864
10596SOL     OW32686   4.470   6.983   1.698
10596SOL    HW132687   4.413   0.049   1.711
10596SOL    HW232688   4.563   7.003   1.729
10597SOL     OW32689   2.831   1.334   4.561
10597SOL    HW132690   2.890   1.336   4.642
10597SOL    HW232691   2.888   1.322   4.479
10598SOL     OW32692   2.699   2.302   0.022
10598SOL    HW132693   2.757   2.270   0.097
10598SOL    HW232694   2.708   2.241   6.959
10599SOL     OW32695   5.578   1.705   0.641
10599SOL    HW132696   5.574   1.682   0.739
10599SOL    HW232697   5.512   1.778   0.621
10600SOL     OW32698   2.092   3.001   6.995
10600SOL    HW132699   2.055   2.918   0.021
10600SOL    HW232700   2.185   2.984   6.963
10601SOL     OW32701   2.463   5.141   5.808
10601SOL    HW132702   2.365   5.138   5.790
10601SOL    HW232703   2.500   5.048   5.806
10602SOL     OW32704   4.994   1.463   2.718
10602SOL    HW132705   4.895   1.479   2.714
10602SOL    HW232706   5.038   1.537   2.768
10603SOL     OW32707   2.369   5.899   3.059
10603SOL    HW132708   2.334   5.959   2.988
10603SOL    HW232709   2.303   5.826   3.078
10604SOL     OW32710   5.468   4.360   4.338
10604SOL    HW132711   5.407   4.437   4.356
10604SOL    HW232712   5.492   4.359   4.240
10605SOL     OW32713   1.048   5.077   0.072
10605SOL    HW132714   1.003   5.138   0.007
10605SOL    HW232715   0.981   5.015   0.112
10606SOL     OW32716   5.974   0.388   1.670
10606SOL    HW132717   6.010   0.368   1.762
10606SOL    HW232718   5.924   0.309   1.636
10607SOL     OW32719   4.276   3.421   5.532
10607SOL    HW132720   4.324   3.442   5.447
10607SOL    HW232721   4.177   3.420   5.514
10608SOL     OW32722   5.806   2.248   5.110
10608SOL    HW132723   5.732   2.279   5.170
10608SOL    HW232724   5.835   2.324   5.052
10609SOL     OW32725   3.329   5.513   1.456
10609SOL    HW132726   3.318   5.599   1.406
10609SOL    HW232727   3.262   5.510   1.531
10610SOL     OW32728   0.736   4.444   6.939
10610SOL    HW132729   0.786   4.501   7.004
10610SOL    HW232730   0.750   4.479   6.846
10611SOL     OW32731   5.631   3.424   0.081
10611SOL    HW132732   5.562   3.396   0.014
10611SOL    HW232733   5.589   3.431   0.171
10612SOL     OW32734   2.433   6.562   5.925
10612SOL    HW132735   2.384   6.482   5.890
10612SOL    HW232736   2.369   6.637   5.939
10613SOL     OW32737   0.413   6.747   5.865
10613SOL    HW132738   0.365   6.675   5.815
10613SOL    HW232739   0.347   6.805   5.912
10614SOL     OW32740   0.016   1.310   4.086
10614SOL    HW132741   6.994   1.351   4.170
10614SOL    HW232742   0.030   1.381   4.017
10615SOL     OW32743   4.325   5.647   5.240
10615SOL    HW132744   4.330   5.557   5.197
10615SOL    HW232745   4.343   5.717   5.171
10616SOL     OW32746   3.749   6.384   0.060
10616SOL    HW132747   3.773   6.459   0.122
10616SOL    HW232748   3.655   6.356   0.075
10617SOL     OW32749   2.210   2.259   0.529
10617SOL    HW132750   2.182   2.207   0.449
10617SOL    HW232751   2.211   2.357   0.507
10618SOL     OW32752   5.873   3.208   0.427
10618SOL    HW132753   5.918   3.296   0.427
10618SOL    HW232754   5.925   3.143   0.372
10619SOL     OW32755   0.211   3.629   2.216
10619SOL    HW132756   0.264   3.714   2.217
10619SOL    HW232757   0.122   3.645   2.260
10620SOL     OW32758   1.186   5.534   5.381
10620SOL    HW132759   1.196   5.455   5.321
10620SOL    HW232760   1.089   5.560   5.387
10621SOL     OW32761   1.043   6.179   0.628
10621SOL    HW132762   1.125   6.234   0.616
10621SOL    HW232763   1.017   6.179   0.725
10622SOL     OW32764   4.446   1.207   1.060
10622SOL    HW132765   4.450   1.168   0.968
10622SOL    HW232766   4.384   1.153   1.117
10623SOL     OW32767   5.694   3.160   4.256
10623SOL    HW132768   5.773   3.099   4.249
10623SOL    HW232769   5.663   3.186   4.165
10624SOL     OW32770   0.915   1.195   4.721
10624SOL    HW132771   0.978   1.227   4.650
10624SOL    HW232772   0.889   1.272   4.779
10625SOL     OW32773   0.640   4.255   6.764
10625SOL    HW132774   0.647   4.335   6.823
10625SOL    HW232775   0.690   4.271   6.679
10626SOL     OW32776   0.858   2.494   1.475
10626SOL    HW132777   0.937   2.479   1.415
10626SOL    HW232778   0.774   2.493   1.419
10627SOL     OW32779   5.711   5.938   2.787
10627SOL    HW132780   5.756   5.935   2.698
10627SOL    HW232781   5.636   5.872   2.789
10628SOL     OW32782   5.450   5.089   5.750
10628SOL    HW132783   5.495   5.138   5.675
10628SOL    HW232784   5.518   5.049   5.810
10629SOL     OW32785   2.556   4.553   5.356
10629SOL    HW132786   2.520   4.635   5.311
10629SOL    HW232787   2.656   4.558   5.359
10630SOL     OW32788   6.587   1.148   3.545
10630SOL    HW132789   6.575   1.155   3.446
10630SOL    HW232790   6.520   1.207   3.591
10631SOL     OW32791   0.916   5.908   4.510
10631SOL    HW132792   0.896   5.856   4.593
10631SOL    HW232793   1.015   5.911   4.495
10632SOL     OW32794   5.890   2.278   4.173
10632SOL    HW132795   5.897   2.244   4.267
10632SOL    HW232796   5.888   2.378   4.173
10633SOL     OW32797   2.582   4.165   1.285
10633SOL    HW132798   2.573   4.066   1.300
10633SOL    HW232799   2.505   4.212   1.327
10634SOL     OW32800   3.441   5.249   0.335
10634SOL    HW132801   3.464   5.286   0.245
10634SOL    HW232802   3.379   5.313   0.382
10635SOL     OW32803   2.823   1.148   0.888
10635SOL    HW132804   2.769   1.171   0.969
10635SOL    HW232805   2.820   1.049   0.873
10636SOL     OW32806   1.225   2.283   1.830
10636SOL    HW132807   1.281   2.211   1.791
10636SOL    HW232808   1.282   2.344   1.886
10637SOL     OW32809   3.640   4.060   5.578
10637SOL    HW132810   3.657   3.964   5.554
10637SOL    HW232811   3.724   4.112   5.570
10638SOL     OW32812   0.159   6.485   2.944
10638SOL    HW132813   0.068   6.481   2.985
10638SOL    HW232814   0.150   6.498   2.845
10639SOL     OW32815   0.577   2.035   3.510
10639SOL    HW132816   0.611   1.963   3.571
10639SOL    HW232817   0.623   2.028   3.421
10640SOL     OW32818   4.540   0.177   6.932
10640SOL    HW132819   4.604   0.146   6.862
10640SOL    HW232820   4.481   0.101   6.960
10641SOL     OW32821   4.267   1.787   0.149
10641SOL    HW132822   4.284   1.739   0.236
10641SOL    HW232823   4.326   1.749   0.078
10642SOL     OW32824   0.318   2.774   1.685
10642SOL    HW132825   0.397   2.727   1.724
10642SOL    HW232826   0.344   2.821   1.601
10643SOL     OW32827   2.359   4.196   5.880
10643SOL    HW132828   2.311   4.281   5.858
10643SOL    HW232829   2.308   4.119   5.843
10644SOL     OW32830   4.751   1.789   3.750
10644SOL    HW132831   4.828   1.779   3.813
10644SOL    HW232832   4.711   1.880   3.760
10645SOL     OW32833   0.898   1.114   4.236
10645SOL    HW132834   0.845   1.155   4.311
10645SOL    HW232835   0.854   1.029   4.208
10646SOL     OW32836   0.498   2.089   5.561
10646SOL    HW132837   0.567   2.147   5.603
10646SOL    HW232838   0.489   2.004   5.614
10647SOL     OW32839   5.432   5.448   6.205
10647SOL    HW132840   5.404   5.475   6.113
10647SOL    HW232841   5.499   5.513   6.240
10648SOL     OW32842   5.513   3.228   6.517
10648SOL    HW132843   5.489   3.240   6.421
10648SOL    HW232844   5.499   3.133   6.544
10649SOL     OW32845   0.050   4.599   3.817
10649SOL    HW132846   0.046   4.619   3.719
10649SOL    HW232847   0.105   4.516   3.831
10650SOL     OW32848   1.248   6.745   3.544
10650SOL    HW132849   1.345   6.729   3.567
10650SOL    HW232850   1.198   6.765   3.628
10651SOL     OW32851   4.182   6.716   6.071
10651SOL    HW132852   4.246   6.717   6.148
10651SOL    HW232853   4.234   6.706   5.986
10652SOL     OW32854   3.469   0.078   6.615
10652SOL    HW132855   3.436   0.126   6.533
10652SOL    HW232856   3.421   0.112   6.695
10653SOL     OW32857   5.015   4.621   4.852
10653SOL    HW132858   5.004   4.643   4.949
10653SOL    HW232859   5.041   4.524   4.844
10654SOL     OW32860   3.613   0.150   1.350
10654SOL    HW132861   3.637   0.112   1.261
10654SOL    HW232862   3.640   0.086   1.422
10655SOL     OW32863   2.949   5.187   1.677
10655SOL    HW132864   2.891   5.258   1.716
10655SOL    HW232865   3.045   5.205   1.698
10656SOL     OW32866   6.102   1.998   0.341
10656SOL    HW132867   6.149   2.055   0.274
10656SOL    HW232868   6.133   2.023   0.433
10657SOL     OW32869   6.200   6.520   0.953
10657SOL    HW132870   6.215   6.453   0.881
10657SOL    HW232871   6.245   6.489   1.037
10658SOL     OW32872   0.656   4.502   4.754
10658SOL    HW132873   0.635   4.532   4.847
10658SOL    HW232874   0.692   4.579   4.701
10659SOL     OW32875   6.495   6.886   0.969
10659SOL    HW132876   6.580   6.921   0.929
10659SOL    HW232877   6.463   6.809   0.915
10660SOL     OW32878   5.148   3.997   6.482
10660SOL    HW132879   5.145   3.914   6.427
10660SOL    HW232880   5.200   4.068   6.433
10661SOL     OW32881   6.723   6.823   2.538
10661SOL    HW132882   6.690   6.749   2.596
10661SOL    HW232883   6.735   6.906   2.594
10662SOL     OW32884   5.855   0.884   1.816
10662SOL    HW132885   5.773   0.873   1.760
10662SOL    HW232886   5.926   0.929   1.762
10663SOL     OW32887   1.096   0.539   1.059
10663SOL    HW132888   1.109   0.441   1.073
10663SOL    HW232889   1.098   0.559   0.961
10664SOL     OW32890   2.273   3.994   6.350
10664SOL    HW132891   2.370   3.981   6.369
10664SOL    HW232892   2.226   4.021   6.434
10665SOL     OW32893   1.365   1.102   7.014
10665SOL    HW132894   1.292   1.147   6.964
10665SOL    HW232895   1.352   1.003   7.011
10666SOL     OW32896   4.050   4.294   6.994
10666SOL    HW132897   4.016   4.381   0.013
10666SOL    HW232898   3.974   4.240   6.958
10667SOL     OW32899   4.165   1.858   5.663
10667SOL    HW132900   4.189   1.915   5.741
10667SOL    HW232901   4.070   1.829   5.671
10668SOL     OW32902   1.459   2.166   5.899
10668SOL    HW132903   1.481   2.102   5.973
10668SOL    HW232904   1.450   2.116   5.813
10669SOL     OW32905   0.514   0.296   1.009
10669SOL    HW132906   0.514   0.331   0.915
10669SOL    HW232907   0.428   0.322   1.054
10670SOL     OW32908   5.005   4.385   6.107
10670SOL    HW132909   5.065   4.308   6.087
10670SOL    HW232910   4.971   4.424   6.021
10671SOL     OW32911   2.100   3.620   2.620
10671SOL    HW132912   2.024   3.643   2.560
10671SOL    HW232913   2.128   3.701   2.672
10672SOL     OW32914   7.015   2.977   0.478
10672SOL    HW132915   0.065   3.052   0.480
10672SOL    HW232916   0.034   2.904   0.419
10673SOL     OW32917   2.894   2.646   5.735
10673SOL    HW132918   2.956   2.717   5.699
10673SOL    HW232919   2.940   2.558   5.731
10674SOL     OW32920   3.747   3.786   0.831
10674SOL    HW132921   3.761   3.860   0.765
10674SOL    HW232922   3.717   3.704   0.782
10675SOL     OW32923   0.663   0.666   5.310
10675SOL    HW132924   0.570   0.663   5.349
10675SOL    HW232925   0.679   0.756   5.270
10676SOL     OW32926   6.342   0.164   5.990
10676SOL    HW132927   6.346   0.255   5.950
10676SOL    HW232928   6.251   0.148   6.028
10677SOL     OW32929   0.700   0.892   2.223
10677SOL    HW132930   0.689   0.986   2.257
10677SOL    HW232931   0.618   0.865   2.173
10678SOL     OW32932   3.756   5.664   2.585
10678SOL    HW132933   3.772   5.727   2.660
10678SOL    HW232934   3.658   5.663   2.562
10679SOL     OW32935   5.665   5.665   4.858
10679SOL    HW132936   5.573   5.650   4.892
10679SOL    HW232937   5.677   5.762   4.836
10680SOL     OW32938   1.844   3.556   2.754
10680SOL    HW132939   1.931   3.511   2.735
10680SOL    HW232940   1.779   3.534   2.680
10681SOL     OW32941   6.579   4.584   0.087
10681SOL    HW132942   6.528   4.661   0.049
10681SOL    HW232943   6.524   4.538   0.157
10682SOL     OW32944   1.632   1.699   3.135
10682SOL    HW132945   1.624   1.688   3.036
10682SOL    HW232946   1.722   1.666   3.165
10683SOL     OW32947   2.386   2.633   4.002
10683SOL    HW132948   2.412   2.543   3.966
10683SOL    HW232949   2.324   2.677   3.937
10684SOL     OW32950   5.394   4.001   0.542
10684SOL    HW132951   5.379   3.942   0.622
10684SOL    HW232952   5.309   4.049   0.520
10685SOL     OW32953   0.802   3.591   3.273
10685SOL    HW132954   0.712   3.632   3.281
10685SOL    HW232955   0.824   3.575   3.177
10686SOL     OW32956   4.161   6.021   6.688
10686SOL    HW132957   4.225   5.945   6.700
10686SOL    HW232958   4.162   6.050   6.592
10687SOL     OW32959   6.922   5.247   2.009
10687SOL    HW132960   6.975   5.202   1.937
10687SOL    HW232961   6.871   5.178   2.060
10688SOL     OW32962   6.373   4.239   2.136
10688SOL    HW132963   6.295   4.277   2.185
10688SOL    HW232964   6.373   4.139   2.147
10689SOL     OW32965   6.755   0.047   2.693
10689SOL    HW132966   6.785   0.039   2.788
10689SOL    HW232967   6.736   0.143   2.672
10690SOL     OW32968   4.391   5.658   3.275
10690SOL    HW132969   4.407   5.755   3.294
10690SOL    HW232970   4.461   5.626   3.211
10691SOL     OW32971   6.354   1.192   1.557
10691SOL    HW132972   6.348   1.098   1.522
10691SOL    HW232973   6.262   1.224   1.580
10692SOL     OW32974   3.192   5.866   3.878
10692SOL    HW132975   3.271   5.898   3.827
10692SOL    HW232976   3.178   5.924   3.958
10693SOL     OW32977   1.053   1.201   0.814
10693SOL    HW132978   1.052   1.122   0.875
10693SOL    HW232979   0.959   1.230   0.797
10694SOL     OW32980   3.665   5.980   1.248
10694SOL    HW132981   3.682   5.948   1.155
10694SOL    HW232982   3.678   6.080   1.252
10695SOL     OW32983   0.102   2.563   4.054
10695SOL    HW132984   0.098   2.535   3.958
10695SOL    HW232985   0.046   2.500   4.109
10696SOL     OW32986   6.972   5.915   1.695
10696SOL    HW132987   6.984   5.986   1.765
10696SOL    HW232988   6.949   5.957   1.608
10697SOL     OW32989   0.280   6.292   3.265
10697SOL    HW132990   0.287   6.196   3.239
10697SOL    HW232991   0.334   6.348   3.201
10698SOL     OW32992   2.951   7.012   3.540
10698SOL    HW132993   2.936   0.051   3.457
10698SOL    HW232994   3.048   7.014   3.565
10699SOL     OW32995   4.295   1.720   2.873
10699SOL    HW132996   4.219   1.702   2.811
10699SOL    HW232997   4.378   1.737   2.819
10700SOL     OW32998   0.758   0.083   0.684
10700SOL    HW132999   0.685   0.084   0.617
10700SOL    HW233000   0.777   0.176   0.714
10701SOL     OW33001   4.637   5.906   6.303
10701SOL    HW133002   4.663   5.819   6.347
10701SOL    HW233003   4.720   5.957   6.281
10702SOL     OW33004   5.417   2.726   1.248
10702SOL    HW133005   5.346   2.656   1.238
10702SOL    HW233006   5.480   2.700   1.321
10703SOL     OW33007   3.811   3.591   3.296
10703SOL    HW133008   3.748   3.626   3.227
10703SOL    HW233009   3.770   3.599   3.387
10704SOL     OW33010   4.927   6.585   1.881
10704SOL    HW133011   5.010   6.576   1.827
10704SOL    HW233012   4.879   6.669   1.855
10705SOL     OW33013   1.226   3.747   6.411
10705SOL    HW133014   1.227   3.661   6.462
10705SOL    HW233015   1.132   3.766   6.382
10706SOL     OW33016   4.520   0.513   2.224
10706SOL    HW133017   4.463   0.478   2.150
10706SOL    HW233018   4.523   0.613   2.220
10707SOL     OW33019   6.965   6.858   5.850
10707SOL    HW133020   6.889   6.917   5.822
10707SOL    HW233021   6.984   6.791   5.779
10708SOL     OW33022   4.958   0.985   1.336
10708SOL    HW133023   4.866   1.025   1.332
10708SOL    HW233024   4.961   0.905   1.276
10709SOL     OW33025   6.633   0.460   5.075
10709SOL    HW133026   6.639   0.434   4.978
10709SOL    HW233027   6.579   0.543   5.083
10710SOL     OW33028   6.585   5.584   3.814
10710SOL    HW133029   6.567   5.682   3.813
10710SOL    HW233030   6.546   5.541   3.733
10711SOL     OW33031   1.863   0.436   3.938
10711SOL    HW133032   1.947   0.481   3.968
10711SOL    HW233033   1.798   0.504   3.905
10712SOL     OW33034   3.827   1.571   5.049
10712SOL    HW133035   3.840   1.527   5.138
10712SOL    HW233036   3.732   1.599   5.040
10713SOL     OW33037   2.330   5.622   2.404
10713SOL    HW133038   2.401   5.589   2.467
10713SOL    HW233039   2.348   5.587   2.312
10714SOL     OW33040   0.573   4.637   4.967
10714SOL    HW133041   0.622   4.724   4.964
10714SOL    HW233042   0.479   4.651   4.936
10715SOL     OW33043   4.781   2.148   4.063
10715SOL    HW133044   4.857   2.212   4.055
10715SOL    HW233045   4.763   2.106   3.974
10716SOL     OW33046   6.129   1.327   4.697
10716SOL    HW133047   6.096   1.406   4.749
10716SOL    HW233048   6.171   1.358   4.612
10717SOL     OW33049   6.754   1.043   1.983
10717SOL    HW133050   6.835   1.099   2.001
10717SOL    HW233051   6.753   0.964   2.044
10718SOL     OW33052   6.860   5.356   0.183
10718SOL    HW133053   6.848   5.277   0.123
10718SOL    HW233054   6.779   5.414   0.176
10719SOL     OW33055   5.290   1.065   1.964
10719SOL    HW133056   5.366   1.062   2.029
10719SOL    HW233057   5.266   0.973   1.936
10720SOL     OW33058   6.837   3.679   6.147
10720SOL    HW133059   6.826   3.720   6.056
10720SOL    HW233060   6.846   3.751   6.216
10721SOL     OW33061   6.137   2.290   4.800
10721SOL    HW133062   6.159   2.240   4.884
10721SOL    HW233063   6.039   2.309   4.798
10722SOL     OW33064   6.353   3.845   0.471
10722SOL    HW133065   6.287   3.772   0.489
10722SOL    HW233066   6.384   3.884   0.557
10723SOL     OW33067   5.253   4.058   6.944
10723SOL    HW133068   5.334   4.116   6.942
10723SOL    HW233069   5.198   4.081   0.009
10724SOL     OW33070   4.583   6.710   6.338
10724SOL    HW133071   4.681   6.716   6.356
10724SOL    HW233072   4.553   6.789   6.285
10725SOL     OW33073   0.490   6.229   4.178
10725SOL    HW133074   0.560   6.161   4.201
10725SOL    HW233075   0.423   6.188   4.116
10726SOL     OW33076   5.777   0.510   4.646
10726SOL    HW133077   5.849   0.579   4.650
10726SOL    HW233078   5.737   0.509   4.554
10727SOL     OW33079   2.246   4.955   5.292
10727SOL    HW133080   2.199   4.938   5.379
10727SOL    HW233081   2.178   4.970   5.220
10728SOL     OW33082   4.783   6.936   2.937
10728SOL    HW133083   4.761   6.842   2.960
10728SOL    HW233084   4.873   6.960   2.974
10729SOL     OW33085   5.850   2.284   2.881
10729SOL    HW133086   5.940   2.264   2.920
10729SOL    HW233087   5.806   2.357   2.934
10730SOL     OW33088   2.366   5.930   2.355
10730SOL    HW133089   2.302   5.978   2.415
10730SOL    HW233090   2.344   5.833   2.355
10731SOL     OW33091   3.368   5.896   0.460
10731SOL    HW133092   3.288   5.837   0.451
10731SOL    HW233093   3.451   5.844   0.440
10732SOL     OW33094   4.957   6.364   2.667
10732SOL    HW133095   4.950   6.382   2.569
10732SOL    HW233096   4.980   6.448   2.716
10733SOL     OW33097   5.843   1.177   6.603
10733SOL    HW133098   5.749   1.188   6.571
10733SOL    HW233099   5.849   1.099   6.665
10734SOL     OW33100   1.050   0.145   6.696
10734SOL    HW133101   1.047   0.240   6.727
10734SOL    HW233102   0.959   0.105   6.701
10735SOL     OW33103   1.029   5.204   1.904
10735SOL    HW133104   1.045   5.153   1.988
10735SOL    HW233105   0.931   5.222   1.894
10736SOL     OW33106   6.902   0.733   4.462
10736SOL    HW133107   6.875   0.698   4.552
10736SOL    HW233108   6.990   0.778   4.470
10737SOL     OW33109   0.299   1.903   1.083
10737SOL    HW133110   0.366   1.882   1.154
10737SOL    HW233111   0.233   1.828   1.077
10738SOL     OW33112   2.649   0.732   2.711
10738SOL    HW133113   2.691   0.641   2.703
10738SOL    HW233114   2.716   0.802   2.690
10739SOL     OW33115   6.182   1.847   2.647
10739SOL    HW133116   6.268   1.856   2.696
10739SOL    HW233117   6.194   1.873   2.551
10740SOL     OW33118   1.419   6.747   6.063
10740SOL    HW133119   1.375   6.822   6.013
10740SOL    HW233120   1.479   6.696   6.001
10741SOL     OW33121   1.642   2.925   3.378
10741SOL    HW133122   1.625   3.011   3.330
10741SOL    HW233123   1.601   2.850   3.326
10742SOL     OW33124   6.232   5.392   2.157
10742SOL    HW133125   6.252   5.340   2.240
10742SOL    HW233126   6.286   5.476   2.157
10743SOL     OW33127   3.657   1.648   5.387
10743SOL    HW133128   3.613   1.589   5.320
10743SOL    HW233129   3.719   1.594   5.444
10744SOL     OW33130   3.350   0.198   1.221
10744SOL    HW133131   3.433   0.181   1.274
10744SOL    HW233132   3.274   0.215   1.283
10745SOL     OW33133   1.946   4.504   1.080
10745SOL    HW133134   1.941   4.414   1.038
10745SOL    HW233135   2.037   4.518   1.118
10746SOL     OW33136   2.463   6.043   0.233
10746SOL    HW133137   2.395   6.072   0.166
10746SOL    HW233138   2.444   6.087   0.321
10747SOL     OW33139   6.227   2.674   4.262
10747SOL    HW133140   6.140   2.626   4.252
10747SOL    HW233141   6.294   2.614   4.304
10748SOL     OW33142   3.997   5.726   0.939
10748SOL    HW133143   4.049   5.665   0.999
10748SOL    HW233144   3.936   5.672   0.881
10749SOL     OW33145   6.158   4.447   3.008
10749SOL    HW133146   6.081   4.475   2.950
10749SOL    HW233147   6.180   4.522   3.071
10750SOL     OW33148   4.968   3.628   3.849
10750SOL    HW133149   4.901   3.582   3.906
10750SOL    HW233150   5.038   3.670   3.907
10751SOL     OW33151   1.480   3.702   4.922
10751SOL    HW133152   1.515   3.768   4.856
10751SOL    HW233153   1.408   3.647   4.880
10752SOL     OW33154   6.344   5.038   6.667
10752SOL    HW133155   6.357   4.977   6.589
10752SOL    HW233156   6.433   5.060   6.707
10753SOL     OW33157   4.590   6.479   4.438
10753SOL    HW133158   4.616   6.483   4.534
10753SOL    HW233159   4.657   6.529   4.383
10754SOL     OW33160   0.663   3.189   1.877
10754SOL    HW133161   0.744   3.131   1.872
10754SOL    HW233162   0.650   3.234   1.788
10755SOL     OW33163   6.814   2.736   1.690
10755SOL    HW133164   6.751   2.747   1.767
10755SOL    HW233165   6.908   2.728   1.724
10756SOL     OW33166   6.215   1.980   0.593
10756SOL    HW133167   6.314   1.973   0.603
10756SOL    HW233168   6.175   2.014   0.679
10757SOL     OW33169   6.573   3.684   0.472
10757SOL    HW133170   6.489   3.716   0.429
10757SOL    HW233171   6.611   3.609   0.419
10758SOL     OW33172   1.377   5.936   6.229
10758SOL    HW133173   1.394   5.868   6.158
10758SOL    HW233174   1.427   5.911   6.312
10759SOL     OW33175   1.548   2.183   6.305
10759SOL    HW133176   1.565   2.120   6.230
10759SOL    HW233177   1.545   2.132   6.392
10760SOL     OW33178   1.023   6.491   0.612
10760SOL    HW133179   1.065   6.516   0.699
10760SOL    HW233180   1.020   6.391   0.604
10761SOL     OW33181   0.767   1.948   6.032
10761SOL    HW133182   0.827   1.949   6.112
10761SOL    HW233183   0.789   1.870   5.974
10762SOL     OW33184   4.015   0.785   5.656
10762SOL    HW133185   4.016   0.685   5.655
10762SOL    HW233186   3.978   0.818   5.569
10763SOL     OW33187   5.859   0.762   3.198
10763SOL    HW133188   5.786   0.708   3.239
10763SOL    HW233189   5.947   0.727   3.230
10764SOL     OW33190   4.504   1.143   4.874
10764SOL    HW133191   4.468   1.223   4.826
10764SOL    HW233192   4.554   1.085   4.810
10765SOL     OW33193   6.067   2.169   2.446
10765SOL    HW133194   6.122   2.223   2.383
10765SOL    HW233195   6.040   2.083   2.402
10766SOL     OW33196   1.416   5.296   0.671
10766SOL    HW133197   1.487   5.230   0.696
10766SOL    HW233198   1.345   5.297   0.741
10767SOL     OW33199   1.851   6.387   0.774
10767SOL    HW133200   1.802   6.313   0.821
10767SOL    HW233201   1.927   6.348   0.721
10768SOL     OW33202   6.013   5.021   0.488
10768SOL    HW133203   6.053   4.955   0.552
10768SOL    HW233204   6.009   4.981   0.397
10769SOL     OW33205   2.624   4.178   5.393
10769SOL    HW133206   2.655   4.083   5.386
10769SOL    HW233207   2.524   4.180   5.397
10770SOL     OW33208   5.639   6.342   4.651
10770SOL    HW133209   5.546   6.308   4.658
10770SOL    HW233210   5.639   6.439   4.628
10771SOL     OW33211   4.843   0.224   5.590
10771SOL    HW133212   4.820   0.321   5.593
10771SOL    HW233213   4.792   0.180   5.515
10772SOL     OW33214   5.536   6.565   3.722
10772SOL    HW133215   5.521   6.468   3.706
10772SOL    HW233216   5.477   6.618   3.661
10773SOL     OW33217   0.124   4.136   0.720
10773SOL    HW133218   0.042   4.118   0.775
10773SOL    HW233219   0.139   4.059   0.658
10774SOL     OW33220   1.574   2.321   0.796
10774SOL    HW133221   1.487   2.305   0.750
10774SOL    HW233222   1.601   2.417   0.786
10775SOL     OW33223   1.872   4.341   0.608
10775SOL    HW133224   1.827   4.409   0.550
10775SOL    HW233225   1.960   4.315   0.567
10776SOL     OW33226   6.976   0.495   2.927
10776SOL    HW133227   7.014   0.405   2.946
10776SOL    HW233228   6.918   0.490   2.846
10777SOL     OW33229   2.723   0.737   3.461
10777SOL    HW133230   2.728   0.835   3.442
10777SOL    HW233231   2.657   0.720   3.535
10778SOL     OW33232   6.720   6.262   4.531
10778SOL    HW133233   6.705   6.358   4.556
10778SOL    HW233234   6.816   6.238   4.546
10779SOL     OW33235   5.528   4.982   3.246
10779SOL    HW133236   5.549   5.024   3.334
10779SOL    HW233237   5.498   4.888   3.261
10780SOL     OW33238   0.582   6.079   4.491
10780SOL    HW133239   0.633   6.035   4.418
10780SOL    HW233240   0.641   6.147   4.536
10781SOL     OW33241   5.663   2.417   5.289
10781SOL    HW133242   5.646   2.468   5.373
10781SOL    HW233243   5.724   2.470   5.229
10782SOL     OW33244   0.027   3.437   5.528
10782SOL    HW133245   6.997   3.408   5.443
10782SOL    HW233246   0.062   3.356   5.576
10783SOL     OW33247   1.432   2.286   2.554
10783SOL    HW133248   1.519   2.249   2.523
10783SOL    HW233249   1.363   2.213   2.555
10784SOL     OW33250   3.096   6.053   2.457
10784SOL    HW133251   3.058   6.144   2.438
10784SOL    HW233252   3.194   6.055   2.440
10785SOL     OW33253   1.538   5.224   1.614
10785SOL    HW133254   1.635   5.242   1.597
10785SOL    HW233255   1.511   5.265   1.701
10786SOL     OW33256   4.297   2.002   2.016
10786SOL    HW133257   4.264   1.941   1.944
10786SOL    HW233258   4.321   1.948   2.097
10787SOL     OW33259   3.259   1.488   3.822
10787SOL    HW133260   3.162   1.510   3.817
10787SOL    HW233261   3.279   1.441   3.909
10788SOL     OW33262   0.539   4.273   0.144
10788SOL    HW133263   0.523   4.180   0.112
10788SOL    HW233264   0.463   4.332   0.117
10789SOL     OW33265   6.264   1.119   6.982
10789SOL    HW133266   6.256   1.208   0.013
10789SOL    HW233267   6.360   1.103   6.958
10790SOL     OW33268   0.328   2.808   5.046
10790SOL    HW133269   0.353   2.731   5.105
10790SOL    HW233270   0.319   2.776   4.951
10791SOL     OW33271   2.067   1.794   2.513
10791SOL    HW133272   2.080   1.762   2.607
10791SOL    HW233273   1.970   1.786   2.489
10792SOL     OW33274   3.384   2.120   1.241
10792SOL    HW133275   3.304   2.114   1.300
10792SOL    HW233276   3.447   2.189   1.278
10793SOL     OW33277   5.296   1.519   4.662
10793SOL    HW133278   5.341   1.522   4.751
10793SOL    HW233279   5.263   1.426   4.644
10794SOL     OW33280   4.404   2.935   1.644
10794SOL    HW133281   4.456   2.970   1.721
10794SOL    HW233282   4.441   2.971   1.559
10795SOL     OW33283   0.019   3.928   2.364
10795SOL    HW133284   6.958   3.991   2.350
10795SOL    HW233285   0.006   3.847   2.306
10796SOL     OW33286   6.510   6.533   7.010
10796SOL    HW133287   6.574   6.495   0.061
10796SOL    HW233288   6.537   6.627   6.989
10797SOL     OW33289   4.002   2.877   0.508
10797SOL    HW133290   4.034   2.827   0.427
10797SOL    HW233291   3.914   2.839   0.538
10798SOL     OW33292   2.816   6.844   6.461
10798SOL    HW133293   2.909   6.807   6.457
10798SOL    HW233294   2.750   6.768   6.458
10799SOL     OW33295   3.109   1.401   2.659
10799SOL    HW133296   3.073   1.314   2.691
10799SOL    HW233297   3.198   1.418   2.702
10800SOL     OW33298   1.091   6.956   0.093
10800SOL    HW133299   1.045   6.912   0.170
10800SOL    HW233300   1.077   6.901   0.011
10801SOL     OW33301   2.175   6.149   5.873
10801SOL    HW133302   2.107   6.188   5.935
10801SOL    HW233303   2.236   6.221   5.841
10802SOL     OW33304   1.767   4.001   3.957
10802SOL    HW133305   1.765   3.950   4.043
10802SOL    HW233306   1.850   3.977   3.906
10803SOL     OW33307   5.863   4.592   5.372
10803SOL    HW133308   5.793   4.577   5.302
10803SOL    HW233309   5.936   4.525   5.361
10804SOL     OW33310   6.009   4.151   1.758
10804SOL    HW133311   6.042   4.239   1.724
10804SOL    HW233312   6.073   4.115   1.825
10805SOL     OW33313   4.120   6.411   0.574
10805SOL    HW133314   4.044   6.352   0.546
10805SOL    HW233315   4.141   6.396   0.670
10806SOL     OW33316   5.629   3.914   0.726
10806SOL    HW133317   5.535   3.884   0.744
10806SOL    HW233318   5.628   3.996   0.669
10807SOL     OW33319   3.136   6.029   3.522
10807SOL    HW133320   3.085   5.987   3.447
10807SOL    HW233321   3.196   5.960   3.563
10808SOL     OW33322   0.530   2.997   6.160
10808SOL    HW133323   0.572   3.059   6.227
10808SOL    HW233324   0.600   2.940   6.118
10809SOL     OW33325   3.246   0.801   4.256
10809SOL    HW133326   3.312   0.876   4.261
10809SOL    HW233327   3.236   0.773   4.160
10810SOL     OW33328   6.846   1.380   5.231
10810SOL    HW133329   6.798   1.407   5.148
10810SOL    HW233330   6.926   1.324   5.207
10811SOL     OW33331   4.238   5.416   5.006
10811SOL    HW133332   4.149   5.371   5.013
10811SOL    HW233333   4.247   5.458   4.916
10812SOL     OW33334   6.312   2.913   2.872
10812SOL    HW133335   6.242   2.870   2.815
10812SOL    HW233336   6.269   2.976   2.936
10813SOL     OW33337   3.015   6.082   1.876
10813SOL    HW133338   3.089   6.147   1.892
10813SOL    HW233339   3.052   5.989   1.880
10814SOL     OW33340   1.789   7.007   5.012
10814SOL    HW133341   1.747   0.071   4.967
10814SOL    HW233342   1.872   6.981   4.963
10815SOL     OW33343   5.523   3.873   2.960
10815SOL    HW133344   5.500   3.932   3.038
10815SOL    HW233345   5.441   3.855   2.906
10816SOL     OW33346   1.690   0.984   2.509
10816SOL    HW133347   1.646   1.011   2.423
10816SOL    HW233348   1.781   0.946   2.489
10817SOL     OW33349   5.337   0.287   2.523
10817SOL    HW133350   5.329   0.208   2.462
10817SOL    HW233351   5.278   0.275   2.602
10818SOL     OW33352   5.688   3.131   0.167
10818SOL    HW133353   5.705   3.219   0.123
10818SOL    HW233354   5.675   3.144   0.265
10819SOL     OW33355   0.490   4.843   6.171
10819SOL    HW133356   0.448   4.815   6.257
10819SOL    HW233357   0.420   4.873   6.107
10820SOL     OW33358   0.194   6.418   3.823
10820SOL    HW133359   0.236   6.456   3.740
10820SOL    HW233360   0.242   6.334   3.849
10821SOL     OW33361   6.980   0.364   1.525
10821SOL    HW133362   6.894   0.330   1.488
10821SOL    HW233363   0.028   0.288   1.541
10822SOL     OW33364   0.924   3.647   2.442
10822SOL    HW133365   0.840   3.595   2.427
10822SOL    HW233366   0.986   3.631   2.365
10823SOL     OW33367   2.706   6.271   1.190
10823SOL    HW133368   2.780   6.212   1.223
10823SOL    HW233369   2.676   6.239   1.100
10824SOL     OW33370   4.611   0.812   2.454
10824SOL    HW133371   4.670   0.733   2.467
10824SOL    HW233372   4.598   0.829   2.356
10825SOL     OW33373   3.188   1.001   1.138
10825SOL    HW133374   3.256   0.992   1.065
10825SOL    HW233375   3.123   1.073   1.114
10826SOL     OW33376   0.385   3.878   2.156
10826SOL    HW133377   0.439   3.947   2.205
10826SOL    HW233378   0.447   3.810   2.117
10827SOL     OW33379   6.893   3.701   4.346
10827SOL    HW133380   6.815   3.763   4.354
10827SOL    HW233381   6.956   3.718   4.421
10828SOL     OW33382   1.094   5.921   0.538
10828SOL    HW133383   1.084   6.017   0.564
10828SOL    HW233384   1.031   5.865   0.591
10829SOL     OW33385   3.044   3.964   2.053
10829SOL    HW133386   3.028   4.010   1.965
10829SOL    HW233387   3.050   3.865   2.038
10830SOL     OW33388   5.711   3.215   4.815
10830SOL    HW133389   5.616   3.221   4.786
10830SOL    HW233390   5.749   3.307   4.827
10831SOL     OW33391   5.419   0.928   2.777
10831SOL    HW133392   5.409   0.948   2.679
10831SOL    HW233393   5.331   0.939   2.822
10832SOL     OW33394   0.860   1.978   0.025
10832SOL    HW133395   0.765   1.960   0.050
10832SOL    HW233396   0.918   1.973   0.107
10833SOL     OW33397   2.616   0.979   4.550
10833SOL    HW133398   2.584   1.068   4.581
10833SOL    HW233399   2.708   0.962   4.586
10834SOL     OW33400   0.630   1.393   5.448
10834SOL    HW133401   0.559   1.381   5.379
10834SOL    HW233402   0.593   1.442   5.527
10835SOL     OW33403   6.029   1.971   2.204
10835SOL    HW133404   5.933   1.992   2.225
10835SOL    HW233405   6.074   2.053   2.168
10836SOL     OW33406   0.435   1.732   5.361
10836SOL    HW133407   0.514   1.793   5.368
10836SOL    HW233408   0.378   1.742   5.442
10837SOL     OW33409   6.913   4.572   0.366
10837SOL    HW133410   6.961   4.618   0.440
10837SOL    HW233411   6.954   4.482   0.350
10838SOL     OW33412   5.827   6.839   6.894
10838SOL    HW133413   5.789   6.775   6.961
10838SOL    HW233414   5.886   6.790   6.830
10839SOL     OW33415   2.377   1.674   0.052
10839SOL    HW133416   2.309   1.620   0.102
10839SOL    HW233417   2.372   1.769   0.081
10840SOL     OW33418   3.591   5.738   1.664
10840SOL    HW133419   3.549   5.673   1.727
10840SOL    HW233420   3.615   5.692   1.579
10841SOL     OW33421   4.297   5.686   6.174
10841SOL    HW133422   4.318   5.732   6.260
10841SOL    HW233423   4.375   5.629   6.147
10842SOL     OW33424   6.440   2.928   0.808
10842SOL    HW133425   6.498   3.009   0.815
10842SOL    HW233426   6.481   2.864   0.743
10843SOL     OW33427   1.164   1.765   1.736
10843SOL    HW133428   1.087   1.705   1.715
10843SOL    HW233429   1.131   1.844   1.788
10844SOL     OW33430   5.706   0.016   3.598
10844SOL    HW133431   5.758   6.965   3.651
10844SOL    HW233432   5.626   6.987   3.558
10845SOL     OW33433   1.328   1.138   1.544
10845SOL    HW133434   1.321   1.202   1.468
10845SOL    HW233435   1.258   1.160   1.613
10846SOL     OW33436   3.979   2.115   0.917
10846SOL    HW133437   3.996   2.033   0.863
10846SOL    HW233438   3.883   2.119   0.943
10847SOL     OW33439   3.456   2.027   6.066
10847SOL    HW133440   3.485   2.047   6.159
10847SOL    HW233441   3.457   2.111   6.012
10848SOL     OW33442   2.157   0.842   0.044
10848SOL    HW133443   2.161   0.770   0.114
10848SOL    HW233444   2.082   0.822   6.996
10849SOL     OW33445   2.903   4.846   4.530
10849SOL    HW133446   2.919   4.928   4.475
10849SOL    HW233447   2.886   4.872   4.625
10850SOL     OW33448   5.391   6.631   0.150
10850SOL    HW133449   5.420   6.605   0.242
10850SOL    HW233450   5.435   6.717   0.124
10851SOL     OW33451   2.585   2.309   5.929
10851SOL    HW133452   2.537   2.375   5.986
10851SOL    HW233453   2.547   2.311   5.836
10852SOL     OW33454   0.207   1.111   6.521
10852SOL    HW133455   0.154   1.144   6.442
10852SOL    HW233456   0.199   1.176   6.596
10853SOL     OW33457   2.796   1.604   4.606
10853SOL    HW133458   2.772   1.513   4.572
10853SOL    HW233459   2.717   1.644   4.653
10854SOL     OW33460   6.413   6.899   0.012
10854SOL    HW133461   6.323   6.862   0.035
10854SOL    HW233462   6.406   6.953   6.943
10855SOL     OW33463   1.771   6.320   2.429
10855SOL    HW133464   1.737   6.406   2.466
10855SOL    HW233465   1.706   6.247   2.451
10856SOL     OW33466   6.233   6.362   0.056
10856SOL    HW133467   6.301   6.432   0.081
10856SOL    HW233468   6.268   6.309   6.994
10857SOL     OW33469   6.342   2.299   3.653
10857SOL    HW133470   6.280   2.231   3.613
10857SOL    HW233471   6.318   2.312   3.749
10858SOL     OW33472   1.285   3.370   0.124
10858SOL    HW133473   1.249   3.387   0.216
10858SOL    HW233474   1.310   3.274   0.115
10859SOL     OW33475   1.015   4.502   3.338
10859SOL    HW133476   0.997   4.466   3.246
10859SOL    HW233477   1.055   4.430   3.395
10860SOL     OW33478   6.298   1.341   0.094
10860SOL    HW133479   6.286   1.344   0.194
10860SOL    HW233480   6.390   1.373   0.071
10861SOL     OW33481   3.035   2.644   1.712
10861SOL    HW133482   3.042   2.595   1.624
10861SOL    HW233483   3.013   2.578   1.784
10862SOL     OW33484   3.199   2.212   5.928
10862SOL    HW133485   3.247   2.279   5.983
10862SOL    HW233486   3.101   2.217   5.948
10863SOL     OW33487   2.516   0.661   3.312
10863SOL    HW133488   2.597   0.685   3.366
10863SOL    HW233489   2.500   0.562   3.320
10864SOL     OW33490   2.176   4.584   1.652
10864SOL    HW133491   2.156   4.529   1.571
10864SOL    HW233492   2.257   4.547   1.697
10865SOL     OW33493   4.962   2.952   3.180
10865SOL    HW133494   4.900   2.915   3.249
10865SOL    HW233495   4.942   3.049   3.165
10866SOL     OW33496   6.772   3.664   1.512
10866SOL    HW133497   6.833   3.584   1.511
10866SOL    HW233498   6.707   3.655   1.588
10867SOL     OW33499   3.325   2.146   0.200
10867SOL    HW133500   3.390   2.217   0.171
10867SOL    HW233501   3.261   2.128   0.125
10868SOL     OW33502   0.668   2.312   3.524
10868SOL    HW133503   0.644   2.217   3.548
10868SOL    HW233504   0.762   2.330   3.551
10869NA      NA33505   0.059   1.790   5.810
10870NA      NA33506   4.413   4.408   5.288
10871NA      NA33507   1.574   5.394   2.712
10872NA      NA33508   5.280   4.217   3.568
10873NA      NA33509   4.398   2.518   5.153
10874NA      NA33510   2.453   5.304   1.086
10875NA      NA33511   1.354   5.643   0.309
10876NA      NA33512   3.351   4.013   1.303
10877NA      NA33513   4.321   4.768   0.851
10878NA      NA33514   3.473   0.969   6.403
10879NA      NA33515   5.433   5.979   2.165
10880NA      NA33516   1.111   6.836   5.156
10881NA      NA33517   4.435   5.097   1.923
10882NA      NA33518   2.788   3.237   6.671
   7.01524   7.01524   7.01524
