Generated by trjconv : CNT in water t=  20.00000
33518
    1C        C    1   2.843   2.768   4.747
    1C        C    2   2.897   2.717   4.867
    1C        C    3   2.843   2.774   4.983
    1C        C    4   2.846   2.771   4.257
    1C        C    5   2.903   2.730   4.379
    1C        C    6   2.845   2.768   4.503
    1C        C    7   3.006   2.632   4.623
    1C        C    8   2.893   2.717   4.625
    1C        C    9   3.072   2.601   4.744
    1C        C   10   3.009   2.631   4.867
    1C        C   11   3.182   2.494   4.976
    1C        C   12   3.060   2.563   4.978
    1C        C   13   2.845   2.766   3.768
    1C        C   14   2.898   2.718   3.890
    1C        C   15   2.849   2.772   4.012
    1C        C   16   3.011   2.638   4.138
    1C        C   17   2.897   2.721   4.135
    1C        C   18   3.076   2.612   4.261
    1C        C   19   3.015   2.645   4.384
    1C        C   20   3.206   2.550   4.502
    1C        C   21   3.072   2.596   4.504
    1C        C   22   3.274   2.529   4.624
    1C        C   23   3.204   2.549   4.745
    1C        C   24   3.412   2.484   4.864
    1C        C   25   3.270   2.505   4.863
    1C        C   26   3.488   2.471   4.980
    1C        C   27   2.850   2.767   3.278
    1C        C   28   2.903   2.722   3.401
    1C        C   29   2.851   2.768   3.524
    1C        C   30   3.013   2.633   3.649
    1C        C   31   2.902   2.721   3.647
    1C        C   32   3.071   2.595   3.772
    1C        C   33   3.011   2.635   3.894
    1C        C   34   3.205   2.552   4.014
    1C        C   35   3.071   2.598   4.017
    1C        C   36   3.274   2.539   4.137
    1C        C   37   3.207   2.559   4.259
    1C        C   38   3.415   2.510   4.382
    1C        C   39   3.275   2.533   4.380
    1C        C   40   3.483   2.500   4.505
    1C        C   41   3.413   2.504   4.627
    1C        C   42   3.631   2.486   4.748
    1C        C   43   3.489   2.484   4.745
    1C        C   44   3.706   2.481   4.868
    1C        C   45   3.628   2.470   4.983
    1C        C   46   2.837   2.754   2.791
    1C        C   47   2.894   2.710   2.912
    1C        C   48   2.843   2.758   3.034
    1C        C   49   3.009   2.626   3.160
    1C        C   50   2.898   2.714   3.157
    1C        C   51   3.074   2.596   3.282
    1C        C   52   3.017   2.639   3.404
    1C        C   53   3.206   2.547   3.528
    1C        C   54   3.076   2.602   3.527
    1C        C   55   3.277   2.528   3.649
    1C        C   56   3.204   2.549   3.768
    1C        C   57   3.410   2.504   3.893
    1C        C   58   3.271   2.529   3.891
    1C        C   59   3.483   2.496   4.014
    1C        C   60   3.412   2.507   4.135
    1C        C   61   3.623   2.499   4.260
    1C        C   62   3.482   2.501   4.258
    1C        C   63   3.696   2.503   4.381
    1C        C   64   3.625   2.497   4.503
    1C        C   65   3.832   2.544   4.621
    1C        C   66   3.697   2.504   4.624
    1C        C   67   3.904   2.562   4.741
    1C        C   68   3.839   2.526   4.861
    1C        C   69   4.055   2.577   4.974
    1C        C   70   3.924   2.526   4.972
    1C        C   71   2.821   2.735   2.307
    1C        C   72   2.878   2.689   2.428
    1C        C   73   2.829   2.746   2.547
    1C        C   74   3.003   2.625   2.671
    1C        C   75   2.882   2.698   2.669
    1C        C   76   3.071   2.595   2.790
    1C        C   77   3.015   2.636   2.913
    1C        C   78   3.202   2.544   3.036
    1C        C   79   3.071   2.597   3.037
    1C        C   80   3.272   2.525   3.158
    1C        C   81   3.207   2.550   3.281
    1C        C   82   3.409   2.497   3.399
    1C        C   83   3.271   2.524   3.404
    1C        C   84   3.482   2.499   3.520
    1C        C   85   3.416   2.504   3.645
    1C        C   86   3.621   2.502   3.768
    1C        C   87   3.480   2.499   3.771
    1C        C   88   3.689   2.512   3.892
    1C        C   89   3.624   2.504   4.017
    1C        C   90   3.832   2.545   4.134
    1C        C   91   3.695   2.510   4.139
    1C        C   92   3.899   2.571   4.255
    1C        C   93   3.830   2.545   4.376
    1C        C   94   4.023   2.634   4.496
    1C        C   95   3.897   2.569   4.498
    1C        C   96   4.087   2.671   4.616
    1C        C   97   4.029   2.630   4.738
    1C        C   98   4.183   2.769   4.861
    1C        C   99   4.095   2.656   4.862
    1C        C  100   4.212   2.841   4.978
    1C        C  101   2.817   2.727   2.070
    1C        C  102   2.987   2.590   2.191
    1C        C  103   2.872   2.675   2.188
    1C        C  104   3.058   2.567   2.311
    1C        C  105   2.996   2.612   2.430
    1C        C  106   3.197   2.534   2.548
    1C        C  107   3.069   2.593   2.550
    1C        C  108   3.264   2.507   2.670
    1C        C  109   3.197   2.530   2.792
    1C        C  110   3.407   2.496   2.912
    1C        C  111   3.268   2.521   2.914
    1C        C  112   3.480   2.489   3.033
    1C        C  113   3.410   2.498   3.156
    1C        C  114   3.622   2.498   3.278
    1C        C  115   3.481   2.492   3.278
    1C        C  116   3.691   2.511   3.400
    1C        C  117   3.623   2.506   3.524
    1C        C  118   3.831   2.541   3.647
    1C        C  119   3.693   2.507   3.647
    1C        C  120   3.894   2.571   3.770
    1C        C  121   3.826   2.546   3.891
    1C        C  122   4.018   2.644   4.013
    1C        C  123   3.897   2.571   4.011
    1C        C  124   4.086   2.673   4.133
    1C        C  125   4.029   2.628   4.254
    1C        C  126   4.193   2.763   4.375
    1C        C  127   4.086   2.671   4.375
    1C        C  128   4.236   2.822   4.496
    1C        C  129   4.186   2.772   4.618
    1C        C  130   4.325   2.933   4.741
    1C        C  131   4.236   2.822   4.740
    1C        C  132   4.356   3.004   4.859
    1C        C  133   4.282   2.961   4.970
    1C        C  134   3.168   2.464   2.082
    1C        C  135   3.036   2.511   2.082
    1C        C  136   3.256   2.477   2.190
    1C        C  137   3.191   2.516   2.308
    1C        C  138   3.402   2.479   2.426
    1C        C  139   3.261   2.494   2.429
    1C        C  140   3.476   2.480   2.546
    1C        C  141   3.404   2.486   2.668
    1C        C  142   3.617   2.501   2.788
    1C        C  143   3.476   2.489   2.789
    1C        C  144   3.687   2.511   2.910
    1C        C  145   3.621   2.498   3.034
    1C        C  146   3.829   2.541   3.155
    1C        C  147   3.693   2.503   3.155
    1C        C  148   3.896   2.564   3.277
    1C        C  149   3.830   2.539   3.399
    1C        C  150   4.019   2.627   3.522
    1C        C  151   3.895   2.560   3.523
    1C        C  152   4.077   2.670   3.643
    1C        C  153   4.020   2.636   3.768
    1C        C  154   4.192   2.761   3.883
    1C        C  155   4.077   2.679   3.889
    1C        C  156   4.240   2.810   4.006
    1C        C  157   4.193   2.765   4.131
    1C        C  158   4.336   2.921   4.250
    1C        C  159   4.247   2.811   4.253
    1C        C  160   4.370   2.982   4.373
    1C        C  161   4.321   2.935   4.497
    1C        C  162   4.434   3.115   4.613
    1C        C  163   4.363   2.993   4.619
    1C        C  164   4.464   3.183   4.733
    1C        C  165   4.435   3.121   4.856
    1C        C  166   4.509   3.321   4.971
    1C        C  167   4.477   3.185   4.973
    1C        C  168   3.477   2.434   2.074
    1C        C  169   3.397   2.460   2.186
    1C        C  170   3.614   2.467   2.305
    1C        C  171   3.472   2.472   2.304
    1C        C  172   3.690   2.482   2.423
    1C        C  173   3.617   2.486   2.544
    1C        C  174   3.824   2.543   2.665
    1C        C  175   3.686   2.512   2.665
    1C        C  176   3.893   2.562   2.787
    1C        C  177   3.826   2.538   2.909
    1C        C  178   4.020   2.626   3.032
    1C        C  179   3.894   2.562   3.031
    1C        C  180   4.082   2.663   3.153
    1C        C  181   4.023   2.627   3.276
    1C        C  182   4.192   2.751   3.397
    1C        C  183   4.078   2.667   3.400
    1C        C  184   4.242   2.804   3.518
    1C        C  185   4.188   2.757   3.639
    1C        C  186   4.333   2.916   3.763
    1C        C  187   4.244   2.806   3.759
    1C        C  188   4.372   2.975   3.885
    1C        C  189   4.330   2.920   4.008
    1C        C  190   4.443   3.103   4.128
    1C        C  191   4.375   2.979   4.128
    1C        C  192   4.468   3.169   4.250
    1C        C  193   4.438   3.106   4.372
    1C        C  194   4.500   3.316   4.491
    1C        C  195   4.462   3.179   4.490
    1C        C  196   4.522   3.387   4.611
    1C        C  197   4.509   3.318   4.734
    1C        C  198   4.556   3.534   4.848
    1C        C  199   4.535   3.392   4.853
    1C        C  200   4.580   3.617   4.962
    1C        C  201   3.615   2.411   2.071
    1C        C  202   3.821   2.512   2.180
    1C        C  203   3.689   2.456   2.184
    1C        C  204   3.894   2.544   2.298
    1C        C  205   3.824   2.525   2.420
    1C        C  206   4.017   2.619   2.542
    1C        C  207   3.890   2.557   2.541
    1C        C  208   4.077   2.657   2.664
    1C        C  209   4.020   2.623   2.788
    1C        C  210   4.198   2.741   2.907
    1C        C  211   4.083   2.658   2.910
    1C        C  212   4.253   2.789   3.028
    1C        C  213   4.196   2.747   3.150
    1C        C  214   4.330   2.908   3.270
    1C        C  215   4.241   2.798   3.273
    1C        C  216   4.367   2.971   3.392
    1C        C  217   4.328   2.917   3.516
    1C        C  218   4.436   3.097   3.636
    1C        C  219   4.371   2.972   3.639
    1C        C  220   4.463   3.163   3.757
    1C        C  221   4.438   3.100   3.881
    1C        C  222   4.500   3.302   4.001
    1C        C  223   4.470   3.164   4.003
    1C        C  224   4.509   3.377   4.121
    1C        C  225   4.504   3.306   4.243
    1C        C  226   4.509   3.518   4.363
    1C        C  227   4.511   3.377   4.364
    1C        C  228   4.514   3.593   4.482
    1C        C  229   4.528   3.528   4.607
    1C        C  230   4.500   3.741   4.725
    1C        C  231   4.535   3.603   4.726
    1C        C  232   4.494   3.820   4.843
    1C        C  233   4.538   3.751   4.956
    1C        C  234   4.023   2.598   2.059
    1C        C  235   3.895   2.544   2.066
    1C        C  236   4.080   2.647   2.177
    1C        C  237   4.020   2.610   2.300
    1C        C  238   4.200   2.729   2.420
    1C        C  239   4.081   2.650   2.420
    1C        C  240   4.247   2.783   2.541
    1C        C  241   4.192   2.739   2.664
    1C        C  242   4.338   2.898   2.783
    1C        C  243   4.248   2.789   2.784
    1C        C  244   4.377   2.958   2.905
    1C        C  245   4.342   2.899   3.028
    1C        C  246   4.435   3.093   3.148
    1C        C  247   4.371   2.967   3.148
    1C        C  248   4.459   3.160   3.269
    1C        C  249   4.428   3.098   3.393
    1C        C  250   4.486   3.304   3.516
    1C        C  251   4.454   3.166   3.514
    1C        C  252   4.507   3.372   3.638
    1C        C  253   4.498   3.300   3.759
    1C        C  254   4.522   3.514   3.878
    1C        C  255   4.511   3.374   3.880
    1C        C  256   4.516   3.589   3.999
    1C        C  257   4.514   3.518   4.121
    1C        C  258   4.490   3.731   4.238
    1C        C  259   4.505   3.591   4.242
    1C        C  260   4.470   3.799   4.361
    1C        C  261   4.483   3.731   4.484
    1C        C  262   4.423   3.939   4.600
    1C        C  263   4.471   3.806   4.604
    1C        C  264   4.390   4.005   4.720
    1C        C  265   4.431   3.946   4.842
    1C        C  266   4.315   4.127   4.957
    1C        C  267   4.399   4.016   4.958
    1C        C  268   4.260   2.775   2.063
    1C        C  269   4.194   2.729   2.178
    1C        C  270   4.343   2.886   2.298
    1C        C  271   4.255   2.775   2.298
    1C        C  272   4.376   2.952   2.418
    1C        C  273   4.332   2.895   2.540
    1C        C  274   4.442   3.081   2.657
    1C        C  275   4.375   2.957   2.660
    1C        C  276   4.465   3.148   2.779
    1C        C  277   4.442   3.084   2.903
    1C        C  278   4.504   3.289   3.023
    1C        C  279   4.469   3.152   3.024
    1C        C  280   4.509   3.362   3.144
    1C        C  281   4.497   3.296   3.268
    1C        C  282   4.511   3.508   3.387
    1C        C  283   4.502   3.367   3.391
    1C        C  284   4.510   3.580   3.508
    1C        C  285   4.514   3.513   3.633
    1C        C  286   4.494   3.723   3.751
    1C        C  287   4.518   3.584   3.755
    1C        C  288   4.477   3.794   3.872
    1C        C  289   4.498   3.729   3.995
    1C        C  290   4.426   3.931   4.114
    1C        C  291   4.481   3.801   4.116
    1C        C  292   4.394   3.997   4.234
    1C        C  293   4.423   3.932   4.356
    1C        C  294   4.321   4.122   4.474
    1C        C  295   4.392   4.000   4.476
    1C        C  296   4.280   4.183   4.594
    1C        C  297   4.321   4.130   4.718
    1C        C  298   4.198   4.310   4.836
    1C        C  299   4.283   4.195   4.839
    1C        C  300   4.171   4.398   4.945
    1C        C  301   4.352   2.879   2.062
    1C        C  302   4.471   3.064   2.176
    1C        C  303   4.399   2.940   2.179
    1C        C  304   4.479   3.140   2.296
    1C        C  305   4.441   3.077   2.417
    1C        C  306   4.508   3.283   2.535
    1C        C  307   4.472   3.147   2.536
    1C        C  308   4.516   3.354   2.657
    1C        C  309   4.501   3.284   2.780
    1C        C  310   4.520   3.497   2.898
    1C        C  311   4.520   3.356   2.900
    1C        C  312   4.514   3.569   3.019
    1C        C  313   4.512   3.503   3.144
    1C        C  314   4.490   3.718   3.261
    1C        C  315   4.510   3.579   3.264
    1C        C  316   4.478   3.787   3.384
    1C        C  317   4.494   3.720   3.508
    1C        C  318   4.416   3.919   3.625
    1C        C  319   4.473   3.789   3.629
    1C        C  320   4.384   3.983   3.747
    1C        C  321   4.419   3.923   3.870
    1C        C  322   4.313   4.109   3.987
    1C        C  323   4.387   3.989   3.991
    1C        C  324   4.274   4.169   4.109
    1C        C  325   4.320   4.117   4.232
    1C        C  326   4.186   4.285   4.352
    1C        C  327   4.282   4.182   4.352
    1C        C  328   4.139   4.343   4.472
    1C        C  329   4.183   4.286   4.593
    1C        C  330   4.025   4.433   4.713
    1C        C  331   4.136   4.346   4.713
    1C        C  332   3.969   4.491   4.829
    1C        C  333   4.052   4.472   4.940
    1C        C  334   4.546   3.266   2.061
    1C        C  335   4.530   3.127   2.062
    1C        C  336   4.538   3.348   2.174
    1C        C  337   4.518   3.276   2.294
    1C        C  338   4.521   3.494   2.412
    1C        C  339   4.520   3.353   2.413
    1C        C  340   4.520   3.569   2.532
    1C        C  341   4.523   3.495   2.652
    1C        C  342   4.488   3.704   2.773
    1C        C  343   4.513   3.565   2.774
    1C        C  344   4.471   3.778   2.893
    1C        C  345   4.491   3.708   3.014
    1C        C  346   4.419   3.911   3.138
    1C        C  347   4.463   3.777   3.135
    1C        C  348   4.392   3.980   3.258
    1C        C  349   4.422   3.916   3.380
    1C        C  350   4.313   4.101   3.499
    1C        C  351   4.386   3.980   3.501
    1C        C  352   4.271   4.161   3.619
    1C        C  353   4.315   4.106   3.742
    1C        C  354   4.181   4.272   3.863
    1C        C  355   4.272   4.164   3.863
    1C        C  356   4.122   4.313   3.984
    1C        C  357   4.174   4.269   4.108
    1C        C  358   4.013   4.407   4.227
    1C        C  359   4.128   4.325   4.229
    1C        C  360   3.955   4.450   4.348
    1C        C  361   4.023   4.423   4.470
    1C        C  362   3.831   4.518   4.590
    1C        C  363   3.961   4.462   4.590
    1C        C  364   3.763   4.551   4.710
    1C        C  365   3.837   4.542   4.830
    1C        C  366   3.628   4.590   4.949
    1C        C  367   3.766   4.571   4.947
    1C        C  368   4.514   3.563   2.054
    1C        C  369   4.524   3.488   2.172
    1C        C  370   4.505   3.706   2.285
    1C        C  371   4.521   3.566   2.290
    1C        C  372   4.489   3.777   2.406
    1C        C  373   4.498   3.708   2.529
    1C        C  374   4.429   3.908   2.646
    1C        C  375   4.476   3.775   2.651
    1C        C  376   4.393   3.971   2.767
    1C        C  377   4.416   3.908   2.891
    1C        C  378   4.319   4.095   3.010
    1C        C  379   4.390   3.973   3.014
    1C        C  380   4.271   4.150   3.130
    1C        C  381   4.313   4.097   3.254
    1C        C  382   4.171   4.256   3.373
    1C        C  383   4.269   4.155   3.376
    1C        C  384   4.116   4.303   3.495
    1C        C  385   4.171   4.261   3.618
    1C        C  386   4.004   4.389   3.739
    1C        C  387   4.122   4.313   3.741
    1C        C  388   3.941   4.425   3.861
    1C        C  389   4.003   4.390   3.983
    1C        C  390   3.818   4.491   4.105
    1C        C  391   3.944   4.428   4.105
    1C        C  392   3.753   4.517   4.227
    1C        C  393   3.825   4.504   4.348
    1C        C  394   3.618   4.549   4.472
    1C        C  395   3.757   4.529   4.470
    1C        C  396   3.547   4.561   4.593
    1C        C  397   3.623   4.567   4.712
    1C        C  398   3.411   4.551   4.836
    1C        C  399   3.551   4.568   4.834
    1C        C  400   3.344   4.510   4.952
    1C        C  401   4.499   3.702   2.049
    1C        C  402   4.457   3.916   2.164
    1C        C  403   4.493   3.780   2.165
    1C        C  404   4.406   3.973   2.283
    1C        C  405   4.436   3.908   2.405
    1C        C  406   4.327   4.095   2.524
    1C        C  407   4.401   3.975   2.525
    1C        C  408   4.280   4.151   2.645
    1C        C  409   4.320   4.092   2.766
    1C        C  410   4.169   4.244   2.883
    1C        C  411   4.273   4.147   2.887
    1C        C  412   4.122   4.296   3.005
    1C        C  413   4.176   4.255   3.129
    1C        C  414   4.002   4.378   3.250
    1C        C  415   4.123   4.305   3.250
    1C        C  416   3.941   4.411   3.373
    1C        C  417   4.001   4.385   3.498
    1C        C  418   3.809   4.477   3.619
    1C        C  419   3.941   4.427   3.618
    1C        C  420   3.744   4.508   3.741
    1C        C  421   3.812   4.484   3.862
    1C        C  422   3.607   4.535   3.986
    1C        C  423   3.746   4.509   3.984
    1C        C  424   3.539   4.538   4.109
    1C        C  425   3.612   4.531   4.230
    1C        C  426   3.402   4.544   4.355
    1C        C  427   3.543   4.548   4.352
    1C        C  428   3.331   4.537   4.477
    1C        C  429   3.406   4.552   4.596
    1C        C  430   3.194   4.525   4.721
    1C        C  431   3.334   4.547   4.718
    1C        C  432   3.123   4.496   4.841
    1C        C  433   3.206   4.488   4.953
    1C        C  434   4.388   4.122   2.054
    1C        C  435   4.444   3.994   2.048
    1C        C  436   4.301   4.160   2.161
    1C        C  437   4.331   4.093   2.283
    1C        C  438   4.185   4.252   2.400
    1C        C  439   4.284   4.152   2.402
    1C        C  440   4.123   4.295   2.520
    1C        C  441   4.174   4.245   2.642
    1C        C  442   3.999   4.372   2.761
    1C        C  443   4.115   4.290   2.762
    1C        C  444   3.940   4.408   2.884
    1C        C  445   4.005   4.377   3.006
    1C        C  446   3.810   4.463   3.129
    1C        C  447   3.939   4.406   3.127
    1C        C  448   3.746   4.484   3.253
    1C        C  449   3.812   4.469   3.377
    1C        C  450   3.603   4.522   3.496
    1C        C  451   3.742   4.497   3.496
    1C        C  452   3.536   4.536   3.619
    1C        C  453   3.606   4.535   3.742
    1C        C  454   3.394   4.534   3.864
    1C        C  455   3.535   4.540   3.865
    1C        C  456   3.330   4.525   3.990
    1C        C  457   3.398   4.538   4.113
    1C        C  458   3.191   4.498   4.235
    1C        C  459   3.327   4.534   4.235
    1C        C  460   3.129   4.475   4.360
    1C        C  461   3.193   4.508   4.481
    1C        C  462   2.995   4.434   4.599
    1C        C  463   3.123   4.494   4.603
    1C        C  464   2.930   4.403   4.720
    1C        C  465   2.990   4.443   4.843
    1C        C  466   2.804   4.332   4.962
    1C        C  467   2.903   4.431   4.956
    1C        C  468   4.119   4.278   2.042
    1C        C  469   4.187   4.247   2.161
    1C        C  470   4.010   4.378   2.276
    1C        C  471   4.131   4.302   2.279
    1C        C  472   3.940   4.401   2.396
    1C        C  473   4.005   4.372   2.518
    1C        C  474   3.809   4.461   2.641
    1C        C  475   3.939   4.406   2.638
    1C        C  476   3.742   4.484   2.762
    1C        C  477   3.810   4.462   2.884
    1C        C  478   3.603   4.509   3.009
    1C        C  479   3.742   4.484   3.006
    1C        C  480   3.532   4.516   3.130
    1C        C  481   3.607   4.510   3.250
    1C        C  482   3.395   4.529   3.376
    1C        C  483   3.536   4.526   3.371
    1C        C  484   3.326   4.522   3.499
    1C        C  485   3.395   4.535   3.622
    1C        C  486   3.183   4.506   3.745
    1C        C  487   3.321   4.535   3.743
    1C        C  488   3.120   4.481   3.869
    1C        C  489   3.192   4.495   3.990
    1C        C  490   3.002   4.406   4.117
    1C        C  491   3.124   4.476   4.112
    1C        C  492   2.938   4.377   4.240
    1C        C  493   2.997   4.423   4.359
    1C        C  494   2.820   4.304   4.483
    1C        C  495   2.932   4.390   4.480
    1C        C  496   2.772   4.255   4.606
    1C        C  497   2.821   4.312   4.726
    1C        C  498   2.666   4.164   4.844
    1C        C  499   2.755   4.274   4.845
    1C        C  500   2.593   4.117   4.953
    1C        C  501   4.002   4.353   2.040
    1C        C  502   3.811   4.459   2.150
    1C        C  503   3.942   4.406   2.155
    1C        C  504   3.744   4.479   2.272
    1C        C  505   3.808   4.452   2.394
    1C        C  506   3.603   4.499   2.519
    1C        C  507   3.742   4.474   2.517
    1C        C  508   3.531   4.507   2.640
    1C        C  509   3.602   4.506   2.762
    1C        C  510   3.393   4.521   2.886
    1C        C  511   3.534   4.516   2.886
    1C        C  512   3.319   4.519   3.006
    1C        C  513   3.391   4.520   3.128
    1C        C  514   3.188   4.490   3.253
    1C        C  515   3.325   4.524   3.253
    1C        C  516   3.124   4.464   3.376
    1C        C  517   3.188   4.490   3.499
    1C        C  518   2.995   4.412   3.623
    1C        C  519   3.121   4.476   3.622
    1C        C  520   2.940   4.369   3.746
    1C        C  521   2.999   4.408   3.869
    1C        C  522   2.835   4.280   3.994
    1C        C  523   2.944   4.370   3.993
    1C        C  524   2.786   4.233   4.118
    1C        C  525   2.830   4.286   4.241
    1C        C  526   2.691   4.130   4.363
    1C        C  527   2.775   4.243   4.364
    1C        C  528   2.656   4.071   4.487
    1C        C  529   2.688   4.141   4.605
    1C        C  530   2.586   3.957   4.729
    1C        C  531   2.644   4.087   4.727
    1C        C  532   2.542   3.898   4.851
    1C        C  533   2.529   3.992   4.958
    1C        C  534   3.616   4.558   2.038
    1C        C  535   3.749   4.516   2.038
    1C        C  536   3.534   4.531   2.153
    1C        C  537   3.606   4.513   2.274
    1C        C  538   3.393   4.508   2.398
    1C        C  539   3.534   4.512   2.396
    1C        C  540   3.321   4.504   2.519
    1C        C  541   3.390   4.518   2.642
    1C        C  542   3.182   4.484   2.763
    1C        C  543   3.321   4.512   2.764
    1C        C  544   3.116   4.464   2.886
    1C        C  545   3.181   4.488   3.009
    1C        C  546   2.990   4.406   3.132
    1C        C  547   3.116   4.470   3.133
    1C        C  548   2.935   4.366   3.256
    1C        C  549   2.998   4.400   3.377
    1C        C  550   2.830   4.278   3.504
    1C        C  551   2.936   4.371   3.501
    1C        C  552   2.779   4.228   3.626
    1C        C  553   2.829   4.282   3.747
    1C        C  554   2.697   4.121   3.874
    1C        C  555   2.784   4.232   3.871
    1C        C  556   2.657   4.063   3.996
    1C        C  557   2.699   4.122   4.118
    1C        C  558   2.597   3.939   4.244
    1C        C  559   2.663   4.064   4.241
    1C        C  560   2.561   3.879   4.366
    1C        C  561   2.585   3.949   4.486
    1C        C  562   2.524   3.748   4.614
    1C        C  563   2.560   3.885   4.610
    1C        C  564   2.515   3.678   4.736
    1C        C  565   2.522   3.757   4.854
    1C        C  566   2.533   3.547   4.973
    1C        C  567   2.528   3.686   4.975
    1C        C  568   3.325   4.484   2.035
    1C        C  569   3.394   4.505   2.155
    1C        C  570   3.182   4.471   2.277
    1C        C  571   3.321   4.502   2.277
    1C        C  572   3.111   4.459   2.398
    1C        C  573   3.182   4.479   2.519
    1C        C  574   2.988   4.396   2.643
    1C        C  575   3.115   4.457   2.642
    1C        C  576   2.932   4.357   2.766
    1C        C  577   2.991   4.399   2.887
    1C        C  578   2.822   4.275   3.013
    1C        C  579   2.930   4.367   3.011
    1C        C  580   2.778   4.220   3.135
    1C        C  581   2.832   4.270   3.256
    1C        C  582   2.694   4.116   3.383
    1C        C  583   2.784   4.225   3.381
    1C        C  584   2.659   4.055   3.505
    1C        C  585   2.697   4.114   3.628
    1C        C  586   2.593   3.934   3.753
    1C        C  587   2.658   4.059   3.753
    1C        C  588   2.567   3.871   3.876
    1C        C  589   2.593   3.937   3.998
    1C        C  590   2.536   3.735   4.125
    1C        C  591   2.575   3.871   4.122
    1C        C  592   2.520   3.669   4.249
    1C        C  593   2.530   3.741   4.370
    1C        C  594   2.513   3.533   4.494
    1C        C  595   2.518   3.674   4.494
    1C        C  596   2.518   3.463   4.617
    1C        C  597   2.514   3.536   4.739
    1C        C  598   2.526   3.323   4.860
    1C        C  599   2.524   3.464   4.860
    1C        C  600   2.529   3.243   4.975
    1C        C  601   3.193   4.446   2.039
    1C        C  602   2.979   4.393   2.159
    1C        C  603   3.117   4.434   2.156
    1C        C  604   2.918   4.363   2.283
    1C        C  605   2.986   4.395   2.402
    1C        C  606   2.814   4.268   2.526
    1C        C  607   2.922   4.360   2.523
    1C        C  608   2.762   4.226   2.651
    1C        C  609   2.816   4.276   2.771
    1C        C  610   2.683   4.110   2.893
    1C        C  611   2.768   4.223   2.893
    1C        C  612   2.653   4.052   3.018
    1C        C  613   2.690   4.109   3.141
    1C        C  614   2.588   3.926   3.262
    1C        C  615   2.650   4.052   3.264
    1C        C  616   2.562   3.867   3.388
    1C        C  617   2.592   3.931   3.510
    1C        C  618   2.527   3.729   3.634
    1C        C  619   2.566   3.865   3.632
    1C        C  620   2.518   3.661   3.758
    1C        C  621   2.537   3.733   3.878
    1C        C  622   2.512   3.526   4.006
    1C        C  623   2.524   3.666   4.002
    1C        C  624   2.515   3.454   4.128
    1C        C  625   2.512   3.528   4.248
    1C        C  626   2.532   3.321   4.378
    1C        C  627   2.512   3.461   4.373
    1C        C  628   2.556   3.250   4.498
    1C        C  629   2.540   3.324   4.618
    1C        C  630   2.593   3.119   4.741
    1C        C  631   2.542   3.251   4.739
    1C        C  632   2.621   3.049   4.862
    1C        C  633   2.569   3.109   4.981
    1C        C  634   2.782   4.306   2.052
    1C        C  635   2.895   4.388   2.043
    1C        C  636   2.744   4.234   2.165
    1C        C  637   2.801   4.282   2.285
    1C        C  638   2.674   4.109   2.409
    1C        C  639   2.756   4.223   2.405
    1C        C  640   2.636   4.047   2.531
    1C        C  641   2.683   4.110   2.648
    1C        C  642   2.584   3.923   2.776
    1C        C  643   2.645   4.050   2.771
    1C        C  644   2.557   3.857   2.898
    1C        C  645   2.584   3.929   3.017
    1C        C  646   2.532   3.723   3.147
    1C        C  647   2.563   3.861   3.139
    1C        C  648   2.517   3.655   3.270
    1C        C  649   2.529   3.729   3.389
    1C        C  650   2.511   3.519   3.514
    1C        C  651   2.519   3.660   3.511
    1C        C  652   2.517   3.452   3.638
    1C        C  653   2.514   3.520   3.762
    1C        C  654   2.533   3.313   3.886
    1C        C  655   2.512   3.452   3.885
    1C        C  656   2.551   3.248   4.010
    1C        C  657   2.534   3.314   4.134
    1C        C  658   2.603   3.118   4.255
    1C        C  659   2.549   3.249   4.258
    1C        C  660   2.638   3.057   4.378
    1C        C  661   2.606   3.119   4.501
    1C        C  662   2.712   2.935   4.622
    1C        C  663   2.634   3.053   4.623
    1C        C  664   2.750   2.876   4.744
    1C        C  665   2.697   2.928   4.866
    1C        C  666   2.743   2.870   4.985
    1C        C  667   2.688   4.018   2.054
    1C        C  668   2.688   4.104   2.165
    1C        C  669   2.585   3.916   2.289
    1C        C  670   2.648   4.044   2.286
    1C        C  671   2.554   3.849   2.410
    1C        C  672   2.578   3.918   2.530
    1C        C  673   2.519   3.719   2.655
    1C        C  674   2.556   3.855   2.655
    1C        C  675   2.512   3.649   2.778
    1C        C  676   2.528   3.719   2.899
    1C        C  677   2.507   3.513   3.027
    1C        C  678   2.516   3.654   3.024
    1C        C  679   2.506   3.441   3.149
    1C        C  680   2.508   3.514   3.270
    1C        C  681   2.533   3.305   3.399
    1C        C  682   2.510   3.445   3.393
    1C        C  683   2.554   3.240   3.522
    1C        C  684   2.532   3.311   3.642
    1C        C  685   2.606   3.113   3.769
    1C        C  686   2.547   3.242   3.765
    1C        C  687   2.635   3.050   3.892
    1C        C  688   2.604   3.117   4.012
    1C        C  689   2.711   2.933   4.136
    1C        C  690   2.638   3.054   4.134
    1C        C  691   2.750   2.876   4.259
    1C        C  692   2.713   2.937   4.380
    1C        C  693   2.757   2.879   4.501
    1C        C  694   2.637   3.888   2.056
    1C        C  695   2.522   3.708   2.172
    1C        C  696   2.579   3.837   2.173
    1C        C  697   2.513   3.637   2.294
    1C        C  698   2.521   3.712   2.413
    1C        C  699   2.487   3.505   2.540
    1C        C  700   2.501   3.645   2.536
    1C        C  701   2.500   3.436   2.663
    1C        C  702   2.505   3.508   2.784
    1C        C  703   2.528   3.299   2.909
    1C        C  704   2.507   3.439   2.907
    1C        C  705   2.545   3.231   3.031
    1C        C  706   2.531   3.302   3.152
    1C        C  707   2.599   3.105   3.279
    1C        C  708   2.549   3.237   3.276
    1C        C  709   2.635   3.044   3.400
    1C        C  710   2.606   3.109   3.522
    1C        C  711   2.713   2.931   3.647
    1C        C  712   2.634   3.048   3.647
    1C        C  713   2.758   2.877   3.769
    1C        C  714   2.710   2.930   3.891
    1C        C  715   2.753   2.876   4.014
    1C        C  716   2.442   3.502   2.065
    1C        C  717   2.482   3.636   2.058
    1C        C  718   2.463   3.421   2.181
    1C        C  719   2.487   3.497   2.298
    1C        C  720   2.510   3.288   2.421
    1C        C  721   2.492   3.428   2.421
    1C        C  722   2.535   3.224   2.545
    1C        C  723   2.523   3.297   2.665
    1C        C  724   2.586   3.094   2.789
    1C        C  725   2.543   3.228   2.787
    1C        C  726   2.617   3.032   2.912
    1C        C  727   2.591   3.097   3.035
    1C        C  728   2.707   2.921   3.155
    1C        C  729   2.628   3.039   3.158
    1C        C  730   2.752   2.869   3.279
    1C        C  731   2.713   2.926   3.402
    1C        C  732   2.754   2.871   3.525
    1C        C  733   2.493   3.200   2.065
    1C        C  734   2.485   3.279   2.181
    1C        C  735   2.582   3.087   2.303
    1C        C  736   2.517   3.213   2.302
    1C        C  737   2.613   3.024   2.426
    1C        C  738   2.591   3.094   2.546
    1C        C  739   2.701   2.913   2.668
    1C        C  740   2.623   3.030   2.668
    1C        C  741   2.737   2.854   2.792
    1C        C  742   2.699   2.917   2.912
    1C        C  743   2.747   2.863   3.033
    1C        C  744   2.553   3.075   2.067
    1C        C  745   2.683   2.898   2.183
    1C        C  746   2.611   3.019   2.182
    1C        C  747   2.729   2.843   2.304
    1C        C  748   2.681   2.900   2.424
    1C        C  749   2.736   2.853   2.545
    1C        C  750   2.733   2.837   2.067
    1C        C  751   3.647   2.284   2.001
    1C        O  752   3.654   2.169   2.050
    1C        O  753   3.696   2.289   1.870
    1C        C  754   4.629   3.060   1.974
    1C        O  755   4.617   3.035   1.851
    1C        O  756   4.764   3.082   2.006
    1C        C  757   4.476   4.224   1.992
    1C        O  758   4.544   4.307   2.059
    1C        O  759   4.442   4.266   1.863
    1C        C  760   3.582   4.665   1.942
    1C        O  761   3.596   4.785   1.978
    1C        O  762   3.576   4.640   1.805
    1C        C  763   2.876   4.511   1.963
    1C        O  764   2.914   4.514   1.843
    1C        O  765   2.783   4.610   1.995
    1C        C  766   2.327   3.481   1.974
    1C        O  767   2.333   3.458   1.850
    1C        O  768   2.196   3.514   2.013
    1C        C  769   4.699   3.591   5.046
    1C        O  770   4.682   3.588   5.171
    1C        O  771   4.814   3.531   4.995
    1C        C  772   4.276   4.450   5.036
    1C        O  773   4.309   4.394   5.144
    1C        O  774   4.356   4.560   5.004
    1C        C  775   4.153   2.492   5.044
    1C        O  776   4.224   2.410   4.980
    1C        O  777   4.214   2.518   5.167
    1C        C  778   2.894   4.542   5.053
    1C        O  779   2.823   4.640   5.017
    1C        O  780   2.893   4.527   5.192
    1C        C  781   2.477   3.031   5.067
    1C        O  782   2.385   2.960   5.019
    1C        O  783   2.499   2.999   5.201
    1C        C  784   2.406   4.001   5.039
    1C        O  785   2.287   3.985   4.999
    1C        O  786   2.423   3.968   5.174
    1C        C  787   2.947   2.416   2.010
    1C        O  788   2.943   2.405   1.885
    1C        O  789   2.870   2.320   2.075
    1C        C  790   3.191   2.369   5.055
    1C        O  791   3.155   2.253   5.021
    1C        O  792   3.183   2.390   5.193
    1C        H  793   4.290   3.030   5.051
    1C        H  794   4.215   2.790   5.072
    1C        H  795   4.509   3.124   5.055
    1C        H  796   4.521   3.368   5.066
    1C        H  797   4.500   3.792   5.047
    1C        H  798   4.471   4.016   5.037
    1C        H  799   4.256   4.155   5.042
    1C        H  800   4.025   4.529   5.027
    1C        H  801   3.824   4.586   5.035
    1C        H  802   3.588   4.634   5.038
    1C        H  803   3.402   4.481   5.037
    1C        H  804   3.168   4.465   5.050
    1C        H  805   3.882   2.501   5.068
    1C        H  806   3.671   2.476   5.081
    1C        H  807   3.013   2.589   5.071
    1C        H  808   3.447   2.411   5.059
    1C        H  809   2.894   2.762   5.076
    1C        H  810   2.662   2.849   5.053
    1C        H  811   2.487   3.281   5.066
    1C        H  812   2.578   3.505   5.060
    1C        H  813   2.460   3.715   5.052
    1C        H  814   2.620   4.156   5.049
    1C        H  815   2.727   4.348   5.035
    1C        H  816   2.675   2.845   1.977
    1C        H  817   2.838   2.685   1.974
    1C        H  818   3.207   2.438   1.985
    1C        H  819   3.436   2.453   1.976
    1C        H  820   3.850   2.503   1.977
    1C        H  821   4.091   2.561   1.985
    1C        H  822   4.232   2.735   1.968
    1C        H  823   4.422   2.875   1.982
    1C        H  824   4.551   3.312   1.964
    1C        H  825   4.503   3.519   1.957
    1C        H  826   4.530   3.744   1.956
    1C        H  827   3.812   4.554   1.960
    1C        H  828   3.946   4.347   1.950
    1C        H  829   4.163   4.254   1.948
    1C        H  830   4.483   3.962   1.954
    1C        H  831   2.685   3.808   2.003
    1C        H  832   2.727   4.059   1.963
    1C        H  833   2.715   4.308   1.968
    1C        H  834   3.379   4.463   1.945
    1C        H  835   3.153   4.410   1.947
    1C        H  836   2.575   3.032   1.972
    1C        H  837   2.419   3.213   1.989
    1C        H  838   2.462   3.694   1.970
    2V3OU   H29  839   2.804   3.544   0.835
    2V3OU   C27  840   2.778   3.498   0.933
    2V3OU   H27  841   2.714   3.569   0.992
    2V3OU   H28  842   2.724   3.400   0.921
    2V3OU   O11  843   2.907   3.480   0.993
    2V3OU   C15  844   2.917   3.400   1.104
    2V3OU   C13  845   3.046   3.373   1.156
    2V3OU   C14  846   3.074   3.262   1.237
    2V3OU   C16  847   2.966   3.184   1.278
    2V3OU    H6  848   2.989   3.105   1.350
    2V3OU   C12  849   3.214   3.229   1.268
    2V3OU    O2  850   3.243   3.118   1.319
    2V3OU   C10  851   3.326   3.312   1.222
    2V3OU    C8  852   3.458   3.267   1.228
    2V3OU   O10  853   3.486   3.149   1.290
    2V3OU   H26  854   3.406   3.123   1.339
    2V3OU    C6  855   3.562   3.344   1.168
    2V3OU    C5  856   3.537   3.462   1.099
    2V3OU    C4  857   3.700   3.289   1.155
    2V3OU    H4  858   3.717   3.229   1.249
    2V3OU    H5  859   3.705   3.226   1.062
    2V3OU    C2  860   3.813   3.392   1.151
    2V3OU    O6  861   3.810   3.468   1.272
    2V3OU   H21  862   3.765   3.551   1.251
    2V3OU    C3  863   3.776   3.492   1.040
    2V3OU    H2  864   3.859   3.567   1.037
    2V3OU    H3  865   3.774   3.435   0.944
    2V3OU   C25  866   3.947   3.322   1.130
    2V3OU    O7  867   3.997   3.300   1.020
    2V3OU   C26  868   4.029   3.286   1.253
    2V3OU   H22  869   4.058   3.380   1.307
    2V3OU   H23  870   4.118   3.225   1.223
    2V3OU    O8  871   3.955   3.206   1.342
    2V3OU   H24  872   3.918   3.262   1.412
    2V3OU    C1  873   3.644   3.562   1.066
    2V3OU    H1  874   3.620   3.619   0.972
    2V3OU    O3  875   3.667   3.651   1.175
    2V3OU   C19  876   3.622   3.786   1.163
    2V3OU    H9  877   3.520   3.807   1.119
    2V3OU    O4  878   3.716   3.848   1.078
    2V3OU   C20  879   3.847   3.873   1.128
    2V3OU   H10  880   3.897   3.778   1.163
    2V3OU   C24  881   3.609   3.857   1.298
    2V3OU   H16  882   3.545   3.798   1.367
    2V3OU   H17  883   3.560   3.956   1.279
    2V3OU   C23  884   3.749   3.874   1.358
    2V3OU   H15  885   3.788   3.768   1.373
    2V3OU    N1  886   3.735   3.954   1.478
    2V3OU   H19  887   3.802   3.929   1.548
    2V3OU   H20  888   3.646   3.930   1.516
    2V3OU   C21  889   3.844   3.949   1.260
    2V3OU   H11  890   3.949   3.930   1.300
    2V3OU    O5  891   3.825   4.090   1.271
    2V3OU   H18  892   3.773   4.103   1.351
    2V3OU   C22  893   3.912   3.947   1.012
    2V3OU   H12  894   3.859   4.044   0.994
    2V3OU   H13  895   3.904   3.886   0.918
    2V3OU   H14  896   4.023   3.957   1.027
    2V3OU   C11  897   3.155   3.468   1.131
    2V3OU    O1  898   3.134   3.587   1.098
    2V3OU    C9  899   3.297   3.432   1.151
    2V3OU    C7  900   3.401   3.505   1.093
    2V3OU    O9  901   3.388   3.607   1.001
    2V3OU   H25  902   3.292   3.624   1.003
    2V3OU   C17  903   2.812   3.321   1.155
    2V3OU    H7  904   2.710   3.349   1.127
    2V3OU   C18  905   2.836   3.214   1.240
    2V3OU    H8  906   2.747   3.149   1.238
    3SOL     OW  907   0.375   4.577   0.751
    3SOL    HW1  908   0.355   4.535   0.840
    3SOL    HW2  909   0.348   4.515   0.678
    4SOL     OW  910   5.797   0.787   2.265
    4SOL    HW1  911   5.798   0.700   2.216
    4SOL    HW2  912   5.812   0.770   2.362
    5SOL     OW  913   3.625   2.967   1.171
    5SOL    HW1  914   3.591   3.056   1.201
    5SOL    HW2  915   3.658   2.915   1.250
    6SOL     OW  916   3.231   2.340   0.459
    6SOL    HW1  917   3.183   2.355   0.372
    6SOL    HW2  918   3.169   2.360   0.534
    7SOL     OW  919   5.478   0.633   1.955
    7SOL    HW1  920   5.402   0.696   1.938
    7SOL    HW2  921   5.472   0.556   1.892
    8SOL     OW  922   3.458   2.090   3.517
    8SOL    HW1  923   3.554   2.117   3.517
    8SOL    HW2  924   3.418   2.109   3.427
    9SOL     OW  925   6.305   4.357   6.215
    9SOL    HW1  926   6.272   4.415   6.140
    9SOL    HW2  927   6.342   4.414   6.288
   10SOL     OW  928   0.037   4.688   1.439
   10SOL    HW1  929   0.109   4.624   1.414
   10SOL    HW2  930   0.051   4.720   1.532
   11SOL     OW  931   3.848   6.722   6.820
   11SOL    HW1  932   3.856   6.625   6.796
   11SOL    HW2  933   3.883   6.778   6.744
   12SOL     OW  934   5.643   6.956   2.068
   12SOL    HW1  935   5.636   6.889   1.994
   12SOL    HW2  936   5.635   0.029   2.031
   13SOL     OW  937   2.126   0.155   2.718
   13SOL    HW1  938   2.098   0.236   2.667
   13SOL    HW2  939   2.045   0.110   2.755
   14SOL     OW  940   2.878   0.274   3.272
   14SOL    HW1  941   2.782   0.247   3.279
   14SOL    HW2  942   2.893   0.318   3.184
   15SOL     OW  943   2.617   6.417   6.119
   15SOL    HW1  944   2.656   6.325   6.117
   15SOL    HW2  945   2.579   6.439   6.029
   16SOL     OW  946   6.639   2.528   0.127
   16SOL    HW1  947   6.707   2.498   0.194
   16SOL    HW2  948   6.548   2.507   0.161
   17SOL     OW  949   4.033   5.731   3.056
   17SOL    HW1  950   3.950   5.762   3.010
   17SOL    HW2  951   4.088   5.676   2.993
   18SOL     OW  952   1.383   0.756   6.705
   18SOL    HW1  953   1.355   0.828   6.642
   18SOL    HW2  954   1.369   0.666   6.662
   19SOL     OW  955   0.881   6.986   1.447
   19SOL    HW1  956   0.876   6.887   1.433
   19SOL    HW2  957   0.859   0.014   1.362
   20SOL     OW  958   3.547   0.382   4.448
   20SOL    HW1  959   3.490   0.377   4.365
   20SOL    HW2  960   3.608   0.460   4.441
   21SOL     OW  961   3.067   3.235   1.624
   21SOL    HW1  962   3.030   3.142   1.616
   21SOL    HW2  963   3.167   3.232   1.616
   22SOL     OW  964   1.364   1.355   5.334
   22SOL    HW1  965   1.288   1.291   5.331
   22SOL    HW2  966   1.332   1.443   5.369
   23SOL     OW  967   2.683   6.271   4.897
   23SOL    HW1  968   2.695   6.303   4.991
   23SOL    HW2  969   2.637   6.182   4.898
   24SOL     OW  970   4.427   1.591   5.098
   24SOL    HW1  971   4.504   1.606   5.037
   24SOL    HW2  972   4.391   1.680   5.127
   25SOL     OW  973   2.445   5.840   0.928
   25SOL    HW1  974   2.394   5.829   1.014
   25SOL    HW2  975   2.388   5.887   0.861
   26SOL     OW  976   5.533   1.011   2.884
   26SOL    HW1  977   5.587   1.051   2.959
   26SOL    HW2  978   5.595   0.979   2.812
   27SOL     OW  979   5.944   0.122   2.759
   27SOL    HW1  980   5.864   0.117   2.819
   27SOL    HW2  981   5.917   0.095   2.666
   28SOL     OW  982   2.731   1.332   6.988
   28SOL    HW1  983   2.801   1.395   0.002
   28SOL    HW2  984   2.764   1.238   6.999
   29SOL     OW  985   4.818   3.072   1.690
   29SOL    HW1  986   4.741   3.040   1.745
   29SOL    HW2  987   4.887   3.000   1.684
   30SOL     OW  988   4.095   1.518   5.982
   30SOL    HW1  989   4.106   1.552   5.889
   30SOL    HW2  990   4.148   1.576   6.044
   31SOL     OW  991   0.734   1.738   5.359
   31SOL    HW1  992   0.655   1.696   5.405
   31SOL    HW2  993   0.791   1.785   5.426
   32SOL     OW  994   6.545   2.073   2.129
   32SOL    HW1  995   6.520   2.096   2.223
   32SOL    HW2  996   6.563   2.156   2.077
   33SOL     OW  997   1.639   1.385   4.872
   33SOL    HW1  998   1.724   1.381   4.925
   33SOL    HW2  999   1.596   1.295   4.871
   34SOL     OW 1000   0.941   1.058   4.694
   34SOL    HW1 1001   0.892   1.137   4.656
   34SOL    HW2 1002   1.036   1.084   4.712
   35SOL     OW 1003   4.579   2.330   6.489
   35SOL    HW1 1004   4.495   2.282   6.465
   35SOL    HW2 1005   4.627   2.280   6.561
   36SOL     OW 1006   0.930   2.111   5.672
   36SOL    HW1 1007   0.905   2.054   5.750
   36SOL    HW2 1008   0.884   2.200   5.679
   37SOL     OW 1009   3.261   6.687   1.918
   37SOL    HW1 1010   3.282   6.773   1.870
   37SOL    HW2 1011   3.163   6.682   1.937
   38SOL     OW 1012   6.986   5.851   1.848
   38SOL    HW1 1013   0.031   5.891   1.783
   38SOL    HW2 1014   0.018   5.805   1.921
   39SOL     OW 1015   6.896   2.501   6.438
   39SOL    HW1 1016   6.845   2.490   6.523
   39SOL    HW2 1017   6.940   2.591   6.436
   40SOL     OW 1018   0.184   1.154   1.601
   40SOL    HW1 1019   0.118   1.123   1.533
   40SOL    HW2 1020   0.142   1.152   1.692
   41SOL     OW 1021   1.159   0.725   5.927
   41SOL    HW1 1022   1.218   0.772   5.861
   41SOL    HW2 1023   1.187   0.751   6.020
   42SOL     OW 1024   3.678   0.134   0.317
   42SOL    HW1 1025   3.749   0.066   0.304
   42SOL    HW2 1026   3.593   0.103   0.275
   43SOL     OW 1027   4.402   5.521   5.258
   43SOL    HW1 1028   4.383   5.473   5.172
   43SOL    HW2 1029   4.358   5.610   5.257
   44SOL     OW 1030   1.296   4.114   0.160
   44SOL    HW1 1031   1.387   4.140   0.128
   44SOL    HW2 1032   1.261   4.185   0.221
   45SOL     OW 1033   2.129   0.217   1.491
   45SOL    HW1 1034   2.094   0.246   1.580
   45SOL    HW2 1035   2.055   0.181   1.436
   46SOL     OW 1036   0.939   5.564   3.502
   46SOL    HW1 1037   0.980   5.533   3.588
   46SOL    HW2 1038   0.982   5.518   3.425
   47SOL     OW 1039   5.845   4.296   3.055
   47SOL    HW1 1040   5.812   4.239   2.980
   47SOL    HW2 1041   5.783   4.288   3.133
   48SOL     OW 1042   0.673   1.261   5.643
   48SOL    HW1 1043   0.766   1.272   5.607
   48SOL    HW2 1044   0.676   1.260   5.743
   49SOL     OW 1045   5.774   3.338   0.221
   49SOL    HW1 1046   5.760   3.312   0.316
   49SOL    HW2 1047   5.834   3.418   0.216
   50SOL     OW 1048   0.671   3.858   4.605
   50SOL    HW1 1049   0.626   3.930   4.657
   50SOL    HW2 1050   0.691   3.890   4.513
   51SOL     OW 1051   3.355   5.868   2.115
   51SOL    HW1 1052   3.323   5.961   2.132
   51SOL    HW2 1053   3.302   5.828   2.040
   52SOL     OW 1054   0.384   2.345   1.900
   52SOL    HW1 1055   0.290   2.314   1.916
   52SOL    HW2 1056   0.448   2.273   1.926
   53SOL     OW 1057   4.644   6.749   3.561
   53SOL    HW1 1058   4.588   6.822   3.600
   53SOL    HW2 1059   4.735   6.752   3.601
   54SOL     OW 1060   5.110   4.417   5.241
   54SOL    HW1 1061   5.036   4.384   5.182
   54SOL    HW2 1062   5.085   4.405   5.337
   55SOL     OW 1063   3.471   2.142   1.268
   55SOL    HW1 1064   3.570   2.153   1.256
   55SOL    HW2 1065   3.453   2.075   1.339
   56SOL     OW 1066   0.636   0.245   2.187
   56SOL    HW1 1067   0.558   0.184   2.172
   56SOL    HW2 1068   0.708   0.223   2.120
   57SOL     OW 1069   5.537   0.611   0.652
   57SOL    HW1 1070   5.520   0.698   0.697
   57SOL    HW2 1071   5.456   0.553   0.659
   58SOL     OW 1072   6.644   0.587   6.820
   58SOL    HW1 1073   6.665   0.618   6.913
   58SOL    HW2 1074   6.675   0.493   6.809
   59SOL     OW 1075   0.223   6.958   5.824
   59SOL    HW1 1076   0.246   0.036   5.824
   59SOL    HW2 1077   0.163   6.938   5.901
   60SOL     OW 1078   4.920   6.956   4.871
   60SOL    HW1 1079   5.007   7.000   4.894
   60SOL    HW2 1080   4.937   6.865   4.834
   61SOL     OW 1081   3.868   6.820   5.462
   61SOL    HW1 1082   3.893   6.915   5.443
   61SOL    HW2 1083   3.772   6.805   5.441
   62SOL     OW 1084   2.747   0.405   4.960
   62SOL    HW1 1085   2.753   0.426   5.057
   62SOL    HW2 1086   2.806   0.327   4.939
   63SOL     OW 1087   6.993   3.104   3.442
   63SOL    HW1 1088   6.909   3.084   3.492
   63SOL    HW2 1089   7.019   3.026   3.386
   64SOL     OW 1090   6.771   2.617   5.469
   64SOL    HW1 1091   6.819   2.591   5.553
   64SOL    HW2 1092   6.836   2.624   5.394
   65SOL     OW 1093   1.186   4.101   5.785
   65SOL    HW1 1094   1.088   4.118   5.785
   65SOL    HW2 1095   1.223   4.119   5.694
   66SOL     OW 1096   2.563   0.898   1.436
   66SOL    HW1 1097   2.475   0.888   1.388
   66SOL    HW2 1098   2.557   0.852   1.525
   67SOL     OW 1099   4.791   5.249   4.304
   67SOL    HW1 1100   4.729   5.285   4.373
   67SOL    HW2 1101   4.754   5.163   4.268
   68SOL     OW 1102   5.409   3.091   6.769
   68SOL    HW1 1103   5.420   3.049   6.858
   68SOL    HW2 1104   5.322   3.064   6.729
   69SOL     OW 1105   2.734   2.932   5.678
   69SOL    HW1 1106   2.741   3.026   5.646
   69SOL    HW2 1107   2.679   2.879   5.613
   70SOL     OW 1108   5.641   0.153   2.675
   70SOL    HW1 1109   5.601   0.198   2.755
   70SOL    HW2 1110   5.738   0.177   2.667
   71SOL     OW 1111   1.980   4.414   2.291
   71SOL    HW1 1112   1.988   4.377   2.384
   71SOL    HW2 1113   1.883   4.423   2.268
   72SOL     OW 1114   3.775   5.411   3.561
   72SOL    HW1 1115   3.766   5.325   3.511
   72SOL    HW2 1116   3.794   5.393   3.657
   73SOL     OW 1117   3.751   2.996   6.678
   73SOL    HW1 1118   3.726   3.071   6.739
   73SOL    HW2 1119   3.696   2.915   6.701
   74SOL     OW 1120   5.112   6.993   5.944
   74SOL    HW1 1121   5.021   6.984   5.904
   74SOL    HW2 1122   5.170   0.029   5.884
   75SOL     OW 1123   3.458   5.192   5.320
   75SOL    HW1 1124   3.441   5.098   5.349
   75SOL    HW2 1125   3.553   5.216   5.338
   76SOL     OW 1126   2.648   3.017   0.976
   76SOL    HW1 1127   2.589   3.096   0.967
   76SOL    HW2 1128   2.599   2.945   1.026
   77SOL     OW 1129   6.015   4.232   6.244
   77SOL    HW1 1130   6.048   4.296   6.314
   77SOL    HW2 1131   6.092   4.180   6.208
   78SOL     OW 1132   6.261   6.668   5.832
   78SOL    HW1 1133   6.280   6.682   5.734
   78SOL    HW2 1134   6.262   6.756   5.879
   79SOL     OW 1135   3.247   7.019   0.648
   79SOL    HW1 1136   3.211   0.081   0.603
   79SOL    HW2 1137   3.332   6.991   0.603
   80SOL     OW 1138   0.501   0.941   4.323
   80SOL    HW1 1139   0.501   0.848   4.360
   80SOL    HW2 1140   0.488   0.937   4.224
   81SOL     OW 1141   1.994   6.738   3.066
   81SOL    HW1 1142   1.963   6.675   2.994
   81SOL    HW2 1143   1.984   6.695   3.155
   82SOL     OW 1144   6.629   5.001   5.786
   82SOL    HW1 1145   6.573   4.928   5.825
   82SOL    HW2 1146   6.651   4.979   5.691
   83SOL     OW 1147   6.273   6.346   5.385
   83SOL    HW1 1148   6.191   6.316   5.338
   83SOL    HW2 1149   6.354   6.317   5.334
   84SOL     OW 1150   6.834   3.876   1.704
   84SOL    HW1 1151   6.922   3.851   1.664
   84SOL    HW2 1152   6.846   3.957   1.762
   85SOL     OW 1153   0.978   1.042   5.186
   85SOL    HW1 1154   0.953   1.125   5.136
   85SOL    HW2 1155   0.929   0.964   5.146
   86SOL     OW 1156   2.117   1.072   4.489
   86SOL    HW1 1157   2.168   1.158   4.490
   86SOL    HW2 1158   2.049   1.073   4.563
   87SOL     OW 1159   4.640   6.681   1.877
   87SOL    HW1 1160   4.652   6.768   1.830
   87SOL    HW2 1161   4.568   6.691   1.946
   88SOL     OW 1162   6.019   0.600   1.906
   88SOL    HW1 1163   6.035   0.515   1.957
   88SOL    HW2 1164   5.949   0.584   1.836
   89SOL     OW 1165   1.830   1.775   5.101
   89SOL    HW1 1166   1.778   1.848   5.057
   89SOL    HW2 1167   1.850   1.703   5.034
   90SOL     OW 1168   6.479   6.149   3.415
   90SOL    HW1 1169   6.476   6.179   3.320
   90SOL    HW2 1170   6.393   6.102   3.438
   91SOL     OW 1171   4.543   4.995   4.454
   91SOL    HW1 1172   4.603   5.007   4.375
   91SOL    HW2 1173   4.596   4.965   4.533
   92SOL     OW 1174   3.475   5.728   1.431
   92SOL    HW1 1175   3.482   5.788   1.351
   92SOL    HW2 1176   3.412   5.768   1.497
   93SOL     OW 1177   3.158   4.723   5.929
   93SOL    HW1 1178   3.162   4.633   5.885
   93SOL    HW2 1179   3.121   4.713   6.021
   94SOL     OW 1180   2.042   6.808   1.871
   94SOL    HW1 1181   2.123   6.865   1.886
   94SOL    HW2 1182   2.065   6.731   1.812
   95SOL     OW 1183   6.466   6.972   5.300
   95SOL    HW1 1184   6.555   6.926   5.297
   95SOL    HW2 1185   6.473   0.044   5.260
   96SOL     OW 1186   1.494   6.875   5.032
   96SOL    HW1 1187   1.472   6.968   5.003
   96SOL    HW2 1188   1.513   6.874   5.130
   97SOL     OW 1189   6.327   2.411   4.240
   97SOL    HW1 1190   6.272   2.381   4.318
   97SOL    HW2 1191   6.417   2.368   4.245
   98SOL     OW 1192   4.777   0.883   5.756
   98SOL    HW1 1193   4.748   0.830   5.676
   98SOL    HW2 1194   4.877   0.891   5.756
   99SOL     OW 1195   4.971   1.479   0.682
   99SOL    HW1 1196   5.056   1.430   0.701
   99SOL    HW2 1197   4.941   1.526   0.765
  100SOL     OW 1198   6.462   5.662   6.788
  100SOL    HW1 1199   6.454   5.676   6.887
  100SOL    HW2 1200   6.553   5.690   6.758
  101SOL     OW 1201   1.281   0.159   3.939
  101SOL    HW1 1202   1.202   0.210   3.974
  101SOL    HW2 1203   1.346   0.143   4.013
  102SOL     OW 1204   4.275   0.482   2.905
  102SOL    HW1 1205   4.237   0.574   2.906
  102SOL    HW2 1206   4.206   0.417   2.936
  103SOL     OW 1207   3.725   1.674   1.831
  103SOL    HW1 1208   3.772   1.686   1.743
  103SOL    HW2 1209   3.730   1.759   1.883
  104SOL     OW 1210   6.237   6.156   2.242
  104SOL    HW1 1211   6.302   6.226   2.210
  104SOL    HW2 1212   6.151   6.165   2.192
  105SOL     OW 1213   5.456   0.740   6.265
  105SOL    HW1 1214   5.386   0.710   6.199
  105SOL    HW2 1215   5.422   0.726   6.358
  106SOL     OW 1216   3.728   6.874   1.450
  106SOL    HW1 1217   3.769   6.783   1.457
  106SOL    HW2 1218   3.745   6.911   1.359
  107SOL     OW 1219   2.478   3.279   0.099
  107SOL    HW1 1220   2.466   3.195   0.047
  107SOL    HW2 1221   2.393   3.301   0.148
  108SOL     OW 1222   4.882   3.916   4.935
  108SOL    HW1 1223   4.881   3.840   4.870
  108SOL    HW2 1224   4.918   3.884   5.023
  109SOL     OW 1225   6.261   0.707   2.118
  109SOL    HW1 1226   6.176   0.748   2.086
  109SOL    HW2 1227   6.299   0.762   2.192
  110SOL     OW 1228   3.334   6.338   4.402
  110SOL    HW1 1229   3.318   6.241   4.419
  110SOL    HW2 1230   3.299   6.392   4.479
  111SOL     OW 1231   2.908   1.099   2.822
  111SOL    HW1 1232   2.960   1.029   2.869
  111SOL    HW2 1233   2.812   1.095   2.851
  112SOL     OW 1234   0.069   1.401   6.562
  112SOL    HW1 1235   0.022   1.390   6.649
  112SOL    HW2 1236   0.167   1.413   6.579
  113SOL     OW 1237   6.906   6.509   3.882
  113SOL    HW1 1238   6.881   6.446   3.955
  113SOL    HW2 1239   6.887   6.466   3.793
  114SOL     OW 1240   1.102   6.424   0.433
  114SOL    HW1 1241   1.074   6.391   0.343
  114SOL    HW2 1242   1.023   6.424   0.494
  115SOL     OW 1243   5.420   1.028   5.419
  115SOL    HW1 1244   5.449   0.966   5.346
  115SOL    HW2 1245   5.478   1.110   5.416
  116SOL     OW 1246   6.152   3.953   3.098
  116SOL    HW1 1247   6.213   3.898   3.041
  116SOL    HW2 1248   6.125   4.035   3.048
  117SOL     OW 1249   1.004   6.829   6.350
  117SOL    HW1 1250   1.012   6.846   6.252
  117SOL    HW2 1251   1.039   6.737   6.370
  118SOL     OW 1252   2.081   0.863   3.215
  118SOL    HW1 1253   2.063   0.775   3.171
  118SOL    HW2 1254   2.178   0.869   3.237
  119SOL     OW 1255   6.614   2.456   5.973
  119SOL    HW1 1256   6.635   2.359   5.989
  119SOL    HW2 1257   6.678   2.513   6.026
  120SOL     OW 1258   4.969   6.024   1.945
  120SOL    HW1 1259   4.886   6.054   1.991
  120SOL    HW2 1260   4.979   5.925   1.956
  121SOL     OW 1261   2.985   2.949   5.704
  121SOL    HW1 1262   3.024   2.890   5.633
  121SOL    HW2 1263   2.885   2.945   5.700
  122SOL     OW 1264   1.276   3.117   5.001
  122SOL    HW1 1265   1.216   3.197   4.996
  122SOL    HW2 1266   1.270   3.077   5.093
  123SOL     OW 1267   6.706   2.011   1.614
  123SOL    HW1 1268   6.623   2.065   1.631
  123SOL    HW2 1269   6.716   1.942   1.686
  124SOL     OW 1270   4.985   3.748   1.321
  124SOL    HW1 1271   4.939   3.739   1.233
  124SOL    HW2 1272   4.935   3.811   1.380
  125SOL     OW 1273   2.394   3.475   1.604
  125SOL    HW1 1274   2.418   3.569   1.581
  125SOL    HW2 1275   2.358   3.472   1.697
  126SOL     OW 1276   3.970   4.193   0.442
  126SOL    HW1 1277   3.960   4.193   0.342
  126SOL    HW2 1278   3.949   4.284   0.477
  127SOL     OW 1279   0.859   5.600   5.767
  127SOL    HW1 1280   0.876   5.530   5.698
  127SOL    HW2 1281   0.767   5.589   5.804
  128SOL     OW 1282   4.516   2.370   0.544
  128SOL    HW1 1283   4.601   2.397   0.497
  128SOL    HW2 1284   4.474   2.450   0.586
  129SOL     OW 1285   2.796   3.761   0.391
  129SOL    HW1 1286   2.828   3.668   0.371
  129SOL    HW2 1287   2.781   3.771   0.489
  130SOL     OW 1288   1.753   2.328   4.911
  130SOL    HW1 1289   1.762   2.305   5.007
  130SOL    HW2 1290   1.665   2.373   4.895
  131SOL     OW 1291   5.893   1.073   2.255
  131SOL    HW1 1292   5.854   0.982   2.240
  131SOL    HW2 1293   5.896   1.123   2.169
  132SOL     OW 1294   0.543   2.453   2.320
  132SOL    HW1 1295   0.543   2.366   2.270
  132SOL    HW2 1296   0.559   2.528   2.255
  133SOL     OW 1297   6.859   6.014   2.817
  133SOL    HW1 1298   6.772   5.963   2.818
  133SOL    HW2 1299   6.879   6.041   2.723
  134SOL     OW 1300   1.197   3.523   2.873
  134SOL    HW1 1301   1.202   3.424   2.869
  134SOL    HW2 1302   1.175   3.551   2.967
  135SOL     OW 1303   4.608   1.087   4.016
  135SOL    HW1 1304   4.619   1.013   4.082
  135SOL    HW2 1305   4.545   1.058   3.944
  136SOL     OW 1306   5.046   4.873   5.929
  136SOL    HW1 1307   4.960   4.924   5.937
  136SOL    HW2 1308   5.027   4.781   5.894
  137SOL     OW 1309   3.681   0.831   5.504
  137SOL    HW1 1310   3.670   0.738   5.467
  137SOL    HW2 1311   3.779   0.850   5.515
  138SOL     OW 1312   5.697   4.177   5.631
  138SOL    HW1 1313   5.710   4.212   5.723
  138SOL    HW2 1314   5.705   4.077   5.631
  139SOL     OW 1315   3.262   5.743   5.975
  139SOL    HW1 1316   3.269   5.650   6.012
  139SOL    HW2 1317   3.340   5.761   5.915
  140SOL     OW 1318   6.205   3.742   4.608
  140SOL    HW1 1319   6.302   3.741   4.582
  140SOL    HW2 1320   6.149   3.732   4.526
  141SOL     OW 1321   1.285   1.958   2.304
  141SOL    HW1 1322   1.334   1.978   2.389
  141SOL    HW2 1323   1.318   1.872   2.266
  142SOL     OW 1324   1.573   5.452   1.103
  142SOL    HW1 1325   1.641   5.444   1.029
  142SOL    HW2 1326   1.590   5.380   1.171
  143SOL     OW 1327   5.009   4.217   2.149
  143SOL    HW1 1328   5.057   4.129   2.151
  143SOL    HW2 1329   4.919   4.207   2.191
  144SOL     OW 1330   2.660   6.745   1.034
  144SOL    HW1 1331   2.659   6.715   0.939
  144SOL    HW2 1332   2.723   6.687   1.086
  145SOL     OW 1333   6.768   5.577   0.691
  145SOL    HW1 1334   6.677   5.579   0.731
  145SOL    HW2 1335   6.766   5.525   0.606
  146SOL     OW 1336   6.752   4.723   0.582
  146SOL    HW1 1337   6.743   4.709   0.484
  146SOL    HW2 1338   6.842   4.764   0.601
  147SOL     OW 1339   5.772   2.632   0.916
  147SOL    HW1 1340   5.723   2.636   0.829
  147SOL    HW2 1341   5.870   2.619   0.898
  148SOL     OW 1342   0.985   5.518   5.311
  148SOL    HW1 1343   1.054   5.455   5.346
  148SOL    HW2 1344   1.001   5.610   5.348
  149SOL     OW 1345   3.003   0.979   6.079
  149SOL    HW1 1346   3.000   0.902   6.142
  149SOL    HW2 1347   3.084   1.035   6.098
  150SOL     OW 1348   0.024   6.038   4.881
  150SOL    HW1 1349   6.997   5.950   4.870
  150SOL    HW2 1350   6.977   6.113   4.873
  151SOL     OW 1351   4.455   0.706   2.062
  151SOL    HW1 1352   4.454   0.650   1.980
  151SOL    HW2 1353   4.473   0.648   2.142
  152SOL     OW 1354   2.699   0.736   4.676
  152SOL    HW1 1355   2.685   0.638   4.658
  152SOL    HW2 1356   2.716   0.750   4.773
  153SOL     OW 1357   0.979   0.238   2.752
  153SOL    HW1 1358   0.944   0.289   2.830
  153SOL    HW2 1359   0.999   0.144   2.780
  154SOL     OW 1360   0.284   2.130   3.046
  154SOL    HW1 1361   0.375   2.142   3.086
  154SOL    HW2 1362   0.281   2.173   2.956
  155SOL     OW 1363   0.186   1.325   3.261
  155SOL    HW1 1364   0.121   1.256   3.294
  155SOL    HW2 1365   0.187   1.325   3.161
  156SOL     OW 1366   6.961   2.401   1.561
  156SOL    HW1 1367   6.935   2.495   1.539
  156SOL    HW2 1368   6.956   2.345   1.478
  157SOL     OW 1369   0.025   2.474   2.542
  157SOL    HW1 1370   0.102   2.420   2.507
  157SOL    HW2 1371   7.012   2.434   2.628
  158SOL     OW 1372   1.920   1.748   3.773
  158SOL    HW1 1373   1.867   1.802   3.707
  158SOL    HW2 1374   1.903   1.783   3.865
  159SOL     OW 1375   5.164   3.373   1.933
  159SOL    HW1 1376   5.071   3.356   1.967
  159SOL    HW2 1377   5.230   3.325   1.990
  160SOL     OW 1378   5.960   4.625   6.541
  160SOL    HW1 1379   6.045   4.603   6.590
  160SOL    HW2 1380   5.978   4.699   6.476
  161SOL     OW 1381   2.988   4.753   5.297
  161SOL    HW1 1382   2.960   4.671   5.248
  161SOL    HW2 1383   2.923   4.771   5.371
  162SOL     OW 1384   4.437   6.115   2.416
  162SOL    HW1 1385   4.370   6.051   2.379
  162SOL    HW2 1386   4.512   6.127   2.350
  163SOL     OW 1387   6.206   0.265   1.698
  163SOL    HW1 1388   6.239   0.209   1.774
  163SOL    HW2 1389   6.108   0.252   1.687
  164SOL     OW 1390   6.552   3.022   1.033
  164SOL    HW1 1391   6.631   3.081   1.016
  164SOL    HW2 1392   6.566   2.971   1.118
  165SOL     OW 1393   6.349   3.599   6.899
  165SOL    HW1 1394   6.448   3.610   6.903
  165SOL    HW2 1395   6.306   3.656   6.970
  166SOL     OW 1396   1.713   0.322   0.745
  166SOL    HW1 1397   1.718   0.230   0.784
  166SOL    HW2 1398   1.805   0.362   0.744
  167SOL     OW 1399   6.209   2.636   1.182
  167SOL    HW1 1400   6.133   2.582   1.217
  167SOL    HW2 1401   6.199   2.732   1.211
  168SOL     OW 1402   2.550   5.780   1.522
  168SOL    HW1 1403   2.537   5.863   1.469
  168SOL    HW2 1404   2.491   5.707   1.486
  169SOL     OW 1405   0.828   0.129   1.221
  169SOL    HW1 1406   0.835   0.104   1.124
  169SOL    HW2 1407   0.847   0.226   1.232
  170SOL     OW 1408   0.123   1.714   3.218
  170SOL    HW1 1409   0.035   1.693   3.175
  170SOL    HW2 1410   0.197   1.675   3.163
  171SOL     OW 1411   3.570   3.872   0.521
  171SOL    HW1 1412   3.513   3.878   0.603
  171SOL    HW2 1413   3.657   3.918   0.539
  172SOL     OW 1414   0.117   2.843   1.985
  172SOL    HW1 1415   0.199   2.899   1.970
  172SOL    HW2 1416   0.071   2.874   2.068
  173SOL     OW 1417   7.015   6.446   5.930
  173SOL    HW1 1418   6.938   6.432   5.992
  173SOL    HW2 1419   0.057   6.367   5.935
  174SOL     OW 1420   2.482   6.117   3.908
  174SOL    HW1 1421   2.444   6.196   3.861
  174SOL    HW2 1422   2.531   6.147   3.990
  175SOL     OW 1423   0.300   5.235   3.650
  175SOL    HW1 1424   0.202   5.213   3.652
  175SOL    HW2 1425   0.351   5.164   3.698
  176SOL     OW 1426   2.808   5.284   6.952
  176SOL    HW1 1427   2.805   5.375   6.910
  176SOL    HW2 1428   2.835   5.293   0.029
  177SOL     OW 1429   4.416   1.635   2.703
  177SOL    HW1 1430   4.409   1.546   2.747
  177SOL    HW2 1431   4.480   1.629   2.626
  178SOL     OW 1432   5.304   3.787   6.084
  178SOL    HW1 1433   5.245   3.801   6.005
  178SOL    HW2 1434   5.259   3.727   6.150
  179SOL     OW 1435   2.939   6.699   0.515
  179SOL    HW1 1436   2.873   6.670   0.446
  179SOL    HW2 1437   2.891   6.750   0.587
  180SOL     OW 1438   1.327   2.166   6.800
  180SOL    HW1 1439   1.384   2.087   6.780
  180SOL    HW2 1440   1.386   2.245   6.821
  181SOL     OW 1441   2.966   3.364   4.005
  181SOL    HW1 1442   3.029   3.425   4.053
  181SOL    HW2 1443   2.985   3.269   4.030
  182SOL     OW 1444   5.625   2.678   4.996
  182SOL    HW1 1445   5.545   2.630   5.032
  182SOL    HW2 1446   5.605   2.776   4.990
  183SOL     OW 1447   6.144   1.339   2.178
  183SOL    HW1 1448   6.174   1.388   2.260
  183SOL    HW2 1449   6.153   1.240   2.193
  184SOL     OW 1450   0.354   4.821   2.824
  184SOL    HW1 1451   0.373   4.819   2.922
  184SOL    HW2 1452   0.427   4.775   2.774
  185SOL     OW 1453   2.987   3.903   5.913
  185SOL    HW1 1454   3.073   3.853   5.922
  185SOL    HW2 1455   2.927   3.855   5.850
  186SOL     OW 1456   6.376   6.505   3.389
  186SOL    HW1 1457   6.298   6.567   3.398
  186SOL    HW2 1458   6.352   6.430   3.328
  187SOL     OW 1459   5.269   0.196   4.371
  187SOL    HW1 1460   5.348   0.136   4.380
  187SOL    HW2 1461   5.197   0.165   4.433
  188SOL     OW 1462   6.409   2.045   4.875
  188SOL    HW1 1463   6.411   2.074   4.970
  188SOL    HW2 1464   6.501   2.048   4.837
  189SOL     OW 1465   1.840   4.660   3.258
  189SOL    HW1 1466   1.891   4.599   3.198
  189SOL    HW2 1467   1.835   4.752   3.218
  190SOL     OW 1468   3.617   0.978   6.777
  190SOL    HW1 1469   3.517   0.970   6.777
  190SOL    HW2 1470   3.644   1.053   6.716
  191SOL     OW 1471   5.298   5.847   6.393
  191SOL    HW1 1472   5.330   5.764   6.346
  191SOL    HW2 1473   5.278   5.825   6.488
  192SOL     OW 1474   5.996   0.674   0.067
  192SOL    HW1 1475   6.030   0.767   0.051
  192SOL    HW2 1476   6.071   0.609   0.059
  193SOL     OW 1477   6.309   4.129   6.831
  193SOL    HW1 1478   6.294   4.181   6.915
  193SOL    HW2 1479   6.355   4.043   6.853
  194SOL     OW 1480   4.325   0.150   4.743
  194SOL    HW1 1481   4.313   0.212   4.666
  194SOL    HW2 1482   4.422   0.130   4.756
  195SOL     OW 1483   0.130   5.633   3.156
  195SOL    HW1 1484   0.047   5.678   3.125
  195SOL    HW2 1485   0.209   5.691   3.135
  196SOL     OW 1486   0.916   1.028   1.016
  196SOL    HW1 1487   0.844   0.959   1.027
  196SOL    HW2 1488   0.898   1.084   0.936
  197SOL     OW 1489   1.909   0.908   0.861
  197SOL    HW1 1490   1.898   0.833   0.926
  197SOL    HW2 1491   1.870   0.881   0.773
  198SOL     OW 1492   2.794   1.198   4.403
  198SOL    HW1 1493   2.797   1.263   4.479
  198SOL    HW2 1494   2.742   1.117   4.431
  199SOL     OW 1495   1.270   1.136   4.414
  199SOL    HW1 1496   1.325   1.189   4.478
  199SOL    HW2 1497   1.243   1.194   4.337
  200SOL     OW 1498   6.463   1.987   0.502
  200SOL    HW1 1499   6.388   2.053   0.502
  200SOL    HW2 1500   6.525   2.008   0.578
  201SOL     OW 1501   0.294   1.522   6.145
  201SOL    HW1 1502   0.355   1.599   6.124
  201SOL    HW2 1503   0.230   1.549   6.217
  202SOL     OW 1504   5.323   6.902   0.119
  202SOL    HW1 1505   5.300   6.823   0.062
  202SOL    HW2 1506   5.374   6.968   0.064
  203SOL     OW 1507   6.748   3.212   6.999
  203SOL    HW1 1508   6.764   3.196   0.077
  203SOL    HW2 1509   6.692   3.293   6.988
  204SOL     OW 1510   6.672   0.852   5.382
  204SOL    HW1 1511   6.656   0.775   5.444
  204SOL    HW2 1512   6.639   0.827   5.290
  205SOL     OW 1513   2.185   4.472   3.226
  205SOL    HW1 1514   2.277   4.502   3.250
  205SOL    HW2 1515   2.174   4.375   3.249
  206SOL     OW 1516   0.526   4.073   1.059
  206SOL    HW1 1517   0.567   4.160   1.088
  206SOL    HW2 1518   0.491   4.082   0.966
  207SOL     OW 1519   6.470   2.706   4.746
  207SOL    HW1 1520   6.510   2.679   4.658
  207SOL    HW2 1521   6.379   2.743   4.731
  208SOL     OW 1522   1.480   2.909   4.893
  208SOL    HW1 1523   1.531   2.848   4.953
  208SOL    HW2 1524   1.422   2.970   4.947
  209SOL     OW 1525   6.246   4.080   2.494
  209SOL    HW1 1526   6.183   4.002   2.497
  209SOL    HW2 1527   6.251   4.115   2.401
  210SOL     OW 1528   4.809   3.616   1.112
  210SOL    HW1 1529   4.728   3.561   1.092
  210SOL    HW2 1530   4.885   3.584   1.056
  211SOL     OW 1531   1.305   1.089   1.567
  211SOL    HW1 1532   1.226   1.121   1.620
  211SOL    HW2 1533   1.389   1.116   1.614
  212SOL     OW 1534   2.457   3.719   1.479
  212SOL    HW1 1535   2.411   3.698   1.392
  212SOL    HW2 1536   2.417   3.802   1.518
  213SOL     OW 1537   1.137   5.184   1.294
  213SOL    HW1 1538   1.168   5.089   1.295
  213SOL    HW2 1539   1.061   5.194   1.230
  214SOL     OW 1540   5.601   6.606   2.462
  214SOL    HW1 1541   5.654   6.555   2.394
  214SOL    HW2 1542   5.606   6.704   2.442
  215SOL     OW 1543   2.331   4.864   2.604
  215SOL    HW1 1544   2.353   4.822   2.516
  215SOL    HW2 1545   2.251   4.923   2.593
  216SOL     OW 1546   1.715   6.120   3.244
  216SOL    HW1 1547   1.682   6.198   3.297
  216SOL    HW2 1548   1.740   6.149   3.152
  217SOL     OW 1549   6.921   5.353   5.125
  217SOL    HW1 1550   6.948   5.430   5.068
  217SOL    HW2 1551   6.996   5.329   5.187
  218SOL     OW 1552   2.789   2.280   5.523
  218SOL    HW1 1553   2.831   2.344   5.459
  218SOL    HW2 1554   2.816   2.187   5.501
  219SOL     OW 1555   5.143   2.295   1.351
  219SOL    HW1 1556   5.150   2.327   1.257
  219SOL    HW2 1557   5.234   2.293   1.393
  220SOL     OW 1558   2.644   6.363   0.707
  220SOL    HW1 1559   2.565   6.395   0.654
  220SOL    HW2 1560   2.723   6.352   0.647
  221SOL     OW 1561   4.893   4.550   2.064
  221SOL    HW1 1562   4.924   4.516   1.976
  221SOL    HW2 1563   4.826   4.623   2.051
  222SOL     OW 1564   1.687   3.907   6.611
  222SOL    HW1 1565   1.640   3.944   6.531
  222SOL    HW2 1566   1.717   3.813   6.591
  223SOL     OW 1567   6.656   1.982   4.748
  223SOL    HW1 1568   6.704   2.019   4.668
  223SOL    HW2 1569   6.703   2.013   4.831
  224SOL     OW 1570   3.422   2.446   5.765
  224SOL    HW1 1571   3.479   2.364   5.771
  224SOL    HW2 1572   3.469   2.523   5.808
  225SOL     OW 1573   4.163   5.947   7.004
  225SOL    HW1 1574   4.247   5.984   0.024
  225SOL    HW2 1575   4.184   5.864   6.953
  226SOL     OW 1576   1.719   2.069   0.766
  226SOL    HW1 1577   1.746   1.973   0.756
  226SOL    HW2 1578   1.768   2.124   0.698
  227SOL     OW 1579   1.708   3.964   0.903
  227SOL    HW1 1580   1.749   4.036   0.959
  227SOL    HW2 1581   1.681   3.888   0.962
  228SOL     OW 1582   0.804   0.433   2.594
  228SOL    HW1 1583   0.817   0.441   2.495
  228SOL    HW2 1584   0.844   0.347   2.625
  229SOL     OW 1585   4.072   0.737   6.294
  229SOL    HW1 1586   4.023   0.803   6.237
  229SOL    HW2 1587   4.018   0.716   6.375
  230SOL     OW 1588   5.768   4.272   5.852
  230SOL    HW1 1589   5.832   4.343   5.881
  230SOL    HW2 1590   5.739   4.219   5.931
  231SOL     OW 1591   5.180   0.946   0.172
  231SOL    HW1 1592   5.262   1.000   0.190
  231SOL    HW2 1593   5.102   1.008   0.161
  232SOL     OW 1594   1.074   2.196   5.315
  232SOL    HW1 1595   0.975   2.192   5.301
  232SOL    HW2 1596   1.117   2.118   5.271
  233SOL     OW 1597   3.333   1.357   3.713
  233SOL    HW1 1598   3.302   1.401   3.629
  233SOL    HW2 1599   3.321   1.258   3.705
  234SOL     OW 1600   5.529   0.018   0.347
  234SOL    HW1 1601   5.482   6.966   0.399
  234SOL    HW2 1602   5.481   0.034   0.261
  235SOL     OW 1603   5.308   3.268   2.127
  235SOL    HW1 1604   5.250   3.273   2.208
  235SOL    HW2 1605   5.392   3.218   2.149
  236SOL     OW 1606   3.733   2.861   6.105
  236SOL    HW1 1607   3.705   2.941   6.157
  236SOL    HW2 1608   3.772   2.793   6.167
  237SOL     OW 1609   6.037   3.450   2.849
  237SOL    HW1 1610   6.113   3.496   2.896
  237SOL    HW2 1611   6.048   3.351   2.859
  238SOL     OW 1612   6.279   1.617   0.318
  238SOL    HW1 1613   6.290   1.628   0.417
  238SOL    HW2 1614   6.305   1.702   0.272
  239SOL     OW 1615   1.440   3.442   0.571
  239SOL    HW1 1616   1.423   3.514   0.503
  239SOL    HW2 1617   1.352   3.406   0.602
  240SOL     OW 1618   5.389   3.412   4.010
  240SOL    HW1 1619   5.314   3.475   4.032
  240SOL    HW2 1620   5.354   3.318   4.014
  241SOL     OW 1621   2.111   2.421   3.963
  241SOL    HW1 1622   2.210   2.418   3.949
  241SOL    HW2 1623   2.080   2.516   3.957
  242SOL     OW 1624   3.822   3.421   2.060
  242SOL    HW1 1625   3.794   3.345   2.119
  242SOL    HW2 1626   3.842   3.501   2.117
  243SOL     OW 1627   3.964   2.731   6.248
  243SOL    HW1 1628   4.045   2.746   6.305
  243SOL    HW2 1629   3.990   2.733   6.152
  244SOL     OW 1630   4.973   3.304   4.850
  244SOL    HW1 1631   4.940   3.212   4.827
  244SOL    HW2 1632   4.909   3.346   4.915
  245SOL     OW 1633   3.369   1.211   3.100
  245SOL    HW1 1634   3.302   1.189   3.170
  245SOL    HW2 1635   3.339   1.177   3.011
  246SOL     OW 1636   6.739   1.391   2.198
  246SOL    HW1 1637   6.814   1.325   2.195
  246SOL    HW2 1638   6.661   1.354   2.147
  247SOL     OW 1639   2.228   1.118   1.806
  247SOL    HW1 1640   2.215   1.102   1.903
  247SOL    HW2 1641   2.324   1.105   1.782
  248SOL     OW 1642   3.305   3.708   1.386
  248SOL    HW1 1643   3.326   3.717   1.289
  248SOL    HW2 1644   3.294   3.799   1.427
  249SOL     OW 1645   4.735   6.566   5.519
  249SOL    HW1 1646   4.821   6.558   5.468
  249SOL    HW2 1647   4.702   6.660   5.515
  250SOL     OW 1648   3.673   2.716   0.131
  250SOL    HW1 1649   3.695   2.779   0.206
  250SOL    HW2 1650   3.600   2.755   0.075
  251SOL     OW 1651   4.598   5.142   5.318
  251SOL    HW1 1652   4.678   5.112   5.370
  251SOL    HW2 1653   4.560   5.224   5.360
  252SOL     OW 1654   6.658   6.128   5.018
  252SOL    HW1 1655   6.598   6.063   4.972
  252SOL    HW2 1656   6.617   6.155   5.106
  253SOL     OW 1657   4.226   5.988   6.260
  253SOL    HW1 1658   4.218   5.910   6.321
  253SOL    HW2 1659   4.305   5.975   6.200
  254SOL     OW 1660   6.258   2.088   5.395
  254SOL    HW1 1661   6.247   2.126   5.303
  254SOL    HW2 1662   6.355   2.077   5.415
  255SOL     OW 1663   1.352   4.405   6.570
  255SOL    HW1 1664   1.364   4.306   6.565
  255SOL    HW2 1665   1.376   4.447   6.483
  256SOL     OW 1666   4.718   2.517   5.317
  256SOL    HW1 1667   4.650   2.475   5.257
  256SOL    HW2 1668   4.788   2.449   5.341
  257SOL     OW 1669   4.848   6.406   2.267
  257SOL    HW1 1670   4.754   6.404   2.232
  257SOL    HW2 1671   4.895   6.322   2.242
  258SOL     OW 1672   2.119   3.487   5.671
  258SOL    HW1 1673   2.047   3.418   5.664
  258SOL    HW2 1674   2.203   3.445   5.703
  259SOL     OW 1675   3.161   0.209   3.817
  259SOL    HW1 1676   3.241   0.155   3.794
  259SOL    HW2 1677   3.115   0.169   3.896
  260SOL     OW 1678   3.780   5.523   3.132
  260SOL    HW1 1679   3.723   5.605   3.125
  260SOL    HW2 1680   3.770   5.469   3.049
  261SOL     OW 1681   4.017   4.896   6.984
  261SOL    HW1 1682   4.096   4.942   6.944
  261SOL    HW2 1683   4.047   4.839   0.042
  262SOL     OW 1684   0.950   3.553   6.635
  262SOL    HW1 1685   0.980   3.635   6.586
  262SOL    HW2 1686   1.000   3.545   6.721
  263SOL     OW 1687   1.491   0.020   3.797
  263SOL    HW1 1688   1.423   0.063   3.856
  263SOL    HW2 1689   1.505   0.076   3.716
  264SOL     OW 1690   6.420   2.936   6.471
  264SOL    HW1 1691   6.380   3.016   6.515
  264SOL    HW2 1692   6.466   2.964   6.387
  265SOL     OW 1693   6.910   0.024   3.299
  265SOL    HW1 1694   6.837   0.059   3.358
  265SOL    HW2 1695   6.964   0.101   3.264
  266SOL     OW 1696   3.643   0.955   6.202
  266SOL    HW1 1697   3.662   0.861   6.232
  266SOL    HW2 1698   3.696   1.019   6.257
  267SOL     OW 1699   2.332   0.071   2.856
  267SOL    HW1 1700   2.266   0.120   2.799
  267SOL    HW2 1701   2.422   0.073   2.813
  268SOL     OW 1702   3.541   2.239   0.763
  268SOL    HW1 1703   3.603   2.164   0.785
  268SOL    HW2 1704   3.517   2.287   0.848
  269SOL     OW 1705   5.178   1.840   0.059
  269SOL    HW1 1706   5.273   1.827   0.088
  269SOL    HW2 1707   5.130   1.893   0.129
  270SOL     OW 1708   5.424   1.090   0.468
  270SOL    HW1 1709   5.427   1.108   0.370
  270SOL    HW2 1710   5.353   1.146   0.510
  271SOL     OW 1711   0.523   4.061   6.171
  271SOL    HW1 1712   0.611   4.068   6.218
  271SOL    HW2 1713   0.456   4.119   6.217
  272SOL     OW 1714   2.941   6.060   3.154
  272SOL    HW1 1715   2.944   5.960   3.157
  272SOL    HW2 1716   2.846   6.091   3.154
  273SOL     OW 1717   1.738   5.603   6.065
  273SOL    HW1 1718   1.681   5.542   6.010
  273SOL    HW2 1719   1.822   5.626   6.016
  274SOL     OW 1720   4.349   2.330   3.968
  274SOL    HW1 1721   4.266   2.307   3.916
  274SOL    HW2 1722   4.327   2.335   4.065
  275SOL     OW 1723   5.794   6.921   1.741
  275SOL    HW1 1724   5.873   6.872   1.703
  275SOL    HW2 1725   5.732   6.947   1.666
  276SOL     OW 1726   0.789   6.944   4.564
  276SOL    HW1 1727   0.768   6.897   4.479
  276SOL    HW2 1728   0.724   6.917   4.635
  277SOL     OW 1729   1.937   4.697   1.477
  277SOL    HW1 1730   2.016   4.755   1.456
  277SOL    HW2 1731   1.969   4.609   1.512
  278SOL     OW 1732   0.348   2.660   3.024
  278SOL    HW1 1733   0.284   2.616   2.961
  278SOL    HW2 1734   0.407   2.591   3.066
  279SOL     OW 1735   6.364   1.201   3.178
  279SOL    HW1 1736   6.399   1.125   3.232
  279SOL    HW2 1737   6.270   1.220   3.205
  280SOL     OW 1738   1.723   5.223   2.824
  280SOL    HW1 1739   1.692   5.307   2.868
  280SOL    HW2 1740   1.750   5.241   2.730
  281SOL     OW 1741   2.415   4.137   1.315
  281SOL    HW1 1742   2.427   4.071   1.241
  281SOL    HW2 1743   2.337   4.109   1.371
  282SOL     OW 1744   2.033   1.489   5.445
  282SOL    HW1 1745   2.032   1.562   5.377
  282SOL    HW2 1746   2.112   1.430   5.429
  283SOL     OW 1747   3.363   2.957   6.104
  283SOL    HW1 1748   3.452   2.999   6.120
  283SOL    HW2 1749   3.336   2.973   6.009
  284SOL     OW 1750   0.247   3.720   3.778
  284SOL    HW1 1751   0.289   3.705   3.867
  284SOL    HW2 1752   0.175   3.653   3.763
  285SOL     OW 1753   5.505   4.370   4.219
  285SOL    HW1 1754   5.578   4.305   4.197
  285SOL    HW2 1755   5.422   4.320   4.244
  286SOL     OW 1756   2.899   4.194   1.094
  286SOL    HW1 1757   2.848   4.112   1.121
  286SOL    HW2 1758   2.840   4.253   1.039
  287SOL     OW 1759   1.052   2.951   6.966
  287SOL    HW1 1760   1.058   2.984   0.041
  287SOL    HW2 1761   1.008   3.021   6.909
  288SOL     OW 1762   5.101   3.231   1.517
  288SOL    HW1 1763   5.081   3.144   1.562
  288SOL    HW2 1764   5.199   3.250   1.523
  289SOL     OW 1765   3.888   5.459   6.859
  289SOL    HW1 1766   3.886   5.551   6.899
  289SOL    HW2 1767   3.952   5.402   6.911
  290SOL     OW 1768   1.957   1.108   4.711
  290SOL    HW1 1769   1.964   1.063   4.800
  290SOL    HW2 1770   1.932   1.204   4.724
  291SOL     OW 1771   6.617   1.867   3.186
  291SOL    HW1 1772   6.520   1.889   3.176
  291SOL    HW2 1773   6.631   1.770   3.167
  292SOL     OW 1774   3.557   0.198   4.005
  292SOL    HW1 1775   3.496   0.244   4.069
  292SOL    HW2 1776   3.581   0.108   4.041
  293SOL     OW 1777   3.032   5.224   3.683
  293SOL    HW1 1778   3.055   5.296   3.617
  293SOL    HW2 1779   3.018   5.138   3.634
  294SOL     OW 1780   5.037   0.266   0.485
  294SOL    HW1 1781   5.010   0.227   0.398
  294SOL    HW2 1782   5.016   0.202   0.559
  295SOL     OW 1783   5.760   0.405   4.296
  295SOL    HW1 1784   5.843   0.417   4.242
  295SOL    HW2 1785   5.701   0.484   4.283
  296SOL     OW 1786   2.646   2.007   3.088
  296SOL    HW1 1787   2.669   2.097   3.052
  296SOL    HW2 1788   2.716   1.941   3.060
  297SOL     OW 1789   1.946   5.139   2.189
  297SOL    HW1 1790   1.997   5.213   2.233
  297SOL    HW2 1791   2.010   5.074   2.148
  298SOL     OW 1792   6.491   5.114   0.753
  298SOL    HW1 1793   6.546   5.046   0.801
  298SOL    HW2 1794   6.499   5.202   0.800
  299SOL     OW 1795   6.071   2.295   3.888
  299SOL    HW1 1796   5.998   2.227   3.880
  299SOL    HW2 1797   6.040   2.369   3.947
  300SOL     OW 1798   6.053   6.840   1.930
  300SOL    HW1 1799   6.002   6.756   1.909
  300SOL    HW2 1800   6.084   6.881   1.845
  301SOL     OW 1801   4.872   2.847   5.490
  301SOL    HW1 1802   4.808   2.854   5.566
  301SOL    HW2 1803   4.963   2.827   5.525
  302SOL     OW 1804   1.339   5.426   4.347
  302SOL    HW1 1805   1.388   5.512   4.362
  302SOL    HW2 1806   1.405   5.354   4.325
  303SOL     OW 1807   5.797   0.177   3.858
  303SOL    HW1 1808   5.808   0.079   3.876
  303SOL    HW2 1809   5.746   0.190   3.773
  304SOL     OW 1810   3.590   0.602   3.693
  304SOL    HW1 1811   3.492   0.611   3.707
  304SOL    HW2 1812   3.629   0.547   3.767
  305SOL     OW 1813   1.433   5.214   0.818
  305SOL    HW1 1814   1.415   5.225   0.916
  305SOL    HW2 1815   1.369   5.148   0.779
  306SOL     OW 1816   1.941   1.233   3.458
  306SOL    HW1 1817   1.986   1.311   3.501
  306SOL    HW2 1818   1.929   1.252   3.360
  307SOL     OW 1819   3.525   0.507   1.564
  307SOL    HW1 1820   3.531   0.534   1.660
  307SOL    HW2 1821   3.526   0.589   1.507
  308SOL     OW 1822   0.754   5.005   3.830
  308SOL    HW1 1823   0.822   5.019   3.759
  308SOL    HW2 1824   0.795   5.020   3.920
  309SOL     OW 1825   3.722   4.713   5.450
  309SOL    HW1 1826   3.756   4.638   5.506
  309SOL    HW2 1827   3.623   4.721   5.462
  310SOL     OW 1828   1.488   6.081   6.377
  310SOL    HW1 1829   1.552   6.063   6.302
  310SOL    HW2 1830   1.514   6.027   6.457
  311SOL     OW 1831   0.242   0.898   1.379
  311SOL    HW1 1832   0.230   0.924   1.284
  311SOL    HW2 1833   0.300   0.966   1.425
  312SOL     OW 1834   3.860   1.687   5.621
  312SOL    HW1 1835   3.847   1.588   5.624
  312SOL    HW2 1836   3.956   1.709   5.640
  313SOL     OW 1837   0.176   4.866   1.238
  313SOL    HW1 1838   0.271   4.853   1.208
  313SOL    HW2 1839   0.147   4.788   1.293
  314SOL     OW 1840   3.466   5.840   2.341
  314SOL    HW1 1841   3.408   5.849   2.260
  314SOL    HW2 1842   3.558   5.871   2.319
  315SOL     OW 1843   0.769   3.650   2.728
  315SOL    HW1 1844   0.772   3.674   2.631
  315SOL    HW2 1845   0.716   3.566   2.740
  316SOL     OW 1846   2.191   3.057   4.298
  316SOL    HW1 1847   2.129   2.979   4.283
  316SOL    HW2 1848   2.229   3.051   4.391
  317SOL     OW 1849   6.574   1.497   0.356
  317SOL    HW1 1850   6.499   1.432   0.346
  317SOL    HW2 1851   6.594   1.509   0.453
  318SOL     OW 1852   2.818   3.923   1.127
  318SOL    HW1 1853   2.885   3.878   1.068
  318SOL    HW2 1854   2.787   3.859   1.197
  319SOL     OW 1855   0.958   0.520   6.124
  319SOL    HW1 1856   0.940   0.513   6.026
  319SOL    HW2 1857   0.879   0.563   6.169
  320SOL     OW 1858   5.411   3.329   1.323
  320SOL    HW1 1859   5.425   3.334   1.422
  320SOL    HW2 1860   5.329   3.275   1.304
  321SOL     OW 1861   2.180   1.358   2.289
  321SOL    HW1 1862   2.240   1.402   2.222
  321SOL    HW2 1863   2.170   1.417   2.369
  322SOL     OW 1864   3.375   2.865   5.276
  322SOL    HW1 1865   3.289   2.914   5.286
  322SOL    HW2 1866   3.361   2.768   5.293
  323SOL     OW 1867   1.461   4.252   1.578
  323SOL    HW1 1868   1.535   4.192   1.548
  323SOL    HW2 1869   1.496   4.346   1.584
  324SOL     OW 1870   0.064   2.789   3.985
  324SOL    HW1 1871   0.119   2.793   4.068
  324SOL    HW2 1872   6.995   2.835   4.001
  325SOL     OW 1873   1.732   2.179   2.760
  325SOL    HW1 1874   1.697   2.223   2.677
  325SOL    HW2 1875   1.762   2.086   2.738
  326SOL     OW 1876   1.823   4.151   4.637
  326SOL    HW1 1877   1.787   4.084   4.572
  326SOL    HW2 1878   1.804   4.122   4.730
  327SOL     OW 1879   6.413   3.494   6.387
  327SOL    HW1 1880   6.403   3.560   6.312
  327SOL    HW2 1881   6.416   3.542   6.474
  328SOL     OW 1882   3.566   5.715   3.141
  328SOL    HW1 1883   3.469   5.698   3.156
  328SOL    HW2 1884   3.599   5.784   3.206
  329SOL     OW 1885   3.599   4.030   2.094
  329SOL    HW1 1886   3.536   3.960   2.126
  329SOL    HW2 1887   3.691   4.010   2.127
  330SOL     OW 1888   2.441   2.207   1.713
  330SOL    HW1 1889   2.535   2.240   1.723
  330SOL    HW2 1890   2.404   2.237   1.625
  331SOL     OW 1891   6.398   4.206   5.689
  331SOL    HW1 1892   6.315   4.247   5.726
  331SOL    HW2 1893   6.451   4.165   5.764
  332SOL     OW 1894   3.897   1.695   3.755
  332SOL    HW1 1895   3.810   1.731   3.719
  332SOL    HW2 1896   3.970   1.716   3.690
  333SOL     OW 1897   4.643   6.403   0.956
  333SOL    HW1 1898   4.660   6.486   1.009
  333SOL    HW2 1899   4.639   6.425   0.859
  334SOL     OW 1900   4.795   6.394   2.761
  334SOL    HW1 1901   4.789   6.323   2.690
  334SOL    HW2 1902   4.721   6.460   2.749
  335SOL     OW 1903   3.284   0.420   2.424
  335SOL    HW1 1904   3.251   0.390   2.335
  335SOL    HW2 1905   3.340   0.348   2.465
  336SOL     OW 1906   4.192   0.630   4.697
  336SOL    HW1 1907   4.114   0.693   4.685
  336SOL    HW2 1908   4.166   0.558   4.761
  337SOL     OW 1909   1.297   4.293   2.275
  337SOL    HW1 1910   1.299   4.326   2.180
  337SOL    HW2 1911   1.297   4.193   2.276
  338SOL     OW 1912   2.158   2.363   1.315
  338SOL    HW1 1913   2.116   2.426   1.381
  338SOL    HW2 1914   2.092   2.291   1.292
  339SOL     OW 1915   4.360   1.033   3.243
  339SOL    HW1 1916   4.286   1.001   3.184
  339SOL    HW2 1917   4.361   1.133   3.243
  340SOL     OW 1918   5.442   3.352   4.567
  340SOL    HW1 1919   5.478   3.305   4.648
  340SOL    HW2 1920   5.382   3.427   4.596
  341SOL     OW 1921   4.684   4.277   5.826
  341SOL    HW1 1922   4.613   4.301   5.759
  341SOL    HW2 1923   4.643   4.223   5.900
  342SOL     OW 1924   6.032   3.717   0.733
  342SOL    HW1 1925   5.946   3.667   0.730
  342SOL    HW2 1926   6.025   3.792   0.799
  343SOL     OW 1927   2.504   0.446   2.605
  343SOL    HW1 1928   2.522   0.544   2.615
  343SOL    HW2 1929   2.407   0.428   2.625
  344SOL     OW 1930   3.388   0.028   0.170
  344SOL    HW1 1931   3.378   6.960   0.218
  344SOL    HW2 1932   3.404   0.012   0.073
  345SOL     OW 1933   1.211   1.182   4.838
  345SOL    HW1 1934   1.196   1.258   4.901
  345SOL    HW2 1935   1.244   1.102   4.889
  346SOL     OW 1936   2.626   0.866   5.409
  346SOL    HW1 1937   2.599   0.790   5.351
  346SOL    HW2 1938   2.590   0.853   5.501
  347SOL     OW 1939   5.126   6.044   5.743
  347SOL    HW1 1940   5.194   6.113   5.767
  347SOL    HW2 1941   5.044   6.057   5.800
  348SOL     OW 1942   2.965   6.626   3.378
  348SOL    HW1 1943   2.959   6.626   3.279
  348SOL    HW2 1944   2.993   6.535   3.410
  349SOL     OW 1945   2.290   5.394   2.278
  349SOL    HW1 1946   2.208   5.340   2.296
  349SOL    HW2 1947   2.334   5.418   2.364
  350SOL     OW 1948   4.837   3.326   1.374
  350SOL    HW1 1949   4.808   3.285   1.287
  350SOL    HW2 1950   4.898   3.262   1.422
  351SOL     OW 1951   3.202   1.910   0.535
  351SOL    HW1 1952   3.190   1.831   0.475
  351SOL    HW2 1953   3.299   1.934   0.540
  352SOL     OW 1954   3.138   2.072   6.314
  352SOL    HW1 1955   3.159   2.143   6.246
  352SOL    HW2 1956   3.041   2.051   6.312
  353SOL     OW 1957   2.057   6.897   1.447
  353SOL    HW1 1958   2.001   6.927   1.524
  353SOL    HW2 1959   2.154   6.901   1.473
  354SOL     OW 1960   4.866   0.183   2.197
  354SOL    HW1 1961   4.923   0.249   2.148
  354SOL    HW2 1962   4.917   0.099   2.210
  355SOL     OW 1963   0.727   1.331   2.151
  355SOL    HW1 1964   0.785   1.367   2.224
  355SOL    HW2 1965   0.636   1.370   2.159
  356SOL     OW 1966   3.148   6.918   3.028
  356SOL    HW1 1967   3.125   6.986   2.958
  356SOL    HW2 1968   3.239   6.937   3.063
  357SOL     OW 1969   1.078   5.081   4.705
  357SOL    HW1 1970   1.033   5.163   4.669
  357SOL    HW2 1971   1.177   5.091   4.698
  358SOL     OW 1972   4.913   0.894   3.226
  358SOL    HW1 1973   4.967   0.956   3.282
  358SOL    HW2 1974   4.815   0.910   3.243
  359SOL     OW 1975   0.307   1.438   0.670
  359SOL    HW1 1976   0.240   1.372   0.639
  359SOL    HW2 1977   0.352   1.480   0.592
  360SOL     OW 1978   5.167   0.075   6.892
  360SOL    HW1 1979   5.194   0.149   6.954
  360SOL    HW2 1980   5.211   0.089   6.803
  361SOL     OW 1981   2.730   0.695   2.329
  361SOL    HW1 1982   2.776   0.738   2.407
  361SOL    HW2 1983   2.739   0.596   2.335
  362SOL     OW 1984   2.988   3.913   0.656
  362SOL    HW1 1985   2.889   3.912   0.638
  362SOL    HW2 1986   3.033   3.849   0.594
  363SOL     OW 1987   4.906   4.480   3.852
  363SOL    HW1 1988   4.892   4.570   3.811
  363SOL    HW2 1989   4.962   4.424   3.791
  364SOL     OW 1990   2.788   5.639   6.557
  364SOL    HW1 1991   2.839   5.593   6.484
  364SOL    HW2 1992   2.695   5.659   6.527
  365SOL     OW 1993   4.971   6.513   3.023
  365SOL    HW1 1994   5.043   6.582   3.017
  365SOL    HW2 1995   5.001   6.429   2.978
  366SOL     OW 1996   5.246   1.304   0.077
  366SOL    HW1 1997   5.234   1.286   6.998
  366SOL    HW2 1998   5.160   1.288   0.125
  367SOL     OW 1999   6.076   2.514   2.295
  367SOL    HW1 2000   6.051   2.448   2.365
  367SOL    HW2 2001   6.157   2.481   2.246
  368SOL     OW 2002   6.906   5.335   4.675
  368SOL    HW1 2003   6.830   5.343   4.740
  368SOL    HW2 2004   6.934   5.239   4.668
  369SOL     OW 2005   1.186   3.947   2.017
  369SOL    HW1 2006   1.114   3.922   2.082
  369SOL    HW2 2007   1.268   3.974   2.066
  370SOL     OW 2008   3.580   1.877   6.577
  370SOL    HW1 2009   3.659   1.902   6.633
  370SOL    HW2 2010   3.501   1.861   6.637
  371SOL     OW 2011   3.394   2.568   6.644
  371SOL    HW1 2012   3.335   2.610   6.576
  371SOL    HW2 2013   3.405   2.471   6.623
  372SOL     OW 2014   2.140   5.780   0.171
  372SOL    HW1 2015   2.079   5.770   0.093
  372SOL    HW2 2016   2.184   5.692   0.190
  373SOL     OW 2017   6.215   6.888   6.606
  373SOL    HW1 2018   6.232   6.977   6.649
  373SOL    HW2 2019   6.271   6.818   6.650
  374SOL     OW 2020   5.477   0.854   0.786
  374SOL    HW1 2021   5.441   0.825   0.875
  374SOL    HW2 2022   5.464   0.953   0.777
  375SOL     OW 2023   6.607   3.957   1.533
  375SOL    HW1 2024   6.681   3.913   1.583
  375SOL    HW2 2025   6.600   4.053   1.560
  376SOL     OW 2026   2.381   4.195   5.295
  376SOL    HW1 2027   2.402   4.183   5.392
  376SOL    HW2 2028   2.409   4.113   5.244
  377SOL     OW 2029   4.921   1.067   3.986
  377SOL    HW1 2030   4.855   1.095   4.055
  377SOL    HW2 2031   4.984   1.143   3.967
  378SOL     OW 2032   5.091   2.104   5.644
  378SOL    HW1 2033   5.165   2.043   5.672
  378SOL    HW2 2034   5.125   2.171   5.579
  379SOL     OW 2035   6.356   2.940   0.860
  379SOL    HW1 2036   6.322   2.848   0.879
  379SOL    HW2 2037   6.429   2.962   0.925
  380SOL     OW 2038   0.861   2.561   0.002
  380SOL    HW1 2039   0.934   2.523   6.965
  380SOL    HW2 2040   0.900   2.620   0.073
  381SOL     OW 2041   4.472   5.040   0.307
  381SOL    HW1 2042   4.553   5.035   0.366
  381SOL    HW2 2043   4.392   5.008   0.357
  382SOL     OW 2044   2.173   5.558   6.665
  382SOL    HW1 2045   2.106   5.504   6.715
  382SOL    HW2 2046   2.254   5.572   6.722
  383SOL     OW 2047   6.115   1.761   7.019
  383SOL    HW1 2048   6.170   1.798   6.944
  383SOL    HW2 2049   6.127   1.817   0.081
  384SOL     OW 2050   1.777   5.434   4.612
  384SOL    HW1 2051   1.712   5.496   4.656
  384SOL    HW2 2052   1.847   5.488   4.564
  385SOL     OW 2053   4.557   4.774   1.126
  385SOL    HW1 2054   4.514   4.864   1.126
  385SOL    HW2 2055   4.513   4.716   1.058
  386SOL     OW 2056   2.283   5.780   4.455
  386SOL    HW1 2057   2.281   5.880   4.466
  386SOL    HW2 2058   2.377   5.749   4.452
  387SOL     OW 2059   0.468   0.471   5.410
  387SOL    HW1 2060   0.413   0.440   5.333
  387SOL    HW2 2061   0.516   0.394   5.451
  388SOL     OW 2062   0.018   2.098   4.494
  388SOL    HW1 2063   0.069   2.012   4.489
  388SOL    HW2 2064   0.038   2.153   4.413
  389SOL     OW 2065   4.852   3.038   2.756
  389SOL    HW1 2066   4.823   3.114   2.697
  389SOL    HW2 2067   4.951   3.038   2.765
  390SOL     OW 2068   3.427   3.013   0.489
  390SOL    HW1 2069   3.370   2.933   0.506
  390SOL    HW2 2070   3.439   3.025   0.390
  391SOL     OW 2071   3.823   3.641   3.689
  391SOL    HW1 2072   3.809   3.735   3.657
  391SOL    HW2 2073   3.755   3.581   3.646
  392SOL     OW 2074   1.822   3.341   1.752
  392SOL    HW1 2075   1.846   3.244   1.747
  392SOL    HW2 2076   1.903   3.394   1.777
  393SOL     OW 2077   1.203   6.352   1.206
  393SOL    HW1 2078   1.259   6.435   1.216
  393SOL    HW2 2079   1.263   6.272   1.207
  394SOL     OW 2080   5.824   1.430   6.209
  394SOL    HW1 2081   5.791   1.343   6.244
  394SOL    HW2 2082   5.812   1.500   6.279
  395SOL     OW 2083   6.245   5.329   6.492
  395SOL    HW1 2084   6.148   5.319   6.469
  395SOL    HW2 2085   6.259   5.311   6.589
  396SOL     OW 2086   0.534   0.869   1.214
  396SOL    HW1 2087   0.578   0.959   1.212
  396SOL    HW2 2088   0.545   0.829   1.305
  397SOL     OW 2089   4.637   2.072   4.829
  397SOL    HW1 2090   4.729   2.054   4.863
  397SOL    HW2 2091   4.569   2.043   4.897
  398SOL     OW 2092   6.989   1.493   2.865
  398SOL    HW1 2093   6.917   1.465   2.802
  398SOL    HW2 2094   0.010   1.579   2.833
  399SOL     OW 2095   6.034   5.836   4.155
  399SOL    HW1 2096   6.074   5.889   4.230
  399SOL    HW2 2097   6.077   5.745   4.152
  400SOL     OW 2098   0.070   6.339   3.128
  400SOL    HW1 2099   0.136   6.334   3.053
  400SOL    HW2 2100   0.032   6.432   3.134
  401SOL     OW 2101   1.269   6.183   4.967
  401SOL    HW1 2102   1.249   6.279   4.947
  401SOL    HW2 2103   1.253   6.128   4.885
  402SOL     OW 2104   5.780   1.343   4.194
  402SOL    HW1 2105   5.765   1.396   4.278
  402SOL    HW2 2106   5.796   1.247   4.218
  403SOL     OW 2107   2.553   1.896   5.348
  403SOL    HW1 2108   2.477   1.832   5.352
  403SOL    HW2 2109   2.517   1.989   5.340
  404SOL     OW 2110   2.648   6.065   3.250
  404SOL    HW1 2111   2.553   6.038   3.267
  404SOL    HW2 2112   2.672   6.141   3.312
  405SOL     OW 2113   2.537   4.872   3.996
  405SOL    HW1 2114   2.535   4.957   4.048
  405SOL    HW2 2115   2.444   4.835   3.990
  406SOL     OW 2116   1.336   0.299   0.476
  406SOL    HW1 2117   1.428   0.262   0.487
  406SOL    HW2 2118   1.318   0.312   0.378
  407SOL     OW 2119   2.133   3.669   4.163
  407SOL    HW1 2120   2.077   3.691   4.084
  407SOL    HW2 2121   2.119   3.574   4.189
  408SOL     OW 2122   2.701   2.130   2.021
  408SOL    HW1 2123   2.779   2.186   2.050
  408SOL    HW2 2124   2.685   2.145   1.923
  409SOL     OW 2125   0.250   2.537   1.754
  409SOL    HW1 2126   0.328   2.515   1.812
  409SOL    HW2 2127   0.227   2.458   1.697
  410SOL     OW 2128   1.757   3.308   2.046
  410SOL    HW1 2129   1.744   3.319   1.948
  410SOL    HW2 2130   1.838   3.361   2.075
  411SOL     OW 2131   6.407   1.468   1.258
  411SOL    HW1 2132   6.481   1.453   1.324
  411SOL    HW2 2133   6.445   1.478   1.166
  412SOL     OW 2134   2.519   4.438   3.076
  412SOL    HW1 2135   2.612   4.414   3.049
  412SOL    HW2 2136   2.516   4.451   3.175
  413SOL     OW 2137   6.411   4.987   3.068
  413SOL    HW1 2138   6.505   4.986   3.103
  413SOL    HW2 2139   6.382   4.894   3.048
  414SOL     OW 2140   2.543   6.924   2.457
  414SOL    HW1 2141   2.534   0.002   2.476
  414SOL    HW2 2142   2.595   6.911   2.372
  415SOL     OW 2143   5.980   3.072   1.261
  415SOL    HW1 2144   6.033   3.148   1.224
  415SOL    HW2 2145   6.041   3.005   1.302
  416SOL     OW 2146   6.090   3.271   6.990
  416SOL    HW1 2147   5.993   3.262   7.009
  416SOL    HW2 2148   6.140   3.278   0.057
  417SOL     OW 2149   2.329   2.546   5.610
  417SOL    HW1 2150   2.381   2.483   5.553
  417SOL    HW2 2151   2.325   2.636   5.566
  418SOL     OW 2152   4.322   5.854   6.530
  418SOL    HW1 2153   4.355   5.948   6.533
  418SOL    HW2 2154   4.263   5.837   6.609
  419SOL     OW 2155   5.728   6.946   0.528
  419SOL    HW1 2156   5.645   6.956   0.475
  419SOL    HW2 2157   5.761   0.017   0.556
  420SOL     OW 2158   3.101   6.822   0.858
  420SOL    HW1 2159   3.138   6.902   0.905
  420SOL    HW2 2160   3.171   6.785   0.796
  421SOL     OW 2161   5.221   4.639   2.896
  421SOL    HW1 2162   5.219   4.727   2.850
  421SOL    HW2 2163   5.197   4.650   2.993
  422SOL     OW 2164   4.245   1.488   2.256
  422SOL    HW1 2165   4.235   1.588   2.260
  422SOL    HW2 2166   4.155   1.447   2.242
  423SOL     OW 2167   2.365   1.077   5.907
  423SOL    HW1 2168   2.465   1.066   5.909
  423SOL    HW2 2169   2.324   1.001   5.857
  424SOL     OW 2170   1.443   4.550   4.280
  424SOL    HW1 2171   1.398   4.638   4.264
  424SOL    HW2 2172   1.415   4.514   4.369
  425SOL     OW 2173   3.551   1.359   6.796
  425SOL    HW1 2174   3.504   1.386   6.712
  425SOL    HW2 2175   3.608   1.280   6.779
  426SOL     OW 2176   2.436   2.526   3.102
  426SOL    HW1 2177   2.397   2.545   3.012
  426SOL    HW2 2178   2.395   2.587   3.170
  427SOL     OW 2179   4.420   1.282   4.131
  427SOL    HW1 2180   4.347   1.251   4.191
  427SOL    HW2 2181   4.485   1.207   4.115
  428SOL     OW 2182   2.194   1.955   6.247
  428SOL    HW1 2183   2.119   2.022   6.240
  428SOL    HW2 2184   2.184   1.887   6.175
  429SOL     OW 2185   6.972   6.747   3.382
  429SOL    HW1 2186   6.970   6.698   3.469
  429SOL    HW2 2187   6.941   6.841   3.395
  430SOL     OW 2188   1.601   1.718   3.604
  430SOL    HW1 2189   1.594   1.619   3.594
  430SOL    HW2 2190   1.526   1.751   3.662
  431SOL     OW 2191   2.666   0.976   1.714
  431SOL    HW1 2192   2.662   1.035   1.634
  431SOL    HW2 2193   2.753   0.925   1.713
  432SOL     OW 2194   5.430   1.872   2.188
  432SOL    HW1 2195   5.406   1.968   2.173
  432SOL    HW2 2196   5.516   1.851   2.143
  433SOL     OW 2197   2.184   3.933   6.923
  433SOL    HW1 2198   2.227   3.857   6.971
  433SOL    HW2 2199   2.104   3.964   6.974
  434SOL     OW 2200   3.774   5.748   2.891
  434SOL    HW1 2201   3.766   5.687   2.813
  434SOL    HW2 2202   3.699   5.814   2.890
  435SOL     OW 2203   2.551   2.921   6.690
  435SOL    HW1 2204   2.510   3.012   6.688
  435SOL    HW2 2205   2.544   2.880   6.599
  436SOL     OW 2206   5.542   6.261   2.495
  436SOL    HW1 2207   5.483   6.182   2.507
  436SOL    HW2 2208   5.487   6.344   2.493
  437SOL     OW 2209   0.099   1.441   5.659
  437SOL    HW1 2210   0.088   1.514   5.591
  437SOL    HW2 2211   0.143   1.479   5.741
  438SOL     OW 2212   0.777   3.773   1.633
  438SOL    HW1 2213   0.732   3.784   1.544
  438SOL    HW2 2214   0.714   3.800   1.706
  439SOL     OW 2215   0.896   1.585   6.875
  439SOL    HW1 2216   0.865   1.568   6.781
  439SOL    HW2 2217   0.982   1.636   6.872
  440SOL     OW 2218   3.868   1.337   1.123
  440SOL    HW1 2219   3.868   1.374   1.216
  440SOL    HW2 2220   3.961   1.333   1.088
  441SOL     OW 2221   1.363   4.392   2.990
  441SOL    HW1 2222   1.406   4.476   2.955
  441SOL    HW2 2223   1.395   4.374   3.083
  442SOL     OW 2224   2.865   3.520   4.775
  442SOL    HW1 2225   2.768   3.535   4.794
  442SOL    HW2 2226   2.920   3.591   4.819
  443SOL     OW 2227   4.884   2.758   1.774
  443SOL    HW1 2228   4.940   2.717   1.703
  443SOL    HW2 2229   4.933   2.835   1.815
  444SOL     OW 2230   4.299   2.452   0.872
  444SOL    HW1 2231   4.304   2.410   0.781
  444SOL    HW2 2232   4.218   2.510   0.877
  445SOL     OW 2233   2.186   6.031   3.762
  445SOL    HW1 2234   2.203   5.933   3.774
  445SOL    HW2 2235   2.125   6.063   3.834
  446SOL     OW 2236   0.388   6.801   0.456
  446SOL    HW1 2237   0.309   6.821   0.514
  446SOL    HW2 2238   0.462   6.865   0.477
  447SOL     OW 2239   6.417   3.354   0.465
  447SOL    HW1 2240   6.386   3.281   0.405
  447SOL    HW2 2241   6.348   3.370   0.536
  448SOL     OW 2242   3.384   6.751   4.301
  448SOL    HW1 2243   3.455   6.681   4.288
  448SOL    HW2 2244   3.427   6.838   4.322
  449SOL     OW 2245   0.965   3.939   4.926
  449SOL    HW1 2246   0.984   3.886   4.843
  449SOL    HW2 2247   1.043   3.935   4.987
  450SOL     OW 2248   6.478   3.764   3.879
  450SOL    HW1 2249   6.515   3.728   3.965
  450SOL    HW2 2250   6.552   3.773   3.812
  451SOL     OW 2251   2.845   1.650   6.313
  451SOL    HW1 2252   2.755   1.650   6.269
  451SOL    HW2 2253   2.916   1.664   6.243
  452SOL     OW 2254   4.774   4.804   1.307
  452SOL    HW1 2255   4.807   4.898   1.300
  452SOL    HW2 2256   4.715   4.784   1.230
  453SOL     OW 2257   4.200   1.042   0.259
  453SOL    HW1 2258   4.236   1.134   0.241
  453SOL    HW2 2259   4.118   1.050   0.316
  454SOL     OW 2260   6.844   3.041   3.675
  454SOL    HW1 2261   6.843   2.941   3.675
  454SOL    HW2 2262   6.757   3.075   3.711
  455SOL     OW 2263   5.816   5.608   0.397
  455SOL    HW1 2264   5.723   5.582   0.422
  455SOL    HW2 2265   5.852   5.543   0.331
  456SOL     OW 2266   1.630   1.192   3.283
  456SOL    HW1 2267   1.715   1.203   3.233
  456SOL    HW2 2268   1.642   1.126   3.357
  457SOL     OW 2269   3.186   6.116   0.744
  457SOL    HW1 2270   3.215   6.021   0.756
  457SOL    HW2 2271   3.265   6.174   0.727
  458SOL     OW 2272   3.043   1.068   4.285
  458SOL    HW1 2273   2.986   0.986   4.288
  458SOL    HW2 2274   2.995   1.143   4.332
  459SOL     OW 2275   3.187   1.392   3.933
  459SOL    HW1 2276   3.249   1.380   3.855
  459SOL    HW2 2277   3.180   1.306   3.983
  460SOL     OW 2278   1.328   1.480   6.882
  460SOL    HW1 2279   1.270   1.403   6.854
  460SOL    HW2 2280   1.272   1.563   6.889
  461SOL     OW 2281   1.189   7.018   4.450
  461SOL    HW1 2282   1.210   7.015   4.547
  461SOL    HW2 2283   1.248   0.065   4.405
  462SOL     OW 2284   3.753   4.072   5.505
  462SOL    HW1 2285   3.654   4.086   5.512
  462SOL    HW2 2286   3.789   4.129   5.431
  463SOL     OW 2287   5.800   6.406   3.053
  463SOL    HW1 2288   5.739   6.328   3.070
  463SOL    HW2 2289   5.784   6.476   3.122
  464SOL     OW 2290   4.097   6.112   5.034
  464SOL    HW1 2291   4.091   6.093   5.132
  464SOL    HW2 2292   4.011   6.087   4.990
  465SOL     OW 2293   0.453   5.560   0.990
  465SOL    HW1 2294   0.536   5.541   0.938
  465SOL    HW2 2295   0.380   5.500   0.958
  466SOL     OW 2296   3.409   4.984   3.815
  466SOL    HW1 2297   3.494   4.935   3.836
  466SOL    HW2 2298   3.336   4.950   3.873
  467SOL     OW 2299   6.930   6.884   1.217
  467SOL    HW1 2300   6.876   6.896   1.300
  467SOL    HW2 2301   0.004   6.856   1.241
  468SOL     OW 2302   2.576   6.544   6.727
  468SOL    HW1 2303   2.638   6.569   6.802
  468SOL    HW2 2304   2.543   6.627   6.682
  469SOL     OW 2305   4.069   4.999   5.425
  469SOL    HW1 2306   4.050   4.962   5.516
  469SOL    HW2 2307   4.038   4.935   5.355
  470SOL     OW 2308   2.808   5.083   2.193
  470SOL    HW1 2309   2.844   4.991   2.173
  470SOL    HW2 2310   2.860   5.151   2.141
  471SOL     OW 2311   1.376   2.320   4.264
  471SOL    HW1 2312   1.446   2.289   4.329
  471SOL    HW2 2313   1.358   2.417   4.279
  472SOL     OW 2314   5.139   3.717   6.621
  472SOL    HW1 2315   5.226   3.740   6.578
  472SOL    HW2 2316   5.087   3.656   6.561
  473SOL     OW 2317   5.515   3.555   1.909
  473SOL    HW1 2318   5.594   3.498   1.931
  473SOL    HW2 2319   5.510   3.569   1.811
  474SOL     OW 2320   4.927   5.022   3.923
  474SOL    HW1 2321   4.886   5.113   3.936
  474SOL    HW2 2322   4.934   5.002   3.825
  475SOL     OW 2323   4.799   1.410   0.486
  475SOL    HW1 2324   4.711   1.441   0.523
  475SOL    HW2 2325   4.872   1.430   0.552
  476SOL     OW 2326   1.272   2.770   6.930
  476SOL    HW1 2327   1.314   2.774   0.001
  476SOL    HW2 2328   1.180   2.807   6.934
  477SOL     OW 2329   5.796   6.048   4.066
  477SOL    HW1 2330   5.891   6.065   4.037
  477SOL    HW2 2331   5.777   5.950   4.059
  478SOL     OW 2332   6.602   5.052   1.544
  478SOL    HW1 2333   6.514   5.071   1.500
  478SOL    HW2 2334   6.597   4.965   1.593
  479SOL     OW 2335   3.743   3.689   2.771
  479SOL    HW1 2336   3.645   3.682   2.790
  479SOL    HW2 2337   3.782   3.761   2.828
  480SOL     OW 2338   0.240   0.411   1.777
  480SOL    HW1 2339   0.267   0.465   1.856
  480SOL    HW2 2340   0.174   0.462   1.722
  481SOL     OW 2341   6.224   6.440   1.080
  481SOL    HW1 2342   6.263   6.365   1.026
  481SOL    HW2 2343   6.126   6.446   1.061
  482SOL     OW 2344   3.811   5.085   3.006
  482SOL    HW1 2345   3.828   5.004   2.949
  482SOL    HW2 2346   3.713   5.105   3.006
  483SOL     OW 2347   6.005   2.277   4.866
  483SOL    HW1 2348   5.906   2.279   4.874
  483SOL    HW2 2349   6.044   2.362   4.902
  484SOL     OW 2350   2.535   5.358   3.964
  484SOL    HW1 2351   2.529   5.271   4.013
  484SOL    HW2 2352   2.613   5.410   3.998
  485SOL     OW 2353   4.741   2.699   0.900
  485SOL    HW1 2354   4.797   2.617   0.886
  485SOL    HW2 2355   4.683   2.686   0.980
  486SOL     OW 2356   6.065   6.293   5.232
  486SOL    HW1 2357   5.993   6.326   5.294
  486SOL    HW2 2358   6.037   6.206   5.193
  487SOL     OW 2359   6.472   1.125   6.806
  487SOL    HW1 2360   6.414   1.119   6.725
  487SOL    HW2 2361   6.494   1.033   6.838
  488SOL     OW 2362   1.480   6.182   4.072
  488SOL    HW1 2363   1.445   6.188   4.165
  488SOL    HW2 2364   1.558   6.244   4.062
  489SOL     OW 2365   2.694   4.551   5.378
  489SOL    HW1 2366   2.692   4.459   5.419
  489SOL    HW2 2367   2.752   4.549   5.296
  490SOL     OW 2368   1.230   3.553   5.020
  490SOL    HW1 2369   1.220   3.578   4.924
  490SOL    HW2 2370   1.217   3.635   5.077
  491SOL     OW 2371   6.281   3.405   1.373
  491SOL    HW1 2372   6.226   3.322   1.384
  491SOL    HW2 2373   6.325   3.427   1.460
  492SOL     OW 2374   1.619   2.542   5.588
  492SOL    HW1 2375   1.576   2.589   5.665
  492SOL    HW2 2376   1.595   2.445   5.591
  493SOL     OW 2377   1.485   5.540   3.943
  493SOL    HW1 2378   1.412   5.594   3.984
  493SOL    HW2 2379   1.539   5.598   3.882
  494SOL     OW 2380   2.819   0.109   2.548
  494SOL    HW1 2381   2.836   0.147   2.457
  494SOL    HW2 2382   2.851   0.174   2.617
  495SOL     OW 2383   4.221   4.217   0.162
  495SOL    HW1 2384   4.237   4.284   0.090
  495SOL    HW2 2385   4.250   4.255   0.250
  496SOL     OW 2386   4.825   6.963   3.132
  496SOL    HW1 2387   4.828   0.029   3.185
  496SOL    HW2 2388   4.863   6.888   3.186
  497SOL     OW 2389   4.892   2.974   1.229
  497SOL    HW1 2390   4.805   3.021   1.244
  497SOL    HW2 2391   4.947   3.026   1.164
  498SOL     OW 2392   1.099   0.045   0.771
  498SOL    HW1 2393   1.146   0.119   0.819
  498SOL    HW2 2394   1.141   6.977   0.796
  499SOL     OW 2395   2.802   6.671   6.455
  499SOL    HW1 2396   2.888   6.635   6.419
  499SOL    HW2 2397   2.729   6.655   6.389
  500SOL     OW 2398   6.002   1.412   5.995
  500SOL    HW1 2399   5.975   1.414   6.091
  500SOL    HW2 2400   5.977   1.324   5.954
  501SOL     OW 2401   1.556   2.199   4.435
  501SOL    HW1 2402   1.573   2.177   4.531
  501SOL    HW2 2403   1.643   2.212   4.387
  502SOL     OW 2404   3.153   2.950   0.150
  502SOL    HW1 2405   3.100   3.033   0.140
  502SOL    HW2 2406   3.115   2.895   0.225
  503SOL     OW 2407   4.070   5.595   1.307
  503SOL    HW1 2408   4.113   5.590   1.217
  503SOL    HW2 2409   3.981   5.549   1.304
  504SOL     OW 2410   6.120   0.908   7.003
  504SOL    HW1 2411   6.219   0.896   6.999
  504SOL    HW2 2412   6.089   0.953   6.919
  505SOL     OW 2413   0.211   3.963   5.425
  505SOL    HW1 2414   0.189   3.887   5.486
  505SOL    HW2 2415   0.310   3.974   5.420
  506SOL     OW 2416   2.773   5.874   2.102
  506SOL    HW1 2417   2.844   5.916   2.159
  506SOL    HW2 2418   2.706   5.829   2.161
  507SOL     OW 2419   2.746   6.749   3.912
  507SOL    HW1 2420   2.808   6.823   3.883
  507SOL    HW2 2421   2.721   6.695   3.832
  508SOL     OW 2422   0.746   5.024   2.710
  508SOL    HW1 2423   0.742   4.994   2.614
  508SOL    HW2 2424   0.664   4.993   2.758
  509SOL     OW 2425   4.936   0.591   5.935
  509SOL    HW1 2426   4.996   0.648   5.879
  509SOL    HW2 2427   4.950   0.495   5.912
  510SOL     OW 2428   6.641   4.819   0.280
  510SOL    HW1 2429   6.556   4.867   0.257
  510SOL    HW2 2430   6.662   4.753   0.209
  511SOL     OW 2431   0.095   1.871   0.754
  511SOL    HW1 2432   0.092   1.889   0.852
  511SOL    HW2 2433   0.190   1.871   0.723
  512SOL     OW 2434   1.480   1.905   4.860
  512SOL    HW1 2435   1.401   1.876   4.807
  512SOL    HW2 2436   1.450   1.958   4.940
  513SOL     OW 2437   5.650   5.725   2.704
  513SOL    HW1 2438   5.706   5.649   2.671
  513SOL    HW2 2439   5.683   5.754   2.794
  514SOL     OW 2440   5.114   1.145   4.678
  514SOL    HW1 2441   5.099   1.239   4.708
  514SOL    HW2 2442   5.053   1.083   4.729
  515SOL     OW 2443   3.123   0.642   6.681
  515SOL    HW1 2444   3.167   0.571   6.626
  515SOL    HW2 2445   3.038   0.671   6.636
  516SOL     OW 2446   0.532   5.705   2.925
  516SOL    HW1 2447   0.527   5.776   2.856
  516SOL    HW2 2448   0.445   5.700   2.974
  517SOL     OW 2449   3.392   5.446   0.640
  517SOL    HW1 2450   3.474   5.391   0.630
  517SOL    HW2 2451   3.330   5.402   0.705
  518SOL     OW 2452   1.877   0.154   3.748
  518SOL    HW1 2453   1.895   0.210   3.829
  518SOL    HW2 2454   1.962   0.112   3.717
  519SOL     OW 2455   6.795   6.838   3.110
  519SOL    HW1 2456   6.799   6.874   3.017
  519SOL    HW2 2457   6.843   6.900   3.172
  520SOL     OW 2458   3.453   5.701   0.575
  520SOL    HW1 2459   3.431   5.607   0.602
  520SOL    HW2 2460   3.409   5.722   0.488
  521SOL     OW 2461   0.183   6.910   5.335
  521SOL    HW1 2462   0.209   6.965   5.255
  521SOL    HW2 2463   0.256   6.913   5.402
  522SOL     OW 2464   3.373   5.449   6.547
  522SOL    HW1 2465   3.402   5.353   6.538
  522SOL    HW2 2466   3.401   5.483   6.636
  523SOL     OW 2467   1.696   6.716   6.038
  523SOL    HW1 2468   1.643   6.778   5.980
  523SOL    HW2 2469   1.643   6.633   6.056
  524SOL     OW 2470   6.625   1.442   1.419
  524SOL    HW1 2471   6.706   1.483   1.378
  524SOL    HW2 2472   6.615   1.474   1.513
  525SOL     OW 2473   0.613   3.110   3.452
  525SOL    HW1 2474   0.531   3.167   3.452
  525SOL    HW2 2475   0.677   3.145   3.383
  526SOL     OW 2476   3.992   6.136   4.686
  526SOL    HW1 2477   4.014   6.230   4.659
  526SOL    HW2 2478   4.068   6.075   4.662
  527SOL     OW 2479   6.490   1.267   0.720
  527SOL    HW1 2480   6.572   1.211   0.729
  527SOL    HW2 2481   6.442   1.242   0.636
  528SOL     OW 2482   0.229   1.239   3.716
  528SOL    HW1 2483   0.280   1.325   3.709
  528SOL    HW2 2484   0.136   1.259   3.747
  529SOL     OW 2485   0.962   1.476   5.889
  529SOL    HW1 2486   0.924   1.386   5.910
  529SOL    HW2 2487   0.949   1.495   5.791
  530SOL     OW 2488   3.458   4.470   1.652
  530SOL    HW1 2489   3.468   4.386   1.705
  530SOL    HW2 2490   3.495   4.547   1.704
  531SOL     OW 2491   0.214   1.572   5.878
  531SOL    HW1 2492   0.255   1.550   5.967
  531SOL    HW2 2493   0.173   1.663   5.882
  532SOL     OW 2494   3.593   0.712   6.863
  532SOL    HW1 2495   3.530   0.661   6.804
  532SOL    HW2 2496   3.587   0.810   6.841
  533SOL     OW 2497   3.541   0.000   4.904
  533SOL    HW1 2498   3.562   0.092   4.871
  533SOL    HW2 2499   3.559   6.953   4.831
  534SOL     OW 2500   2.148   4.112   1.532
  534SOL    HW1 2501   2.138   4.062   1.446
  534SOL    HW2 2502   2.087   4.072   1.600
  535SOL     OW 2503   4.840   4.172   3.408
  535SOL    HW1 2504   4.789   4.238   3.462
  535SOL    HW2 2505   4.879   4.103   3.468
  536SOL     OW 2506   6.321   0.141   1.251
  536SOL    HW1 2507   6.312   0.055   1.202
  536SOL    HW2 2508   6.416   0.152   1.282
  537SOL     OW 2509   2.877   2.018   2.480
  537SOL    HW1 2510   2.926   2.062   2.555
  537SOL    HW2 2511   2.924   1.934   2.454
  538SOL     OW 2512   3.916   5.317   5.998
  538SOL    HW1 2513   3.935   5.352   6.089
  538SOL    HW2 2514   3.820   5.332   5.975
  539SOL     OW 2515   2.701   0.040   0.121
  539SOL    HW1 2516   2.670   0.014   0.213
  539SOL    HW2 2517   2.622   0.044   0.060
  540SOL     OW 2518   2.319   1.588   5.532
  540SOL    HW1 2519   2.339   1.668   5.475
  540SOL    HW2 2520   2.290   1.513   5.473
  541SOL     OW 2521   5.495   5.719   1.918
  541SOL    HW1 2522   5.463   5.808   1.952
  541SOL    HW2 2523   5.584   5.730   1.873
  542SOL     OW 2524   3.863   5.780   5.959
  542SOL    HW1 2525   3.822   5.842   5.892
  542SOL    HW2 2526   3.963   5.784   5.951
  543SOL     OW 2527   6.787   1.755   5.043
  543SOL    HW1 2528   6.768   1.851   5.026
  543SOL    HW2 2529   6.848   1.720   4.972
  544SOL     OW 2530   1.032   2.157   1.314
  544SOL    HW1 2531   0.940   2.131   1.346
  544SOL    HW2 2532   1.059   2.244   1.355
  545SOL     OW 2533   0.141   5.487   0.631
  545SOL    HW1 2534   0.139   5.435   0.545
  545SOL    HW2 2535   0.168   5.581   0.612
  546SOL     OW 2536   6.630   5.887   2.746
  546SOL    HW1 2537   6.554   5.841   2.792
  546SOL    HW2 2538   6.596   5.964   2.694
  547SOL     OW 2539   3.708   6.259   6.870
  547SOL    HW1 2540   3.705   6.206   6.786
  547SOL    HW2 2541   3.615   6.280   6.900
  548SOL     OW 2542   4.211   3.162   6.562
  548SOL    HW1 2543   4.293   3.111   6.590
  548SOL    HW2 2544   4.129   3.116   6.596
  549SOL     OW 2545   5.375   2.594   3.893
  549SOL    HW1 2546   5.361   2.693   3.888
  549SOL    HW2 2547   5.297   2.547   3.852
  550SOL     OW 2548   0.145   5.565   4.104
  550SOL    HW1 2549   0.231   5.516   4.118
  550SOL    HW2 2550   0.121   5.564   4.007
  551SOL     OW 2551   5.216   0.707   0.319
  551SOL    HW1 2552   5.199   0.744   0.410
  551SOL    HW2 2553   5.208   0.780   0.251
  552SOL     OW 2554   0.785   0.323   4.379
  552SOL    HW1 2555   0.847   0.271   4.437
  552SOL    HW2 2556   0.796   0.296   4.284
  553SOL     OW 2557   3.907   2.259   5.409
  553SOL    HW1 2558   3.925   2.237   5.505
  553SOL    HW2 2559   3.942   2.351   5.388
  554SOL     OW 2560   0.334   4.971   0.394
  554SOL    HW1 2561   0.286   5.026   0.326
  554SOL    HW2 2562   0.388   5.030   0.454
  555SOL     OW 2563   3.801   4.809   5.921
  555SOL    HW1 2564   3.879   4.798   5.859
  555SOL    HW2 2565   3.766   4.902   5.914
  556SOL     OW 2566   5.576   6.191   3.136
  556SOL    HW1 2567   5.559   6.095   3.159
  556SOL    HW2 2568   5.527   6.250   3.201
  557SOL     OW 2569   6.650   3.515   0.406
  557SOL    HW1 2570   6.727   3.454   0.384
  557SOL    HW2 2571   6.570   3.460   0.431
  558SOL     OW 2572   3.446   3.460   1.983
  558SOL    HW1 2573   3.510   3.522   2.028
  558SOL    HW2 2574   3.352   3.486   2.007
  559SOL     OW 2575   6.006   0.891   6.291
  559SOL    HW1 2576   6.011   0.982   6.332
  559SOL    HW2 2577   5.954   0.831   6.352
  560SOL     OW 2578   1.576   2.446   3.091
  560SOL    HW1 2579   1.504   2.393   3.133
  560SOL    HW2 2580   1.663   2.427   3.136
  561SOL     OW 2581   6.746   4.363   0.212
  561SOL    HW1 2582   6.825   4.323   0.166
  561SOL    HW2 2583   6.767   4.374   0.309
  562SOL     OW 2584   3.332   6.075   3.482
  562SOL    HW1 2585   3.351   6.172   3.463
  562SOL    HW2 2586   3.403   6.019   3.439
  563SOL     OW 2587   0.808   0.974   4.306
  563SOL    HW1 2588   0.842   0.910   4.374
  563SOL    HW2 2589   0.708   0.980   4.312
  564SOL     OW 2590   6.220   1.876   6.067
  564SOL    HW1 2591   6.219   1.806   5.995
  564SOL    HW2 2592   6.207   1.966   6.026
  565SOL     OW 2593   3.442   3.596   3.651
  565SOL    HW1 2594   3.360   3.613   3.596
  565SOL    HW2 2595   3.450   3.666   3.721
  566SOL     OW 2596   1.102   2.620   3.593
  566SOL    HW1 2597   1.050   2.578   3.519
  566SOL    HW2 2598   1.058   2.597   3.681
  567SOL     OW 2599   1.761   3.104   5.344
  567SOL    HW1 2600   1.807   3.031   5.394
  567SOL    HW2 2601   1.814   3.189   5.355
  568SOL     OW 2602   0.977   0.556   6.732
  568SOL    HW1 2603   0.945   0.461   6.728
  568SOL    HW2 2604   0.923   0.607   6.798
  569SOL     OW 2605   5.188   3.141   5.156
  569SOL    HW1 2606   5.200   3.125   5.058
  569SOL    HW2 2607   5.272   3.176   5.196
  570SOL     OW 2608   3.266   0.407   5.568
  570SOL    HW1 2609   3.171   0.378   5.560
  570SOL    HW2 2610   3.271   0.491   5.622
  571SOL     OW 2611   2.152   3.967   1.978
  571SOL    HW1 2612   2.224   4.035   1.963
  571SOL    HW2 2613   2.177   3.882   1.931
  572SOL     OW 2614   2.469   1.610   4.625
  572SOL    HW1 2615   2.397   1.664   4.581
  572SOL    HW2 2616   2.496   1.654   4.711
  573SOL     OW 2617   0.570   6.949   5.784
  573SOL    HW1 2618   0.485   6.919   5.827
  573SOL    HW2 2619   0.646   6.936   5.848
  574SOL     OW 2620   2.528   0.785   5.649
  574SOL    HW1 2621   2.602   0.781   5.716
  574SOL    HW2 2622   2.441   0.773   5.695
  575SOL     OW 2623   4.316   3.866   0.417
  575SOL    HW1 2624   4.323   3.776   0.461
  575SOL    HW2 2625   4.307   3.853   0.318
  576SOL     OW 2626   0.012   0.607   3.637
  576SOL    HW1 2627   0.002   0.706   3.633
  576SOL    HW2 2628   6.942   0.564   3.649
  577SOL     OW 2629   0.248   0.104   2.356
  577SOL    HW1 2630   0.320   0.046   2.395
  577SOL    HW2 2631   0.158   0.064   2.378
  578SOL     OW 2632   4.066   6.593   0.672
  578SOL    HW1 2633   4.074   6.494   0.684
  578SOL    HW2 2634   4.138   6.638   0.724
  579SOL     OW 2635   0.348   4.023   1.750
  579SOL    HW1 2636   0.338   3.928   1.779
  579SOL    HW2 2637   0.443   4.040   1.724
  580SOL     OW 2638   4.605   4.821   4.878
  580SOL    HW1 2639   4.651   4.891   4.824
  580SOL    HW2 2640   4.584   4.858   4.969
  581SOL     OW 2641   2.556   2.422   3.757
  581SOL    HW1 2642   2.592   2.331   3.776
  581SOL    HW2 2643   2.518   2.425   3.665
  582SOL     OW 2644   5.536   4.158   4.902
  582SOL    HW1 2645   5.439   4.161   4.926
  582SOL    HW2 2646   5.591   4.168   4.985
  583SOL     OW 2647   3.132   5.618   5.758
  583SOL    HW1 2648   3.161   5.669   5.839
  583SOL    HW2 2649   3.207   5.614   5.692
  584SOL     OW 2650   3.793   0.604   5.343
  584SOL    HW1 2651   3.844   0.620   5.259
  584SOL    HW2 2652   3.698   0.586   5.321
  585SOL     OW 2653   3.998   6.501   1.858
  585SOL    HW1 2654   3.907   6.522   1.823
  585SOL    HW2 2655   4.051   6.456   1.787
  586SOL     OW 2656   3.693   0.279   0.553
  586SOL    HW1 2657   3.791   0.257   0.558
  586SOL    HW2 2658   3.656   0.246   0.467
  587SOL     OW 2659   4.799   0.386   2.951
  587SOL    HW1 2660   4.816   0.458   3.018
  587SOL    HW2 2661   4.874   0.383   2.885
  588SOL     OW 2662   2.247   4.121   2.782
  588SOL    HW1 2663   2.239   4.187   2.857
  588SOL    HW2 2664   2.282   4.167   2.700
  589SOL     OW 2665   3.349   4.513   6.033
  589SOL    HW1 2666   3.283   4.565   6.086
  589SOL    HW2 2667   3.414   4.575   5.989
  590SOL     OW 2668   2.309   1.784   5.992
  590SOL    HW1 2669   2.371   1.772   5.914
  590SOL    HW2 2670   2.241   1.710   5.992
  591SOL     OW 2671   2.751   0.338   4.095
  591SOL    HW1 2672   2.843   0.373   4.113
  591SOL    HW2 2673   2.753   0.239   4.089
  592SOL     OW 2674   4.429   2.153   4.314
  592SOL    HW1 2675   4.383   2.241   4.296
  592SOL    HW2 2676   4.422   2.094   4.234
  593SOL     OW 2677   1.420   0.289   0.061
  593SOL    HW1 2678   1.384   0.198   0.042
  593SOL    HW2 2679   1.358   0.358   0.023
  594SOL     OW 2680   3.248   1.328   5.146
  594SOL    HW1 2681   3.219   1.355   5.237
  594SOL    HW2 2682   3.173   1.280   5.100
  595SOL     OW 2683   6.115   3.779   2.417
  595SOL    HW1 2684   6.055   3.738   2.485
  595SOL    HW2 2685   6.207   3.742   2.427
  596SOL     OW 2686   6.332   4.621   4.480
  596SOL    HW1 2687   6.343   4.720   4.487
  596SOL    HW2 2688   6.272   4.599   4.403
  597SOL     OW 2689   4.150   1.690   6.660
  597SOL    HW1 2690   4.214   1.749   6.611
  597SOL    HW2 2691   4.199   1.637   6.729
  598SOL     OW 2692   3.137   2.949   2.330
  598SOL    HW1 2693   3.127   3.024   2.264
  598SOL    HW2 2694   3.216   2.893   2.306
  599SOL     OW 2695   1.740   4.841   1.347
  599SOL    HW1 2696   1.747   4.809   1.253
  599SOL    HW2 2697   1.799   4.785   1.406
  600SOL     OW 2698   0.236   3.143   5.914
  600SOL    HW1 2699   0.269   3.095   5.833
  600SOL    HW2 2700   0.297   3.219   5.935
  601SOL     OW 2701   6.936   0.084   5.825
  601SOL    HW1 2702   6.958   0.146   5.900
  601SOL    HW2 2703   6.981   0.116   5.741
  602SOL     OW 2704   0.424   0.518   3.096
  602SOL    HW1 2705   0.504   0.559   3.052
  602SOL    HW2 2706   0.356   0.590   3.114
  603SOL     OW 2707   1.282   1.590   3.817
  603SOL    HW1 2708   1.375   1.557   3.832
  603SOL    HW2 2709   1.221   1.547   3.883
  604SOL     OW 2710   5.579   1.989   0.814
  604SOL    HW1 2711   5.494   1.939   0.826
  604SOL    HW2 2712   5.595   2.004   0.716
  605SOL     OW 2713   5.400   6.445   1.932
  605SOL    HW1 2714   5.388   6.365   1.991
  605SOL    HW2 2715   5.328   6.512   1.952
  606SOL     OW 2716   2.961   6.401   5.259
  606SOL    HW1 2717   2.927   6.396   5.353
  606SOL    HW2 2718   3.058   6.426   5.260
  607SOL     OW 2719   1.676   3.385   6.077
  607SOL    HW1 2720   1.702   3.480   6.090
  607SOL    HW2 2721   1.754   3.334   6.038
  608SOL     OW 2722   2.911   1.279   6.717
  608SOL    HW1 2723   2.903   1.267   6.619
  608SOL    HW2 2724   2.901   1.376   6.740
  609SOL     OW 2725   4.077   3.232   2.527
  609SOL    HW1 2726   4.130   3.217   2.610
  609SOL    HW2 2727   3.995   3.284   2.549
  610SOL     OW 2728   5.424   2.688   1.935
  610SOL    HW1 2729   5.494   2.636   1.983
  610SOL    HW2 2730   5.410   2.775   1.982
  611SOL     OW 2731   3.785   1.490   2.027
  611SOL    HW1 2732   3.767   1.559   1.957
  611SOL    HW2 2733   3.698   1.453   2.060
  612SOL     OW 2734   4.185   5.336   4.287
  612SOL    HW1 2735   4.113   5.379   4.341
  612SOL    HW2 2736   4.270   5.388   4.296
  613SOL     OW 2737   3.932   5.812   6.636
  613SOL    HW1 2738   3.912   5.851   6.546
  613SOL    HW2 2739   3.866   5.739   6.656
  614SOL     OW 2740   3.456   6.066   6.031
  614SOL    HW1 2741   3.490   6.147   5.983
  614SOL    HW2 2742   3.357   6.062   6.023
  615SOL     OW 2743   6.690   4.870   3.559
  615SOL    HW1 2744   6.630   4.833   3.630
  615SOL    HW2 2745   6.769   4.809   3.547
  616SOL     OW 2746   5.632   2.636   3.978
  616SOL    HW1 2747   5.642   2.662   4.074
  616SOL    HW2 2748   5.536   2.621   3.957
  617SOL     OW 2749   2.166   0.564   5.850
  617SOL    HW1 2750   2.117   0.509   5.918
  617SOL    HW2 2751   2.100   0.608   5.789
  618SOL     OW 2752   2.363   0.579   2.871
  618SOL    HW1 2753   2.308   0.585   2.788
  618SOL    HW2 2754   2.417   0.662   2.882
  619SOL     OW 2755   1.139   2.526   6.631
  619SOL    HW1 2756   1.056   2.550   6.581
  619SOL    HW2 2757   1.115   2.467   6.708
  620SOL     OW 2758   4.714   4.096   0.902
  620SOL    HW1 2759   4.677   4.170   0.958
  620SOL    HW2 2760   4.696   4.008   0.946
  621SOL     OW 2761   0.248   6.021   0.974
  621SOL    HW1 2762   0.250   6.013   1.073
  621SOL    HW2 2763   0.167   6.074   0.947
  622SOL     OW 2764   1.155   1.264   6.851
  622SOL    HW1 2765   1.200   1.176   6.866
  622SOL    HW2 2766   1.081   1.275   6.916
  623SOL     OW 2767   6.228   6.069   5.485
  623SOL    HW1 2768   6.248   6.027   5.397
  623SOL    HW2 2769   6.241   6.168   5.478
  624SOL     OW 2770   0.134   1.576   1.200
  624SOL    HW1 2771   0.056   1.554   1.258
  624SOL    HW2 2772   0.131   1.520   1.117
  625SOL     OW 2773   1.230   0.867   1.892
  625SOL    HW1 2774   1.141   0.909   1.874
  625SOL    HW2 2775   1.301   0.938   1.892
  626SOL     OW 2776   3.670   5.405   5.191
  626SOL    HW1 2777   3.752   5.374   5.240
  626SOL    HW2 2778   3.637   5.490   5.232
  627SOL     OW 2779   4.365   5.533   0.463
  627SOL    HW1 2780   4.276   5.543   0.420
  627SOL    HW2 2781   4.403   5.443   0.441
  628SOL     OW 2782   4.881   3.228   3.867
  628SOL    HW1 2783   4.908   3.176   3.948
  628SOL    HW2 2784   4.826   3.171   3.806
  629SOL     OW 2785   1.458   6.755   1.027
  629SOL    HW1 2786   1.484   6.723   0.936
  629SOL    HW2 2787   1.407   6.840   1.020
  630SOL     OW 2788   2.719   1.467   2.017
  630SOL    HW1 2789   2.697   1.559   1.984
  630SOL    HW2 2790   2.660   1.444   2.094
  631SOL     OW 2791   2.282   1.404   4.069
  631SOL    HW1 2792   2.203   1.450   4.028
  631SOL    HW2 2793   2.296   1.438   4.162
  632SOL     OW 2794   3.161   1.218   0.213
  632SOL    HW1 2795   3.214   1.181   0.290
  632SOL    HW2 2796   3.208   1.196   0.127
  633SOL     OW 2797   2.136   0.298   4.507
  633SOL    HW1 2798   2.206   0.253   4.453
  633SOL    HW2 2799   2.111   0.240   4.585
  634SOL     OW 2800   3.213   5.677   1.963
  634SOL    HW1 2801   3.116   5.671   1.940
  634SOL    HW2 2802   3.250   5.585   1.979
  635SOL     OW 2803   3.350   0.332   1.938
  635SOL    HW1 2804   3.304   0.419   1.922
  635SOL    HW2 2805   3.379   0.327   2.034
  636SOL     OW 2806   4.977   4.720   6.641
  636SOL    HW1 2807   4.967   4.784   6.717
  636SOL    HW2 2808   5.065   4.733   6.596
  637SOL     OW 2809   5.776   5.008   6.284
  637SOL    HW1 2810   5.771   5.107   6.270
  637SOL    HW2 2811   5.698   4.979   6.339
  638SOL     OW 2812   5.374   1.718   3.512
  638SOL    HW1 2813   5.336   1.760   3.430
  638SOL    HW2 2814   5.322   1.635   3.533
  639SOL     OW 2815   3.664   3.593   1.553
  639SOL    HW1 2816   3.685   3.552   1.642
  639SOL    HW2 2817   3.588   3.658   1.564
  640SOL     OW 2818   2.990   2.439   5.397
  640SOL    HW1 2819   3.036   2.428   5.309
  640SOL    HW2 2820   3.054   2.416   5.471
  641SOL     OW 2821   0.196   0.076   5.084
  641SOL    HW1 2822   0.231   0.109   5.172
  641SOL    HW2 2823   0.252   0.113   5.010
  642SOL     OW 2824   0.425   4.781   5.894
  642SOL    HW1 2825   0.363   4.859   5.892
  642SOL    HW2 2826   0.456   4.766   5.988
  643SOL     OW 2827   5.118   6.412   4.543
  643SOL    HW1 2828   5.172   6.475   4.488
  643SOL    HW2 2829   5.117   6.443   4.638
  644SOL     OW 2830   3.190   6.170   1.926
  644SOL    HW1 2831   3.157   6.258   1.960
  644SOL    HW2 2832   3.148   6.151   1.837
  645SOL     OW 2833   0.776   2.884   2.759
  645SOL    HW1 2834   0.777   2.807   2.823
  645SOL    HW2 2835   0.795   2.851   2.666
  646SOL     OW 2836   1.772   3.244   4.538
  646SOL    HW1 2837   1.852   3.188   4.516
  646SOL    HW2 2838   1.740   3.221   4.630
  647SOL     OW 2839   5.522   4.940   0.533
  647SOL    HW1 2840   5.501   4.903   0.624
  647SOL    HW2 2841   5.621   4.930   0.516
  648SOL     OW 2842   4.067   2.212   4.077
  648SOL    HW1 2843   3.989   2.150   4.086
  648SOL    HW2 2844   4.096   2.215   3.981
  649SOL     OW 2845   4.127   4.423   1.423
  649SOL    HW1 2846   4.124   4.350   1.355
  649SOL    HW2 2847   4.205   4.408   1.484
  650SOL     OW 2848   5.657   5.565   0.112
  650SOL    HW1 2849   5.585   5.513   0.159
  650SOL    HW2 2850   5.617   5.646   0.069
  651SOL     OW 2851   1.344   5.470   6.293
  651SOL    HW1 2852   1.438   5.437   6.305
  651SOL    HW2 2853   1.346   5.564   6.261
  652SOL     OW 2854   5.037   2.813   1.381
  652SOL    HW1 2855   4.982   2.876   1.325
  652SOL    HW2 2856   5.130   2.809   1.344
  653SOL     OW 2857   3.590   5.355   3.270
  653SOL    HW1 2858   3.667   5.296   3.293
  653SOL    HW2 2859   3.623   5.440   3.228
  654SOL     OW 2860   0.069   5.275   0.031
  654SOL    HW1 2861   0.116   5.354   7.011
  654SOL    HW2 2862   7.002   5.261   7.001
  655SOL     OW 2863   1.924   1.541   0.754
  655SOL    HW1 2864   1.923   1.583   0.844
  655SOL    HW2 2865   2.019   1.527   0.725
  656SOL     OW 2866   1.592   6.711   0.776
  656SOL    HW1 2867   1.541   6.628   0.751
  656SOL    HW2 2868   1.687   6.701   0.746
  657SOL     OW 2869   3.753   0.068   6.732
  657SOL    HW1 2870   3.808   0.029   6.806
  657SOL    HW2 2871   3.687   0.133   6.771
  658SOL     OW 2872   3.601   5.489   0.341
  658SOL    HW1 2873   3.638   5.516   0.252
  658SOL    HW2 2874   3.510   5.450   0.328
  659SOL     OW 2875   3.830   0.450   6.179
  659SOL    HW1 2876   3.925   0.444   6.147
  659SOL    HW2 2877   3.792   0.358   6.188
  660SOL     OW 2878   2.800   6.607   3.686
  660SOL    HW1 2879   2.895   6.584   3.709
  660SOL    HW2 2880   2.795   6.638   3.591
  661SOL     OW 2881   6.730   4.949   2.993
  661SOL    HW1 2882   6.688   5.022   2.940
  661SOL    HW2 2883   6.780   4.988   3.070
  662SOL     OW 2884   4.389   2.333   6.787
  662SOL    HW1 2885   4.391   2.314   6.885
  662SOL    HW2 2886   4.479   2.364   6.757
  663SOL     OW 2887   1.293   4.137   4.625
  663SOL    HW1 2888   1.357   4.162   4.553
  663SOL    HW2 2889   1.254   4.219   4.666
  664SOL     OW 2890   5.856   6.882   6.330
  664SOL    HW1 2891   5.771   6.852   6.372
  664SOL    HW2 2892   5.836   6.953   6.262
  665SOL     OW 2893   1.748   3.983   2.328
  665SOL    HW1 2894   1.717   4.070   2.365
  665SOL    HW2 2895   1.702   3.908   2.376
  666SOL     OW 2896   4.075   0.699   2.662
  666SOL    HW1 2897   4.023   0.761   2.604
  666SOL    HW2 2898   4.103   0.747   2.745
  667SOL     OW 2899   0.077   0.701   1.374
  667SOL    HW1 2900   0.082   0.679   1.276
  667SOL    HW2 2901   0.131   0.783   1.392
  668SOL     OW 2902   5.004   3.309   6.563
  668SOL    HW1 2903   4.951   3.230   6.593
  668SOL    HW2 2904   5.046   3.353   6.642
  669SOL     OW 2905   5.350   1.229   2.947
  669SOL    HW1 2906   5.392   1.157   2.893
  669SOL    HW2 2907   5.374   1.318   2.908
  670SOL     OW 2908   4.150   1.952   2.013
  670SOL    HW1 2909   4.119   1.857   2.022
  670SOL    HW2 2910   4.071   2.010   1.996
  671SOL     OW 2911   1.005   5.731   1.860
  671SOL    HW1 2912   1.017   5.730   1.760
  671SOL    HW2 2913   1.044   5.647   1.899
  672SOL     OW 2914   0.376   6.967   1.237
  672SOL    HW1 2915   0.335   6.935   1.151
  672SOL    HW2 2916   0.322   0.024   1.274
  673SOL     OW 2917   6.276   6.954   6.333
  673SOL    HW1 2918   6.215   6.968   6.411
  673SOL    HW2 2919   6.371   6.971   6.362
  674SOL     OW 2920   4.654   6.921   4.419
  674SOL    HW1 2921   4.647   6.935   4.518
  674SOL    HW2 2922   4.717   6.846   4.400
  675SOL     OW 2923   1.362   5.275   2.649
  675SOL    HW1 2924   1.277   5.319   2.620
  675SOL    HW2 2925   1.433   5.290   2.581
  676SOL     OW 2926   2.423   5.636   6.764
  676SOL    HW1 2927   2.457   5.570   6.831
  676SOL    HW2 2928   2.458   5.727   6.786
  677SOL     OW 2929   5.450   0.393   1.319
  677SOL    HW1 2930   5.411   0.420   1.231
  677SOL    HW2 2931   5.481   0.298   1.314
  678SOL     OW 2932   0.622   5.537   4.434
  678SOL    HW1 2933   0.581   5.581   4.514
  678SOL    HW2 2934   0.649   5.606   4.367
  679SOL     OW 2935   5.384   1.086   5.837
  679SOL    HW1 2936   5.379   1.143   5.756
  679SOL    HW2 2937   5.415   0.994   5.812
  680SOL     OW 2938   5.829   6.950   4.313
  680SOL    HW1 2939   5.855   6.854   4.301
  680SOL    HW2 2940   5.841   6.977   4.409
  681SOL     OW 2941   4.436   4.522   2.768
  681SOL    HW1 2942   4.507   4.456   2.794
  681SOL    HW2 2943   4.441   4.537   2.669
  682SOL     OW 2944   6.137   1.456   3.057
  682SOL    HW1 2945   6.183   1.543   3.045
  682SOL    HW2 2946   6.114   1.417   2.968
  683SOL     OW 2947   3.272   5.094   0.196
  683SOL    HW1 2948   3.259   5.004   0.237
  683SOL    HW2 2949   3.210   5.104   0.117
  684SOL     OW 2950   5.936   1.962   6.258
  684SOL    HW1 2951   5.975   1.901   6.189
  684SOL    HW2 2952   5.969   2.055   6.243
  685SOL     OW 2953   3.103   6.381   3.484
  685SOL    HW1 2954   3.164   6.353   3.411
  685SOL    HW2 2955   3.062   6.300   3.526
  686SOL     OW 2956   3.239   0.689   5.735
  686SOL    HW1 2957   3.145   0.655   5.747
  686SOL    HW2 2958   3.293   0.667   5.816
  687SOL     OW 2959   0.465   0.705   4.513
  687SOL    HW1 2960   0.392   0.769   4.536
  687SOL    HW2 2961   0.513   0.678   4.597
  688SOL     OW 2962   4.950   3.754   6.820
  688SOL    HW1 2963   5.023   3.777   6.755
  688SOL    HW2 2964   4.963   3.661   6.854
  689SOL     OW 2965   2.659   5.858   0.157
  689SOL    HW1 2966   2.717   5.839   0.236
  689SOL    HW2 2967   2.573   5.898   0.188
  690SOL     OW 2968   5.832   3.499   4.027
  690SOL    HW1 2969   5.737   3.517   4.048
  690SOL    HW2 2970   5.866   3.566   3.961
  691SOL     OW 2971   5.478   0.692   2.767
  691SOL    HW1 2972   5.386   0.693   2.728
  691SOL    HW2 2973   5.508   0.598   2.780
  692SOL     OW 2974   1.160   0.118   3.249
  692SOL    HW1 2975   1.227   0.112   3.175
  692SOL    HW2 2976   1.201   0.164   3.328
  693SOL     OW 2977   5.972   3.886   2.194
  693SOL    HW1 2978   6.051   3.913   2.140
  693SOL    HW2 2979   6.000   3.821   2.265
  694SOL     OW 2980   4.256   4.700   4.288
  694SOL    HW1 2981   4.185   4.753   4.333
  694SOL    HW2 2982   4.335   4.690   4.349
  695SOL     OW 2983   4.423   0.040   3.893
  695SOL    HW1 2984   4.416   0.015   3.990
  695SOL    HW2 2985   4.458   0.134   3.886
  696SOL     OW 2986   6.792   4.704   2.145
  696SOL    HW1 2987   6.779   4.786   2.090
  696SOL    HW2 2988   6.829   4.631   2.087
  697SOL     OW 2989   0.357   6.119   3.215
  697SOL    HW1 2990   0.261   6.113   3.241
  697SOL    HW2 2991   0.415   6.085   3.289
  698SOL     OW 2992   5.825   6.236   5.685
  698SOL    HW1 2993   5.776   6.160   5.726
  698SOL    HW2 2994   5.802   6.243   5.588
  699SOL     OW 2995   4.050   2.876   0.504
  699SOL    HW1 2996   4.105   2.894   0.585
  699SOL    HW2 2997   3.995   2.956   0.481
  700SOL     OW 2998   3.657   6.560   5.540
  700SOL    HW1 2999   3.745   6.541   5.497
  700SOL    HW2 3000   3.645   6.658   5.549
  701SOL     OW 3001   4.601   4.457   1.786
  701SOL    HW1 3002   4.680   4.408   1.750
  701SOL    HW2 3003   4.540   4.393   1.832
  702SOL     OW 3004   4.129   0.923   5.106
  702SOL    HW1 3005   4.226   0.930   5.083
  702SOL    HW2 3006   4.076   0.989   5.053
  703SOL     OW 3007   3.588   2.836   0.799
  703SOL    HW1 3008   3.591   2.801   0.705
  703SOL    HW2 3009   3.563   2.933   0.797
  704SOL     OW 3010   3.958   1.851   0.052
  704SOL    HW1 3011   3.959   1.757   0.018
  704SOL    HW2 3012   4.036   1.901   0.015
  705SOL     OW 3013   6.989   6.708   5.971
  705SOL    HW1 3014   6.945   6.756   5.896
  705SOL    HW2 3015   7.015   6.616   5.941
  706SOL     OW 3016   3.900   0.528   4.968
  706SOL    HW1 3017   3.809   0.540   5.007
  706SOL    HW2 3018   3.965   0.584   5.019
  707SOL     OW 3019   3.361   4.920   4.150
  707SOL    HW1 3020   3.334   4.904   4.245
  707SOL    HW2 3021   3.291   4.884   4.088
  708SOL     OW 3022   2.771   6.329   4.100
  708SOL    HW1 3023   2.844   6.266   4.127
  708SOL    HW2 3024   2.776   6.345   4.001
  709SOL     OW 3025   2.368   6.816   1.784
  709SOL    HW1 3026   2.331   6.833   1.693
  709SOL    HW2 3027   2.419   6.897   1.814
  710SOL     OW 3028   4.760   2.471   2.384
  710SOL    HW1 3029   4.843   2.498   2.335
  710SOL    HW2 3030   4.683   2.525   2.350
  711SOL     OW 3031   6.888   1.252   0.941
  711SOL    HW1 3032   6.948   1.173   0.930
  711SOL    HW2 3033   6.936   1.334   0.910
  712SOL     OW 3034   4.508   4.631   0.033
  712SOL    HW1 3035   4.602   4.664   0.030
  712SOL    HW2 3036   4.450   4.690   6.996
  713SOL     OW 3037   3.945   3.060   5.654
  713SOL    HW1 3038   3.909   3.039   5.745
  713SOL    HW2 3039   4.031   3.110   5.664
  714SOL     OW 3040   4.187   6.672   3.045
  714SOL    HW1 3041   4.227   6.650   2.956
  714SOL    HW2 3042   4.092   6.699   3.034
  715SOL     OW 3043   6.000   4.044   5.605
  715SOL    HW1 3044   5.941   4.013   5.680
  715SOL    HW2 3045   5.971   4.136   5.576
  716SOL     OW 3046   3.188   1.386   3.272
  716SOL    HW1 3047   3.243   1.417   3.349
  716SOL    HW2 3048   3.234   1.407   3.187
  717SOL     OW 3049   5.670   4.765   3.312
  717SOL    HW1 3050   5.637   4.713   3.391
  717SOL    HW2 3051   5.617   4.740   3.231
  718SOL     OW 3052   6.560   1.842   5.488
  718SOL    HW1 3053   6.572   1.940   5.500
  718SOL    HW2 3054   6.646   1.803   5.453
  719SOL     OW 3055   4.452   5.317   2.361
  719SOL    HW1 3056   4.501   5.229   2.359
  719SOL    HW2 3057   4.415   5.332   2.453
  720SOL     OW 3058   2.839   1.569   1.163
  720SOL    HW1 3059   2.909   1.625   1.208
  720SOL    HW2 3060   2.749   1.600   1.191
  721SOL     OW 3061   6.819   2.651   2.603
  721SOL    HW1 3062   6.853   2.745   2.599
  721SOL    HW2 3063   6.891   2.588   2.573
  722SOL     OW 3064   5.387   6.282   2.180
  722SOL    HW1 3065   5.475   6.316   2.214
  722SOL    HW2 3066   5.387   6.182   2.181
  723SOL     OW 3067   2.360   0.471   4.559
  723SOL    HW1 3068   2.406   0.547   4.512
  723SOL    HW2 3069   2.272   0.454   4.516
  724SOL     OW 3070   1.345   2.852   4.679
  724SOL    HW1 3071   1.409   2.848   4.756
  724SOL    HW2 3072   1.377   2.792   4.606
  725SOL     OW 3073   1.650   4.186   3.396
  725SOL    HW1 3074   1.620   4.253   3.328
  725SOL    HW2 3075   1.687   4.106   3.350
  726SOL     OW 3076   2.519   3.475   0.403
  726SOL    HW1 3077   2.511   3.538   0.326
  726SOL    HW2 3078   2.572   3.395   0.375
  727SOL     OW 3079   3.779   5.281   5.006
  727SOL    HW1 3080   3.744   5.340   5.079
  727SOL    HW2 3081   3.843   5.332   4.949
  728SOL     OW 3082   6.174   3.694   3.479
  728SOL    HW1 3083   6.209   3.740   3.560
  728SOL    HW2 3084   6.102   3.630   3.505
  729SOL     OW 3085   0.814   4.909   0.534
  729SOL    HW1 3086   0.744   4.931   0.603
  729SOL    HW2 3087   0.769   4.876   0.451
  730SOL     OW 3088   4.108   1.491   3.169
  730SOL    HW1 3089   4.053   1.422   3.216
  730SOL    HW2 3090   4.205   1.468   3.178
  731SOL     OW 3091   4.976   4.605   4.708
  731SOL    HW1 3092   4.988   4.574   4.614
  731SOL    HW2 3093   5.066   4.628   4.747
  732SOL     OW 3094   4.550   0.970   4.495
  732SOL    HW1 3095   4.530   0.888   4.441
  732SOL    HW2 3096   4.486   0.975   4.572
  733SOL     OW 3097   0.695   4.989   4.607
  733SOL    HW1 3098   0.669   5.082   4.578
  733SOL    HW2 3099   0.704   4.931   4.526
  734SOL     OW 3100   6.009   5.858   3.421
  734SOL    HW1 3101   5.936   5.897   3.478
  734SOL    HW2 3102   5.985   5.765   3.394
  735SOL     OW 3103   4.569   0.463   2.756
  735SOL    HW1 3104   4.645   0.448   2.819
  735SOL    HW2 3105   4.485   0.426   2.795
  736SOL     OW 3106   2.116   1.499   3.221
  736SOL    HW1 3107   2.050   1.555   3.171
  736SOL    HW2 3108   2.197   1.484   3.164
  737SOL     OW 3109   3.598   1.319   6.258
  737SOL    HW1 3110   3.601   1.294   6.162
  737SOL    HW2 3111   3.675   1.277   6.306
  738SOL     OW 3112   1.339   5.458   0.333
  738SOL    HW1 3113   1.298   5.388   0.392
  738SOL    HW2 3114   1.268   5.494   0.271
  739SOL     OW 3115   1.520   0.643   2.909
  739SOL    HW1 3116   1.616   0.632   2.882
  739SOL    HW2 3117   1.474   0.705   2.846
  740SOL     OW 3118   4.574   2.537   2.609
  740SOL    HW1 3119   4.648   2.498   2.555
  740SOL    HW2 3120   4.595   2.633   2.630
  741SOL     OW 3121   3.189   1.444   2.302
  741SOL    HW1 3122   3.230   1.424   2.391
  741SOL    HW2 3123   3.253   1.498   2.248
  742SOL     OW 3124   2.210   0.510   2.650
  742SOL    HW1 3125   2.210   0.589   2.589
  742SOL    HW2 3126   2.120   0.467   2.649
  743SOL     OW 3127   6.919   6.528   2.489
  743SOL    HW1 3128   6.890   6.512   2.394
  743SOL    HW2 3129   6.838   6.526   2.548
  744SOL     OW 3130   5.531   1.104   1.197
  744SOL    HW1 3131   5.532   1.182   1.259
  744SOL    HW2 3132   5.624   1.081   1.171
  745SOL     OW 3133   1.392   0.040   5.739
  745SOL    HW1 3134   1.382   0.067   5.644
  745SOL    HW2 3135   1.335   6.978   5.757
  746SOL     OW 3136   6.478   5.904   4.924
  746SOL    HW1 3137   6.385   5.886   4.954
  746SOL    HW2 3138   6.480   5.913   4.825
  747SOL     OW 3139   3.625   5.175   2.657
  747SOL    HW1 3140   3.640   5.185   2.559
  747SOL    HW2 3141   3.585   5.085   2.675
  748SOL     OW 3142   6.212   4.634   2.842
  748SOL    HW1 3143   6.136   4.600   2.897
  748SOL    HW2 3144   6.184   4.715   2.791
  749SOL     OW 3145   4.679   4.232   4.697
  749SOL    HW1 3146   4.663   4.326   4.729
  749SOL    HW2 3147   4.608   4.207   4.632
  750SOL     OW 3148   2.832   2.090   2.882
  750SOL    HW1 3149   2.756   2.028   2.861
  750SOL    HW2 3150   2.847   2.152   2.805
  751SOL     OW 3151   4.390   0.143   0.547
  751SOL    HW1 3152   4.328   0.201   0.599
  751SOL    HW2 3153   4.359   0.136   0.452
  752SOL     OW 3154   3.037   3.094   4.027
  752SOL    HW1 3155   3.125   3.058   4.055
  752SOL    HW2 3156   3.001   3.040   3.951
  753SOL     OW 3157   3.799   3.700   3.978
  753SOL    HW1 3158   3.889   3.743   3.989
  753SOL    HW2 3159   3.797   3.644   3.896
  754SOL     OW 3160   4.746   1.112   6.170
  754SOL    HW1 3161   4.836   1.148   6.146
  754SOL    HW2 3162   4.732   1.023   6.127
  755SOL     OW 3163   4.896   4.362   5.073
  755SOL    HW1 3164   4.860   4.454   5.090
  755SOL    HW2 3165   4.831   4.295   5.109
  756SOL     OW 3166   3.287   5.473   5.983
  756SOL    HW1 3167   3.254   5.422   5.904
  756SOL    HW2 3168   3.230   5.453   6.063
  757SOL     OW 3169   0.894   6.709   1.777
  757SOL    HW1 3170   0.840   6.742   1.854
  757SOL    HW2 3171   0.988   6.742   1.786
  758SOL     OW 3172   3.555   1.426   5.266
  758SOL    HW1 3173   3.504   1.462   5.187
  758SOL    HW2 3174   3.537   1.328   5.275
  759SOL     OW 3175   6.852   2.742   3.612
  759SOL    HW1 3176   6.845   2.723   3.514
  759SOL    HW2 3177   6.762   2.730   3.655
  760SOL     OW 3178   0.240   5.672   4.565
  760SOL    HW1 3179   0.322   5.628   4.599
  760SOL    HW2 3180   0.251   5.692   4.467
  761SOL     OW 3181   5.048   4.764   6.260
  761SOL    HW1 3182   5.032   4.845   6.205
  761SOL    HW2 3183   5.085   4.691   6.202
  762SOL     OW 3184   4.066   5.922   3.493
  762SOL    HW1 3185   4.008   6.001   3.513
  762SOL    HW2 3186   4.156   5.935   3.536
  763SOL     OW 3187   5.525   1.394   0.460
  763SOL    HW1 3188   5.569   1.377   0.371
  763SOL    HW2 3189   5.595   1.417   0.528
  764SOL     OW 3190   4.884   6.265   4.556
  764SOL    HW1 3191   4.965   6.324   4.553
  764SOL    HW2 3192   4.905   6.183   4.609
  765SOL     OW 3193   5.412   5.893   0.261
  765SOL    HW1 3194   5.511   5.880   0.255
  765SOL    HW2 3195   5.385   5.969   0.202
  766SOL     OW 3196   2.112   1.739   3.543
  766SOL    HW1 3197   2.115   1.829   3.500
  766SOL    HW2 3198   2.073   1.748   3.635
  767SOL     OW 3199   6.678   6.519   3.418
  767SOL    HW1 3200   6.695   6.471   3.332
  767SOL    HW2 3201   6.580   6.516   3.439
  768SOL     OW 3202   3.060   5.907   1.719
  768SOL    HW1 3203   2.991   5.841   1.750
  768SOL    HW2 3204   3.013   5.986   1.678
  769SOL     OW 3205   3.963   1.842   5.174
  769SOL    HW1 3206   4.061   1.850   5.191
  769SOL    HW2 3207   3.917   1.819   5.260
  770SOL     OW 3208   0.923   4.830   6.220
  770SOL    HW1 3209   1.007   4.801   6.266
  770SOL    HW2 3210   0.948   4.884   6.139
  771SOL     OW 3211   1.615   4.954   2.807
  771SOL    HW1 3212   1.687   4.910   2.753
  771SOL    HW2 3213   1.627   5.053   2.803
  772SOL     OW 3214   6.440   5.099   0.248
  772SOL    HW1 3215   6.423   5.184   0.199
  772SOL    HW2 3216   6.432   5.022   0.184
  773SOL     OW 3217   1.541   4.902   4.222
  773SOL    HW1 3218   1.491   4.987   4.207
  773SOL    HW2 3219   1.489   4.843   4.284
  774SOL     OW 3220   1.698   2.317   3.384
  774SOL    HW1 3221   1.738   2.253   3.319
  774SOL    HW2 3222   1.739   2.302   3.474
  775SOL     OW 3223   0.988   4.787   2.399
  775SOL    HW1 3224   0.995   4.836   2.485
  775SOL    HW2 3225   1.021   4.693   2.411
  776SOL     OW 3226   2.412   4.674   0.187
  776SOL    HW1 3227   2.387   4.581   0.160
  776SOL    HW2 3228   2.425   4.729   0.105
  777SOL     OW 3229   1.741   3.376   6.563
  777SOL    HW1 3230   1.743   3.468   6.524
  777SOL    HW2 3231   1.834   3.341   6.572
  778SOL     OW 3232   3.756   5.629   6.690
  778SOL    HW1 3233   3.777   5.558   6.757
  778SOL    HW2 3234   3.661   5.658   6.701
  779SOL     OW 3235   5.989   1.858   3.165
  779SOL    HW1 3236   6.016   1.783   3.225
  779SOL    HW2 3237   5.894   1.844   3.135
  780SOL     OW 3238   5.745   1.548   5.046
  780SOL    HW1 3239   5.721   1.462   5.090
  780SOL    HW2 3240   5.821   1.591   5.096
  781SOL     OW 3241   6.914   4.910   6.488
  781SOL    HW1 3242   6.989   4.976   6.489
  781SOL    HW2 3243   6.902   4.873   6.580
  782SOL     OW 3244   2.339   3.964   5.498
  782SOL    HW1 3245   2.326   4.052   5.544
  782SOL    HW2 3246   2.323   3.975   5.400
  783SOL     OW 3247   0.340   5.129   6.097
  783SOL    HW1 3248   0.409   5.061   6.123
  783SOL    HW2 3249   0.321   5.122   5.999
  784SOL     OW 3250   1.822   5.987   6.108
  784SOL    HW1 3251   1.863   5.992   6.017
  784SOL    HW2 3252   1.723   5.977   6.100
  785SOL     OW 3253   0.478   0.093   3.977
  785SOL    HW1 3254   0.475   0.045   3.889
  785SOL    HW2 3255   0.512   0.031   4.047
  786SOL     OW 3256   6.063   1.572   4.919
  786SOL    HW1 3257   6.117   1.539   4.997
  786SOL    HW2 3258   6.029   1.494   4.866
  787SOL     OW 3259   2.164   6.692   0.435
  787SOL    HW1 3260   2.075   6.687   0.391
  787SOL    HW2 3261   2.167   6.629   0.512
  788SOL     OW 3262   2.072   3.413   2.435
  788SOL    HW1 3263   2.028   3.469   2.364
  788SOL    HW2 3264   2.108   3.473   2.507
  789SOL     OW 3265   3.493   5.431   2.347
  789SOL    HW1 3266   3.410   5.381   2.372
  789SOL    HW2 3267   3.498   5.438   2.247
  790SOL     OW 3268   0.236   3.207   2.532
  790SOL    HW1 3269   0.213   3.122   2.579
  790SOL    HW2 3270   0.173   3.221   2.455
  791SOL     OW 3271   3.501   0.851   3.917
  791SOL    HW1 3272   3.428   0.786   3.893
  791SOL    HW2 3273   3.462   0.942   3.929
  792SOL     OW 3274   3.077   1.001   0.550
  792SOL    HW1 3275   3.152   1.053   0.589
  792SOL    HW2 3276   3.092   0.903   0.567
  793SOL     OW 3277   1.938   5.988   4.498
  793SOL    HW1 3278   1.951   5.890   4.505
  793SOL    HW2 3279   1.862   6.007   4.435
  794SOL     OW 3280   3.454   3.429   2.338
  794SOL    HW1 3281   3.450   3.330   2.333
  794SOL    HW2 3282   3.365   3.468   2.315
  795SOL     OW 3283   4.291   6.664   6.021
  795SOL    HW1 3284   4.280   6.710   5.933
  795SOL    HW2 3285   4.254   6.721   6.094
  796SOL     OW 3286   1.011   2.673   6.340
  796SOL    HW1 3287   1.026   2.762   6.383
  796SOL    HW2 3288   0.964   2.612   6.403
  797SOL     OW 3289   3.161   6.624   0.682
  797SOL    HW1 3290   3.068   6.626   0.646
  797SOL    HW2 3291   3.175   6.539   0.732
  798SOL     OW 3292   5.045   4.017   1.770
  798SOL    HW1 3293   4.978   4.013   1.844
  798SOL    HW2 3294   5.093   3.930   1.764
  799SOL     OW 3295   3.581   3.441   4.772
  799SOL    HW1 3296   3.651   3.503   4.734
  799SOL    HW2 3297   3.569   3.363   4.710
  800SOL     OW 3298   5.415   2.987   3.175
  800SOL    HW1 3299   5.335   3.044   3.193
  800SOL    HW2 3300   5.390   2.890   3.187
  801SOL     OW 3301   1.759   5.178   6.936
  801SOL    HW1 3302   1.851   5.141   6.952
  801SOL    HW2 3303   1.759   5.231   6.852
  802SOL     OW 3304   4.051   2.762   6.000
  802SOL    HW1 3305   4.136   2.760   5.948
  802SOL    HW2 3306   4.000   2.846   5.978
  803SOL     OW 3307   3.204   2.005   3.101
  803SOL    HW1 3308   3.179   1.909   3.093
  803SOL    HW2 3309   3.121   2.061   3.096
  804SOL     OW 3310   4.756   6.730   2.967
  804SOL    HW1 3311   4.771   6.829   2.961
  804SOL    HW2 3312   4.791   6.687   2.883
  805SOL     OW 3313   3.523   1.665   3.938
  805SOL    HW1 3314   3.525   1.672   3.838
  805SOL    HW2 3315   3.496   1.754   3.976
  806SOL     OW 3316   4.358   6.264   5.781
  806SOL    HW1 3317   4.295   6.323   5.833
  806SOL    HW2 3318   4.428   6.228   5.843
  807SOL     OW 3319   1.056   6.365   6.327
  807SOL    HW1 3320   1.050   6.346   6.425
  807SOL    HW2 3321   1.135   6.423   6.308
  808SOL     OW 3322   5.302   1.991   5.983
  808SOL    HW1 3323   5.325   1.971   6.078
  808SOL    HW2 3324   5.203   2.003   5.974
  809SOL     OW 3325   2.814   6.261   5.758
  809SOL    HW1 3326   2.770   6.323   5.823
  809SOL    HW2 3327   2.746   6.198   5.721
  810SOL     OW 3328   3.858   4.110   6.416
  810SOL    HW1 3329   3.950   4.080   6.441
  810SOL    HW2 3330   3.841   4.087   6.320
  811SOL     OW 3331   5.498   5.211   5.392
  811SOL    HW1 3332   5.539   5.236   5.304
  811SOL    HW2 3333   5.399   5.211   5.383
  812SOL     OW 3334   1.265   2.392   1.001
  812SOL    HW1 3335   1.216   2.309   1.026
  812SOL    HW2 3336   1.363   2.377   1.016
  813SOL     OW 3337   2.812   1.925   4.912
  813SOL    HW1 3338   2.748   1.981   4.964
  813SOL    HW2 3339   2.858   1.981   4.843
  814SOL     OW 3340   0.487   4.634   1.093
  814SOL    HW1 3341   0.465   4.691   1.173
  814SOL    HW2 3342   0.419   4.561   1.085
  815SOL     OW 3343   4.355   0.745   3.666
  815SOL    HW1 3344   4.314   0.722   3.754
  815SOL    HW2 3345   4.357   0.664   3.608
  816SOL     OW 3346   4.973   3.576   6.469
  816SOL    HW1 3347   4.897   3.602   6.410
  816SOL    HW2 3348   4.963   3.480   6.496
  817SOL     OW 3349   0.124   5.549   0.210
  817SOL    HW1 3350   0.136   5.459   0.252
  817SOL    HW2 3351   0.136   5.541   0.111
  818SOL     OW 3352   6.824   1.038   5.257
  818SOL    HW1 3353   6.776   0.975   5.319
  818SOL    HW2 3354   6.821   1.003   5.164
  819SOL     OW 3355   5.880   3.700   1.890
  819SOL    HW1 3356   5.835   3.781   1.929
  819SOL    HW2 3357   5.841   3.682   1.799
  820SOL     OW 3358   2.331   2.359   5.217
  820SOL    HW1 3359   2.351   2.374   5.120
  820SOL    HW2 3360   2.235   2.333   5.227
  821SOL     OW 3361   5.048   3.239   5.946
  821SOL    HW1 3362   5.135   3.277   5.980
  821SOL    HW2 3363   5.029   3.276   5.855
  822SOL     OW 3364   6.675   4.288   3.451
  822SOL    HW1 3365   6.741   4.224   3.412
  822SOL    HW2 3366   6.589   4.240   3.469
  823SOL     OW 3367   1.655   2.715   4.169
  823SOL    HW1 3368   1.604   2.755   4.093
  823SOL    HW2 3369   1.685   2.623   4.143
  824SOL     OW 3370   5.169   0.532   6.477
  824SOL    HW1 3371   5.087   0.578   6.444
  824SOL    HW2 3372   5.150   0.488   6.565
  825SOL     OW 3373   6.417   5.736   1.383
  825SOL    HW1 3374   6.465   5.714   1.298
  825SOL    HW2 3375   6.424   5.835   1.400
  826SOL     OW 3376   3.721   2.363   0.378
  826SOL    HW1 3377   3.789   2.425   0.339
  826SOL    HW2 3378   3.637   2.414   0.398
  827SOL     OW 3379   3.628   3.221   5.011
  827SOL    HW1 3380   3.663   3.214   4.918
  827SOL    HW2 3381   3.688   3.171   5.073
  828SOL     OW 3382   0.511   6.438   5.985
  828SOL    HW1 3383   0.523   6.363   5.920
  828SOL    HW2 3384   0.469   6.515   5.938
  829SOL     OW 3385   3.868   3.363   1.549
  829SOL    HW1 3386   3.813   3.423   1.491
  829SOL    HW2 3387   3.943   3.415   1.590
  830SOL     OW 3388   0.376   3.335   6.083
  830SOL    HW1 3389   0.307   3.355   6.152
  830SOL    HW2 3390   0.464   3.316   6.128
  831SOL     OW 3391   5.877   1.587   2.953
  831SOL    HW1 3392   5.791   1.535   2.960
  831SOL    HW2 3393   5.939   1.557   3.025
  832SOL     OW 3394   3.036   2.135   4.813
  832SOL    HW1 3395   3.057   2.195   4.890
  832SOL    HW2 3396   3.005   2.189   4.736
  833SOL     OW 3397   3.451   3.283   6.448
  833SOL    HW1 3398   3.409   3.362   6.493
  833SOL    HW2 3399   3.448   3.204   6.509
  834SOL     OW 3400   6.128   3.594   1.012
  834SOL    HW1 3401   6.174   3.642   0.938
  834SOL    HW2 3402   6.168   3.621   1.100
  835SOL     OW 3403   6.066   6.476   5.008
  835SOL    HW1 3404   6.007   6.554   5.030
  835SOL    HW2 3405   6.081   6.422   5.091
  836SOL     OW 3406   6.027   0.015   4.059
  836SOL    HW1 3407   6.087   0.004   3.980
  836SOL    HW2 3408   5.944   6.980   4.046
  837SOL     OW 3409   0.855   0.329   6.723
  837SOL    HW1 3410   0.881   0.232   6.728
  837SOL    HW2 3411   0.780   0.346   6.787
  838SOL     OW 3412   1.103   5.878   3.464
  838SOL    HW1 3413   1.020   5.839   3.423
  838SOL    HW2 3414   1.176   5.879   3.395
  839SOL     OW 3415   1.633   2.137   6.900
  839SOL    HW1 3416   1.690   2.122   6.819
  839SOL    HW2 3417   1.691   2.151   6.980
  840SOL     OW 3418   4.657   5.114   0.648
  840SOL    HW1 3419   4.657   5.032   0.704
  840SOL    HW2 3420   4.649   5.195   0.707
  841SOL     OW 3421   2.519   4.789   6.998
  841SOL    HW1 3422   2.580   4.724   6.953
  841SOL    HW2 3423   2.563   4.879   7.001
  842SOL     OW 3424   4.368   6.758   1.341
  842SOL    HW1 3425   4.402   6.852   1.339
  842SOL    HW2 3426   4.268   6.759   1.344
  843SOL     OW 3427   1.774   6.998   2.277
  843SOL    HW1 3428   1.819   6.937   2.341
  843SOL    HW2 3429   1.681   7.018   2.309
  844SOL     OW 3430   6.814   6.905   1.457
  844SOL    HW1 3431   6.885   6.912   1.527
  844SOL    HW2 3432   6.725   6.894   1.500
  845SOL     OW 3433   4.271   1.157   1.705
  845SOL    HW1 3434   4.313   1.221   1.640
  845SOL    HW2 3435   4.228   1.082   1.655
  846SOL     OW 3436   1.697   1.048   0.999
  846SOL    HW1 3437   1.648   0.962   0.984
  846SOL    HW2 3438   1.756   1.067   0.920
  847SOL     OW 3439   2.716   3.231   1.561
  847SOL    HW1 3440   2.795   3.291   1.571
  847SOL    HW2 3441   2.636   3.285   1.536
  848SOL     OW 3442   6.387   6.062   0.749
  848SOL    HW1 3443   6.321   6.026   0.815
  848SOL    HW2 3444   6.460   5.995   0.735
  849SOL     OW 3445   5.183   3.475   5.830
  849SOL    HW1 3446   5.250   3.431   5.890
  849SOL    HW2 3447   5.230   3.514   5.751
  850SOL     OW 3448   2.219   1.131   4.977
  850SOL    HW1 3449   2.197   1.221   4.938
  850SOL    HW2 3450   2.135   1.081   4.994
  851SOL     OW 3451   4.613   2.582   6.434
  851SOL    HW1 3452   4.570   2.493   6.446
  851SOL    HW2 3453   4.701   2.583   6.482
  852SOL     OW 3454   6.908   5.205   1.269
  852SOL    HW1 3455   6.899   5.260   1.186
  852SOL    HW2 3456   6.974   5.132   1.254
  853SOL     OW 3457   3.820   2.628   0.960
  853SOL    HW1 3458   3.786   2.718   0.933
  853SOL    HW2 3459   3.762   2.591   1.032
  854SOL     OW 3460   6.793   0.513   6.486
  854SOL    HW1 3461   6.822   0.605   6.516
  854SOL    HW2 3462   6.872   0.452   6.488
  855SOL     OW 3463   4.505   2.158   7.017
  855SOL    HW1 3464   4.590   2.138   6.968
  855SOL    HW2 3465   4.479   2.078   0.052
  856SOL     OW 3466   1.669   5.815   1.543
  856SOL    HW1 3467   1.668   5.780   1.449
  856SOL    HW2 3468   1.643   5.741   1.606
  857SOL     OW 3469   0.213   6.640   5.260
  857SOL    HW1 3470   0.221   6.739   5.264
  857SOL    HW2 3471   0.302   6.598   5.277
  858SOL     OW 3472   3.082   4.293   0.323
  858SOL    HW1 3473   2.992   4.338   0.319
  858SOL    HW2 3474   3.153   4.361   0.307
  859SOL     OW 3475   4.848   5.739   5.459
  859SOL    HW1 3476   4.761   5.702   5.425
  859SOL    HW2 3477   4.845   5.838   5.456
  860SOL     OW 3478   4.758   2.963   0.205
  860SOL    HW1 3479   4.755   2.972   0.304
  860SOL    HW2 3480   4.851   2.940   0.176
  861SOL     OW 3481   0.906   5.918   2.789
  861SOL    HW1 3482   0.929   5.841   2.849
  861SOL    HW2 3483   0.882   5.997   2.845
  862SOL     OW 3484   0.907   4.767   4.077
  862SOL    HW1 3485   0.995   4.721   4.083
  862SOL    HW2 3486   0.854   4.728   4.002
  863SOL     OW 3487   5.420   0.453   1.603
  863SOL    HW1 3488   5.444   0.400   1.521
  863SOL    HW2 3489   5.328   0.490   1.592
  864SOL     OW 3490   6.169   4.397   3.741
  864SOL    HW1 3491   6.201   4.455   3.666
  864SOL    HW2 3492   6.167   4.451   3.825
  865SOL     OW 3493   1.702   5.128   5.105
  865SOL    HW1 3494   1.740   5.141   5.014
  865SOL    HW2 3495   1.714   5.212   5.159
  866SOL     OW 3496   3.734   6.682   1.143
  866SOL    HW1 3497   3.801   6.613   1.172
  866SOL    HW2 3498   3.655   6.679   1.204
  867SOL     OW 3499   5.927   3.717   5.003
  867SOL    HW1 3500   6.025   3.722   5.022
  867SOL    HW2 3501   5.905   3.777   4.926
  868SOL     OW 3502   0.400   1.300   2.013
  868SOL    HW1 3503   0.426   1.396   2.019
  868SOL    HW2 3504   0.444   1.258   1.934
  869SOL     OW 3505   0.804   2.938   2.090
  869SOL    HW1 3506   0.893   2.918   2.049
  869SOL    HW2 3507   0.801   3.034   2.118
  870SOL     OW 3508   3.807   4.549   1.635
  870SOL    HW1 3509   3.749   4.604   1.695
  870SOL    HW2 3510   3.901   4.551   1.668
  871SOL     OW 3511   4.516   1.748   3.929
  871SOL    HW1 3512   4.614   1.767   3.925
  871SOL    HW2 3513   4.471   1.783   3.847
  872SOL     OW 3514   1.855   2.640   5.619
  872SOL    HW1 3515   1.762   2.604   5.609
  872SOL    HW2 3516   1.920   2.575   5.580
  873SOL     OW 3517   3.766   0.341   6.532
  873SOL    HW1 3518   3.753   0.248   6.566
  873SOL    HW2 3519   3.864   0.361   6.526
  874SOL     OW 3520   5.824   3.762   2.503
  874SOL    HW1 3521   5.747   3.718   2.550
  874SOL    HW2 3522   5.838   3.719   2.414
  875SOL     OW 3523   5.397   5.215   1.962
  875SOL    HW1 3524   5.477   5.259   1.921
  875SOL    HW2 3525   5.353   5.155   1.894
  876SOL     OW 3526   6.210   1.264   6.346
  876SOL    HW1 3527   6.278   1.315   6.400
  876SOL    HW2 3528   6.249   1.244   6.256
  877SOL     OW 3529   1.296   3.426   6.477
  877SOL    HW1 3530   1.339   3.363   6.412
  877SOL    HW2 3531   1.216   3.383   6.517
  878SOL     OW 3532   4.442   6.422   4.602
  878SOL    HW1 3533   4.542   6.430   4.596
  878SOL    HW2 3534   4.418   6.345   4.661
  879SOL     OW 3535   5.983   0.094   6.501
  879SOL    HW1 3536   5.941   0.023   6.444
  879SOL    HW2 3537   5.966   0.073   6.597
  880SOL     OW 3538   3.717   2.904   3.029
  880SOL    HW1 3539   3.781   2.881   2.956
  880SOL    HW2 3540   3.626   2.917   2.989
  881SOL     OW 3541   4.739   2.261   0.735
  881SOL    HW1 3542   4.682   2.322   0.791
  881SOL    HW2 3543   4.683   2.223   0.661
  882SOL     OW 3544   1.566   2.765   3.376
  882SOL    HW1 3545   1.514   2.730   3.454
  882SOL    HW2 3546   1.661   2.735   3.383
  883SOL     OW 3547   2.259   6.557   2.442
  883SOL    HW1 3548   2.218   6.528   2.528
  883SOL    HW2 3549   2.339   6.500   2.423
  884SOL     OW 3550   2.582   3.185   5.931
  884SOL    HW1 3551   2.668   3.217   5.889
  884SOL    HW2 3552   2.522   3.148   5.860
  885SOL     OW 3553   4.369   3.387   6.552
  885SOL    HW1 3554   4.409   3.410   6.641
  885SOL    HW2 3555   4.312   3.306   6.562
  886SOL     OW 3556   3.473   1.672   6.381
  886SOL    HW1 3557   3.394   1.709   6.331
  886SOL    HW2 3558   3.500   1.736   6.453
  887SOL     OW 3559   3.956   1.066   5.288
  887SOL    HW1 3560   3.863   1.031   5.282
  887SOL    HW2 3561   4.013   1.020   5.220
  888SOL     OW 3562   0.660   6.945   2.420
  888SOL    HW1 3563   0.720   0.000   2.448
  888SOL    HW2 3564   0.666   6.932   2.321
  889SOL     OW 3565   0.334   3.811   0.950
  889SOL    HW1 3566   0.431   3.811   0.974
  889SOL    HW2 3567   0.282   3.853   1.024
  890SOL     OW 3568   2.308   6.043   4.553
  890SOL    HW1 3569   2.229   6.092   4.588
  890SOL    HW2 3570   2.354   5.996   4.628
  891SOL     OW 3571   4.901   4.422   2.374
  891SOL    HW1 3572   5.000   4.437   2.382
  891SOL    HW2 3573   4.869   4.461   2.287
  892SOL     OW 3574   2.028   4.426   1.448
  892SOL    HW1 3575   2.079   4.342   1.465
  892SOL    HW2 3576   1.941   4.423   1.497
  893SOL     OW 3577   1.631   5.408   2.465
  893SOL    HW1 3578   1.574   5.332   2.433
  893SOL    HW2 3579   1.619   5.486   2.404
  894SOL     OW 3580   0.748   4.473   1.329
  894SOL    HW1 3581   0.825   4.438   1.383
  894SOL    HW2 3582   0.670   4.490   1.389
  895SOL     OW 3583   6.741   5.665   4.514
  895SOL    HW1 3584   6.836   5.647   4.540
  895SOL    HW2 3585   6.701   5.731   4.577
  896SOL     OW 3586   6.984   0.814   6.319
  896SOL    HW1 3587   6.973   0.890   6.255
  896SOL    HW2 3588   0.062   0.798   6.336
  897SOL     OW 3589   5.702   1.113   0.528
  897SOL    HW1 3590   5.622   1.105   0.469
  897SOL    HW2 3591   5.719   1.210   0.548
  898SOL     OW 3592   4.118   1.717   3.561
  898SOL    HW1 3593   4.096   1.727   3.464
  898SOL    HW2 3594   4.206   1.670   3.571
  899SOL     OW 3595   6.815   6.926   0.150
  899SOL    HW1 3596   6.721   6.914   0.182
  899SOL    HW2 3597   6.877   6.930   0.229
  900SOL     OW 3598   5.450   5.110   6.034
  900SOL    HW1 3599   5.394   5.186   6.003
  900SOL    HW2 3600   5.392   5.037   6.069
  901SOL     OW 3601   1.549   0.697   3.184
  901SOL    HW1 3602   1.622   0.763   3.164
  901SOL    HW2 3603   1.508   0.666   3.098
  902SOL     OW 3604   0.042   3.212   2.347
  902SOL    HW1 3605   6.964   3.228   2.367
  902SOL    HW2 3606   0.061   3.114   2.352
  903SOL     OW 3607   6.824   1.121   0.403
  903SOL    HW1 3608   6.767   1.039   0.396
  903SOL    HW2 3609   6.832   1.148   0.499
  904SOL     OW 3610   2.800   1.443   3.165
  904SOL    HW1 3611   2.752   1.358   3.142
  904SOL    HW2 3612   2.745   1.495   3.230
  905SOL     OW 3613   5.948   2.202   6.042
  905SOL    HW1 3614   5.852   2.216   6.066
  905SOL    HW2 3615   6.002   2.281   6.071
  906SOL     OW 3616   6.023   3.349   1.080
  906SOL    HW1 3617   6.056   3.440   1.056
  906SOL    HW2 3618   6.064   3.281   1.019
  907SOL     OW 3619   5.762   4.305   0.051
  907SOL    HW1 3620   5.760   4.298   6.970
  907SOL    HW2 3621   5.771   4.213   0.090
  908SOL     OW 3622   0.431   3.765   3.126
  908SOL    HW1 3623   0.360   3.727   3.186
  908SOL    HW2 3624   0.413   3.863   3.112
  909SOL     OW 3625   5.230   4.638   6.078
  909SOL    HW1 3626   5.213   4.596   5.989
  909SOL    HW2 3627   5.282   4.574   6.136
  910SOL     OW 3628   3.146   4.856   0.140
  910SOL    HW1 3629   3.053   4.889   0.122
  910SOL    HW2 3630   3.198   4.853   0.055
  911SOL     OW 3631   1.338   4.515   6.336
  911SOL    HW1 3632   1.332   4.612   6.315
  911SOL    HW2 3633   1.318   4.461   6.254
  912SOL     OW 3634   5.135   1.613   5.469
  912SOL    HW1 3635   5.090   1.696   5.500
  912SOL    HW2 3636   5.233   1.619   5.488
  913SOL     OW 3637   5.057   5.667   3.226
  913SOL    HW1 3638   5.039   5.576   3.264
  913SOL    HW2 3639   5.156   5.684   3.227
  914SOL     OW 3640   2.599   6.424   5.467
  914SOL    HW1 3641   2.588   6.520   5.495
  914SOL    HW2 3642   2.696   6.400   5.469
  915SOL     OW 3643   5.709   5.200   1.752
  915SOL    HW1 3644   5.711   5.162   1.659
  915SOL    HW2 3645   5.721   5.299   1.748
  916SOL     OW 3646   0.854   3.988   3.307
  916SOL    HW1 3647   0.770   3.999   3.361
  916SOL    HW2 3648   0.831   3.995   3.210
  917SOL     OW 3649   0.617   6.870   6.670
  917SOL    HW1 3650   0.674   6.884   6.589
  917SOL    HW2 3651   0.556   6.948   6.681
  918SOL     OW 3652   3.316   6.133   6.411
  918SOL    HW1 3653   3.218   6.134   6.388
  918SOL    HW2 3654   3.360   6.056   6.365
  919SOL     OW 3655   4.572   0.280   6.026
  919SOL    HW1 3656   4.619   0.198   6.058
  919SOL    HW2 3657   4.568   0.347   6.100
  920SOL     OW 3658   3.131   4.587   1.618
  920SOL    HW1 3659   3.083   4.551   1.698
  920SOL    HW2 3660   3.070   4.649   1.569
  921SOL     OW 3661   4.655   5.770   5.121
  921SOL    HW1 3662   4.752   5.775   5.143
  921SOL    HW2 3663   4.603   5.746   5.203
  922SOL     OW 3664   3.107   3.947   3.251
  922SOL    HW1 3665   3.143   4.030   3.293
  922SOL    HW2 3666   3.183   3.885   3.231
  923SOL     OW 3667   2.577   3.839   5.612
  923SOL    HW1 3668   2.556   3.757   5.559
  923SOL    HW2 3669   2.495   3.896   5.620
  924SOL     OW 3670   1.156   2.991   1.170
  924SOL    HW1 3671   1.253   3.013   1.163
  924SOL    HW2 3672   1.131   2.980   1.267
  925SOL     OW 3673   0.605   1.317   0.032
  925SOL    HW1 3674   0.653   1.294   0.116
  925SOL    HW2 3675   0.548   1.397   0.047
  926SOL     OW 3676   2.009   2.127   1.249
  926SOL    HW1 3677   1.952   2.080   1.316
  926SOL    HW2 3678   1.966   2.123   1.159
  927SOL     OW 3679   6.911   3.417   5.196
  927SOL    HW1 3680   6.992   3.476   5.187
  927SOL    HW2 3681   6.893   3.400   5.292
  928SOL     OW 3682   3.193   4.992   6.131
  928SOL    HW1 3683   3.208   5.039   6.218
  928SOL    HW2 3684   3.189   4.893   6.147
  929SOL     OW 3685   0.969   1.924   5.093
  929SOL    HW1 3686   1.064   1.939   5.123
  929SOL    HW2 3687   0.948   1.987   5.018
  930SOL     OW 3688   5.900   5.067   5.154
  930SOL    HW1 3689   5.950   5.127   5.216
  930SOL    HW2 3690   5.954   5.051   5.071
  931SOL     OW 3691   6.085   0.460   3.677
  931SOL    HW1 3692   6.170   0.489   3.721
  931SOL    HW2 3693   6.020   0.430   3.747
  932SOL     OW 3694   4.060   6.965   3.701
  932SOL    HW1 3695   4.081   0.027   3.757
  932SOL    HW2 3696   4.141   6.940   3.648
  933SOL     OW 3697   1.181   6.091   1.940
  933SOL    HW1 3698   1.103   6.029   1.945
  933SOL    HW2 3699   1.177   6.143   1.855
  934SOL     OW 3700   2.149   2.977   0.833
  934SOL    HW1 3701   2.220   2.907   0.825
  934SOL    HW2 3702   2.066   2.937   0.872
  935SOL     OW 3703   5.593   2.775   5.444
  935SOL    HW1 3704   5.510   2.795   5.496
  935SOL    HW2 3705   5.653   2.854   5.445
  936SOL     OW 3706   1.775   1.068   6.367
  936SOL    HW1 3707   1.745   1.162   6.348
  936SOL    HW2 3708   1.865   1.070   6.410
  937SOL     OW 3709   3.181   2.619   6.297
  937SOL    HW1 3710   3.106   2.560   6.329
  937SOL    HW2 3711   3.145   2.687   6.234
  938SOL     OW 3712   4.811   6.178   5.001
  938SOL    HW1 3713   4.800   6.157   5.098
  938SOL    HW2 3714   4.724   6.162   4.954
  939SOL     OW 3715   1.769   0.287   4.599
  939SOL    HW1 3716   1.756   0.291   4.500
  939SOL    HW2 3717   1.848   0.344   4.625
  940SOL     OW 3718   2.047   5.381   0.894
  940SOL    HW1 3719   2.063   5.479   0.894
  940SOL    HW2 3720   2.123   5.334   0.848
  941SOL     OW 3721   3.753   6.676   0.870
  941SOL    HW1 3722   3.759   6.700   0.967
  941SOL    HW2 3723   3.762   6.577   0.859
  942SOL     OW 3724   6.754   5.208   6.955
  942SOL    HW1 3725   6.681   5.274   6.968
  942SOL    HW2 3726   6.761   5.149   0.016
  943SOL     OW 3727   3.671   6.279   1.155
  943SOL    HW1 3728   3.579   6.310   1.177
  943SOL    HW2 3729   3.670   6.182   1.132
  944SOL     OW 3730   6.474   6.201   3.143
  944SOL    HW1 3731   6.466   6.171   3.048
  944SOL    HW2 3732   6.387   6.240   3.172
  945SOL     OW 3733   0.448   5.287   6.818
  945SOL    HW1 3734   0.473   5.222   6.889
  945SOL    HW2 3735   0.372   5.250   6.764
  946SOL     OW 3736   5.600   2.021   3.898
  946SOL    HW1 3737   5.581   2.112   3.861
  946SOL    HW2 3738   5.578   1.952   3.830
  947SOL     OW 3739   3.588   4.083   2.744
  947SOL    HW1 3740   3.522   4.029   2.797
  947SOL    HW2 3741   3.679   4.072   2.783
  948SOL     OW 3742   3.255   1.611   4.053
  948SOL    HW1 3743   3.231   1.524   4.011
  948SOL    HW2 3744   3.354   1.614   4.070
  949SOL     OW 3745   2.603   6.875   5.308
  949SOL    HW1 3746   2.673   6.822   5.260
  949SOL    HW2 3747   2.526   6.816   5.331
  950SOL     OW 3748   0.119   6.944   1.507
  950SOL    HW1 3749   0.159   0.014   1.526
  950SOL    HW2 3750   0.060   6.917   1.582
  951SOL     OW 3751   1.350   0.155   3.047
  951SOL    HW1 3752   1.324   0.251   3.045
  951SOL    HW2 3753   1.352   0.118   2.954
  952SOL     OW 3754   3.338   1.820   2.729
  952SOL    HW1 3755   3.424   1.771   2.747
  952SOL    HW2 3756   3.331   1.839   2.632
  953SOL     OW 3757   0.999   6.107   5.690
  953SOL    HW1 3758   0.956   6.183   5.641
  953SOL    HW2 3759   0.966   6.106   5.785
  954SOL     OW 3760   4.409   6.538   2.589
  954SOL    HW1 3761   4.394   6.440   2.599
  954SOL    HW2 3762   4.357   6.572   2.510
  955SOL     OW 3763   3.368   4.437   1.372
  955SOL    HW1 3764   3.386   4.454   1.469
  955SOL    HW2 3765   3.270   4.422   1.358
  956SOL     OW 3766   3.410   0.405   0.611
  956SOL    HW1 3767   3.504   0.383   0.586
  956SOL    HW2 3768   3.404   0.501   0.636
  957SOL     OW 3769   6.001   6.747   2.929
  957SOL    HW1 3770   6.046   6.665   2.894
  957SOL    HW2 3771   6.051   6.782   3.008
  958SOL     OW 3772   5.494   5.611   1.374
  958SOL    HW1 3773   5.479   5.706   1.349
  958SOL    HW2 3774   5.454   5.593   1.464
  959SOL     OW 3775   4.696   6.934   2.153
  959SOL    HW1 3776   4.789   6.950   2.185
  959SOL    HW2 3777   4.672   6.837   2.167
  960SOL     OW 3778   0.971   6.573   5.575
  960SOL    HW1 3779   0.973   6.670   5.551
  960SOL    HW2 3780   0.898   6.527   5.524
  961SOL     OW 3781   3.894   1.137   3.656
  961SOL    HW1 3782   3.920   1.083   3.576
  961SOL    HW2 3783   3.943   1.224   3.655
  962SOL     OW 3784   0.057   0.296   5.008
  962SOL    HW1 3785   0.104   0.211   5.031
  962SOL    HW2 3786   7.014   0.280   4.932
  963SOL     OW 3787   5.550   2.545   1.317
  963SOL    HW1 3788   5.549   2.644   1.327
  963SOL    HW2 3789   5.543   2.521   1.220
  964SOL     OW 3790   3.821   6.473   5.171
  964SOL    HW1 3791   3.863   6.470   5.262
  964SOL    HW2 3792   3.833   6.384   5.127
  965SOL     OW 3793   4.766   1.597   4.463
  965SOL    HW1 3794   4.825   1.664   4.508
  965SOL    HW2 3795   4.678   1.593   4.511
  966SOL     OW 3796   5.139   1.081   3.311
  966SOL    HW1 3797   5.137   1.128   3.223
  966SOL    HW2 3798   5.133   1.148   3.385
  967SOL     OW 3799   3.715   5.485   5.890
  967SOL    HW1 3800   3.654   5.409   5.868
  967SOL    HW2 3801   3.737   5.535   5.807
  968SOL     OW 3802   4.476   0.483   1.602
  968SOL    HW1 3803   4.393   0.481   1.546
  968SOL    HW2 3804   4.542   0.416   1.568
  969SOL     OW 3805   3.042   3.633   6.784
  969SOL    HW1 3806   3.119   3.623   6.721
  969SOL    HW2 3807   2.956   3.630   6.733
  970SOL     OW 3808   4.298   6.046   5.354
  970SOL    HW1 3809   4.350   6.094   5.284
  970SOL    HW2 3810   4.200   6.060   5.338
  971SOL     OW 3811   4.910   3.200   3.522
  971SOL    HW1 3812   4.916   3.270   3.451
  971SOL    HW2 3813   5.002   3.183   3.558
  972SOL     OW 3814   0.402   1.698   0.785
  972SOL    HW1 3815   0.366   1.631   0.720
  972SOL    HW2 3816   0.374   1.672   0.878
  973SOL     OW 3817   6.509   2.562   4.953
  973SOL    HW1 3818   6.607   2.540   4.948
  973SOL    HW2 3819   6.482   2.609   4.869
  974SOL     OW 3820   1.396   3.315   2.044
  974SOL    HW1 3821   1.389   3.397   1.987
  974SOL    HW2 3822   1.446   3.244   1.994
  975SOL     OW 3823   3.273   0.596   1.865
  975SOL    HW1 3824   3.369   0.577   1.844
  975SOL    HW2 3825   3.262   0.694   1.886
  976SOL     OW 3826   0.196   2.914   3.793
  976SOL    HW1 3827   0.137   2.874   3.864
  976SOL    HW2 3828   0.158   2.893   3.703
  977SOL     OW 3829   6.623   1.487   1.732
  977SOL    HW1 3830   6.574   1.400   1.726
  977SOL    HW2 3831   6.575   1.548   1.794
  978SOL     OW 3832   5.629   1.988   0.528
  978SOL    HW1 3833   5.632   1.890   0.509
  978SOL    HW2 3834   5.594   2.037   0.449
  979SOL     OW 3835   0.361   5.025   6.441
  979SOL    HW1 3836   0.374   4.995   6.346
  979SOL    HW2 3837   0.404   5.114   6.454
  980SOL     OW 3838   4.773   1.755   3.928
  980SOL    HW1 3839   4.824   1.687   3.874
  980SOL    HW2 3840   4.764   1.722   4.022
  981SOL     OW 3841   0.543   6.155   5.861
  981SOL    HW1 3842   0.451   6.118   5.847
  981SOL    HW2 3843   0.586   6.108   5.938
  982SOL     OW 3844   0.484   0.852   6.508
  982SOL    HW1 3845   0.574   0.884   6.536
  982SOL    HW2 3846   0.414   0.914   6.543
  983SOL     OW 3847   6.895   3.763   2.251
  983SOL    HW1 3848   6.938   3.853   2.239
  983SOL    HW2 3849   6.811   3.760   2.196
  984SOL     OW 3850   0.360   4.002   3.908
  984SOL    HW1 3851   0.425   3.941   3.862
  984SOL    HW2 3852   0.380   4.097   3.881
  985SOL     OW 3853   5.539   4.813   5.662
  985SOL    HW1 3854   5.591   4.748   5.717
  985SOL    HW2 3855   5.498   4.883   5.721
  986SOL     OW 3856   4.161   5.747   1.711
  986SOL    HW1 3857   4.065   5.733   1.688
  986SOL    HW2 3858   4.211   5.783   1.632
  987SOL     OW 3859   4.487   4.646   4.463
  987SOL    HW1 3860   4.465   4.630   4.559
  987SOL    HW2 3861   4.506   4.559   4.418
  988SOL     OW 3862   3.112   4.811   2.360
  988SOL    HW1 3863   3.013   4.819   2.347
  988SOL    HW2 3864   3.158   4.822   2.271
  989SOL     OW 3865   0.503   2.415   1.486
  989SOL    HW1 3866   0.488   2.488   1.419
  989SOL    HW2 3867   0.518   2.329   1.439
  990SOL     OW 3868   3.484   0.142   5.240
  990SOL    HW1 3869   3.441   0.092   5.315
  990SOL    HW2 3870   3.540   0.078   5.186
  991SOL     OW 3871   1.283   6.393   4.098
  991SOL    HW1 3872   1.351   6.326   4.069
  991SOL    HW2 3873   1.230   6.356   4.175
  992SOL     OW 3874   6.652   3.608   0.855
  992SOL    HW1 3875   6.640   3.566   0.765
  992SOL    HW2 3876   6.686   3.701   0.844
  993SOL     OW 3877   2.032   5.081   6.985
  993SOL    HW1 3878   2.035   5.118   0.059
  993SOL    HW2 3879   2.123   5.048   6.960
  994SOL     OW 3880   3.024   0.112   1.185
  994SOL    HW1 3881   2.966   0.072   1.114
  994SOL    HW2 3882   3.102   0.053   1.202
  995SOL     OW 3883   5.349   4.203   5.325
  995SOL    HW1 3884   5.276   4.217   5.393
  995SOL    HW2 3885   5.312   4.155   5.246
  996SOL     OW 3886   4.124   6.729   5.361
  996SOL    HW1 3887   4.049   6.770   5.413
  996SOL    HW2 3888   4.089   6.659   5.300
  997SOL     OW 3889   1.284   6.282   3.400
  997SOL    HW1 3890   1.229   6.257   3.480
  997SOL    HW2 3891   1.225   6.293   3.320
  998SOL     OW 3892   4.652   0.021   0.040
  998SOL    HW1 3893   4.552   0.014   0.043
  998SOL    HW2 3894   4.679   0.116   0.058
  999SOL     OW 3895   5.986   3.138   2.363
  999SOL    HW1 3896   5.921   3.211   2.387
  999SOL    HW2 3897   6.030   3.160   2.277
 1000SOL     OW 3898   6.217   1.677   1.929
 1000SOL    HW1 3899   6.194   1.772   1.949
 1000SOL    HW2 3900   6.138   1.619   1.950
 1001SOL     OW 3901   2.471   6.682   3.110
 1001SOL    HW1 3902   2.392   6.626   3.083
 1001SOL    HW2 3903   2.496   6.742   3.033
 1002SOL     OW 3904   4.133   2.385   0.014
 1002SOL    HW1 3905   4.134   2.309   0.079
 1002SOL    HW2 3906   4.150   2.350   6.941
 1003SOL     OW 3907   0.996   1.424   3.760
 1003SOL    HW1 3908   0.963   1.332   3.778
 1003SOL    HW2 3909   0.919   1.488   3.759
 1004SOL     OW 3910   4.556   1.466   4.842
 1004SOL    HW1 3911   4.517   1.470   4.750
 1004SOL    HW2 3912   4.533   1.378   4.885
 1005SOL     OW 3913   0.979   5.926   2.113
 1005SOL    HW1 3914   0.997   5.846   2.057
 1005SOL    HW2 3915   0.895   5.912   2.166
 1006SOL     OW 3916   1.584   4.477   1.285
 1006SOL    HW1 3917   1.568   4.498   1.381
 1006SOL    HW2 3918   1.526   4.400   1.257
 1007SOL     OW 3919   4.633   1.244   6.436
 1007SOL    HW1 3920   4.560   1.181   6.462
 1007SOL    HW2 3921   4.669   1.220   6.347
 1008SOL     OW 3922   0.358   4.210   4.703
 1008SOL    HW1 3923   0.335   4.288   4.761
 1008SOL    HW2 3924   0.430   4.156   4.747
 1009SOL     OW 3925   6.296   6.381   6.674
 1009SOL    HW1 3926   6.317   6.416   6.765
 1009SOL    HW2 3927   6.308   6.454   6.607
 1010SOL     OW 3928   3.264   3.899   0.346
 1010SOL    HW1 3929   3.179   3.951   0.341
 1010SOL    HW2 3930   3.340   3.960   0.368
 1011SOL     OW 3931   6.967   5.300   2.258
 1011SOL    HW1 3932   6.919   5.323   2.343
 1011SOL    HW2 3933   0.037   5.346   2.256
 1012SOL     OW 3934   5.188   6.140   3.402
 1012SOL    HW1 3935   5.268   6.197   3.423
 1012SOL    HW2 3936   5.183   6.064   3.467
 1013SOL     OW 3937   0.861   1.203   6.490
 1013SOL    HW1 3938   0.852   1.277   6.424
 1013SOL    HW2 3939   0.935   1.142   6.461
 1014SOL     OW 3940   0.781   4.507   4.402
 1014SOL    HW1 3941   0.783   4.467   4.493
 1014SOL    HW2 3942   0.868   4.489   4.356
 1015SOL     OW 3943   3.343   6.033   6.833
 1015SOL    HW1 3944   3.379   6.119   6.868
 1015SOL    HW2 3945   3.253   6.049   6.792
 1016SOL     OW 3946   6.857   4.954   0.386
 1016SOL    HW1 3947   6.932   4.903   0.343
 1016SOL    HW2 3948   6.772   4.904   0.375
 1017SOL     OW 3949   1.626   0.440   2.275
 1017SOL    HW1 3950   1.546   0.497   2.262
 1017SOL    HW2 3951   1.621   0.397   2.365
 1018SOL     OW 3952   5.656   6.040   5.696
 1018SOL    HW1 3953   5.710   5.961   5.725
 1018SOL    HW2 3954   5.606   6.017   5.613
 1019SOL     OW 3955   6.364   3.387   1.650
 1019SOL    HW1 3956   6.392   3.426   1.737
 1019SOL    HW2 3957   6.337   3.292   1.664
 1020SOL     OW 3958   5.324   1.147   1.010
 1020SOL    HW1 3959   5.403   1.134   1.070
 1020SOL    HW2 3960   5.350   1.128   0.915
 1021SOL     OW 3961   1.531   6.789   0.437
 1021SOL    HW1 3962   1.459   6.720   0.446
 1021SOL    HW2 3963   1.619   6.744   0.419
 1022SOL     OW 3964   1.857   5.107   6.158
 1022SOL    HW1 3965   1.760   5.119   6.180
 1022SOL    HW2 3966   1.903   5.196   6.159
 1023SOL     OW 3967   0.812   1.862   2.087
 1023SOL    HW1 3968   0.755   1.796   2.135
 1023SOL    HW2 3969   0.755   1.934   2.049
 1024SOL     OW 3970   1.774   2.917   4.311
 1024SOL    HW1 3971   1.711   2.982   4.354
 1024SOL    HW2 3972   1.724   2.859   4.246
 1025SOL     OW 3973   4.652   4.331   1.020
 1025SOL    HW1 3974   4.579   4.372   0.965
 1025SOL    HW2 3975   4.727   4.396   1.029
 1026SOL     OW 3976   3.412   2.792   1.822
 1026SOL    HW1 3977   3.364   2.704   1.823
 1026SOL    HW2 3978   3.387   2.842   1.739
 1027SOL     OW 3979   6.260   0.367   0.242
 1027SOL    HW1 3980   6.225   0.404   0.328
 1027SOL    HW2 3981   6.184   0.340   0.184
 1028SOL     OW 3982   0.824   5.416   3.273
 1028SOL    HW1 3983   0.817   5.473   3.355
 1028SOL    HW2 3984   0.913   5.369   3.272
 1029SOL     OW 3985   1.111   0.809   4.796
 1029SOL    HW1 3986   1.161   0.878   4.743
 1029SOL    HW2 3987   1.168   0.728   4.807
 1030SOL     OW 3988   4.116   3.638   1.258
 1030SOL    HW1 3989   4.059   3.628   1.340
 1030SOL    HW2 3990   4.141   3.734   1.246
 1031SOL     OW 3991   4.085   2.692   0.315
 1031SOL    HW1 3992   4.007   2.629   0.308
 1031SOL    HW2 3993   4.075   2.749   0.397
 1032SOL     OW 3994   1.150   0.859   1.520
 1032SOL    HW1 3995   1.093   0.869   1.602
 1032SOL    HW2 3996   1.207   0.940   1.509
 1033SOL     OW 3997   6.263   6.861   2.097
 1033SOL    HW1 3998   6.178   6.868   2.044
 1033SOL    HW2 3999   6.317   6.944   2.084
 1034SOL     OW 4000   2.231   0.860   5.491
 1034SOL    HW1 4001   2.281   0.928   5.438
 1034SOL    HW2 4002   2.243   0.770   5.449
 1035SOL     OW 4003   1.669   0.409   0.065
 1035SOL    HW1 4004   1.603   0.334   0.060
 1035SOL    HW2 4005   1.721   0.413   6.999
 1036SOL     OW 4006   5.495   1.045   2.525
 1036SOL    HW1 4007   5.425   1.112   2.548
 1036SOL    HW2 4008   5.548   1.078   2.446
 1037SOL     OW 4009   0.811   4.006   3.026
 1037SOL    HW1 4010   0.749   3.956   2.966
 1037SOL    HW2 4011   0.905   3.995   2.993
 1038SOL     OW 4012   1.751   6.538   6.764
 1038SOL    HW1 4013   1.685   6.577   6.700
 1038SOL    HW2 4014   1.825   6.604   6.780
 1039SOL     OW 4015   3.023   3.601   2.961
 1039SOL    HW1 4016   3.041   3.697   2.979
 1039SOL    HW2 4017   3.046   3.546   3.041
 1040SOL     OW 4018   3.569   1.374   2.843
 1040SOL    HW1 4019   3.516   1.328   2.914
 1040SOL    HW2 4020   3.555   1.326   2.756
 1041SOL     OW 4021   0.137   6.905   6.769
 1041SOL    HW1 4022   0.096   6.979   6.822
 1041SOL    HW2 4023   0.096   6.818   6.795
 1042SOL     OW 4024   5.614   3.289   3.923
 1042SOL    HW1 4025   5.527   3.336   3.942
 1042SOL    HW2 4026   5.690   3.344   3.957
 1043SOL     OW 4027   2.384   2.181   3.391
 1043SOL    HW1 4028   2.387   2.171   3.490
 1043SOL    HW2 4029   2.392   2.278   3.366
 1044SOL     OW 4030   5.413   4.699   2.500
 1044SOL    HW1 4031   5.494   4.672   2.448
 1044SOL    HW2 4032   5.424   4.670   2.595
 1045SOL     OW 4033   2.012   0.373   2.567
 1045SOL    HW1 4034   1.912   0.371   2.563
 1045SOL    HW2 4035   2.049   0.375   2.474
 1046SOL     OW 4036   3.534   2.383   1.000
 1046SOL    HW1 4037   3.573   2.404   1.090
 1046SOL    HW2 4038   3.495   2.465   0.961
 1047SOL     OW 4039   3.703   0.709   3.278
 1047SOL    HW1 4040   3.674   0.614   3.294
 1047SOL    HW2 4041   3.641   0.771   3.325
 1048SOL     OW 4042   0.025   0.001   2.463
 1048SOL    HW1 4043   0.037   6.925   2.490
 1048SOL    HW2 4044   6.951   0.015   2.430
 1049SOL     OW 4045   3.399   6.786   0.358
 1049SOL    HW1 4046   3.427   6.813   0.450
 1049SOL    HW2 4047   3.475   6.741   0.312
 1050SOL     OW 4048   2.197   2.027   4.325
 1050SOL    HW1 4049   2.256   2.096   4.283
 1050SOL    HW2 4050   2.190   2.045   4.423
 1051SOL     OW 4051   1.468   2.259   5.288
 1051SOL    HW1 4052   1.558   2.229   5.255
 1051SOL    HW2 4053   1.464   2.246   5.387
 1052SOL     OW 4054   4.697   2.345   6.251
 1052SOL    HW1 4055   4.795   2.360   6.264
 1052SOL    HW2 4056   4.650   2.345   6.339
 1053SOL     OW 4057   4.599   2.563   4.285
 1053SOL    HW1 4058   4.651   2.484   4.315
 1053SOL    HW2 4059   4.555   2.606   4.363
 1054SOL     OW 4060   4.922   5.342   6.730
 1054SOL    HW1 4061   4.900   5.387   6.644
 1054SOL    HW2 4062   4.843   5.291   6.763
 1055SOL     OW 4063   5.535   5.683   5.928
 1055SOL    HW1 4064   5.465   5.747   5.895
 1055SOL    HW2 4065   5.504   5.589   5.910
 1056SOL     OW 4066   3.757   3.758   0.082
 1056SOL    HW1 4067   3.830   3.785   0.144
 1056SOL    HW2 4068   3.671   3.751   0.133
 1057SOL     OW 4069   2.970   3.645   6.385
 1057SOL    HW1 4070   2.942   3.552   6.407
 1057SOL    HW2 4071   3.042   3.674   6.449
 1058SOL     OW 4072   2.951   2.093   1.705
 1058SOL    HW1 4073   2.880   2.023   1.695
 1058SOL    HW2 4074   2.995   2.108   1.617
 1059SOL     OW 4075   2.202   5.882   2.689
 1059SOL    HW1 4076   2.177   5.904   2.594
 1059SOL    HW2 4077   2.231   5.786   2.695
 1060SOL     OW 4078   6.430   0.164   5.563
 1060SOL    HW1 4079   6.499   0.234   5.576
 1060SOL    HW2 4080   6.360   0.172   5.635
 1061SOL     OW 4081   0.322   3.656   6.555
 1061SOL    HW1 4082   0.393   3.604   6.508
 1061SOL    HW2 4083   0.274   3.596   6.620
 1062SOL     OW 4084   4.038   4.667   5.722
 1062SOL    HW1 4085   4.049   4.641   5.626
 1062SOL    HW2 4086   4.088   4.751   5.739
 1063SOL     OW 4087   2.652   6.594   4.123
 1063SOL    HW1 4088   2.695   6.504   4.130
 1063SOL    HW2 4089   2.648   6.621   4.026
 1064SOL     OW 4090   0.797   4.430   0.882
 1064SOL    HW1 4091   0.737   4.487   0.826
 1064SOL    HW2 4092   0.874   4.399   0.827
 1065SOL     OW 4093   5.854   1.037   5.307
 1065SOL    HW1 4094   5.903   0.950   5.317
 1065SOL    HW2 4095   5.896   1.090   5.233
 1066SOL     OW 4096   4.127   6.138   0.859
 1066SOL    HW1 4097   4.199   6.077   0.828
 1066SOL    HW2 4098   4.041   6.115   0.812
 1067SOL     OW 4099   3.449   1.084   0.427
 1067SOL    HW1 4100   3.362   1.064   0.472
 1067SOL    HW2 4101   3.522   1.032   0.471
 1068SOL     OW 4102   5.844   2.785   2.210
 1068SOL    HW1 4103   5.810   2.821   2.297
 1068SOL    HW2 4104   5.889   2.857   2.159
 1069SOL     OW 4105   0.052   1.975   2.251
 1069SOL    HW1 4106   0.095   1.953   2.163
 1069SOL    HW2 4107   0.058   2.073   2.268
 1070SOL     OW 4108   1.219   0.634   2.531
 1070SOL    HW1 4109   1.231   0.547   2.579
 1070SOL    HW2 4110   1.122   0.660   2.534
 1071SOL     OW 4111   0.593   2.765   5.786
 1071SOL    HW1 4112   0.659   2.826   5.742
 1071SOL    HW2 4113   0.560   2.699   5.718
 1072SOL     OW 4114   2.156   1.628   1.627
 1072SOL    HW1 4115   2.136   1.664   1.718
 1072SOL    HW2 4116   2.082   1.654   1.564
 1073SOL     OW 4117   5.195   2.013   2.629
 1073SOL    HW1 4118   5.142   1.939   2.589
 1073SOL    HW2 4119   5.280   2.025   2.577
 1074SOL     OW 4120   3.542   5.964   1.661
 1074SOL    HW1 4121   3.473   5.918   1.716
 1074SOL    HW2 4122   3.631   5.957   1.705
 1075SOL     OW 4123   0.162   3.489   4.694
 1075SOL    HW1 4124   0.149   3.420   4.765
 1075SOL    HW2 4125   0.160   3.580   4.735
 1076SOL     OW 4126   2.740   4.210   5.454
 1076SOL    HW1 4127   2.678   4.144   5.412
 1076SOL    HW2 4128   2.833   4.194   5.420
 1077SOL     OW 4129   6.849   6.556   0.544
 1077SOL    HW1 4130   6.911   6.480   0.523
 1077SOL    HW2 4131   6.885   6.641   0.506
 1078SOL     OW 4132   5.439   6.954   4.302
 1078SOL    HW1 4133   5.480   6.937   4.212
 1078SOL    HW2 4134   5.354   6.902   4.310
 1079SOL     OW 4135   1.048   5.836   1.575
 1079SOL    HW1 4136   0.996   5.816   1.492
 1079SOL    HW2 4137   1.051   5.935   1.590
 1080SOL     OW 4138   5.060   5.794   0.271
 1080SOL    HW1 4139   4.993   5.734   0.314
 1080SOL    HW2 4140   5.146   5.791   0.323
 1081SOL     OW 4141   6.931   6.548   3.197
 1081SOL    HW1 4142   6.836   6.526   3.175
 1081SOL    HW2 4143   6.937   6.643   3.230
 1082SOL     OW 4144   4.582   6.789   6.849
 1082SOL    HW1 4145   4.487   6.811   6.871
 1082SOL    HW2 4146   4.622   6.735   6.923
 1083SOL     OW 4147   6.615   4.008   2.249
 1083SOL    HW1 4148   6.684   4.001   2.321
 1083SOL    HW2 4149   6.656   4.050   2.168
 1084SOL     OW 4150   4.004   0.610   5.513
 1084SOL    HW1 4151   4.049   0.697   5.496
 1084SOL    HW2 4152   3.929   0.599   5.447
 1085SOL     OW 4153   1.714   3.395   4.967
 1085SOL    HW1 4154   1.768   3.373   4.886
 1085SOL    HW2 4155   1.648   3.322   4.984
 1086SOL     OW 4156   5.603   4.587   2.317
 1086SOL    HW1 4157   5.622   4.590   2.219
 1086SOL    HW2 4158   5.609   4.493   2.350
 1087SOL     OW 4159   3.676   0.345   5.704
 1087SOL    HW1 4160   3.682   0.416   5.774
 1087SOL    HW2 4161   3.765   0.300   5.695
 1088SOL     OW 4162   6.236   5.653   4.192
 1088SOL    HW1 4163   6.162   5.591   4.219
 1088SOL    HW2 4164   6.280   5.618   4.109
 1089SOL     OW 4165   5.699   5.270   4.229
 1089SOL    HW1 4166   5.613   5.220   4.234
 1089SOL    HW2 4167   5.776   5.208   4.243
 1090SOL     OW 4168   6.054   2.748   4.996
 1090SOL    HW1 4169   6.138   2.789   5.033
 1090SOL    HW2 4170   5.975   2.800   5.029
 1091SOL     OW 4171   1.838   3.673   3.338
 1091SOL    HW1 4172   1.936   3.655   3.349
 1091SOL    HW2 4173   1.801   3.613   3.267
 1092SOL     OW 4174   1.092   6.143   0.047
 1092SOL    HW1 4175   1.180   6.161   0.004
 1092SOL    HW2 4176   1.043   6.073   7.013
 1093SOL     OW 4177   1.761   0.562   2.806
 1093SOL    HW1 4178   1.843   0.615   2.787
 1093SOL    HW2 4179   1.787   0.469   2.834
 1094SOL     OW 4180   0.196   6.794   3.219
 1094SOL    HW1 4181   0.115   6.750   3.260
 1094SOL    HW2 4182   0.264   6.810   3.290
 1095SOL     OW 4183   6.190   4.339   1.141
 1095SOL    HW1 4184   6.229   4.268   1.200
 1095SOL    HW2 4185   6.221   4.428   1.173
 1096SOL     OW 4186   2.128   6.351   2.180
 1096SOL    HW1 4187   2.067   6.310   2.112
 1096SOL    HW2 4188   2.188   6.280   2.218
 1097SOL     OW 4189   3.345   6.023   4.794
 1097SOL    HW1 4190   3.357   6.114   4.834
 1097SOL    HW2 4191   3.407   6.012   4.717
 1098SOL     OW 4192   6.651   4.402   6.708
 1098SOL    HW1 4193   6.650   4.306   6.737
 1098SOL    HW2 4194   6.729   4.417   6.647
 1099SOL     OW 4195   5.447   0.070   7.019
 1099SOL    HW1 4196   5.509   0.149   0.004
 1099SOL    HW2 4197   5.431   0.046   6.923
 1100SOL     OW 4198   4.805   1.225   4.229
 1100SOL    HW1 4199   4.856   1.311   4.228
 1100SOL    HW2 4200   4.722   1.236   4.284
 1101SOL     OW 4201   4.832   3.070   6.976
 1101SOL    HW1 4202   4.783   3.021   0.029
 1101SOL    HW2 4203   4.770   3.136   6.932
 1102SOL     OW 4204   3.345   1.026   4.795
 1102SOL    HW1 4205   3.379   0.961   4.862
 1102SOL    HW2 4206   3.364   1.119   4.825
 1103SOL     OW 4207   3.470   6.882   0.598
 1103SOL    HW1 4208   3.561   6.840   0.602
 1103SOL    HW2 4209   3.414   6.848   0.673
 1104SOL     OW 4210   6.452   1.408   3.412
 1104SOL    HW1 4211   6.451   1.400   3.312
 1104SOL    HW2 4212   6.531   1.360   3.448
 1105SOL     OW 4213   4.674   0.869   6.022
 1105SOL    HW1 4214   4.706   0.879   5.928
 1105SOL    HW2 4215   4.740   0.812   6.073
 1106SOL     OW 4216   6.019   1.495   1.988
 1106SOL    HW1 4217   6.050   1.428   2.056
 1106SOL    HW2 4218   5.983   1.447   1.908
 1107SOL     OW 4219   1.802   2.510   6.619
 1107SOL    HW1 4220   1.829   2.486   6.712
 1107SOL    HW2 4221   1.719   2.566   6.622
 1108SOL     OW 4222   2.072   1.691   2.649
 1108SOL    HW1 4223   2.107   1.642   2.568
 1108SOL    HW2 4224   2.145   1.699   2.717
 1109SOL     OW 4225   5.033   1.736   5.237
 1109SOL    HW1 4226   5.101   1.713   5.307
 1109SOL    HW2 4227   5.020   1.658   5.176
 1110SOL     OW 4228   1.316   0.834   2.714
 1110SOL    HW1 4229   1.304   0.772   2.636
 1110SOL    HW2 4230   1.256   0.806   2.789
 1111SOL     OW 4231   5.511   2.971   6.206
 1111SOL    HW1 4232   5.583   3.034   6.233
 1111SOL    HW2 4233   5.538   2.924   6.122
 1112SOL     OW 4234   5.724   0.487   2.648
 1112SOL    HW1 4235   5.639   0.479   2.597
 1112SOL    HW2 4236   5.710   0.455   2.742
 1113SOL     OW 4237   0.086   1.715   2.753
 1113SOL    HW1 4238   0.018   1.753   2.690
 1113SOL    HW2 4239   0.106   1.782   2.824
 1114SOL     OW 4240   3.330   3.270   4.638
 1114SOL    HW1 4241   3.257   3.334   4.663
 1114SOL    HW2 4242   3.368   3.229   4.721
 1115SOL     OW 4243   2.343   5.304   6.141
 1115SOL    HW1 4244   2.313   5.223   6.091
 1115SOL    HW2 4245   2.410   5.278   6.210
 1116SOL     OW 4246   4.609   0.065   0.385
 1116SOL    HW1 4247   4.548   0.075   0.464
 1116SOL    HW2 4248   4.660   0.150   0.371
 1117SOL     OW 4249   2.163   2.395   1.755
 1117SOL    HW1 4250   2.126   2.326   1.818
 1117SOL    HW2 4251   2.256   2.368   1.729
 1118SOL     OW 4252   4.530   6.443   6.957
 1118SOL    HW1 4253   4.592   6.515   6.990
 1118SOL    HW2 4254   4.554   6.420   6.862
 1119SOL     OW 4255   2.516   5.834   4.084
 1119SOL    HW1 4256   2.564   5.862   4.167
 1119SOL    HW2 4257   2.452   5.905   4.057
 1120SOL     OW 4258   0.664   3.402   1.456
 1120SOL    HW1 4259   0.577   3.448   1.477
 1120SOL    HW2 4260   0.722   3.404   1.537
 1121SOL     OW 4261   5.400   4.246   5.694
 1121SOL    HW1 4262   5.414   4.322   5.757
 1121SOL    HW2 4263   5.486   4.225   5.646
 1122SOL     OW 4264   6.056   0.547   2.313
 1122SOL    HW1 4265   6.071   0.491   2.394
 1122SOL    HW2 4266   6.142   0.593   2.288
 1123SOL     OW 4267   3.478   1.550   4.738
 1123SOL    HW1 4268   3.490   1.596   4.826
 1123SOL    HW2 4269   3.541   1.589   4.671
 1124SOL     OW 4270   2.360   2.730   3.387
 1124SOL    HW1 4271   2.387   2.740   3.483
 1124SOL    HW2 4272   2.315   2.814   3.357
 1125SOL     OW 4273   1.100   3.392   4.266
 1125SOL    HW1 4274   1.033   3.384   4.192
 1125SOL    HW2 4275   1.173   3.454   4.238
 1126SOL     OW 4276   4.719   4.201   3.811
 1126SOL    HW1 4277   4.657   4.267   3.853
 1126SOL    HW2 4278   4.780   4.163   3.881
 1127SOL     OW 4279   6.005   6.781   1.110
 1127SOL    HW1 4280   5.943   6.704   1.097
 1127SOL    HW2 4281   5.970   6.861   1.062
 1128SOL     OW 4282   3.621   1.897   4.873
 1128SOL    HW1 4283   3.543   1.913   4.813
 1128SOL    HW2 4284   3.693   1.963   4.854
 1129SOL     OW 4285   1.252   0.929   0.188
 1129SOL    HW1 4286   1.340   0.891   0.158
 1129SOL    HW2 4287   1.267   0.994   0.262
 1130SOL     OW 4288   2.124   5.577   1.243
 1130SOL    HW1 4289   2.097   5.481   1.243
 1130SOL    HW2 4290   2.047   5.633   1.273
 1131SOL     OW 4291   1.424   5.352   3.740
 1131SOL    HW1 4292   1.461   5.419   3.803
 1131SOL    HW2 4293   1.356   5.295   3.787
 1132SOL     OW 4294   1.528   2.138   3.047
 1132SOL    HW1 4295   1.443   2.149   2.995
 1132SOL    HW2 4296   1.585   2.070   3.001
 1133SOL     OW 4297   1.544   6.392   6.667
 1133SOL    HW1 4298   1.591   6.333   6.602
 1133SOL    HW2 4299   1.608   6.418   6.739
 1134SOL     OW 4300   4.286   5.937   0.723
 1134SOL    HW1 4301   4.380   5.903   0.719
 1134SOL    HW2 4302   4.226   5.865   0.761
 1135SOL     OW 4303   2.097   6.991   3.086
 1135SOL    HW1 4304   2.032   6.920   3.060
 1135SOL    HW2 4305   2.105   0.038   3.012
 1136SOL     OW 4306   1.460   4.833   3.044
 1136SOL    HW1 4307   1.542   4.868   2.998
 1136SOL    HW2 4308   1.453   4.734   3.028
 1137SOL     OW 4309   1.079   5.424   4.373
 1137SOL    HW1 4310   1.176   5.416   4.351
 1137SOL    HW2 4311   1.066   5.412   4.472
 1138SOL     OW 4312   2.322   4.271   4.404
 1138SOL    HW1 4313   2.259   4.213   4.456
 1138SOL    HW2 4314   2.395   4.303   4.465
 1139SOL     OW 4315   3.586   5.735   5.068
 1139SOL    HW1 4316   3.657   5.699   5.008
 1139SOL    HW2 4317   3.496   5.718   5.026
 1140SOL     OW 4318   1.989   2.554   1.424
 1140SOL    HW1 4319   2.014   2.617   1.350
 1140SOL    HW2 4320   2.011   2.596   1.512
 1141SOL     OW 4321   6.293   4.667   5.517
 1141SOL    HW1 4322   6.370   4.726   5.491
 1141SOL    HW2 4323   6.224   4.721   5.564
 1142SOL     OW 4324   0.657   5.474   2.855
 1142SOL    HW1 4325   0.620   5.555   2.900
 1142SOL    HW2 4326   0.588   5.436   2.794
 1143SOL     OW 4327   6.799   4.698   1.752
 1143SOL    HW1 4328   6.870   4.715   1.684
 1143SOL    HW2 4329   6.815   4.610   1.797
 1144SOL     OW 4330   4.991   4.936   0.058
 1144SOL    HW1 4331   5.068   4.967   0.113
 1144SOL    HW2 4332   5.020   4.923   6.983
 1145SOL     OW 4333   6.025   6.889   0.688
 1145SOL    HW1 4334   5.925   6.894   0.682
 1145SOL    HW2 4335   6.056   6.799   0.658
 1146SOL     OW 4336   1.923   0.528   1.443
 1146SOL    HW1 4337   2.015   0.532   1.483
 1146SOL    HW2 4338   1.861   0.482   1.506
 1147SOL     OW 4339   1.513   6.459   0.712
 1147SOL    HW1 4340   1.535   6.422   0.622
 1147SOL    HW2 4341   1.431   6.517   0.706
 1148SOL     OW 4342   3.501   6.167   1.925
 1148SOL    HW1 4343   3.405   6.144   1.910
 1148SOL    HW2 4344   3.517   6.180   2.023
 1149SOL     OW 4345   5.681   1.720   1.310
 1149SOL    HW1 4346   5.690   1.723   1.410
 1149SOL    HW2 4347   5.766   1.686   1.270
 1150SOL     OW 4348   1.537   1.736   1.026
 1150SOL    HW1 4349   1.509   1.831   1.041
 1150SOL    HW2 4350   1.625   1.734   0.979
 1151SOL     OW 4351   5.861   5.661   4.437
 1151SOL    HW1 4352   5.903   5.605   4.365
 1151SOL    HW2 4353   5.865   5.758   4.410
 1152SOL     OW 4354   3.060   6.159   5.658
 1152SOL    HW1 4355   3.116   6.179   5.738
 1152SOL    HW2 4356   2.973   6.207   5.665
 1153SOL     OW 4357   5.536   6.807   1.102
 1153SOL    HW1 4358   5.501   6.825   1.194
 1153SOL    HW2 4359   5.520   6.887   1.044
 1154SOL     OW 4360   1.957   3.250   0.898
 1154SOL    HW1 4361   1.906   3.238   0.813
 1154SOL    HW2 4362   1.934   3.176   0.961
 1155SOL     OW 4363   3.714   5.807   4.129
 1155SOL    HW1 4364   3.798   5.766   4.095
 1155SOL    HW2 4365   3.661   5.845   4.053
 1156SOL     OW 4366   2.778   1.118   1.516
 1156SOL    HW1 4367   2.866   1.087   1.480
 1156SOL    HW2 4368   2.708   1.107   1.446
 1157SOL     OW 4369   2.226   2.218   0.613
 1157SOL    HW1 4370   2.235   2.194   0.710
 1157SOL    HW2 4371   2.147   2.170   0.575
 1158SOL     OW 4372   5.927   4.294   4.023
 1158SOL    HW1 4373   5.986   4.219   4.053
 1158SOL    HW2 4374   5.835   4.280   4.061
 1159SOL     OW 4375   5.726   4.678   0.681
 1159SOL    HW1 4376   5.825   4.690   0.688
 1159SOL    HW2 4377   5.703   4.582   0.694
 1160SOL     OW 4378   4.441   1.968   1.130
 1160SOL    HW1 4379   4.474   2.040   1.069
 1160SOL    HW2 4380   4.398   1.895   1.077
 1161SOL     OW 4381   0.341   5.127   0.812
 1161SOL    HW1 4382   0.390   5.058   0.865
 1161SOL    HW2 4383   0.374   5.127   0.718
 1162SOL     OW 4384   2.179   2.689   4.850
 1162SOL    HW1 4385   2.229   2.775   4.852
 1162SOL    HW2 4386   2.083   2.706   4.872
 1163SOL     OW 4387   4.878   1.818   2.110
 1163SOL    HW1 4388   4.826   1.852   2.188
 1163SOL    HW2 4389   4.953   1.760   2.142
 1164SOL     OW 4390   4.226   2.165   5.511
 1164SOL    HW1 4391   4.188   2.159   5.603
 1164SOL    HW2 4392   4.324   2.142   5.514
 1165SOL     OW 4393   4.067   0.259   2.969
 1165SOL    HW1 4394   4.106   0.169   2.986
 1165SOL    HW2 4395   4.031   0.296   3.055
 1166SOL     OW 4396   3.670   4.199   6.597
 1166SOL    HW1 4397   3.707   4.141   6.670
 1166SOL    HW2 4398   3.741   4.217   6.529
 1167SOL     OW 4399   5.504   4.144   3.498
 1167SOL    HW1 4400   5.491   4.194   3.413
 1167SOL    HW2 4401   5.421   4.091   3.519
 1168SOL     OW 4402   0.629   6.869   0.576
 1168SOL    HW1 4403   0.716   6.874   0.624
 1168SOL    HW2 4404   0.593   6.776   0.583
 1169SOL     OW 4405   5.140   2.351   5.210
 1169SOL    HW1 4406   5.169   2.334   5.304
 1169SOL    HW2 4407   5.074   2.282   5.182
 1170SOL     OW 4408   4.770   4.521   2.767
 1170SOL    HW1 4409   4.694   4.457   2.772
 1170SOL    HW2 4410   4.856   4.470   2.771
 1171SOL     OW 4411   0.169   6.397   0.620
 1171SOL    HW1 4412   0.255   6.420   0.574
 1171SOL    HW2 4413   0.107   6.353   0.554
 1172SOL     OW 4414   5.751   3.243   6.968
 1172SOL    HW1 4415   5.672   3.294   6.933
 1172SOL    HW2 4416   5.758   3.256   0.048
 1173SOL     OW 4417   4.622   2.748   1.344
 1173SOL    HW1 4418   4.609   2.832   1.397
 1173SOL    HW2 4419   4.551   2.682   1.368
 1174SOL     OW 4420   2.616   5.049   0.455
 1174SOL    HW1 4421   2.573   5.117   0.396
 1174SOL    HW2 4422   2.694   5.008   0.407
 1175SOL     OW 4423   3.386   4.036   3.689
 1175SOL    HW1 4424   3.328   4.098   3.741
 1175SOL    HW2 4425   3.330   3.968   3.643
 1176SOL     OW 4426   5.469   3.386   0.348
 1176SOL    HW1 4427   5.538   3.414   0.282
 1176SOL    HW2 4428   5.386   3.358   0.300
 1177SOL     OW 4429   0.711   1.539   4.734
 1177SOL    HW1 4430   0.760   1.613   4.780
 1177SOL    HW2 4431   0.613   1.557   4.736
 1178SOL     OW 4432   4.228   6.481   6.944
 1178SOL    HW1 4433   4.156   6.507   7.008
 1178SOL    HW2 4434   4.315   6.476   6.992
 1179SOL     OW 4435   0.254   5.762   0.581
 1179SOL    HW1 4436   0.298   5.734   0.495
 1179SOL    HW2 4437   0.321   5.807   0.640
 1180SOL     OW 4438   3.626   6.431   0.583
 1180SOL    HW1 4439   3.577   6.373   0.518
 1180SOL    HW2 4440   3.724   6.423   0.566
 1181SOL     OW 4441   6.149   6.133   6.643
 1181SOL    HW1 4442   6.054   6.134   6.676
 1181SOL    HW2 4443   6.200   6.208   6.685
 1182SOL     OW 4444   4.945   3.683   4.242
 1182SOL    HW1 4445   4.905   3.594   4.267
 1182SOL    HW2 4446   4.986   3.724   4.324
 1183SOL     OW 4447   1.914   4.538   0.259
 1183SOL    HW1 4448   1.952   4.549   0.351
 1183SOL    HW2 4449   1.960   4.463   0.212
 1184SOL     OW 4450   0.343   1.522   5.410
 1184SOL    HW1 4451   0.422   1.466   5.386
 1184SOL    HW2 4452   0.260   1.476   5.379
 1185SOL     OW 4453   6.702   1.760   6.419
 1185SOL    HW1 4454   6.703   1.706   6.334
 1185SOL    HW2 4455   6.748   1.847   6.403
 1186SOL     OW 4456   4.871   6.731   4.294
 1186SOL    HW1 4457   4.933   6.753   4.218
 1186SOL    HW2 4458   4.805   6.662   4.265
 1187SOL     OW 4459   6.464   2.407   6.666
 1187SOL    HW1 4460   6.449   2.494   6.618
 1187SOL    HW2 4461   6.464   2.332   6.600
 1188SOL     OW 4462   4.276   1.899   6.552
 1188SOL    HW1 4463   4.356   1.951   6.581
 1188SOL    HW2 4464   4.220   1.955   6.491
 1189SOL     OW 4465   6.011   3.442   3.585
 1189SOL    HW1 4466   6.009   3.525   3.640
 1189SOL    HW2 4467   5.940   3.379   3.616
 1190SOL     OW 4468   2.894   0.289   3.788
 1190SOL    HW1 4469   2.851   0.349   3.720
 1190SOL    HW2 4470   2.991   0.279   3.767
 1191SOL     OW 4471   3.290   0.185   3.163
 1191SOL    HW1 4472   3.315   0.091   3.185
 1191SOL    HW2 4473   3.363   0.247   3.193
 1192SOL     OW 4474   5.929   5.934   3.704
 1192SOL    HW1 4475   5.844   5.952   3.754
 1192SOL    HW2 4476   5.948   5.836   3.705
 1193SOL     OW 4477   6.455   6.336   4.844
 1193SOL    HW1 4478   6.470   6.359   4.940
 1193SOL    HW2 4479   6.358   6.342   4.823
 1194SOL     OW 4480   3.735   0.480   0.757
 1194SOL    HW1 4481   3.793   0.451   0.834
 1194SOL    HW2 4482   3.716   0.401   0.698
 1195SOL     OW 4483   4.965   2.560   2.786
 1195SOL    HW1 4484   4.951   2.597   2.694
 1195SOL    HW2 4485   5.060   2.575   2.813
 1196SOL     OW 4486   0.388   6.855   5.123
 1196SOL    HW1 4487   0.454   6.781   5.137
 1196SOL    HW2 4488   0.336   6.838   5.040
 1197SOL     OW 4489   2.399   6.359   6.634
 1197SOL    HW1 4490   2.312   6.408   6.629
 1197SOL    HW2 4491   2.469   6.420   6.671
 1198SOL     OW 4492   1.381   2.438   0.192
 1198SOL    HW1 4493   1.337   2.350   0.214
 1198SOL    HW2 4494   1.347   2.472   0.105
 1199SOL     OW 4495   5.727   3.994   2.563
 1199SOL    HW1 4496   5.769   3.910   2.529
 1199SOL    HW2 4497   5.627   3.987   2.557
 1200SOL     OW 4498   3.084   3.940   2.273
 1200SOL    HW1 4499   2.995   3.919   2.314
 1200SOL    HW2 4500   3.156   3.891   2.322
 1201SOL     OW 4501   1.372   2.138   5.033
 1201SOL    HW1 4502   1.313   2.200   4.982
 1201SOL    HW2 4503   1.401   2.181   5.118
 1202SOL     OW 4504   0.946   6.210   5.146
 1202SOL    HW1 4505   1.016   6.278   5.167
 1202SOL    HW2 4506   0.988   6.119   5.143
 1203SOL     OW 4507   4.225   5.784   5.228
 1203SOL    HW1 4508   4.281   5.834   5.163
 1203SOL    HW2 4509   4.222   5.833   5.315
 1204SOL     OW 4510   1.932   6.891   2.477
 1204SOL    HW1 4511   2.021   6.919   2.440
 1204SOL    HW2 4512   1.943   6.866   2.573
 1205SOL     OW 4513   5.782   3.322   2.415
 1205SOL    HW1 4514   5.769   3.400   2.354
 1205SOL    HW2 4515   5.709   3.320   2.483
 1206SOL     OW 4516   2.950   3.720   4.403
 1206SOL    HW1 4517   2.945   3.807   4.452
 1206SOL    HW2 4518   2.971   3.737   4.307
 1207SOL     OW 4519   0.807   5.641   3.106
 1207SOL    HW1 4520   0.763   5.721   3.146
 1207SOL    HW2 4521   0.791   5.562   3.165
 1208SOL     OW 4522   3.448   3.063   6.610
 1208SOL    HW1 4523   3.410   3.026   6.694
 1208SOL    HW2 4524   3.458   2.989   6.543
 1209SOL     OW 4525   3.923   6.505   5.414
 1209SOL    HW1 4526   3.991   6.440   5.380
 1209SOL    HW2 4527   3.969   6.588   5.445
 1210SOL     OW 4528   2.994   1.022   2.561
 1210SOL    HW1 4529   2.989   1.078   2.644
 1210SOL    HW2 4530   3.089   1.003   2.539
 1211SOL     OW 4531   1.023   2.798   0.675
 1211SOL    HW1 4532   0.985   2.861   0.742
 1211SOL    HW2 4533   0.949   2.759   0.620
 1212SOL     OW 4534   0.860   6.711   0.295
 1212SOL    HW1 4535   0.892   6.665   0.212
 1212SOL    HW2 4536   0.765   6.685   0.313
 1213SOL     OW 4537   5.819   2.970   1.662
 1213SOL    HW1 4538   5.899   3.030   1.669
 1213SOL    HW2 4539   5.822   2.901   1.735
 1214SOL     OW 4540   0.295   2.330   2.412
 1214SOL    HW1 4541   0.244   2.332   2.326
 1214SOL    HW2 4542   0.374   2.391   2.406
 1215SOL     OW 4543   2.134   5.738   3.007
 1215SOL    HW1 4544   2.213   5.781   2.964
 1215SOL    HW2 4545   2.120   5.777   3.098
 1216SOL     OW 4546   4.562   0.090   1.273
 1216SOL    HW1 4547   4.564   0.060   1.178
 1216SOL    HW2 4548   4.470   0.078   1.310
 1217SOL     OW 4549   2.924   4.273   6.913
 1217SOL    HW1 4550   2.942   4.361   6.956
 1217SOL    HW2 4551   2.967   4.200   6.966
 1218SOL     OW 4552   2.216   4.942   4.163
 1218SOL    HW1 4553   2.250   4.850   4.143
 1218SOL    HW2 4554   2.173   4.942   4.253
 1219SOL     OW 4555   3.663   5.180   2.074
 1219SOL    HW1 4556   3.608   5.101   2.045
 1219SOL    HW2 4557   3.748   5.182   2.022
 1220SOL     OW 4558   0.294   4.959   2.157
 1220SOL    HW1 4559   0.332   4.866   2.160
 1220SOL    HW2 4560   0.360   5.023   2.196
 1221SOL     OW 4561   4.694   4.244   6.785
 1221SOL    HW1 4562   4.739   4.306   6.721
 1221SOL    HW2 4563   4.617   4.199   6.739
 1222SOL     OW 4564   0.025   0.989   6.651
 1222SOL    HW1 4565   6.953   0.994   6.691
 1222SOL    HW2 4566   0.024   1.028   6.559
 1223SOL     OW 4567   3.869   6.463   1.236
 1223SOL    HW1 4568   3.787   6.412   1.212
 1223SOL    HW2 4569   3.941   6.444   1.170
 1224SOL     OW 4570   3.146   1.007   1.504
 1224SOL    HW1 4571   3.122   1.047   1.416
 1224SOL    HW2 4572   3.129   1.073   1.577
 1225SOL     OW 4573   3.472   4.342   6.253
 1225SOL    HW1 4574   3.461   4.245   6.231
 1225SOL    HW2 4575   3.474   4.396   6.169
 1226SOL     OW 4576   2.304   5.277   0.832
 1226SOL    HW1 4577   2.360   5.222   0.771
 1226SOL    HW2 4578   2.262   5.352   0.780
 1227SOL     OW 4579   1.720   4.372   5.777
 1227SOL    HW1 4580   1.751   4.467   5.773
 1227SOL    HW2 4581   1.681   4.354   5.867
 1228SOL     OW 4582   3.772   2.461   6.992
 1228SOL    HW1 4583   3.765   2.536   0.038
 1228SOL    HW2 4584   3.802   2.378   0.019
 1229SOL     OW 4585   3.168   3.920   6.814
 1229SOL    HW1 4586   3.199   3.910   6.720
 1229SOL    HW2 4587   3.115   3.840   6.841
 1230SOL     OW 4588   4.316   0.380   3.677
 1230SOL    HW1 4589   4.351   0.430   3.598
 1230SOL    HW2 4590   4.227   0.417   3.703
 1231SOL     OW 4591   0.670   3.710   3.593
 1231SOL    HW1 4592   0.634   3.651   3.521
 1231SOL    HW2 4593   0.759   3.677   3.622
 1232SOL     OW 4594   1.586   2.654   2.533
 1232SOL    HW1 4595   1.621   2.619   2.446
 1232SOL    HW2 4596   1.615   2.594   2.607
 1233SOL     OW 4597   0.788   2.157   4.482
 1233SOL    HW1 4598   0.698   2.168   4.526
 1233SOL    HW2 4599   0.810   2.060   4.475
 1234SOL     OW 4600   6.573   4.464   4.446
 1234SOL    HW1 4601   6.490   4.513   4.473
 1234SOL    HW2 4602   6.558   4.420   4.358
 1235SOL     OW 4603   6.570   5.284   3.499
 1235SOL    HW1 4604   6.598   5.380   3.510
 1235SOL    HW2 4605   6.583   5.257   3.404
 1236SOL     OW 4606   5.541   0.705   6.707
 1236SOL    HW1 4607   5.458   0.714   6.652
 1236SOL    HW2 4608   5.585   0.794   6.716
 1237SOL     OW 4609   2.104   4.491   6.393
 1237SOL    HW1 4610   2.014   4.503   6.437
 1237SOL    HW2 4611   2.159   4.572   6.408
 1238SOL     OW 4612   1.910   1.440   1.346
 1238SOL    HW1 4613   2.003   1.407   1.363
 1238SOL    HW2 4614   1.892   1.438   1.247
 1239SOL     OW 4615   0.999   6.959   5.805
 1239SOL    HW1 4616   1.086   6.934   5.761
 1239SOL    HW2 4617   0.986   0.038   5.799
 1240SOL     OW 4618   5.794   5.532   0.712
 1240SOL    HW1 4619   5.708   5.537   0.662
 1240SOL    HW2 4620   5.870   5.555   0.651
 1241SOL     OW 4621   0.279   1.976   4.307
 1241SOL    HW1 4622   0.359   2.017   4.263
 1241SOL    HW2 4623   0.201   1.981   4.245
 1242SOL     OW 4624   2.014   2.410   6.837
 1242SOL    HW1 4625   2.082   2.454   6.778
 1242SOL    HW2 4626   2.059   2.345   6.898
 1243SOL     OW 4627   3.048   5.109   5.113
 1243SOL    HW1 4628   3.053   5.024   5.061
 1243SOL    HW2 4629   3.024   5.184   5.052
 1244SOL     OW 4630   0.733   1.776   2.995
 1244SOL    HW1 4631   0.766   1.837   2.924
 1244SOL    HW2 4632   0.670   1.825   3.055
 1245SOL     OW 4633   3.098   2.950   5.234
 1245SOL    HW1 4634   3.026   2.880   5.242
 1245SOL    HW2 4635   3.085   3.002   5.151
 1246SOL     OW 4636   1.308   6.523   1.989
 1246SOL    HW1 4637   1.290   6.432   2.027
 1246SOL    HW2 4638   1.406   6.543   1.996
 1247SOL     OW 4639   1.059   6.122   6.491
 1247SOL    HW1 4640   0.985   6.124   6.425
 1247SOL    HW2 4641   1.023   6.100   6.581
 1248SOL     OW 4642   2.173   6.931   3.979
 1248SOL    HW1 4643   2.249   6.980   4.022
 1248SOL    HW2 4644   2.108   6.996   3.942
 1249SOL     OW 4645   6.208   3.057   3.320
 1249SOL    HW1 4646   6.238   3.152   3.319
 1249SOL    HW2 4647   6.109   3.053   3.331
 1250SOL     OW 4648   0.109   3.144   4.630
 1250SOL    HW1 4649   0.103   3.181   4.538
 1250SOL    HW2 4650   0.204   3.144   4.661
 1251SOL     OW 4651   3.403   0.677   6.240
 1251SOL    HW1 4652   3.486   0.726   6.268
 1251SOL    HW2 4653   3.429   0.590   6.198
 1252SOL     OW 4654   3.824   3.666   0.518
 1252SOL    HW1 4655   3.871   3.753   0.528
 1252SOL    HW2 4656   3.735   3.680   0.475
 1253SOL     OW 4657   4.864   1.296   2.956
 1253SOL    HW1 4658   4.810   1.303   3.040
 1253SOL    HW2 4659   4.811   1.246   2.887
 1254SOL     OW 4660   5.493   1.010   3.548
 1254SOL    HW1 4661   5.591   1.027   3.559
 1254SOL    HW2 4662   5.450   1.091   3.508
 1255SOL     OW 4663   5.819   0.503   2.172
 1255SOL    HW1 4664   5.911   0.523   2.206
 1255SOL    HW2 4665   5.822   0.423   2.113
 1256SOL     OW 4666   5.420   3.219   3.432
 1256SOL    HW1 4667   5.351   3.222   3.359
 1256SOL    HW2 4668   5.429   3.125   3.465
 1257SOL     OW 4669   5.954   1.168   3.951
 1257SOL    HW1 4670   5.917   1.260   3.949
 1257SOL    HW2 4671   5.879   1.102   3.944
 1258SOL     OW 4672   0.010   5.268   3.894
 1258SOL    HW1 4673   0.035   5.363   3.912
 1258SOL    HW2 4674   0.000   5.254   3.795
 1259SOL     OW 4675   5.407   2.084   4.691
 1259SOL    HW1 4676   5.345   2.124   4.759
 1259SOL    HW2 4677   5.493   2.135   4.690
 1260SOL     OW 4678   0.515   1.834   4.886
 1260SOL    HW1 4679   0.539   1.818   4.982
 1260SOL    HW2 4680   0.527   1.749   4.835
 1261SOL     OW 4681   6.752   3.334   1.189
 1261SOL    HW1 4682   6.663   3.327   1.145
 1261SOL    HW2 4683   6.824   3.313   1.122
 1262SOL     OW 4684   5.135   6.369   2.180
 1262SOL    HW1 4685   5.222   6.325   2.198
 1262SOL    HW2 4686   5.139   6.466   2.206
 1263SOL     OW 4687   1.166   2.237   3.009
 1263SOL    HW1 4688   1.229   2.240   3.086
 1263SOL    HW2 4689   1.172   2.323   2.957
 1264SOL     OW 4690   1.052   2.988   5.302
 1264SOL    HW1 4691   1.147   2.965   5.282
 1264SOL    HW2 4692   0.991   2.918   5.265
 1265SOL     OW 4693   6.457   0.642   5.758
 1265SOL    HW1 4694   6.426   0.736   5.772
 1265SOL    HW2 4695   6.534   0.623   5.818
 1266SOL     OW 4696   3.712   1.457   5.746
 1266SOL    HW1 4697   3.692   1.383   5.682
 1266SOL    HW2 4698   3.647   1.531   5.733
 1267SOL     OW 4699   3.080   1.196   2.177
 1267SOL    HW1 4700   3.144   1.194   2.101
 1267SOL    HW2 4701   3.054   1.291   2.197
 1268SOL     OW 4702   4.174   2.223   5.246
 1268SOL    HW1 4703   4.182   2.220   5.346
 1268SOL    HW2 4704   4.085   2.188   5.219
 1269SOL     OW 4705   5.560   2.199   3.370
 1269SOL    HW1 4706   5.529   2.293   3.386
 1269SOL    HW2 4707   5.500   2.136   3.419
 1270SOL     OW 4708   5.994   5.319   3.522
 1270SOL    HW1 4709   6.057   5.301   3.447
 1270SOL    HW2 4710   5.937   5.239   3.539
 1271SOL     OW 4711   1.243   0.454   2.160
 1271SOL    HW1 4712   1.298   0.505   2.226
 1271SOL    HW2 4713   1.259   0.490   2.068
 1272SOL     OW 4714   6.652   2.260   0.455
 1272SOL    HW1 4715   6.658   2.228   0.549
 1272SOL    HW2 4716   6.620   2.186   0.396
 1273SOL     OW 4717   2.121   4.250   5.332
 1273SOL    HW1 4718   2.104   4.348   5.331
 1273SOL    HW2 4719   2.215   4.231   5.302
 1274SOL     OW 4720   0.115   4.701   4.407
 1274SOL    HW1 4721   0.139   4.646   4.487
 1274SOL    HW2 4722   0.022   4.737   4.418
 1275SOL     OW 4723   1.695   1.328   2.769
 1275SOL    HW1 4724   1.755   1.407   2.766
 1275SOL    HW2 4725   1.663   1.306   2.677
 1276SOL     OW 4726   5.890   4.152   3.770
 1276SOL    HW1 4727   5.820   4.219   3.743
 1276SOL    HW2 4728   5.950   4.193   3.839
 1277SOL     OW 4729   1.428   6.354   6.405
 1277SOL    HW1 4730   1.500   6.388   6.466
 1277SOL    HW2 4731   1.455   6.265   6.368
 1278SOL     OW 4732   0.148   6.365   2.842
 1278SOL    HW1 4733   0.140   6.464   2.852
 1278SOL    HW2 4734   0.165   6.342   2.746
 1279SOL     OW 4735   3.103   3.158   0.510
 1279SOL    HW1 4736   3.123   3.247   0.469
 1279SOL    HW2 4737   3.083   3.170   0.607
 1280SOL     OW 4738   2.734   2.230   3.422
 1280SOL    HW1 4739   2.675   2.302   3.459
 1280SOL    HW2 4740   2.760   2.255   3.329
 1281SOL     OW 4741   5.497   5.962   5.507
 1281SOL    HW1 4742   5.400   5.943   5.524
 1281SOL    HW2 4743   5.548   5.877   5.506
 1282SOL     OW 4744   1.184   2.420   1.337
 1282SOL    HW1 4745   1.273   2.392   1.372
 1282SOL    HW2 4746   1.190   2.440   1.239
 1283SOL     OW 4747   1.247   0.783   4.018
 1283SOL    HW1 4748   1.162   0.785   4.069
 1283SOL    HW2 4749   1.291   0.694   4.030
 1284SOL     OW 4750   3.910   2.325   1.718
 1284SOL    HW1 4751   3.828   2.333   1.775
 1284SOL    HW2 4752   3.930   2.413   1.675
 1285SOL     OW 4753   3.971   1.245   4.728
 1285SOL    HW1 4754   3.882   1.246   4.683
 1285SOL    HW2 4755   4.032   1.311   4.684
 1286SOL     OW 4756   4.885   1.014   2.068
 1286SOL    HW1 4757   4.893   1.088   2.001
 1286SOL    HW2 4758   4.789   1.001   2.093
 1287SOL     OW 4759   5.316   5.115   6.673
 1287SOL    HW1 4760   5.411   5.087   6.684
 1287SOL    HW2 4761   5.300   5.142   6.578
 1288SOL     OW 4762   4.615   4.627   6.171
 1288SOL    HW1 4763   4.577   4.539   6.200
 1288SOL    HW2 4764   4.654   4.618   6.079
 1289SOL     OW 4765   1.296   6.597   0.508
 1289SOL    HW1 4766   1.285   6.603   0.607
 1289SOL    HW2 4767   1.254   6.512   0.475
 1290SOL     OW 4768   1.214   6.676   4.341
 1290SOL    HW1 4769   1.253   6.750   4.285
 1290SOL    HW2 4770   1.285   6.609   4.360
 1291SOL     OW 4771   5.272   5.705   3.002
 1291SOL    HW1 4772   5.268   5.673   2.907
 1291SOL    HW2 4773   5.261   5.804   3.004
 1292SOL     OW 4774   0.011   6.922   2.869
 1292SOL    HW1 4775   0.078   6.916   2.794
 1292SOL    HW2 4776   0.055   6.962   2.949
 1293SOL     OW 4777   5.006   0.118   0.712
 1293SOL    HW1 4778   4.956   0.196   0.749
 1293SOL    HW2 4779   4.957   0.033   0.733
 1294SOL     OW 4780   2.177   4.476   5.543
 1294SOL    HW1 4781   2.138   4.422   5.617
 1294SOL    HW2 4782   2.274   4.493   5.562
 1295SOL     OW 4783   0.065   4.836   0.176
 1295SOL    HW1 4784   0.098   4.924   0.210
 1295SOL    HW2 4785   0.088   4.765   0.242
 1296SOL     OW 4786   3.938   0.715   5.919
 1296SOL    HW1 4787   3.984   0.652   5.857
 1296SOL    HW2 4788   4.006   0.761   5.976
 1297SOL     OW 4789   6.421   6.744   6.731
 1297SOL    HW1 4790   6.361   6.730   6.810
 1297SOL    HW2 4791   6.504   6.792   6.760
 1298SOL     OW 4792   5.081   0.359   3.216
 1298SOL    HW1 4793   5.070   0.424   3.141
 1298SOL    HW2 4794   5.055   0.403   3.302
 1299SOL     OW 4795   0.985   4.805   5.046
 1299SOL    HW1 4796   0.952   4.899   5.053
 1299SOL    HW2 4797   0.972   4.772   4.953
 1300SOL     OW 4798   1.573   5.567   6.992
 1300SOL    HW1 4799   1.664   5.567   6.951
 1300SOL    HW2 4800   1.524   5.649   6.962
 1301SOL     OW 4801   6.296   1.489   6.701
 1301SOL    HW1 4802   6.284   1.588   6.695
 1301SOL    HW2 4803   6.207   1.444   6.691
 1302SOL     OW 4804   6.472   6.678   4.910
 1302SOL    HW1 4805   6.468   6.605   4.978
 1302SOL    HW2 4806   6.549   6.663   4.849
 1303SOL     OW 4807   3.200   6.931   1.336
 1303SOL    HW1 4808   3.133   6.878   1.284
 1303SOL    HW2 4809   3.176   6.930   1.433
 1304SOL     OW 4810   6.858   0.662   0.353
 1304SOL    HW1 4811   6.950   0.669   0.314
 1304SOL    HW2 4812   6.848   0.575   0.400
 1305SOL     OW 4813   4.145   4.126   6.028
 1305SOL    HW1 4814   4.175   4.149   5.936
 1305SOL    HW2 4815   4.065   4.181   6.052
 1306SOL     OW 4816   2.665   6.306   4.355
 1306SOL    HW1 4817   2.680   6.290   4.257
 1306SOL    HW2 4818   2.675   6.220   4.404
 1307SOL     OW 4819   2.087   3.617   3.422
 1307SOL    HW1 4820   2.134   3.701   3.450
 1307SOL    HW2 4821   2.105   3.600   3.325
 1308SOL     OW 4822   0.921   3.767   6.151
 1308SOL    HW1 4823   0.825   3.742   6.167
 1308SOL    HW2 4824   0.977   3.684   6.146
 1309SOL     OW 4825   6.046   4.057   6.482
 1309SOL    HW1 4826   6.053   4.122   6.557
 1309SOL    HW2 4827   5.995   4.098   6.406
 1310SOL     OW 4828   2.077   2.779   3.644
 1310SOL    HW1 4829   2.010   2.847   3.613
 1310SOL    HW2 4830   2.150   2.826   3.694
 1311SOL     OW 4831   6.091   5.227   0.200
 1311SOL    HW1 4832   6.090   5.131   0.174
 1311SOL    HW2 4833   5.999   5.266   0.192
 1312SOL     OW 4834   2.260   1.411   6.503
 1312SOL    HW1 4835   2.350   1.408   6.547
 1312SOL    HW2 4836   2.218   1.320   6.508
 1313SOL     OW 4837   5.209   4.905   2.823
 1313SOL    HW1 4838   5.110   4.920   2.814
 1313SOL    HW2 4839   5.256   4.949   2.746
 1314SOL     OW 4840   2.588   1.620   3.878
 1314SOL    HW1 4841   2.592   1.703   3.824
 1314SOL    HW2 4842   2.612   1.541   3.821
 1315SOL     OW 4843   5.755   0.753   3.432
 1315SOL    HW1 4844   5.664   0.712   3.427
 1315SOL    HW2 4845   5.767   0.816   3.356
 1316SOL     OW 4846   5.261   0.322   6.315
 1316SOL    HW1 4847   5.264   0.399   6.379
 1316SOL    HW2 4848   5.198   0.253   6.350
 1317SOL     OW 4849   3.941   3.131   4.129
 1317SOL    HW1 4850   3.904   3.057   4.073
 1317SOL    HW2 4851   3.894   3.131   4.218
 1318SOL     OW 4852   1.907   1.261   6.632
 1318SOL    HW1 4853   1.826   1.240   6.686
 1318SOL    HW2 4854   1.989   1.231   6.680
 1319SOL     OW 4855   6.677   1.825   0.462
 1319SOL    HW1 4856   6.687   1.751   0.396
 1319SOL    HW2 4857   6.602   1.885   0.433
 1320SOL     OW 4858   2.668   2.914   5.943
 1320SOL    HW1 4859   2.593   2.976   5.965
 1320SOL    HW2 4860   2.681   2.912   5.843
 1321SOL     OW 4861   0.185   2.835   1.360
 1321SOL    HW1 4862   0.219   2.820   1.452
 1321SOL    HW2 4863   0.247   2.896   1.311
 1322SOL     OW 4864   2.370   2.914   0.526
 1322SOL    HW1 4865   2.308   2.835   0.532
 1322SOL    HW2 4866   2.432   2.914   0.604
 1323SOL     OW 4867   4.576   0.568   1.003
 1323SOL    HW1 4868   4.616   0.478   0.988
 1323SOL    HW2 4869   4.597   0.627   0.925
 1324SOL     OW 4870   2.317   3.653   5.892
 1324SOL    HW1 4871   2.292   3.724   5.826
 1324SOL    HW2 4872   2.382   3.589   5.850
 1325SOL     OW 4873   4.134   5.656   4.533
 1325SOL    HW1 4874   4.044   5.619   4.510
 1325SOL    HW2 4875   4.185   5.589   4.586
 1326SOL     OW 4876   3.995   1.154   4.984
 1326SOL    HW1 4877   4.001   1.205   4.898
 1326SOL    HW2 4878   3.974   1.216   5.059
 1327SOL     OW 4879   5.060   5.799   2.085
 1327SOL    HW1 4880   5.135   5.748   2.128
 1327SOL    HW2 4881   5.007   5.846   2.156
 1328SOL     OW 4882   1.540   1.946   5.326
 1328SOL    HW1 4883   1.533   2.039   5.289
 1328SOL    HW2 4884   1.510   1.946   5.421
 1329SOL     OW 4885   1.313   3.346   3.944
 1329SOL    HW1 4886   1.233   3.317   3.891
 1329SOL    HW2 4887   1.382   3.383   3.883
 1330SOL     OW 4888   6.879   3.278   2.545
 1330SOL    HW1 4889   6.883   3.181   2.569
 1330SOL    HW2 4890   6.922   3.331   2.618
 1331SOL     OW 4891   3.620   1.777   2.807
 1331SOL    HW1 4892   3.697   1.722   2.776
 1331SOL    HW2 4893   3.637   1.873   2.786
 1332SOL     OW 4894   2.334   6.082   6.630
 1332SOL    HW1 4895   2.366   6.177   6.623
 1332SOL    HW2 4896   2.297   6.053   6.542
 1333SOL     OW 4897   3.849   3.703   2.496
 1333SOL    HW1 4898   3.755   3.670   2.488
 1333SOL    HW2 4899   3.870   3.718   2.593
 1334SOL     OW 4900   6.885   3.948   1.265
 1334SOL    HW1 4901   6.834   3.960   1.350
 1334SOL    HW2 4902   6.823   3.917   1.193
 1335SOL     OW 4903   7.016   3.536   3.034
 1335SOL    HW1 4904   6.947   3.585   3.088
 1335SOL    HW2 4905   6.999   3.438   3.040
 1336SOL     OW 4906   2.181   6.363   5.945
 1336SOL    HW1 4907   2.187   6.457   5.979
 1336SOL    HW2 4908   2.241   6.352   5.866
 1337SOL     OW 4909   0.523   6.768   2.180
 1337SOL    HW1 4910   0.484   6.757   2.088
 1337SOL    HW2 4911   0.565   6.682   2.208
 1338SOL     OW 4912   0.211   3.961   4.937
 1338SOL    HW1 4913   0.146   4.036   4.931
 1338SOL    HW2 4914   0.250   3.944   4.846
 1339SOL     OW 4915   5.415   1.124   0.195
 1339SOL    HW1 4916   5.356   1.191   0.150
 1339SOL    HW2 4917   5.507   1.130   0.157
 1340SOL     OW 4918   2.504   2.809   1.071
 1340SOL    HW1 4919   2.581   2.746   1.070
 1340SOL    HW2 4920   2.438   2.779   1.140
 1341SOL     OW 4921   5.756   5.880   6.496
 1341SOL    HW1 4922   5.790   5.787   6.482
 1341SOL    HW2 4923   5.756   5.929   6.408
 1342SOL     OW 4924   1.858   5.973   1.747
 1342SOL    HW1 4925   1.834   5.958   1.843
 1342SOL    HW2 4926   1.789   5.931   1.688
 1343SOL     OW 4927   4.887   6.004   2.937
 1343SOL    HW1 4928   4.826   6.073   2.976
 1343SOL    HW2 4929   4.980   6.039   2.936
 1344SOL     OW 4930   1.146   0.480   3.606
 1344SOL    HW1 4931   1.221   0.509   3.546
 1344SOL    HW2 4932   1.155   0.382   3.625
 1345SOL     OW 4933   1.400   6.689   5.431
 1345SOL    HW1 4934   1.393   6.598   5.390
 1345SOL    HW2 4935   1.482   6.734   5.397
 1346SOL     OW 4936   2.519   5.854   3.741
 1346SOL    HW1 4937   2.504   5.942   3.785
 1346SOL    HW2 4938   2.593   5.806   3.788
 1347SOL     OW 4939   1.169   0.810   6.514
 1347SOL    HW1 4940   1.135   0.903   6.504
 1347SOL    HW2 4941   1.135   0.754   6.438
 1348SOL     OW 4942   1.567   6.892   4.746
 1348SOL    HW1 4943   1.532   6.841   4.824
 1348SOL    HW2 4944   1.585   6.829   4.670
 1349SOL     OW 4945   5.720   3.772   4.203
 1349SOL    HW1 4946   5.662   3.690   4.204
 1349SOL    HW2 4947   5.757   3.786   4.112
 1350SOL     OW 4948   5.301   4.509   6.475
 1350SOL    HW1 4949   5.226   4.444   6.468
 1350SOL    HW2 4950   5.265   4.602   6.478
 1351SOL     OW 4951   6.752   3.053   6.777
 1351SOL    HW1 4952   6.771   3.090   6.868
 1351SOL    HW2 4953   6.762   2.954   6.778
 1352SOL     OW 4954   6.865   1.022   3.180
 1352SOL    HW1 4955   6.808   0.968   3.242
 1352SOL    HW2 4956   6.808   1.089   3.132
 1353SOL     OW 4957   6.514   2.692   6.253
 1353SOL    HW1 4958   6.513   2.780   6.301
 1353SOL    HW2 4959   6.608   2.659   6.247
 1354SOL     OW 4960   4.797   4.981   2.818
 1354SOL    HW1 4961   4.845   5.068   2.823
 1354SOL    HW2 4962   4.815   4.928   2.901
 1355SOL     OW 4963   3.857   3.485   4.925
 1355SOL    HW1 4964   3.863   3.506   4.828
 1355SOL    HW2 4965   3.866   3.569   4.978
 1356SOL     OW 4966   2.918   3.368   6.826
 1356SOL    HW1 4967   2.897   3.452   6.777
 1356SOL    HW2 4968   2.962   3.303   6.764
 1357SOL     OW 4969   0.443   3.355   5.625
 1357SOL    HW1 4970   0.354   3.354   5.580
 1357SOL    HW2 4971   0.443   3.426   5.696
 1358SOL     OW 4972   2.308   6.957   6.431
 1358SOL    HW1 4973   2.211   6.943   6.447
 1358SOL    HW2 4974   2.336   0.025   6.471
 1359SOL     OW 4975   6.115   4.986   0.093
 1359SOL    HW1 4976   6.193   4.951   0.040
 1359SOL    HW2 4977   6.032   4.936   0.066
 1360SOL     OW 4978   2.486   1.809   5.755
 1360SOL    HW1 4979   2.553   1.844   5.820
 1360SOL    HW2 4980   2.518   1.722   5.717
 1361SOL     OW 4981   6.073   4.994   4.927
 1361SOL    HW1 4982   6.073   5.053   4.847
 1361SOL    HW2 4983   6.120   4.909   4.906
 1362SOL     OW 4984   3.505   3.799   3.885
 1362SOL    HW1 4985   3.524   3.897   3.875
 1362SOL    HW2 4986   3.560   3.762   3.960
 1363SOL     OW 4987   0.289   6.617   3.512
 1363SOL    HW1 4988   0.282   6.595   3.609
 1363SOL    HW2 4989   0.224   6.562   3.460
 1364SOL     OW 4990   3.791   4.357   0.015
 1364SOL    HW1 4991   3.864   4.288   0.010
 1364SOL    HW2 4992   3.712   4.326   6.981
 1365SOL     OW 4993   5.515   2.333   5.952
 1365SOL    HW1 4994   5.510   2.402   5.880
 1365SOL    HW2 4995   5.513   2.242   5.911
 1366SOL     OW 4996   1.924   0.750   4.873
 1366SOL    HW1 4997   1.941   0.848   4.868
 1366SOL    HW2 4998   1.871   0.729   4.955
 1367SOL     OW 4999   2.355   1.530   2.160
 1367SOL    HW1 5000   2.336   1.520   2.062
 1367SOL    HW2 5001   2.377   1.626   2.180
 1368SOL     OW 5002   6.361   0.711   3.295
 1368SOL    HW1 5003   6.366   0.627   3.349
 1368SOL    HW2 5004   6.380   0.691   3.199
 1369SOL     OW 5005   0.057   0.502   2.655
 1369SOL    HW1 5006   0.084   0.465   2.744
 1369SOL    HW2 5007   0.115   0.463   2.584
 1370SOL     OW 5008   1.369   1.112   3.185
 1370SOL    HW1 5009   1.404   1.134   3.094
 1370SOL    HW2 5010   1.441   1.126   3.253
 1371SOL     OW 5011   2.991   0.377   5.635
 1371SOL    HW1 5012   3.001   0.300   5.698
 1371SOL    HW2 5013   2.957   0.344   5.547
 1372SOL     OW 5014   2.978   1.726   1.341
 1372SOL    HW1 5015   3.040   1.701   1.416
 1372SOL    HW2 5016   3.014   1.805   1.292
 1373SOL     OW 5017   1.599   5.414   6.351
 1373SOL    HW1 5018   1.612   5.341   6.284
 1373SOL    HW2 5019   1.650   5.495   6.322
 1374SOL     OW 5020   5.632   3.627   4.787
 1374SOL    HW1 5021   5.558   3.561   4.780
 1374SOL    HW2 5022   5.597   3.712   4.827
 1375SOL     OW 5023   1.403   4.258   4.121
 1375SOL    HW1 5024   1.376   4.346   4.160
 1375SOL    HW2 5025   1.400   4.262   4.022
 1376SOL     OW 5026   5.005   0.397   2.065
 1376SOL    HW1 5027   5.073   0.418   1.995
 1376SOL    HW2 5028   4.924   0.455   2.052
 1377SOL     OW 5029   0.007   4.206   4.976
 1377SOL    HW1 5030   6.962   4.277   4.948
 1377SOL    HW2 5031   0.026   4.215   5.074
 1378SOL     OW 5032   2.101   1.664   0.435
 1378SOL    HW1 5033   2.169   1.657   0.362
 1378SOL    HW2 5034   2.143   1.641   0.522
 1379SOL     OW 5035   4.472   5.245   1.863
 1379SOL    HW1 5036   4.393   5.271   1.918
 1379SOL    HW2 5037   4.550   5.302   1.887
 1380SOL     OW 5038   6.257   5.088   2.859
 1380SOL    HW1 5039   6.189   5.057   2.925
 1380SOL    HW2 5040   6.348   5.086   2.900
 1381SOL     OW 5041   4.255   6.597   2.801
 1381SOL    HW1 5042   4.312   6.525   2.760
 1381SOL    HW2 5043   4.196   6.635   2.731
 1382SOL     OW 5044   0.108   4.204   0.559
 1382SOL    HW1 5045   0.100   4.203   0.658
 1382SOL    HW2 5046   0.140   4.115   0.527
 1383SOL     OW 5047   2.960   0.012   0.635
 1383SOL    HW1 5048   2.903   6.966   0.685
 1383SOL    HW2 5049   3.057   7.007   0.647
 1384SOL     OW 5050   1.328   1.280   2.235
 1384SOL    HW1 5051   1.279   1.194   2.220
 1384SOL    HW2 5052   1.412   1.281   2.181
 1385SOL     OW 5053   5.010   3.328   4.159
 1385SOL    HW1 5054   4.976   3.342   4.252
 1385SOL    HW2 5055   5.056   3.411   4.128
 1386SOL     OW 5056   2.787   2.340   3.149
 1386SOL    HW1 5057   2.707   2.288   3.119
 1386SOL    HW2 5058   2.760   2.435   3.167
 1387SOL     OW 5059   3.221   0.529   4.059
 1387SOL    HW1 5060   3.220   0.597   4.132
 1387SOL    HW2 5061   3.128   0.496   4.043
 1388SOL     OW 5062   4.590   2.272   3.574
 1388SOL    HW1 5063   4.493   2.251   3.585
 1388SOL    HW2 5064   4.634   2.280   3.663
 1389SOL     OW 5065   6.483   0.580   4.316
 1389SOL    HW1 5066   6.436   0.565   4.404
 1389SOL    HW2 5067   6.428   0.541   4.242
 1390SOL     OW 5068   5.249   2.094   2.185
 1390SOL    HW1 5069   5.185   2.063   2.115
 1390SOL    HW2 5070   5.309   2.165   2.146
 1391SOL     OW 5071   5.974   0.787   5.243
 1391SOL    HW1 5072   6.001   0.692   5.258
 1391SOL    HW2 5073   6.056   0.841   5.222
 1392SOL     OW 5074   3.205   7.003   4.958
 1392SOL    HW1 5075   3.242   0.072   4.986
 1392SOL    HW2 5076   3.276   6.950   4.912
 1393SOL     OW 5077   5.103   6.669   6.890
 1393SOL    HW1 5078   5.060   6.748   6.934
 1393SOL    HW2 5079   5.180   6.701   6.834
 1394SOL     OW 5080   4.191   1.009   4.762
 1394SOL    HW1 5081   4.118   0.963   4.711
 1394SOL    HW2 5082   4.163   1.103   4.782
 1395SOL     OW 5083   0.780   5.014   2.447
 1395SOL    HW1 5084   0.865   5.066   2.452
 1395SOL    HW2 5085   0.787   4.946   2.374
 1396SOL     OW 5086   1.269   1.840   3.438
 1396SOL    HW1 5087   1.310   1.873   3.353
 1396SOL    HW2 5088   1.218   1.756   3.420
 1397SOL     OW 5089   2.435   4.524   5.597
 1397SOL    HW1 5090   2.522   4.483   5.625
 1397SOL    HW2 5091   2.449   4.621   5.579
 1398SOL     OW 5092   3.308   6.908   6.011
 1398SOL    HW1 5093   3.313   6.848   6.091
 1398SOL    HW2 5094   3.291   6.854   5.929
 1399SOL     OW 5095   3.458   6.974   6.924
 1399SOL    HW1 5096   3.514   6.894   6.903
 1399SOL    HW2 5097   3.376   6.973   6.867
 1400SOL     OW 5098   0.450   1.905   5.586
 1400SOL    HW1 5099   0.428   1.945   5.675
 1400SOL    HW2 5100   0.468   1.807   5.597
 1401SOL     OW 5101   4.204   6.988   2.171
 1401SOL    HW1 5102   4.265   6.991   2.250
 1401SOL    HW2 5103   4.138   6.914   2.183
 1402SOL     OW 5104   4.846   3.912   2.189
 1402SOL    HW1 5105   4.846   3.923   2.090
 1402SOL    HW2 5106   4.800   3.990   2.232
 1403SOL     OW 5107   3.261   2.942   6.789
 1403SOL    HW1 5108   3.243   2.856   6.742
 1403SOL    HW2 5109   3.283   2.923   6.885
 1404SOL     OW 5110   3.695   6.170   6.603
 1404SOL    HW1 5111   3.613   6.215   6.568
 1404SOL    HW2 5112   3.685   6.070   6.593
 1405SOL     OW 5113   1.053   4.551   6.590
 1405SOL    HW1 5114   1.144   4.509   6.586
 1405SOL    HW2 5115   1.018   4.564   6.498
 1406SOL     OW 5116   1.628   2.519   0.326
 1406SOL    HW1 5117   1.678   2.432   0.330
 1406SOL    HW2 5118   1.543   2.506   0.274
 1407SOL     OW 5119   6.777   2.799   1.141
 1407SOL    HW1 5120   6.696   2.776   1.195
 1407SOL    HW2 5121   6.845   2.842   1.200
 1408SOL     OW 5122   5.630   6.044   1.186
 1408SOL    HW1 5123   5.635   6.125   1.244
 1408SOL    HW2 5124   5.715   6.035   1.134
 1409SOL     OW 5125   6.188   2.121   5.933
 1409SOL    HW1 5126   6.170   2.105   5.836
 1409SOL    HW2 5127   6.108   2.163   5.975
 1410SOL     OW 5128   3.412   0.668   0.704
 1410SOL    HW1 5129   3.457   0.726   0.636
 1410SOL    HW2 5130   3.463   0.674   0.791
 1411SOL     OW 5131   2.971   0.035   0.128
 1411SOL    HW1 5132   2.996   7.005   0.212
 1411SOL    HW2 5133   2.872   0.044   0.124
 1412SOL     OW 5134   2.030   1.537   6.399
 1412SOL    HW1 5135   2.120   1.498   6.419
 1412SOL    HW2 5136   2.015   1.618   6.455
 1413SOL     OW 5137   2.273   1.634   4.961
 1413SOL    HW1 5138   2.261   1.540   4.929
 1413SOL    HW2 5139   2.371   1.656   4.961
 1414SOL     OW 5140   0.242   5.195   2.553
 1414SOL    HW1 5141   0.224   5.293   2.549
 1414SOL    HW2 5142   0.321   5.173   2.496
 1415SOL     OW 5143   3.533   1.786   5.158
 1415SOL    HW1 5144   3.591   1.827   5.087
 1415SOL    HW2 5145   3.492   1.858   5.213
 1416SOL     OW 5146   4.329   0.550   5.241
 1416SOL    HW1 5147   4.375   0.561   5.153
 1416SOL    HW2 5148   4.376   0.604   5.310
 1417SOL     OW 5149   3.906   3.873   4.321
 1417SOL    HW1 5150   3.888   3.956   4.269
 1417SOL    HW2 5151   3.841   3.802   4.293
 1418SOL     OW 5152   3.176   3.689   5.236
 1418SOL    HW1 5153   3.108   3.760   5.254
 1418SOL    HW2 5154   3.261   3.732   5.206
 1419SOL     OW 5155   0.713   5.345   2.033
 1419SOL    HW1 5156   0.651   5.334   2.111
 1419SOL    HW2 5157   0.715   5.440   2.005
 1420SOL     OW 5158   2.392   6.724   3.761
 1420SOL    HW1 5159   2.450   6.806   3.759
 1420SOL    HW2 5160   2.416   6.668   3.840
 1421SOL     OW 5161   1.635   5.487   0.430
 1421SOL    HW1 5162   1.639   5.408   0.490
 1421SOL    HW2 5163   1.577   5.558   0.471
 1422SOL     OW 5164   1.524   3.887   6.821
 1422SOL    HW1 5165   1.510   3.980   6.856
 1422SOL    HW2 5166   1.585   3.891   6.742
 1423SOL     OW 5167   5.050   0.951   4.848
 1423SOL    HW1 5168   5.049   0.968   4.947
 1423SOL    HW2 5169   5.142   0.921   4.821
 1424SOL     OW 5170   6.354   3.792   1.596
 1424SOL    HW1 5171   6.436   3.775   1.650
 1424SOL    HW2 5172   6.278   3.740   1.635
 1425SOL     OW 5173   6.254   6.314   3.235
 1425SOL    HW1 5174   6.227   6.368   3.155
 1425SOL    HW2 5175   6.173   6.291   3.289
 1426SOL     OW 5176   3.863   1.019   1.232
 1426SOL    HW1 5177   3.925   1.095   1.251
 1426SOL    HW2 5178   3.792   1.016   1.303
 1427SOL     OW 5179   1.241   1.125   3.792
 1427SOL    HW1 5180   1.340   1.124   3.779
 1427SOL    HW2 5181   1.195   1.127   3.704
 1428SOL     OW 5182   2.184   3.952   4.045
 1428SOL    HW1 5183   2.231   3.869   4.074
 1428SOL    HW2 5184   2.212   4.028   4.104
 1429SOL     OW 5185   5.792   0.574   1.427
 1429SOL    HW1 5186   5.805   0.673   1.418
 1429SOL    HW2 5187   5.782   0.533   1.336
 1430SOL     OW 5188   2.113   3.841   4.395
 1430SOL    HW1 5189   2.189   3.903   4.416
 1430SOL    HW2 5190   2.138   3.780   4.320
 1431SOL     OW 5191   3.499   1.876   0.465
 1431SOL    HW1 5192   3.484   1.796   0.407
 1431SOL    HW2 5193   3.552   1.850   0.546
 1432SOL     OW 5194   2.928   0.326   2.371
 1432SOL    HW1 5195   2.982   0.378   2.437
 1432SOL    HW2 5196   2.976   0.322   2.284
 1433SOL     OW 5197   3.671   1.456   4.021
 1433SOL    HW1 5198   3.615   1.523   3.972
 1433SOL    HW2 5199   3.765   1.490   4.026
 1434SOL     OW 5200   5.929   3.950   0.921
 1434SOL    HW1 5201   5.873   3.967   0.840
 1434SOL    HW2 5202   5.996   4.024   0.931
 1435SOL     OW 5203   6.940   6.389   4.411
 1435SOL    HW1 5204   6.848   6.354   4.393
 1435SOL    HW2 5205   6.994   6.318   4.456
 1436SOL     OW 5206   5.742   0.571   0.022
 1436SOL    HW1 5207   5.828   0.611   0.054
 1436SOL    HW2 5208   5.670   0.640   0.025
 1437SOL     OW 5209   4.128   0.798   0.224
 1437SOL    HW1 5210   4.122   0.764   0.318
 1437SOL    HW2 5211   4.155   0.894   0.225
 1438SOL     OW 5212   2.756   6.803   3.420
 1438SOL    HW1 5213   2.702   6.744   3.359
 1438SOL    HW2 5214   2.847   6.763   3.432
 1439SOL     OW 5215   6.642   5.246   4.799
 1439SOL    HW1 5216   6.604   5.260   4.708
 1439SOL    HW2 5217   6.650   5.148   4.818
 1440SOL     OW 5218   3.353   2.936   2.632
 1440SOL    HW1 5219   3.314   3.019   2.673
 1440SOL    HW2 5220   3.421   2.897   2.694
 1441SOL     OW 5221   0.714   2.093   6.421
 1441SOL    HW1 5222   0.685   2.155   6.494
 1441SOL    HW2 5223   0.687   2.131   6.332
 1442SOL     OW 5224   5.440   6.096   0.095
 1442SOL    HW1 5225   5.498   6.154   0.152
 1442SOL    HW2 5226   5.481   6.086   0.004
 1443SOL     OW 5227   1.827   3.334   4.001
 1443SOL    HW1 5228   1.926   3.345   4.004
 1443SOL    HW2 5229   1.786   3.370   4.085
 1444SOL     OW 5230   4.734   6.658   4.762
 1444SOL    HW1 5231   4.724   6.600   4.681
 1444SOL    HW2 5232   4.704   6.750   4.741
 1445SOL     OW 5233   0.087   2.378   0.281
 1445SOL    HW1 5234   0.122   2.377   0.188
 1445SOL    HW2 5235   0.052   2.288   0.305
 1446SOL     OW 5236   2.987   5.995   2.271
 1446SOL    HW1 5237   3.034   5.921   2.320
 1446SOL    HW2 5238   2.953   6.062   2.337
 1447SOL     OW 5239   6.542   0.869   4.835
 1447SOL    HW1 5240   6.494   0.953   4.811
 1447SOL    HW2 5241   6.640   0.882   4.821
 1448SOL     OW 5242   5.261   1.344   0.526
 1448SOL    HW1 5243   5.358   1.362   0.508
 1448SOL    HW2 5244   5.211   1.347   0.440
 1449SOL     OW 5245   4.924   5.567   0.378
 1449SOL    HW1 5246   4.999   5.530   0.434
 1449SOL    HW2 5247   4.840   5.569   0.433
 1450SOL     OW 5248   5.617   1.541   3.713
 1450SOL    HW1 5249   5.582   1.612   3.774
 1450SOL    HW2 5250   5.608   1.452   3.757
 1451SOL     OW 5251   0.088   6.743   2.494
 1451SOL    HW1 5252   0.142   6.735   2.411
 1451SOL    HW2 5253   0.017   6.672   2.495
 1452SOL     OW 5254   2.053   0.352   5.978
 1452SOL    HW1 5255   2.046   0.255   6.004
 1452SOL    HW2 5256   2.001   0.407   6.043
 1453SOL     OW 5257   6.108   4.227   4.295
 1453SOL    HW1 5258   6.087   4.131   4.277
 1453SOL    HW2 5259   6.186   4.233   4.357
 1454SOL     OW 5260   5.823   4.337   1.472
 1454SOL    HW1 5261   5.910   4.310   1.514
 1454SOL    HW2 5262   5.839   4.413   1.410
 1455SOL     OW 5263   1.968   1.777   2.118
 1455SOL    HW1 5264   2.045   1.825   2.158
 1455SOL    HW2 5265   1.938   1.703   2.179
 1456SOL     OW 5266   5.513   5.069   4.927
 1456SOL    HW1 5267   5.436   5.132   4.937
 1456SOL    HW2 5268   5.523   5.015   5.010
 1457SOL     OW 5269   2.173   1.585   4.472
 1457SOL    HW1 5270   2.209   1.674   4.501
 1457SOL    HW2 5271   2.078   1.597   4.441
 1458SOL     OW 5272   6.746   5.449   0.231
 1458SOL    HW1 5273   6.726   5.360   0.189
 1458SOL    HW2 5274   6.752   5.439   0.330
 1459SOL     OW 5275   3.173   0.196   1.605
 1459SOL    HW1 5276   3.209   0.126   1.667
 1459SOL    HW2 5277   3.076   0.208   1.622
 1460SOL     OW 5278   0.629   1.646   6.613
 1460SOL    HW1 5279   0.605   1.558   6.655
 1460SOL    HW2 5280   0.719   1.639   6.569
 1461SOL     OW 5281   5.003   3.979   2.763
 1461SOL    HW1 5282   4.975   3.984   2.859
 1461SOL    HW2 5283   4.922   3.980   2.704
 1462SOL     OW 5284   5.861   0.311   5.462
 1462SOL    HW1 5285   5.895   0.258   5.385
 1462SOL    HW2 5286   5.939   0.346   5.515
 1463SOL     OW 5287   0.978   2.431   5.889
 1463SOL    HW1 5288   0.954   2.497   5.960
 1463SOL    HW2 5289   0.922   2.348   5.901
 1464SOL     OW 5290   0.706   0.820   0.962
 1464SOL    HW1 5291   0.625   0.840   1.018
 1464SOL    HW2 5292   0.741   0.729   0.986
 1465SOL     OW 5293   2.096   1.166   3.817
 1465SOL    HW1 5294   2.038   1.097   3.772
 1465SOL    HW2 5295   2.049   1.254   3.814
 1466SOL     OW 5296   5.823   5.955   4.402
 1466SOL    HW1 5297   5.764   5.954   4.321
 1466SOL    HW2 5298   5.782   6.013   4.472
 1467SOL     OW 5299   0.745   4.335   4.635
 1467SOL    HW1 5300   0.769   4.245   4.672
 1467SOL    HW2 5301   0.665   4.327   4.576
 1468SOL     OW 5302   4.446   0.306   2.370
 1468SOL    HW1 5303   4.400   0.282   2.455
 1468SOL    HW2 5304   4.428   0.403   2.350
 1469SOL     OW 5305   6.642   0.226   2.358
 1469SOL    HW1 5306   6.707   0.160   2.395
 1469SOL    HW2 5307   6.550   0.187   2.361
 1470SOL     OW 5308   0.195   0.375   2.461
 1470SOL    HW1 5309   0.230   0.282   2.470
 1470SOL    HW2 5310   0.183   0.397   2.364
 1471SOL     OW 5311   6.122   1.038   1.258
 1471SOL    HW1 5312   6.152   1.121   1.304
 1471SOL    HW2 5313   6.043   1.059   1.200
 1472SOL     OW 5314   4.272   5.054   4.872
 1472SOL    HW1 5315   4.181   5.034   4.835
 1472SOL    HW2 5316   4.330   4.973   4.863
 1473SOL     OW 5317   0.318   3.125   3.940
 1473SOL    HW1 5318   0.402   3.117   3.994
 1473SOL    HW2 5319   0.295   3.036   3.900
 1474SOL     OW 5320   4.799   6.137   2.654
 1474SOL    HW1 5321   4.837   6.121   2.562
 1474SOL    HW2 5322   4.736   6.064   2.678
 1475SOL     OW 5323   6.390   6.836   3.047
 1475SOL    HW1 5324   6.458   6.811   3.116
 1475SOL    HW2 5325   6.382   6.763   2.980
 1476SOL     OW 5326   1.061   2.221   1.033
 1476SOL    HW1 5327   0.985   2.224   0.968
 1476SOL    HW2 5328   1.028   2.184   1.120
 1477SOL     OW 5329   2.410   6.357   4.504
 1477SOL    HW1 5330   2.414   6.298   4.423
 1477SOL    HW2 5331   2.314   6.368   4.532
 1478SOL     OW 5332   0.126   3.914   1.194
 1478SOL    HW1 5333   0.052   3.848   1.186
 1478SOL    HW2 5334   0.090   4.006   1.186
 1479SOL     OW 5335   1.218   5.014   0.179
 1479SOL    HW1 5336   1.259   5.085   0.121
 1479SOL    HW2 5337   1.228   5.040   0.275
 1480SOL     OW 5338   3.209   0.743   6.943
 1480SOL    HW1 5339   3.168   0.707   6.860
 1480SOL    HW2 5340   3.148   0.811   6.983
 1481SOL     OW 5341   0.107   2.959   1.055
 1481SOL    HW1 5342   0.025   2.919   1.097
 1481SOL    HW2 5343   0.102   3.059   1.059
 1482SOL     OW 5344   5.638   0.591   5.706
 1482SOL    HW1 5345   5.641   0.507   5.761
 1482SOL    HW2 5346   5.623   0.670   5.766
 1483SOL     OW 5347   0.202   2.761   0.884
 1483SOL    HW1 5348   0.180   2.846   0.932
 1483SOL    HW2 5349   0.228   2.781   0.790
 1484SOL     OW 5350   6.239   7.009   3.335
 1484SOL    HW1 5351   6.271   0.078   3.300
 1484SOL    HW2 5352   6.140   7.012   3.346
 1485SOL     OW 5353   5.669   3.399   4.389
 1485SOL    HW1 5354   5.615   3.323   4.425
 1485SOL    HW2 5355   5.690   3.463   4.463
 1486SOL     OW 5356   5.064   2.942   1.625
 1486SOL    HW1 5357   5.152   2.945   1.673
 1486SOL    HW2 5358   5.075   2.889   1.541
 1487SOL     OW 5359   0.699   6.913   5.542
 1487SOL    HW1 5360   0.661   6.835   5.492
 1487SOL    HW2 5361   0.651   6.924   5.628
 1488SOL     OW 5362   4.540   2.102   3.891
 1488SOL    HW1 5363   4.622   2.142   3.851
 1488SOL    HW2 5364   4.468   2.171   3.896
 1489SOL     OW 5365   3.614   4.966   4.857
 1489SOL    HW1 5366   3.578   5.033   4.922
 1489SOL    HW2 5367   3.710   4.947   4.878
 1490SOL     OW 5368   2.878   3.157   0.395
 1490SOL    HW1 5369   2.975   3.151   0.421
 1490SOL    HW2 5370   2.823   3.179   0.476
 1491SOL     OW 5371   1.283   1.964   3.934
 1491SOL    HW1 5372   1.186   1.941   3.937
 1491SOL    HW2 5373   1.322   1.934   3.847
 1492SOL     OW 5374   6.934   1.953   1.451
 1492SOL    HW1 5375   7.010   2.017   1.439
 1492SOL    HW2 5376   6.861   1.996   1.504
 1493SOL     OW 5377   6.554   3.090   5.198
 1493SOL    HW1 5378   6.632   3.143   5.165
 1493SOL    HW2 5379   6.583   2.996   5.216
 1494SOL     OW 5380   5.101   1.856   3.750
 1494SOL    HW1 5381   5.155   1.924   3.800
 1494SOL    HW2 5382   5.061   1.899   3.669
 1495SOL     OW 5383   1.691   3.883   1.238
 1495SOL    HW1 5384   1.663   3.979   1.241
 1495SOL    HW2 5385   1.783   3.874   1.276
 1496SOL     OW 5386   0.374   0.412   2.709
 1496SOL    HW1 5387   0.405   0.327   2.751
 1496SOL    HW2 5388   0.329   0.391   2.622
 1497SOL     OW 5389   5.476   4.484   5.803
 1497SOL    HW1 5390   5.427   4.501   5.718
 1497SOL    HW2 5391   5.549   4.551   5.813
 1498SOL     OW 5392   3.174   5.499   6.929
 1498SOL    HW1 5393   3.119   5.574   6.965
 1498SOL    HW2 5394   3.120   5.446   6.864
 1499SOL     OW 5395   1.863   4.249   4.125
 1499SOL    HW1 5396   1.851   4.284   4.032
 1499SOL    HW2 5397   1.801   4.296   4.187
 1500SOL     OW 5398   4.035   5.955   5.738
 1500SOL    HW1 5399   4.108   6.005   5.692
 1500SOL    HW2 5400   4.033   5.980   5.835
 1501SOL     OW 5401   3.510   0.715   1.228
 1501SOL    HW1 5402   3.580   0.739   1.161
 1501SOL    HW2 5403   3.468   0.628   1.204
 1502SOL     OW 5404   0.239   0.754   6.705
 1502SOL    HW1 5405   0.246   0.854   6.696
 1502SOL    HW2 5406   0.144   0.728   6.716
 1503SOL     OW 5407   3.588   3.710   5.101
 1503SOL    HW1 5408   3.613   3.617   5.128
 1503SOL    HW2 5409   3.528   3.706   5.021
 1504SOL     OW 5410   3.046   6.855   3.712
 1504SOL    HW1 5411   2.956   6.898   3.716
 1504SOL    HW2 5412   3.111   6.910   3.764
 1505SOL     OW 5413   5.667   6.547   3.264
 1505SOL    HW1 5414   5.593   6.498   3.309
 1505SOL    HW2 5415   5.631   6.630   3.222
 1506SOL     OW 5416   6.993   6.851   4.186
 1506SOL    HW1 5417   6.945   6.770   4.221
 1506SOL    HW2 5418   0.071   6.845   4.212
 1507SOL     OW 5419   2.070   1.897   6.792
 1507SOL    HW1 5420   2.026   1.854   6.870
 1507SOL    HW2 5421   2.095   1.828   6.724
 1508SOL     OW 5422   4.325   6.412   0.766
 1508SOL    HW1 5423   4.358   6.359   0.844
 1508SOL    HW2 5424   4.392   6.483   0.744
 1509SOL     OW 5425   5.298   1.883   6.786
 1509SOL    HW1 5426   5.272   1.885   6.882
 1509SOL    HW2 5427   5.337   1.793   6.764
 1510SOL     OW 5428   6.504   1.637   1.935
 1510SOL    HW1 5429   6.537   1.693   2.010
 1510SOL    HW2 5430   6.405   1.634   1.936
 1511SOL     OW 5431   0.428   2.542   0.762
 1511SOL    HW1 5432   0.431   2.618   0.828
 1511SOL    HW2 5433   0.354   2.480   0.787
 1512SOL     OW 5434   0.277   0.737   2.631
 1512SOL    HW1 5435   0.273   0.686   2.717
 1512SOL    HW2 5436   0.194   0.718   2.577
 1513SOL     OW 5437   2.525   0.802   2.907
 1513SOL    HW1 5438   2.620   0.805   2.939
 1513SOL    HW2 5439   2.474   0.878   2.949
 1514SOL     OW 5440   4.748   0.303   5.768
 1514SOL    HW1 5441   4.833   0.285   5.816
 1514SOL    HW2 5442   4.673   0.307   5.835
 1515SOL     OW 5443   5.588   5.334   5.673
 1515SOL    HW1 5444   5.528   5.336   5.592
 1515SOL    HW2 5445   5.679   5.365   5.648
 1516SOL     OW 5446   5.850   1.694   2.375
 1516SOL    HW1 5447   5.858   1.597   2.351
 1516SOL    HW2 5448   5.918   1.747   2.325
 1517SOL     OW 5449   3.451   5.113   1.682
 1517SOL    HW1 5450   3.483   5.196   1.636
 1517SOL    HW2 5451   3.513   5.037   1.660
 1518SOL     OW 5452   1.039   4.929   1.152
 1518SOL    HW1 5453   0.982   4.847   1.152
 1518SOL    HW2 5454   1.124   4.910   1.200
 1519SOL     OW 5455   0.646   4.344   1.110
 1519SOL    HW1 5456   0.664   4.401   1.029
 1519SOL    HW2 5457   0.681   4.389   1.191
 1520SOL     OW 5458   1.646   4.082   2.933
 1520SOL    HW1 5459   1.713   4.019   2.895
 1520SOL    HW2 5460   1.690   4.141   3.000
 1521SOL     OW 5461   2.037   5.973   5.348
 1521SOL    HW1 5462   1.972   5.947   5.277
 1521SOL    HW2 5463   2.090   5.893   5.376
 1522SOL     OW 5464   1.686   2.250   5.778
 1522SOL    HW1 5465   1.692   2.150   5.773
 1522SOL    HW2 5466   1.712   2.280   5.870
 1523SOL     OW 5467   5.624   0.781   1.605
 1523SOL    HW1 5468   5.579   0.692   1.593
 1523SOL    HW2 5469   5.562   0.854   1.579
 1524SOL     OW 5470   0.836   1.608   0.908
 1524SOL    HW1 5471   0.863   1.574   0.998
 1524SOL    HW2 5472   0.886   1.559   0.837
 1525SOL     OW 5473   5.502   1.338   5.107
 1525SOL    HW1 5474   5.497   1.436   5.089
 1525SOL    HW2 5475   5.427   1.311   5.166
 1526SOL     OW 5476   5.209   2.719   0.621
 1526SOL    HW1 5477   5.178   2.674   0.705
 1526SOL    HW2 5478   5.184   2.815   0.623
 1527SOL     OW 5479   2.235   0.308   5.054
 1527SOL    HW1 5480   2.333   0.290   5.056
 1527SOL    HW2 5481   2.216   0.382   4.988
 1528SOL     OW 5482   4.916   5.995   3.275
 1528SOL    HW1 5483   4.951   5.975   3.184
 1528SOL    HW2 5484   4.979   6.056   3.323
 1529SOL     OW 5485   1.642   6.833   5.319
 1529SOL    HW1 5486   1.659   6.799   5.411
 1529SOL    HW2 5487   1.700   6.784   5.254
 1530SOL     OW 5488   3.495   6.898   1.594
 1530SOL    HW1 5489   3.568   6.875   1.530
 1530SOL    HW2 5490   3.485   6.997   1.601
 1531SOL     OW 5491   5.718   1.369   6.656
 1531SOL    HW1 5492   5.646   1.355   6.589
 1531SOL    HW2 5493   5.731   1.467   6.672
 1532SOL     OW 5494   3.038   1.060   5.258
 1532SOL    HW1 5495   3.060   1.070   5.355
 1532SOL    HW2 5496   3.017   1.150   5.219
 1533SOL     OW 5497   4.686   3.405   0.852
 1533SOL    HW1 5498   4.623   3.405   0.930
 1533SOL    HW2 5499   4.666   3.327   0.792
 1534SOL     OW 5500   6.783   0.384   0.450
 1534SOL    HW1 5501   6.701   0.328   0.436
 1534SOL    HW2 5502   6.852   0.331   0.498
 1535SOL     OW 5503   4.732   4.515   4.287
 1535SOL    HW1 5504   4.689   4.549   4.204
 1535SOL    HW2 5505   4.735   4.415   4.285
 1536SOL     OW 5506   2.920   6.363   3.165
 1536SOL    HW1 5507   2.846   6.352   3.098
 1536SOL    HW2 5508   2.992   6.296   3.146
 1537SOL     OW 5509   1.450   5.693   4.364
 1537SOL    HW1 5510   1.375   5.743   4.323
 1537SOL    HW2 5511   1.507   5.653   4.292
 1538SOL     OW 5512   3.298   5.828   0.006
 1538SOL    HW1 5513   3.321   5.877   6.942
 1538SOL    HW2 5514   3.328   5.881   0.086
 1539SOL     OW 5515   2.717   6.862   2.037
 1539SOL    HW1 5516   2.687   6.932   1.972
 1539SOL    HW2 5517   2.639   6.832   2.092
 1540SOL     OW 5518   6.270   0.415   5.790
 1540SOL    HW1 5519   6.222   0.441   5.873
 1540SOL    HW2 5520   6.344   0.479   5.772
 1541SOL     OW 5521   5.217   2.232   1.807
 1541SOL    HW1 5522   5.138   2.229   1.745
 1541SOL    HW2 5523   5.288   2.292   1.768
 1542SOL     OW 5524   6.681   5.270   1.394
 1542SOL    HW1 5525   6.772   5.263   1.355
 1542SOL    HW2 5526   6.663   5.191   1.453
 1543SOL     OW 5527   3.272   3.191   2.732
 1543SOL    HW1 5528   3.277   3.224   2.638
 1543SOL    HW2 5529   3.180   3.155   2.749
 1544SOL     OW 5530   3.406   3.210   1.581
 1544SOL    HW1 5531   3.388   3.299   1.541
 1544SOL    HW2 5532   3.489   3.214   1.636
 1545SOL     OW 5533   0.460   6.457   5.697
 1545SOL    HW1 5534   0.378   6.401   5.685
 1545SOL    HW2 5535   0.439   6.532   5.761
 1546SOL     OW 5536   0.505   6.419   0.779
 1546SOL    HW1 5537   0.496   6.436   0.877
 1546SOL    HW2 5538   0.415   6.394   0.742
 1547SOL     OW 5539   2.874   6.337   0.560
 1547SOL    HW1 5540   2.938   6.346   0.484
 1547SOL    HW2 5541   2.924   6.346   0.646
 1548SOL     OW 5542   6.298   3.924   3.313
 1548SOL    HW1 5543   6.234   3.945   3.239
 1548SOL    HW2 5544   6.248   3.889   3.392
 1549SOL     OW 5545   6.028   1.781   1.252
 1549SOL    HW1 5546   6.004   1.834   1.171
 1549SOL    HW2 5547   6.114   1.815   1.290
 1550SOL     OW 5548   2.559   5.100   2.286
 1550SOL    HW1 5549   2.576   5.115   2.383
 1550SOL    HW2 5550   2.646   5.082   2.240
 1551SOL     OW 5551   1.151   2.199   1.745
 1551SOL    HW1 5552   1.110   2.145   1.818
 1551SOL    HW2 5553   1.092   2.277   1.723
 1552SOL     OW 5554   1.762   6.338   2.250
 1552SOL    HW1 5555   1.843   6.315   2.304
 1552SOL    HW2 5556   1.764   6.435   2.227
 1553SOL     OW 5557   5.879   1.960   5.535
 1553SOL    HW1 5558   5.825   2.038   5.564
 1553SOL    HW2 5559   5.831   1.875   5.560
 1554SOL     OW 5560   2.665   3.282   0.302
 1554SOL    HW1 5561   2.688   3.189   0.330
 1554SOL    HW2 5562   2.607   3.279   0.221
 1555SOL     OW 5563   4.919   1.599   0.907
 1555SOL    HW1 5564   4.928   1.695   0.934
 1555SOL    HW2 5565   4.893   1.544   0.986
 1556SOL     OW 5566   2.709   2.307   0.696
 1556SOL    HW1 5567   2.731   2.259   0.781
 1556SOL    HW2 5568   2.715   2.243   0.619
 1557SOL     OW 5569   2.391   2.289   1.454
 1557SOL    HW1 5570   2.459   2.265   1.385
 1557SOL    HW2 5571   2.308   2.325   1.409
 1558SOL     OW 5572   4.852   2.457   0.341
 1558SOL    HW1 5573   4.948   2.461   0.314
 1558SOL    HW2 5574   4.821   2.362   0.340
 1559SOL     OW 5575   2.232   6.379   4.077
 1559SOL    HW1 5576   2.300   6.446   4.109
 1559SOL    HW2 5577   2.275   6.290   4.069
 1560SOL     OW 5578   4.652   3.532   1.314
 1560SOL    HW1 5579   4.684   3.627   1.307
 1560SOL    HW2 5580   4.726   3.475   1.349
 1561SOL     OW 5581   5.960   6.432   1.000
 1561SOL    HW1 5582   5.905   6.491   1.060
 1561SOL    HW2 5583   5.910   6.415   0.915
 1562SOL     OW 5584   2.810   0.019   2.878
 1562SOL    HW1 5585   2.896   7.017   2.831
 1562SOL    HW2 5586   2.815   7.005   2.973
 1563SOL     OW 5587   2.259   4.242   3.380
 1563SOL    HW1 5588   2.322   4.300   3.431
 1563SOL    HW2 5589   2.176   4.227   3.433
 1564SOL     OW 5590   1.950   1.661   3.095
 1564SOL    HW1 5591   1.896   1.719   3.036
 1564SOL    HW2 5592   2.021   1.715   3.141
 1565SOL     OW 5593   5.550   1.661   5.629
 1565SOL    HW1 5594   5.499   1.617   5.555
 1565SOL    HW2 5595   5.507   1.639   5.717
 1566SOL     OW 5596   0.903   3.627   3.730
 1566SOL    HW1 5597   0.972   3.573   3.680
 1566SOL    HW2 5598   0.939   3.718   3.749
 1567SOL     OW 5599   5.619   1.043   4.446
 1567SOL    HW1 5600   5.574   1.101   4.514
 1567SOL    HW2 5601   5.618   0.948   4.478
 1568SOL     OW 5602   1.661   4.753   0.919
 1568SOL    HW1 5603   1.674   4.849   0.945
 1568SOL    HW2 5604   1.707   4.695   0.986
 1569SOL     OW 5605   2.216   1.096   2.394
 1569SOL    HW1 5606   2.264   1.112   2.480
 1569SOL    HW2 5607   2.236   1.170   2.330
 1570SOL     OW 5608   2.923   5.487   6.377
 1570SOL    HW1 5609   2.867   5.422   6.326
 1570SOL    HW2 5610   3.017   5.483   6.344
 1571SOL     OW 5611   1.177   1.263   4.198
 1571SOL    HW1 5612   1.119   1.339   4.168
 1571SOL    HW2 5613   1.181   1.194   4.126
 1572SOL     OW 5614   2.335   5.436   3.553
 1572SOL    HW1 5615   2.371   5.348   3.521
 1572SOL    HW2 5616   2.366   5.509   3.492
 1573SOL     OW 5617   5.362   5.590   0.247
 1573SOL    HW1 5618   5.294   5.553   0.311
 1573SOL    HW2 5619   5.375   5.687   0.265
 1574SOL     OW 5620   0.261   2.894   3.182
 1574SOL    HW1 5621   0.303   2.890   3.272
 1574SOL    HW2 5622   0.290   2.814   3.129
 1575SOL     OW 5623   6.949   2.164   6.954
 1575SOL    HW1 5624   6.998   2.148   0.021
 1575SOL    HW2 5625   7.006   2.134   6.878
 1576SOL     OW 5626   0.838   6.215   2.848
 1576SOL    HW1 5627   0.755   6.270   2.846
 1576SOL    HW2 5628   0.855   6.185   2.942
 1577SOL     OW 5629   4.395   5.909   4.009
 1577SOL    HW1 5630   4.362   5.880   3.919
 1577SOL    HW2 5631   4.389   6.009   4.016
 1578SOL     OW 5632   5.378   2.009   1.828
 1578SOL    HW1 5633   5.439   2.041   1.755
 1578SOL    HW2 5634   5.309   2.080   1.846
 1579SOL     OW 5635   1.637   3.831   2.532
 1579SOL    HW1 5636   1.694   3.760   2.490
 1579SOL    HW2 5637   1.587   3.792   2.610
 1580SOL     OW 5638   3.145   3.550   4.143
 1580SOL    HW1 5639   3.207   3.605   4.088
 1580SOL    HW2 5640   3.191   3.521   4.227
 1581SOL     OW 5641   5.201   3.969   5.200
 1581SOL    HW1 5642   5.108   3.952   5.232
 1581SOL    HW2 5643   5.264   3.903   5.242
 1582SOL     OW 5644   3.994   6.001   3.947
 1582SOL    HW1 5645   3.898   6.026   3.933
 1582SOL    HW2 5646   4.021   6.022   4.041
 1583SOL     OW 5647   0.534   5.642   4.882
 1583SOL    HW1 5648   0.471   5.583   4.933
 1583SOL    HW2 5649   0.613   5.663   4.940
 1584SOL     OW 5650   0.381   4.670   0.116
 1584SOL    HW1 5651   0.311   4.702   0.180
 1584SOL    HW2 5652   0.380   4.727   0.034
 1585SOL     OW 5653   4.300   6.667   4.143
 1585SOL    HW1 5654   4.341   6.657   4.052
 1585SOL    HW2 5655   4.353   6.734   4.196
 1586SOL     OW 5656   2.557   6.094   3.521
 1586SOL    HW1 5657   2.532   6.189   3.499
 1586SOL    HW2 5658   2.488   6.055   3.582
 1587SOL     OW 5659   4.362   0.110   6.660
 1587SOL    HW1 5660   4.410   0.063   6.733
 1587SOL    HW2 5661   4.267   0.078   6.657
 1588SOL     OW 5662   6.203   1.739   4.192
 1588SOL    HW1 5663   6.197   1.710   4.287
 1588SOL    HW2 5664   6.200   1.659   4.132
 1589SOL     OW 5665   0.157   1.217   4.031
 1589SOL    HW1 5666   0.206   1.192   3.947
 1589SOL    HW2 5667   0.078   1.158   4.042
 1590SOL     OW 5668   5.735   0.276   3.487
 1590SOL    HW1 5669   5.720   0.178   3.498
 1590SOL    HW2 5670   5.800   0.308   3.557
 1591SOL     OW 5671   0.266   5.408   0.861
 1591SOL    HW1 5672   0.221   5.448   0.781
 1591SOL    HW2 5673   0.289   5.312   0.842
 1592SOL     OW 5674   6.890   4.423   4.390
 1592SOL    HW1 5675   6.899   4.337   4.441
 1592SOL    HW2 5676   6.794   4.451   4.389
 1593SOL     OW 5677   3.834   5.431   1.345
 1593SOL    HW1 5678   3.857   5.351   1.289
 1593SOL    HW2 5679   3.784   5.497   1.289
 1594SOL     OW 5680   5.260   0.705   3.046
 1594SOL    HW1 5681   5.276   0.760   2.964
 1594SOL    HW2 5682   5.214   0.761   3.116
 1595SOL     OW 5683   6.745   4.044   0.431
 1595SOL    HW1 5684   6.646   4.056   0.428
 1595SOL    HW2 5685   6.781   4.084   0.516
 1596SOL     OW 5686   5.271   4.229   4.224
 1596SOL    HW1 5687   5.217   4.260   4.145
 1596SOL    HW2 5688   5.214   4.231   4.306
 1597SOL     OW 5689   4.230   6.757   0.861
 1597SOL    HW1 5690   4.203   6.686   0.926
 1597SOL    HW2 5691   4.320   6.735   0.824
 1598SOL     OW 5692   0.631   5.815   5.872
 1598SOL    HW1 5693   0.550   5.859   5.911
 1598SOL    HW2 5694   0.624   5.716   5.884
 1599SOL     OW 5695   5.046   5.146   4.333
 1599SOL    HW1 5696   4.962   5.196   4.312
 1599SOL    HW2 5697   5.125   5.200   4.304
 1600SOL     OW 5698   5.362   1.170   1.467
 1600SOL    HW1 5699   5.287   1.200   1.408
 1600SOL    HW2 5700   5.378   1.072   1.454
 1601SOL     OW 5701   6.123   0.697   4.976
 1601SOL    HW1 5702   6.028   0.719   4.956
 1601SOL    HW2 5703   6.130   0.601   5.004
 1602SOL     OW 5704   3.541   5.902   3.389
 1602SOL    HW1 5705   3.591   5.946   3.315
 1602SOL    HW2 5706   3.598   5.830   3.430
 1603SOL     OW 5707   3.240   5.884   1.328
 1603SOL    HW1 5708   3.231   5.791   1.362
 1603SOL    HW2 5709   3.154   5.913   1.287
 1604SOL     OW 5710   4.549   5.445   1.485
 1604SOL    HW1 5711   4.515   5.503   1.559
 1604SOL    HW2 5712   4.647   5.458   1.474
 1605SOL     OW 5713   4.084   4.905   0.441
 1605SOL    HW1 5714   4.093   4.999   0.409
 1605SOL    HW2 5715   4.174   4.861   0.443
 1606SOL     OW 5716   4.835   5.608   4.787
 1606SOL    HW1 5717   4.803   5.699   4.760
 1606SOL    HW2 5718   4.761   5.559   4.834
 1607SOL     OW 5719   4.925   4.131   3.978
 1607SOL    HW1 5720   4.969   4.216   4.008
 1607SOL    HW2 5721   4.963   4.055   4.029
 1608SOL     OW 5722   6.696   3.229   2.924
 1608SOL    HW1 5723   6.624   3.167   2.955
 1608SOL    HW2 5724   6.781   3.209   2.972
 1609SOL     OW 5725   1.507   0.268   0.976
 1609SOL    HW1 5726   1.533   0.190   0.919
 1609SOL    HW2 5727   1.501   0.350   0.919
 1610SOL     OW 5728   5.934   5.595   1.197
 1610SOL    HW1 5729   5.950   5.532   1.121
 1610SOL    HW2 5730   5.837   5.597   1.219
 1611SOL     OW 5731   0.097   4.600   6.603
 1611SOL    HW1 5732   0.164   4.653   6.550
 1611SOL    HW2 5733   0.104   4.625   6.700
 1612SOL     OW 5734   5.439   1.059   2.095
 1612SOL    HW1 5735   5.488   0.986   2.048
 1612SOL    HW2 5736   5.348   1.027   2.120
 1613SOL     OW 5737   0.409   6.202   2.623
 1613SOL    HW1 5738   0.416   6.299   2.645
 1613SOL    HW2 5739   0.427   6.147   2.705
 1614SOL     OW 5740   5.930   1.009   6.022
 1614SOL    HW1 5741   5.868   0.958   6.082
 1614SOL    HW2 5742   6.004   1.048   6.078
 1615SOL     OW 5743   6.448   3.258   5.761
 1615SOL    HW1 5744   6.421   3.315   5.839
 1615SOL    HW2 5745   6.388   3.178   5.757
 1616SOL     OW 5746   1.146   1.593   3.402
 1616SOL    HW1 5747   1.053   1.558   3.404
 1616SOL    HW2 5748   1.204   1.540   3.464
 1617SOL     OW 5749   0.141   6.027   4.309
 1617SOL    HW1 5750   0.142   6.022   4.409
 1617SOL    HW2 5751   0.193   5.950   4.272
 1618SOL     OW 5752   2.959   5.343   2.923
 1618SOL    HW1 5753   2.933   5.363   3.018
 1618SOL    HW2 5754   2.958   5.244   2.909
 1619SOL     OW 5755   0.711   3.601   6.181
 1619SOL    HW1 5756   0.799   3.555   6.169
 1619SOL    HW2 5757   0.652   3.581   6.103
 1620SOL     OW 5758   2.328   0.295   4.764
 1620SOL    HW1 5759   2.326   0.351   4.682
 1620SOL    HW2 5760   2.248   0.235   4.766
 1621SOL     OW 5761   5.970   4.857   0.869
 1621SOL    HW1 5762   6.044   4.813   0.818
 1621SOL    HW2 5763   5.909   4.788   0.907
 1622SOL     OW 5764   6.522   3.050   3.010
 1622SOL    HW1 5765   6.475   3.062   2.922
 1622SOL    HW2 5766   6.474   2.981   3.064
 1623SOL     OW 5767   0.471   2.094   4.168
 1623SOL    HW1 5768   0.531   2.173   4.181
 1623SOL    HW2 5769   0.523   2.019   4.127
 1624SOL     OW 5770   4.330   3.084   0.608
 1624SOL    HW1 5771   4.277   3.169   0.600
 1624SOL    HW2 5772   4.278   3.017   0.659
 1625SOL     OW 5773   0.955   6.308   0.216
 1625SOL    HW1 5774   0.990   6.264   0.134
 1625SOL    HW2 5775   0.865   6.349   0.197
 1626SOL     OW 5776   2.653   1.720   1.890
 1626SOL    HW1 5777   2.644   1.784   1.814
 1626SOL    HW2 5778   2.691   1.767   1.969
 1627SOL     OW 5779   4.564   1.071   5.700
 1627SOL    HW1 5780   4.585   1.098   5.606
 1627SOL    HW2 5781   4.628   1.000   5.729
 1628SOL     OW 5782   5.648   5.592   1.115
 1628SOL    HW1 5783   5.576   5.549   1.169
 1628SOL    HW2 5784   5.633   5.691   1.110
 1629SOL     OW 5785   1.773   6.308   2.955
 1629SOL    HW1 5786   1.800   6.254   2.875
 1629SOL    HW2 5787   1.691   6.361   2.933
 1630SOL     OW 5788   0.520   4.968   6.184
 1630SOL    HW1 5789   0.486   4.875   6.190
 1630SOL    HW2 5790   0.589   4.983   6.254
 1631SOL     OW 5791   5.399   4.457   6.913
 1631SOL    HW1 5792   5.350   4.522   6.971
 1631SOL    HW2 5793   5.426   4.378   6.968
 1632SOL     OW 5794   5.985   5.855   2.339
 1632SOL    HW1 5795   6.033   5.889   2.420
 1632SOL    HW2 5796   5.977   5.756   2.344
 1633SOL     OW 5797   0.091   3.713   4.827
 1633SOL    HW1 5798   0.030   3.667   4.892
 1633SOL    HW2 5799   0.099   3.809   4.852
 1634SOL     OW 5800   1.322   3.875   5.946
 1634SOL    HW1 5801   1.294   3.943   5.878
 1634SOL    HW2 5802   1.412   3.899   5.982
 1635SOL     OW 5803   2.522   1.308   4.363
 1635SOL    HW1 5804   2.539   1.278   4.269
 1635SOL    HW2 5805   2.609   1.332   4.406
 1636SOL     OW 5806   6.922   6.235   1.704
 1636SOL    HW1 5807   0.001   6.241   1.723
 1636SOL    HW2 5808   6.893   6.317   1.655
 1637SOL     OW 5809   1.121   1.230   1.694
 1637SOL    HW1 5810   1.025   1.258   1.685
 1637SOL    HW2 5811   1.140   1.209   1.790
 1638SOL     OW 5812   5.345   2.034   3.377
 1638SOL    HW1 5813   5.253   2.072   3.367
 1638SOL    HW2 5814   5.365   1.975   3.299
 1639SOL     OW 5815   5.270   2.169   0.956
 1639SOL    HW1 5816   5.188   2.213   0.992
 1639SOL    HW2 5817   5.325   2.132   1.031
 1640SOL     OW 5818   6.260   1.094   6.605
 1640SOL    HW1 5819   6.256   0.994   6.603
 1640SOL    HW2 5820   6.188   1.130   6.545
 1641SOL     OW 5821   5.873   1.426   2.303
 1641SOL    HW1 5822   5.915   1.420   2.212
 1641SOL    HW2 5823   5.936   1.387   2.371
 1642SOL     OW 5824   6.954   3.164   6.644
 1642SOL    HW1 5825   6.897   3.110   6.706
 1642SOL    HW2 5826   6.906   3.178   6.558
 1643SOL     OW 5827   2.161   5.562   4.456
 1643SOL    HW1 5828   2.161   5.533   4.360
 1643SOL    HW2 5829   2.219   5.642   4.467
 1644SOL     OW 5830   5.893   1.910   1.040
 1644SOL    HW1 5831   5.930   1.878   0.953
 1644SOL    HW2 5832   5.822   1.847   1.071
 1645SOL     OW 5833   2.589   0.998   3.756
 1645SOL    HW1 5834   2.598   0.901   3.778
 1645SOL    HW2 5835   2.598   1.053   3.839
 1646SOL     OW 5836   6.687   5.655   1.908
 1646SOL    HW1 5837   6.675   5.689   2.002
 1646SOL    HW2 5838   6.783   5.630   1.894
 1647SOL     OW 5839   6.698   3.705   5.349
 1647SOL    HW1 5840   6.642   3.713   5.431
 1647SOL    HW2 5841   6.681   3.616   5.305
 1648SOL     OW 5842   5.748   5.928   2.257
 1648SOL    HW1 5843   5.840   5.908   2.290
 1648SOL    HW2 5844   5.733   6.027   2.259
 1649SOL     OW 5845   3.792   1.008   3.109
 1649SOL    HW1 5846   3.695   1.009   3.135
 1649SOL    HW2 5847   3.810   0.930   3.049
 1650SOL     OW 5848   2.338   2.135   4.971
 1650SOL    HW1 5849   2.385   2.123   4.884
 1650SOL    HW2 5850   2.279   2.216   4.967
 1651SOL     OW 5851   1.664   2.443   4.044
 1651SOL    HW1 5852   1.610   2.363   4.019
 1651SOL    HW2 5853   1.638   2.520   3.985
 1652SOL     OW 5854   0.182   4.223   1.538
 1652SOL    HW1 5855   0.222   4.140   1.577
 1652SOL    HW2 5856   0.120   4.198   1.464
 1653SOL     OW 5857   6.252   4.302   1.993
 1653SOL    HW1 5858   6.165   4.304   1.945
 1653SOL    HW2 5859   6.241   4.255   2.081
 1654SOL     OW 5860   6.530   3.587   1.844
 1654SOL    HW1 5861   6.613   3.593   1.790
 1654SOL    HW2 5862   6.521   3.496   1.884
 1655SOL     OW 5863   0.053   0.525   5.540
 1655SOL    HW1 5864   6.994   0.565   5.492
 1655SOL    HW2 5865   0.125   0.594   5.549
 1656SOL     OW 5866   1.899   4.248   2.933
 1656SOL    HW1 5867   1.900   4.230   2.835
 1656SOL    HW2 5868   1.960   4.185   2.980
 1657SOL     OW 5869   0.778   1.416   6.320
 1657SOL    HW1 5870   0.711   1.348   6.352
 1657SOL    HW2 5871   0.730   1.491   6.275
 1658SOL     OW 5872   5.021   0.321   5.523
 1658SOL    HW1 5873   5.042   0.359   5.613
 1658SOL    HW2 5874   4.946   0.372   5.482
 1659SOL     OW 5875   2.780   0.846   6.440
 1659SOL    HW1 5876   2.728   0.847   6.354
 1659SOL    HW2 5877   2.871   0.884   6.425
 1660SOL     OW 5878   2.752   1.388   1.656
 1660SOL    HW1 5879   2.750   1.296   1.618
 1660SOL    HW2 5880   2.784   1.384   1.751
 1661SOL     OW 5881   4.686   5.089   3.240
 1661SOL    HW1 5882   4.741   5.171   3.229
 1661SOL    HW2 5883   4.731   5.012   3.195
 1662SOL     OW 5884   0.383   1.719   3.374
 1662SOL    HW1 5885   0.308   1.687   3.317
 1662SOL    HW2 5886   0.386   1.666   3.459
 1663SOL     OW 5887   6.169   4.138   0.890
 1663SOL    HW1 5888   6.144   4.172   0.980
 1663SOL    HW2 5889   6.256   4.179   0.861
 1664SOL     OW 5890   1.351   1.422   6.336
 1664SOL    HW1 5891   1.428   1.434   6.399
 1664SOL    HW2 5892   1.325   1.511   6.298
 1665SOL     OW 5893   1.721   4.050   0.201
 1665SOL    HW1 5894   1.685   3.960   0.176
 1665SOL    HW2 5895   1.702   4.068   0.297
 1666SOL     OW 5896   5.572   6.272   5.495
 1666SOL    HW1 5897   5.555   6.174   5.485
 1666SOL    HW2 5898   5.586   6.294   5.592
 1667SOL     OW 5899   6.525   5.330   0.913
 1667SOL    HW1 5900   6.458   5.339   0.986
 1667SOL    HW2 5901   6.612   5.298   0.950
 1668SOL     OW 5902   6.740   3.165   2.010
 1668SOL    HW1 5903   6.685   3.246   1.990
 1668SOL    HW2 5904   6.793   3.140   1.928
 1669SOL     OW 5905   6.274   2.782   5.173
 1669SOL    HW1 5906   6.269   2.819   5.266
 1669SOL    HW2 5907   6.364   2.743   5.158
 1670SOL     OW 5908   2.967   4.314   5.299
 1670SOL    HW1 5909   2.939   4.400   5.257
 1670SOL    HW2 5910   2.918   4.238   5.256
 1671SOL     OW 5911   5.748   2.293   0.802
 1671SOL    HW1 5912   5.702   2.379   0.778
 1671SOL    HW2 5913   5.835   2.313   0.845
 1672SOL     OW 5914   0.484   1.883   1.037
 1672SOL    HW1 5915   0.482   1.783   1.050
 1672SOL    HW2 5916   0.408   1.924   1.087
 1673SOL     OW 5917   0.700   0.418   6.290
 1673SOL    HW1 5918   0.718   0.516   6.303
 1673SOL    HW2 5919   0.686   0.399   6.193
 1674SOL     OW 5920   4.681   2.784   3.240
 1674SOL    HW1 5921   4.642   2.867   3.200
 1674SOL    HW2 5922   4.780   2.788   3.236
 1675SOL     OW 5923   5.254   0.797   1.904
 1675SOL    HW1 5924   5.229   0.844   1.819
 1675SOL    HW2 5925   5.212   0.843   1.982
 1676SOL     OW 5926   1.470   2.272   3.775
 1676SOL    HW1 5927   1.382   2.304   3.738
 1676SOL    HW2 5928   1.460   2.256   3.873
 1677SOL     OW 5929   3.077   3.888   1.592
 1677SOL    HW1 5930   3.089   3.936   1.505
 1677SOL    HW2 5931   3.060   3.954   1.665
 1678SOL     OW 5932   6.927   0.234   0.641
 1678SOL    HW1 5933   6.870   0.188   0.708
 1678SOL    HW2 5934   6.946   0.328   0.671
 1679SOL     OW 5935   6.110   2.019   0.127
 1679SOL    HW1 5936   6.058   2.019   0.041
 1679SOL    HW2 5937   6.051   2.052   0.201
 1680SOL     OW 5938   5.393   1.788   3.219
 1680SOL    HW1 5939   5.481   1.748   3.242
 1680SOL    HW2 5940   5.394   1.817   3.123
 1681SOL     OW 5941   4.286   6.341   3.841
 1681SOL    HW1 5942   4.377   6.382   3.833
 1681SOL    HW2 5943   4.230   6.368   3.763
 1682SOL     OW 5944   4.201   1.904   5.314
 1682SOL    HW1 5945   4.276   1.864   5.260
 1682SOL    HW2 5946   4.230   1.993   5.349
 1683SOL     OW 5947   0.668   3.962   3.493
 1683SOL    HW1 5948   0.657   3.868   3.524
 1683SOL    HW2 5949   0.738   4.007   3.548
 1684SOL     OW 5950   3.398   5.638   1.007
 1684SOL    HW1 5951   3.312   5.688   1.016
 1684SOL    HW2 5952   3.392   5.552   1.059
 1685SOL     OW 5953   0.140   2.252   5.658
 1685SOL    HW1 5954   0.126   2.231   5.755
 1685SOL    HW2 5955   0.070   2.207   5.604
 1686SOL     OW 5956   3.484   5.847   1.172
 1686SOL    HW1 5957   3.463   5.754   1.143
 1686SOL    HW2 5958   3.407   5.907   1.152
 1687SOL     OW 5959   4.668   4.218   0.187
 1687SOL    HW1 5960   4.581   4.187   0.225
 1687SOL    HW2 5961   4.727   4.249   0.260
 1688SOL     OW 5962   2.974   0.311   3.006
 1688SOL    HW1 5963   2.927   0.257   2.937
 1688SOL    HW2 5964   3.060   0.346   2.968
 1689SOL     OW 5965   4.366   0.870   1.723
 1689SOL    HW1 5966   4.358   0.948   1.785
 1689SOL    HW2 5967   4.277   0.851   1.681
 1690SOL     OW 5968   0.123   4.472   4.218
 1690SOL    HW1 5969   0.184   4.534   4.269
 1690SOL    HW2 5970   0.038   4.461   4.269
 1691SOL     OW 5971   4.360   3.023   5.430
 1691SOL    HW1 5972   4.409   3.087   5.490
 1691SOL    HW2 5973   4.418   2.944   5.411
 1692SOL     OW 5974   5.522   5.380   2.804
 1692SOL    HW1 5975   5.571   5.315   2.745
 1692SOL    HW2 5976   5.587   5.427   2.864
 1693SOL     OW 5977   5.907   0.472   5.910
 1693SOL    HW1 5978   5.917   0.401   5.979
 1693SOL    HW2 5979   5.832   0.533   5.936
 1694SOL     OW 5980   4.406   1.388   6.833
 1694SOL    HW1 5981   4.365   1.385   6.742
 1694SOL    HW2 5982   4.503   1.413   6.826
 1695SOL     OW 5983   5.050   0.493   5.007
 1695SOL    HW1 5984   5.052   0.592   5.001
 1695SOL    HW2 5985   4.973   0.465   5.065
 1696SOL     OW 5986   5.253   7.014   0.691
 1696SOL    HW1 5987   5.163   0.038   0.697
 1696SOL    HW2 5988   5.304   0.014   0.775
 1697SOL     OW 5989   3.977   3.837   1.858
 1697SOL    HW1 5990   3.987   3.800   1.950
 1697SOL    HW2 5991   3.890   3.887   1.851
 1698SOL     OW 5992   4.785   1.401   1.417
 1698SOL    HW1 5993   4.712   1.386   1.350
 1698SOL    HW2 5994   4.745   1.424   1.505
 1699SOL     OW 5995   1.891   0.690   1.017
 1699SOL    HW1 5996   1.884   0.687   1.117
 1699SOL    HW2 5997   1.903   0.597   0.982
 1700SOL     OW 5998   5.960   3.160   3.020
 1700SOL    HW1 5999   6.000   3.072   3.043
 1700SOL    HW2 6000   5.942   3.164   2.921
 1701SOL     OW 6001   1.159   5.362   5.434
 1701SOL    HW1 6002   1.220   5.295   5.392
 1701SOL    HW2 6003   1.203   5.401   5.515
 1702SOL     OW 6004   2.334   2.623   0.001
 1702SOL    HW1 6005   2.268   2.584   0.065
 1702SOL    HW2 6006   2.386   2.550   6.977
 1703SOL     OW 6007   1.230   1.570   1.751
 1703SOL    HW1 6008   1.281   1.610   1.827
 1703SOL    HW2 6009   1.293   1.526   1.687
 1704SOL     OW 6010   2.962   2.990   6.795
 1704SOL    HW1 6011   2.917   2.974   6.707
 1704SOL    HW2 6012   3.061   3.002   6.780
 1705SOL     OW 6013   5.808   2.992   1.065
 1705SOL    HW1 6014   5.876   3.022   1.133
 1705SOL    HW2 6015   5.726   3.049   1.074
 1706SOL     OW 6016   5.948   0.689   5.650
 1706SOL    HW1 6017   5.957   0.703   5.749
 1706SOL    HW2 6018   5.852   0.693   5.624
 1707SOL     OW 6019   2.921   1.551   2.314
 1707SOL    HW1 6020   3.010   1.514   2.288
 1707SOL    HW2 6021   2.849   1.506   2.261
 1708SOL     OW 6022   2.884   4.862   2.020
 1708SOL    HW1 6023   2.844   4.771   2.007
 1708SOL    HW2 6024   2.876   4.914   1.935
 1709SOL     OW 6025   6.055   4.560   2.466
 1709SOL    HW1 6026   6.155   4.555   2.468
 1709SOL    HW2 6027   6.027   4.629   2.399
 1710SOL     OW 6028   4.668   2.735   2.020
 1710SOL    HW1 6029   4.708   2.817   1.977
 1710SOL    HW2 6030   4.622   2.680   1.951
 1711SOL     OW 6031   4.114   5.209   0.386
 1711SOL    HW1 6032   4.139   5.240   0.478
 1711SOL    HW2 6033   4.175   5.252   0.319
 1712SOL     OW 6034   0.151   2.334   2.161
 1712SOL    HW1 6035   0.068   2.307   2.112
 1712SOL    HW2 6036   0.190   2.416   2.118
 1713SOL     OW 6037   2.833   1.423   2.544
 1713SOL    HW1 6038   2.874   1.470   2.465
 1713SOL    HW2 6039   2.810   1.329   2.518
 1714SOL     OW 6040   3.427   5.030   1.039
 1714SOL    HW1 6041   3.467   5.113   1.000
 1714SOL    HW2 6042   3.486   4.952   1.017
 1715SOL     OW 6043   1.443   6.047   0.582
 1715SOL    HW1 6044   1.471   6.124   0.524
 1715SOL    HW2 6045   1.425   5.967   0.525
 1716SOL     OW 6046   5.459   1.484   2.845
 1716SOL    HW1 6047   5.527   1.516   2.779
 1716SOL    HW2 6048   5.378   1.544   2.841
 1717SOL     OW 6049   3.452   6.524   4.059
 1717SOL    HW1 6050   3.454   6.577   3.974
 1717SOL    HW2 6051   3.533   6.546   4.114
 1718SOL     OW 6052   1.630   4.018   1.711
 1718SOL    HW1 6053   1.643   4.011   1.810
 1718SOL    HW2 6054   1.719   4.022   1.665
 1719SOL     OW 6055   1.714   4.749   3.705
 1719SOL    HW1 6056   1.773   4.826   3.681
 1719SOL    HW2 6057   1.735   4.719   3.798
 1720SOL     OW 6058   1.377   2.884   5.631
 1720SOL    HW1 6059   1.337   2.810   5.577
 1720SOL    HW2 6060   1.434   2.845   5.703
 1721SOL     OW 6061   2.153   2.570   0.228
 1721SOL    HW1 6062   2.069   2.609   0.268
 1721SOL    HW2 6063   2.191   2.502   0.291
 1722SOL     OW 6064   3.675   2.033   2.760
 1722SOL    HW1 6065   3.761   2.051   2.711
 1722SOL    HW2 6066   3.598   2.054   2.700
 1723SOL     OW 6067   6.569   5.392   1.183
 1723SOL    HW1 6068   6.638   5.460   1.159
 1723SOL    HW2 6069   6.603   5.335   1.258
 1724SOL     OW 6070   6.209   4.031   1.535
 1724SOL    HW1 6071   6.267   3.953   1.560
 1724SOL    HW2 6072   6.122   3.997   1.499
 1725SOL     OW 6073   1.716   6.597   4.606
 1725SOL    HW1 6074   1.763   6.629   4.688
 1725SOL    HW2 6075   1.734   6.499   4.593
 1726SOL     OW 6076   5.880   4.805   3.077
 1726SOL    HW1 6077   5.928   4.888   3.103
 1726SOL    HW2 6078   5.792   4.800   3.124
 1727SOL     OW 6079   2.911   3.550   3.810
 1727SOL    HW1 6080   2.894   3.536   3.908
 1727SOL    HW2 6081   2.924   3.462   3.765
 1728SOL     OW 6082   5.312   2.137   4.417
 1728SOL    HW1 6083   5.355   2.097   4.498
 1728SOL    HW2 6084   5.318   2.072   4.342
 1729SOL     OW 6085   1.485   3.952   3.424
 1729SOL    HW1 6086   1.424   3.982   3.351
 1729SOL    HW2 6087   1.537   4.031   3.459
 1730SOL     OW 6088   2.420   0.950   4.880
 1730SOL    HW1 6089   2.339   1.006   4.896
 1730SOL    HW2 6090   2.494   1.007   4.846
 1731SOL     OW 6091   6.003   4.678   3.556
 1731SOL    HW1 6092   6.074   4.617   3.522
 1731SOL    HW2 6093   5.973   4.648   3.647
 1732SOL     OW 6094   4.016   3.283   5.002
 1732SOL    HW1 6095   4.084   3.314   5.069
 1732SOL    HW2 6096   3.948   3.355   4.987
 1733SOL     OW 6097   1.556   1.822   0.151
 1733SOL    HW1 6098   1.587   1.730   0.173
 1733SOL    HW2 6099   1.584   1.845   0.057
 1734SOL     OW 6100   1.104   4.486   2.628
 1734SOL    HW1 6101   1.189   4.435   2.635
 1734SOL    HW2 6102   1.080   4.499   2.531
 1735SOL     OW 6103   3.515   5.416   6.135
 1735SOL    HW1 6104   3.437   5.413   6.072
 1735SOL    HW2 6105   3.593   5.457   6.089
 1736SOL     OW 6106   4.399   1.860   5.121
 1736SOL    HW1 6107   4.345   1.916   5.059
 1736SOL    HW2 6108   4.491   1.898   5.129
 1737SOL     OW 6109   2.557   0.748   0.011
 1737SOL    HW1 6110   2.588   0.710   6.943
 1737SOL    HW2 6111   2.557   0.848   0.005
 1738SOL     OW 6112   1.411   3.963   2.178
 1738SOL    HW1 6113   1.477   3.890   2.158
 1738SOL    HW2 6114   1.460   4.048   2.196
 1739SOL     OW 6115   4.435   5.590   2.515
 1739SOL    HW1 6116   4.502   5.609   2.587
 1739SOL    HW2 6117   4.475   5.608   2.426
 1740SOL     OW 6118   6.526   2.221   4.295
 1740SOL    HW1 6119   6.461   2.146   4.308
 1740SOL    HW2 6120   6.615   2.183   4.269
 1741SOL     OW 6121   1.267   2.977   4.295
 1741SOL    HW1 6122   1.306   3.063   4.327
 1741SOL    HW2 6123   1.197   2.947   4.360
 1742SOL     OW 6124   5.751   0.078   6.682
 1742SOL    HW1 6125   5.732   0.062   6.778
 1742SOL    HW2 6126   5.710   0.164   6.653
 1743SOL     OW 6127   0.637   1.864   1.670
 1743SOL    HW1 6128   0.726   1.872   1.715
 1743SOL    HW2 6129   0.585   1.949   1.681
 1744SOL     OW 6130   3.167   1.885   5.174
 1744SOL    HW1 6131   3.220   1.959   5.131
 1744SOL    HW2 6132   3.218   1.799   5.167
 1745SOL     OW 6133   6.278   6.925   1.098
 1745SOL    HW1 6134   6.206   6.856   1.109
 1745SOL    HW2 6135   6.273   6.962   1.005
 1746SOL     OW 6136   2.400   5.113   2.811
 1746SOL    HW1 6137   2.484   5.073   2.773
 1746SOL    HW2 6138   2.415   5.135   2.907
 1747SOL     OW 6139   2.999   6.779   1.629
 1747SOL    HW1 6140   3.096   6.774   1.605
 1747SOL    HW2 6141   2.985   6.853   1.695
 1748SOL     OW 6142   0.090   1.694   3.816
 1748SOL    HW1 6143   7.010   1.685   3.814
 1748SOL    HW2 6144   0.117   1.777   3.767
 1749SOL     OW 6145   6.369   5.656   2.465
 1749SOL    HW1 6146   6.358   5.747   2.504
 1749SOL    HW2 6147   6.383   5.663   2.367
 1750SOL     OW 6148   2.613   1.343   1.113
 1750SOL    HW1 6149   2.698   1.339   1.059
 1750SOL    HW2 6150   2.558   1.262   1.096
 1751SOL     OW 6151   6.460   4.311   4.885
 1751SOL    HW1 6152   6.373   4.261   4.887
 1751SOL    HW2 6153   6.517   4.277   4.810
 1752SOL     OW 6154   5.699   0.432   2.913
 1752SOL    HW1 6155   5.682   0.355   2.974
 1752SOL    HW2 6156   5.716   0.514   2.968
 1753SOL     OW 6157   6.685   1.323   1.091
 1753SOL    HW1 6158   6.604   1.373   1.058
 1753SOL    HW2 6159   6.753   1.320   1.018
 1754SOL     OW 6160   1.987   4.495   3.475
 1754SOL    HW1 6161   1.954   4.558   3.405
 1754SOL    HW2 6162   1.959   4.401   3.452
 1755SOL     OW 6163   5.821   6.642   5.374
 1755SOL    HW1 6164   5.883   6.674   5.445
 1755SOL    HW2 6165   5.727   6.663   5.399
 1756SOL     OW 6166   4.738   5.263   1.426
 1756SOL    HW1 6167   4.802   5.330   1.465
 1756SOL    HW2 6168   4.647   5.278   1.465
 1757SOL     OW 6169   2.753   5.157   4.876
 1757SOL    HW1 6170   2.753   5.064   4.912
 1757SOL    HW2 6171   2.838   5.203   4.903
 1758SOL     OW 6172   0.599   6.393   4.034
 1758SOL    HW1 6173   0.535   6.357   4.102
 1758SOL    HW2 6174   0.690   6.400   4.075
 1759SOL     OW 6175   2.067   5.025   5.989
 1759SOL    HW1 6176   2.149   5.002   6.043
 1759SOL    HW2 6177   1.992   5.046   6.051
 1760SOL     OW 6178   5.795   1.453   3.951
 1760SOL    HW1 6179   5.747   1.538   3.970
 1760SOL    HW2 6180   5.786   1.392   4.030
 1761SOL     OW 6181   5.373   2.109   3.715
 1761SOL    HW1 6182   5.415   2.033   3.665
 1761SOL    HW2 6183   5.352   2.183   3.652
 1762SOL     OW 6184   0.971   1.599   5.266
 1762SOL    HW1 6185   0.907   1.669   5.298
 1762SOL    HW2 6186   1.058   1.642   5.242
 1763SOL     OW 6187   1.520   5.289   4.076
 1763SOL    HW1 6188   1.517   5.218   4.006
 1763SOL    HW2 6189   1.485   5.374   4.039
 1764SOL     OW 6190   0.303   5.504   3.642
 1764SOL    HW1 6191   0.280   5.509   3.545
 1764SOL    HW2 6192   0.309   5.409   3.671
 1765SOL     OW 6193   5.258   3.880   1.997
 1765SOL    HW1 6194   5.225   3.938   2.072
 1765SOL    HW2 6195   5.256   3.784   2.026
 1766SOL     OW 6196   3.819   4.902   3.336
 1766SOL    HW1 6197   3.872   4.872   3.256
 1766SOL    HW2 6198   3.724   4.918   3.308
 1767SOL     OW 6199   1.829   4.426   1.603
 1767SOL    HW1 6200   1.815   4.401   1.699
 1767SOL    HW2 6201   1.758   4.490   1.575
 1768SOL     OW 6202   3.618   5.303   2.931
 1768SOL    HW1 6203   3.612   5.262   2.840
 1768SOL    HW2 6204   3.546   5.371   2.941
 1769SOL     OW 6205   5.435   0.213   0.604
 1769SOL    HW1 6206   5.384   0.127   0.602
 1769SOL    HW2 6207   5.395   0.274   0.672
 1770SOL     OW 6208   2.090   4.102   0.271
 1770SOL    HW1 6209   2.067   4.136   0.362
 1770SOL    HW2 6210   2.010   4.059   0.231
 1771SOL     OW 6211   1.513   3.185   5.920
 1771SOL    HW1 6212   1.529   3.265   5.978
 1771SOL    HW2 6213   1.507   3.103   5.977
 1772SOL     OW 6214   3.216   5.414   2.122
 1772SOL    HW1 6215   3.200   5.456   2.211
 1772SOL    HW2 6216   3.313   5.417   2.100
 1773SOL     OW 6217   1.908   6.403   4.843
 1773SOL    HW1 6218   1.876   6.376   4.751
 1773SOL    HW2 6219   1.838   6.380   4.910
 1774SOL     OW 6220   5.520   5.125   1.339
 1774SOL    HW1 6221   5.616   5.115   1.315
 1774SOL    HW2 6222   5.486   5.039   1.379
 1775SOL     OW 6223   1.988   6.749   1.188
 1775SOL    HW1 6224   1.891   6.733   1.170
 1775SOL    HW2 6225   1.999   6.789   1.279
 1776SOL     OW 6226   4.965   3.279   5.694
 1776SOL    HW1 6227   4.878   3.237   5.667
 1776SOL    HW2 6228   4.974   3.369   5.651
 1777SOL     OW 6229   4.824   4.779   6.430
 1777SOL    HW1 6230   4.894   4.743   6.368
 1777SOL    HW2 6231   4.852   4.765   6.525
 1778SOL     OW 6232   6.857   0.318   2.893
 1778SOL    HW1 6233   6.832   0.361   2.806
 1778SOL    HW2 6234   6.791   0.344   2.963
 1779SOL     OW 6235   6.817   6.924   4.831
 1779SOL    HW1 6236   6.891   6.906   4.895
 1779SOL    HW2 6237   6.763   6.841   4.817
 1780SOL     OW 6238   2.719   6.857   5.042
 1780SOL    HW1 6239   2.627   6.848   5.005
 1780SOL    HW2 6240   2.783   6.808   4.983
 1781SOL     OW 6241   4.221   0.907   5.429
 1781SOL    HW1 6242   4.201   0.958   5.345
 1781SOL    HW2 6243   4.256   0.970   5.499
 1782SOL     OW 6244   5.156   0.343   2.463
 1782SOL    HW1 6245   5.216   0.345   2.383
 1782SOL    HW2 6246   5.199   0.290   2.535
 1783SOL     OW 6247   1.933   3.538   0.114
 1783SOL    HW1 6248   1.860   3.522   0.048
 1783SOL    HW2 6249   1.932   3.466   0.183
 1784SOL     OW 6250   1.978   5.938   1.434
 1784SOL    HW1 6251   2.030   5.930   1.519
 1784SOL    HW2 6252   1.907   6.009   1.445
 1785SOL     OW 6253   2.142   5.035   4.802
 1785SOL    HW1 6254   2.199   4.972   4.855
 1785SOL    HW2 6255   2.047   5.026   4.829
 1786SOL     OW 6256   0.534   5.613   2.533
 1786SOL    HW1 6257   0.497   5.693   2.580
 1786SOL    HW2 6258   0.629   5.630   2.506
 1787SOL     OW 6259   2.755   2.465   6.259
 1787SOL    HW1 6260   2.738   2.537   6.191
 1787SOL    HW2 6261   2.671   2.413   6.274
 1788SOL     OW 6262   3.847   3.945   0.592
 1788SOL    HW1 6263   3.921   3.989   0.541
 1788SOL    HW2 6264   3.781   4.014   0.621
 1789SOL     OW 6265   6.093   2.933   3.052
 1789SOL    HW1 6266   6.153   2.971   3.122
 1789SOL    HW2 6267   6.050   2.849   3.086
 1790SOL     OW 6268   2.684   2.364   4.762
 1790SOL    HW1 6269   2.616   2.431   4.732
 1790SOL    HW2 6270   2.642   2.274   4.770
 1791SOL     OW 6271   6.061   0.268   3.468
 1791SOL    HW1 6272   6.080   0.353   3.517
 1791SOL    HW2 6273   6.076   0.283   3.370
 1792SOL     OW 6274   0.172   2.899   6.322
 1792SOL    HW1 6275   0.116   2.982   6.322
 1792SOL    HW2 6276   0.246   2.909   6.256
 1793SOL     OW 6277   0.227   1.807   4.943
 1793SOL    HW1 6278   0.311   1.790   4.892
 1793SOL    HW2 6279   0.193   1.721   4.982
 1794SOL     OW 6280   6.807   2.043   6.366
 1794SOL    HW1 6281   6.721   2.051   6.316
 1794SOL    HW2 6282   6.808   2.108   6.442
 1795SOL     OW 6283   5.897   4.382   0.719
 1795SOL    HW1 6284   5.963   4.346   0.654
 1795SOL    HW2 6285   5.942   4.449   0.778
 1796SOL     OW 6286   6.004   0.167   6.861
 1796SOL    HW1 6287   5.978   0.255   6.821
 1796SOL    HW2 6288   5.923   0.111   6.873
 1797SOL     OW 6289   3.200   6.235   5.884
 1797SOL    HW1 6290   3.193   6.320   5.937
 1797SOL    HW2 6291   3.147   6.164   5.929
 1798SOL     OW 6292   2.817   3.788   6.913
 1798SOL    HW1 6293   2.849   3.805   6.820
 1798SOL    HW2 6294   2.891   3.809   6.977
 1799SOL     OW 6295   3.976   1.806   1.532
 1799SOL    HW1 6296   3.878   1.821   1.523
 1799SOL    HW2 6297   3.993   1.740   1.605
 1800SOL     OW 6298   5.822   2.282   5.799
 1800SOL    HW1 6299   5.810   2.202   5.857
 1800SOL    HW2 6300   5.896   2.339   5.836
 1801SOL     OW 6301   0.650   2.079   1.991
 1801SOL    HW1 6302   0.692   2.101   1.903
 1801SOL    HW2 6303   0.560   2.039   1.976
 1802SOL     OW 6304   6.217   4.751   4.886
 1802SOL    HW1 6305   6.136   4.734   4.830
 1802SOL    HW2 6306   6.263   4.664   4.904
 1803SOL     OW 6307   6.514   6.872   3.850
 1803SOL    HW1 6308   6.567   6.839   3.772
 1803SOL    HW2 6309   6.417   6.875   3.825
 1804SOL     OW 6310   1.353   3.014   6.419
 1804SOL    HW1 6311   1.404   3.083   6.472
 1804SOL    HW2 6312   1.263   3.000   6.460
 1805SOL     OW 6313   6.468   5.233   5.794
 1805SOL    HW1 6314   6.369   5.246   5.794
 1805SOL    HW2 6315   6.490   5.139   5.766
 1806SOL     OW 6316   0.557   1.174   1.818
 1806SOL    HW1 6317   0.582   1.078   1.805
 1806SOL    HW2 6318   0.615   1.232   1.760
 1807SOL     OW 6319   6.379   2.786   2.330
 1807SOL    HW1 6320   6.465   2.819   2.371
 1807SOL    HW2 6321   6.335   2.722   2.393
 1808SOL     OW 6322   6.392   0.617   0.152
 1808SOL    HW1 6323   6.359   0.522   0.155
 1808SOL    HW2 6324   6.332   0.675   0.206
 1809SOL     OW 6325   4.212   0.300   4.498
 1809SOL    HW1 6326   4.153   0.219   4.491
 1809SOL    HW2 6327   4.167   0.369   4.554
 1810SOL     OW 6328   1.403   1.269   4.617
 1810SOL    HW1 6329   1.418   1.367   4.618
 1810SOL    HW2 6330   1.338   1.243   4.688
 1811SOL     OW 6331   3.502   5.568   1.825
 1811SOL    HW1 6332   3.404   5.591   1.826
 1811SOL    HW2 6333   3.542   5.601   1.739
 1812SOL     OW 6334   3.980   0.869   6.948
 1812SOL    HW1 6335   4.041   0.932   6.899
 1812SOL    HW2 6336   3.902   0.919   6.984
 1813SOL     OW 6337   6.109   3.669   1.652
 1813SOL    HW1 6338   6.045   3.681   1.728
 1813SOL    HW2 6339   6.085   3.733   1.578
 1814SOL     OW 6340   6.525   5.777   1.111
 1814SOL    HW1 6341   6.444   5.775   1.052
 1814SOL    HW2 6342   6.590   5.845   1.077
 1815SOL     OW 6343   6.383   5.133   1.361
 1815SOL    HW1 6344   6.334   5.205   1.411
 1815SOL    HW2 6345   6.390   5.159   1.264
 1816SOL     OW 6346   3.685   4.956   4.381
 1816SOL    HW1 6347   3.758   4.954   4.449
 1816SOL    HW2 6348   3.600   4.926   4.423
 1817SOL     OW 6349   6.234   2.834   4.098
 1817SOL    HW1 6350   6.220   2.792   4.008
 1817SOL    HW2 6351   6.219   2.933   4.090
 1818SOL     OW 6352   2.339   2.105   0.289
 1818SOL    HW1 6353   2.252   2.134   0.249
 1818SOL    HW2 6354   2.413   2.118   0.222
 1819SOL     OW 6355   0.911   3.112   0.693
 1819SOL    HW1 6356   0.977   3.083   0.763
 1819SOL    HW2 6357   0.960   3.150   0.615
 1820SOL     OW 6358   3.690   6.749   5.139
 1820SOL    HW1 6359   3.709   6.763   5.042
 1820SOL    HW2 6360   3.755   6.684   5.177
 1821SOL     OW 6361   4.142   1.127   2.543
 1821SOL    HW1 6362   4.050   1.140   2.504
 1821SOL    HW2 6363   4.184   1.047   2.502
 1822SOL     OW 6364   2.130   4.214   4.838
 1822SOL    HW1 6365   2.164   4.121   4.828
 1822SOL    HW2 6366   2.033   4.218   4.814
 1823SOL     OW 6367   4.408   6.858   4.293
 1823SOL    HW1 6368   4.382   6.788   4.360
 1823SOL    HW2 6369   4.507   6.874   4.298
 1824SOL     OW 6370   4.622   2.667   1.763
 1824SOL    HW1 6371   4.717   2.697   1.751
 1824SOL    HW2 6372   4.560   2.733   1.721
 1825SOL     OW 6373   1.393   3.631   0.380
 1825SOL    HW1 6374   1.295   3.629   0.398
 1825SOL    HW2 6375   1.420   3.723   0.351
 1826SOL     OW 6376   4.015   3.256   6.845
 1826SOL    HW1 6377   4.090   3.192   6.825
 1826SOL    HW2 6378   4.047   3.350   6.831
 1827SOL     OW 6379   5.311   4.708   0.989
 1827SOL    HW1 6380   5.321   4.799   1.028
 1827SOL    HW2 6381   5.296   4.715   0.890
 1828SOL     OW 6382   2.620   5.475   5.140
 1828SOL    HW1 6383   2.590   5.443   5.051
 1828SOL    HW2 6384   2.647   5.571   5.134
 1829SOL     OW 6385   1.983   6.299   2.410
 1829SOL    HW1 6386   2.007   6.222   2.470
 1829SOL    HW2 6387   2.053   6.310   2.340
 1830SOL     OW 6388   4.201   1.295   6.966
 1830SOL    HW1 6389   4.129   1.338   6.910
 1830SOL    HW2 6390   4.290   1.318   6.928
 1831SOL     OW 6391   3.891   4.379   6.717
 1831SOL    HW1 6392   3.800   4.410   6.744
 1831SOL    HW2 6393   3.914   4.295   6.767
 1832SOL     OW 6394   2.051   2.496   5.470
 1832SOL    HW1 6395   2.133   2.519   5.418
 1832SOL    HW2 6396   2.075   2.435   5.546
 1833SOL     OW 6397   5.800   1.629   0.181
 1833SOL    HW1 6398   5.846   1.668   0.260
 1833SOL    HW2 6399   5.739   1.697   0.140
 1834SOL     OW 6400   1.811   3.662   6.557
 1834SOL    HW1 6401   1.844   3.709   6.475
 1834SOL    HW2 6402   1.873   3.682   6.633
 1835SOL     OW 6403   6.233   0.106   6.707
 1835SOL    HW1 6404   6.148   0.131   6.754
 1835SOL    HW2 6405   6.256   0.178   6.641
 1836SOL     OW 6406   6.055   1.338   4.776
 1836SOL    HW1 6407   6.049   1.366   4.680
 1836SOL    HW2 6408   6.088   1.243   4.780
 1837SOL     OW 6409   1.052   1.793   1.173
 1837SOL    HW1 6410   1.114   1.846   1.231
 1837SOL    HW2 6411   1.040   1.701   1.211
 1838SOL     OW 6412   5.046   0.476   0.219
 1838SOL    HW1 6413   5.011   0.388   0.251
 1838SOL    HW2 6414   5.114   0.510   0.285
 1839SOL     OW 6415   0.068   2.104   6.450
 1839SOL    HW1 6416   0.070   2.166   6.529
 1839SOL    HW2 6417   6.992   2.082   6.428
 1840SOL     OW 6418   2.431   6.910   5.637
 1840SOL    HW1 6419   2.364   6.955   5.578
 1840SOL    HW2 6420   2.523   6.935   5.607
 1841SOL     OW 6421   2.949   6.978   1.804
 1841SOL    HW1 6422   2.988   0.031   1.862
 1841SOL    HW2 6423   2.860   7.008   1.770
 1842SOL     OW 6424   0.199   4.638   1.836
 1842SOL    HW1 6425   0.170   4.543   1.827
 1842SOL    HW2 6426   0.242   4.652   1.925
 1843SOL     OW 6427   3.425   0.649   6.662
 1843SOL    HW1 6428   3.375   0.567   6.636
 1843SOL    HW2 6429   3.397   0.726   6.605
 1844SOL     OW 6430   5.389   3.740   1.416
 1844SOL    HW1 6431   5.316   3.672   1.408
 1844SOL    HW2 6432   5.350   3.831   1.409
 1845SOL     OW 6433   0.801   2.641   4.778
 1845SOL    HW1 6434   0.812   2.606   4.685
 1845SOL    HW2 6435   0.887   2.681   4.809
 1846SOL     OW 6436   3.970   1.513   2.222
 1846SOL    HW1 6437   3.942   1.494   2.316
 1846SOL    HW2 6438   3.894   1.492   2.160
 1847SOL     OW 6439   3.040   5.902   6.478
 1847SOL    HW1 6440   3.050   5.947   6.567
 1847SOL    HW2 6441   3.080   5.811   6.482
 1848SOL     OW 6442   3.139   5.842   4.350
 1848SOL    HW1 6443   3.235   5.814   4.348
 1848SOL    HW2 6444   3.082   5.762   4.368
 1849SOL     OW 6445   4.591   2.628   2.245
 1849SOL    HW1 6446   4.623   2.686   2.169
 1849SOL    HW2 6447   4.497   2.600   2.228
 1850SOL     OW 6448   5.196   1.355   0.784
 1850SOL    HW1 6449   5.172   1.274   0.837
 1850SOL    HW2 6450   5.225   1.326   0.692
 1851SOL     OW 6451   0.960   4.953   3.608
 1851SOL    HW1 6452   1.001   5.044   3.606
 1851SOL    HW2 6453   1.026   4.887   3.645
 1852SOL     OW 6454   0.187   0.097   4.014
 1852SOL    HW1 6455   0.145   0.032   3.950
 1852SOL    HW2 6456   0.286   0.085   4.012
 1853SOL     OW 6457   1.222   1.962   5.208
 1853SOL    HW1 6458   1.253   2.025   5.137
 1853SOL    HW2 6459   1.297   1.942   5.270
 1854SOL     OW 6460   1.014   6.838   4.024
 1854SOL    HW1 6461   0.991   6.835   3.927
 1854SOL    HW2 6462   1.009   6.932   4.057
 1855SOL     OW 6463   6.641   1.217   5.009
 1855SOL    HW1 6464   6.637   1.285   5.082
 1855SOL    HW2 6465   6.731   1.220   4.965
 1856SOL     OW 6466   4.863   3.875   0.045
 1856SOL    HW1 6467   4.842   3.832   6.976
 1856SOL    HW2 6468   4.802   3.953   0.058
 1857SOL     OW 6469   4.836   0.743   6.582
 1857SOL    HW1 6470   4.897   0.787   6.649
 1857SOL    HW2 6471   4.743   0.744   6.617
 1858SOL     OW 6472   4.900   2.205   4.659
 1858SOL    HW1 6473   4.817   2.261   4.668
 1858SOL    HW2 6474   4.927   2.200   4.563
 1859SOL     OW 6475   6.168   6.150   2.999
 1859SOL    HW1 6476   6.096   6.134   2.932
 1859SOL    HW2 6477   6.183   6.067   3.053
 1860SOL     OW 6478   2.331   0.775   0.915
 1860SOL    HW1 6479   2.372   0.808   0.830
 1860SOL    HW2 6480   2.393   0.711   0.959
 1861SOL     OW 6481   6.666   6.626   5.844
 1861SOL    HW1 6482   6.698   6.576   5.763
 1861SOL    HW2 6483   6.692   6.722   5.836
 1862SOL     OW 6484   3.815   5.025   5.097
 1862SOL    HW1 6485   3.724   5.002   5.132
 1862SOL    HW2 6486   3.817   5.121   5.070
 1863SOL     OW 6487   0.166   0.918   1.107
 1863SOL    HW1 6488   0.150   1.005   1.060
 1863SOL    HW2 6489   0.168   0.844   1.039
 1864SOL     OW 6490   2.470   6.102   2.261
 1864SOL    HW1 6491   2.516   6.185   2.230
 1864SOL    HW2 6492   2.451   6.043   2.183
 1865SOL     OW 6493   6.276   2.581   6.094
 1865SOL    HW1 6494   6.341   2.573   6.018
 1865SOL    HW2 6495   6.326   2.591   6.180
 1866SOL     OW 6496   0.086   4.259   5.234
 1866SOL    HW1 6497   0.068   4.357   5.236
 1866SOL    HW2 6498   0.165   4.238   5.292
 1867SOL     OW 6499   1.421   0.505   0.870
 1867SOL    HW1 6500   1.427   0.584   0.930
 1867SOL    HW2 6501   1.344   0.516   0.807
 1868SOL     OW 6502   5.996   3.684   5.612
 1868SOL    HW1 6503   6.005   3.754   5.684
 1868SOL    HW2 6504   6.052   3.605   5.636
 1869SOL     OW 6505   5.240   0.857   5.148
 1869SOL    HW1 6506   5.336   0.881   5.136
 1869SOL    HW2 6507   5.188   0.938   5.174
 1870SOL     OW 6508   5.750   1.008   5.559
 1870SOL    HW1 6509   5.798   0.994   5.472
 1870SOL    HW2 6510   5.685   1.082   5.550
 1871SOL     OW 6511   2.747   4.693   0.186
 1871SOL    HW1 6512   2.649   4.709   0.175
 1871SOL    HW2 6513   2.761   4.603   0.229
 1872SOL     OW 6514   2.337   3.533   6.894
 1872SOL    HW1 6515   2.343   3.618   6.947
 1872SOL    HW2 6516   2.242   3.504   6.889
 1873SOL     OW 6517   6.182   1.177   1.889
 1873SOL    HW1 6518   6.204   1.096   1.835
 1873SOL    HW2 6519   6.177   1.152   1.985
 1874SOL     OW 6520   2.312   5.007   6.912
 1874SOL    HW1 6521   2.355   4.925   6.873
 1874SOL    HW2 6522   2.321   5.083   6.848
 1875SOL     OW 6523   1.139   5.930   2.590
 1875SOL    HW1 6524   1.057   5.939   2.647
 1875SOL    HW2 6525   1.118   5.960   2.497
 1876SOL     OW 6526   0.605   5.086   5.331
 1876SOL    HW1 6527   0.696   5.114   5.304
 1876SOL    HW2 6528   0.611   5.025   5.410
 1877SOL     OW 6529   0.363   1.103   3.494
 1877SOL    HW1 6530   0.406   1.177   3.441
 1877SOL    HW2 6531   0.310   1.142   3.569
 1878SOL     OW 6532   5.987   3.983   4.461
 1878SOL    HW1 6533   5.925   4.016   4.389
 1878SOL    HW2 6534   6.016   3.890   4.440
 1879SOL     OW 6535   3.821   6.451   4.852
 1879SOL    HW1 6536   3.803   6.371   4.908
 1879SOL    HW2 6537   3.825   6.533   4.910
 1880SOL     OW 6538   1.686   3.784   4.366
 1880SOL    HW1 6539   1.762   3.721   4.353
 1880SOL    HW2 6540   1.720   3.878   4.363
 1881SOL     OW 6541   2.947   2.122   3.143
 1881SOL    HW1 6542   2.934   2.217   3.169
 1881SOL    HW2 6543   2.919   2.108   3.048
 1882SOL     OW 6544   4.304   6.830   6.912
 1882SOL    HW1 6545   4.248   6.845   6.993
 1882SOL    HW2 6546   4.248   6.791   6.839
 1883SOL     OW 6547   2.149   3.559   3.170
 1883SOL    HW1 6548   2.146   3.459   3.162
 1883SOL    HW2 6549   2.150   3.599   3.079
 1884SOL     OW 6550   4.761   0.912   0.026
 1884SOL    HW1 6551   4.669   0.944   0.002
 1884SOL    HW2 6552   4.754   0.821   0.066
 1885SOL     OW 6553   0.015   1.499   0.879
 1885SOL    HW1 6554   6.982   1.557   0.942
 1885SOL    HW2 6555   7.013   1.523   0.785
 1886SOL     OW 6556   3.738   3.126   4.760
 1886SOL    HW1 6557   3.701   3.163   4.675
 1886SOL    HW2 6558   3.827   3.168   4.777
 1887SOL     OW 6559   0.787   5.855   5.654
 1887SOL    HW1 6560   0.845   5.773   5.652
 1887SOL    HW2 6561   0.734   5.856   5.738
 1888SOL     OW 6562   2.250   1.918   5.711
 1888SOL    HW1 6563   2.341   1.877   5.703
 1888SOL    HW2 6564   2.213   1.934   5.620
 1889SOL     OW 6565   3.792   4.091   0.096
 1889SOL    HW1 6566   3.714   4.127   0.146
 1889SOL    HW2 6567   3.764   4.066   0.003
 1890SOL     OW 6568   6.015   6.701   6.606
 1890SOL    HW1 6569   6.034   6.629   6.539
 1890SOL    HW2 6570   6.070   6.781   6.585
 1891SOL     OW 6571   5.142   3.391   6.790
 1891SOL    HW1 6572   5.224   3.355   6.746
 1891SOL    HW2 6573   5.127   3.344   6.877
 1892SOL     OW 6574   3.542   1.041   3.228
 1892SOL    HW1 6575   3.489   1.114   3.186
 1892SOL    HW2 6576   3.483   0.962   3.244
 1893SOL     OW 6577   2.823   2.481   6.853
 1893SOL    HW1 6578   2.767   2.552   6.812
 1893SOL    HW2 6579   2.804   2.475   6.951
 1894SOL     OW 6580   5.209   3.133   1.171
 1894SOL    HW1 6581   5.210   3.072   1.250
 1894SOL    HW2 6582   5.153   3.214   1.192
 1895SOL     OW 6583   4.297   5.762   3.210
 1895SOL    HW1 6584   4.356   5.684   3.190
 1895SOL    HW2 6585   4.201   5.736   3.197
 1896SOL     OW 6586   0.144   1.519   4.530
 1896SOL    HW1 6587   0.162   1.472   4.616
 1896SOL    HW2 6588   0.104   1.454   4.465
 1897SOL     OW 6589   5.365   5.405   3.292
 1897SOL    HW1 6590   5.337   5.314   3.262
 1897SOL    HW2 6591   5.346   5.472   3.220
 1898SOL     OW 6592   5.109   6.104   0.582
 1898SOL    HW1 6593   5.065   6.019   0.609
 1898SOL    HW2 6594   5.056   6.147   0.509
 1899SOL     OW 6595   1.658   3.085   4.067
 1899SOL    HW1 6596   1.696   3.169   4.028
 1899SOL    HW2 6597   1.634   3.101   4.163
 1900SOL     OW 6598   2.872   6.115   1.600
 1900SOL    HW1 6599   2.859   6.214   1.613
 1900SOL    HW2 6600   2.805   6.066   1.657
 1901SOL     OW 6601   0.592   1.663   6.290
 1901SOL    HW1 6602   0.510   1.706   6.327
 1901SOL    HW2 6603   0.671   1.722   6.309
 1902SOL     OW 6604   1.420   2.467   4.676
 1902SOL    HW1 6605   1.479   2.392   4.646
 1902SOL    HW2 6606   1.456   2.506   4.761
 1903SOL     OW 6607   0.017   6.228   3.946
 1903SOL    HW1 6608   0.002   6.133   3.919
 1903SOL    HW2 6609   0.062   6.230   4.035
 1904SOL     OW 6610   0.367   0.437   4.124
 1904SOL    HW1 6611   0.316   0.505   4.178
 1904SOL    HW2 6612   0.306   0.397   4.055
 1905SOL     OW 6613   5.831   3.048   5.984
 1905SOL    HW1 6614   5.854   2.989   6.062
 1905SOL    HW2 6615   5.793   3.135   6.018
 1906SOL     OW 6616   1.975   6.173   5.852
 1906SOL    HW1 6617   1.997   6.270   5.839
 1906SOL    HW2 6618   2.041   6.116   5.804
 1907SOL     OW 6619   4.249   6.749   3.298
 1907SOL    HW1 6620   4.241   6.705   3.209
 1907SOL    HW2 6621   4.308   6.830   3.290
 1908SOL     OW 6622   5.204   4.414   0.894
 1908SOL    HW1 6623   5.153   4.411   0.980
 1908SOL    HW2 6624   5.239   4.506   0.879
 1909SOL     OW 6625   5.177   5.504   3.516
 1909SOL    HW1 6626   5.108   5.465   3.454
 1909SOL    HW2 6627   5.221   5.430   3.566
 1910SOL     OW 6628   5.603   3.526   4.166
 1910SOL    HW1 6629   5.631   3.476   4.248
 1910SOL    HW2 6630   5.518   3.486   4.130
 1911SOL     OW 6631   1.087   2.513   5.650
 1911SOL    HW1 6632   1.015   2.503   5.718
 1911SOL    HW2 6633   1.157   2.575   5.685
 1912SOL     OW 6634   3.617   0.290   2.455
 1912SOL    HW1 6635   3.653   0.365   2.510
 1912SOL    HW2 6636   3.618   0.206   2.509
 1913SOL     OW 6637   2.963   4.107   6.635
 1913SOL    HW1 6638   2.964   4.174   6.709
 1913SOL    HW2 6639   2.897   4.035   6.656
 1914SOL     OW 6640   4.231   1.389   5.098
 1914SOL    HW1 6641   4.284   1.460   5.144
 1914SOL    HW2 6642   4.181   1.430   5.021
 1915SOL     OW 6643   2.670   6.376   5.171
 1915SOL    HW1 6644   2.745   6.431   5.206
 1915SOL    HW2 6645   2.587   6.431   5.168
 1916SOL     OW 6646   3.456   6.227   2.777
 1916SOL    HW1 6647   3.547   6.249   2.743
 1916SOL    HW2 6648   3.387   6.267   2.717
 1917SOL     OW 6649   4.026   3.825   3.240
 1917SOL    HW1 6650   4.096   3.797   3.306
 1917SOL    HW2 6651   4.022   3.759   3.166
 1918SOL     OW 6652   1.096   6.550   5.979
 1918SOL    HW1 6653   1.146   6.468   6.007
 1918SOL    HW2 6654   0.997   6.534   5.988
 1919SOL     OW 6655   5.557   0.539   2.220
 1919SOL    HW1 6656   5.557   0.593   2.136
 1919SOL    HW2 6657   5.648   0.501   2.235
 1920SOL     OW 6658   6.047   6.650   4.331
 1920SOL    HW1 6659   5.963   6.604   4.359
 1920SOL    HW2 6660   6.109   6.584   4.288
 1921SOL     OW 6661   2.420   6.764   6.622
 1921SOL    HW1 6662   2.380   6.770   6.713
 1921SOL    HW2 6663   2.377   6.830   6.561
 1922SOL     OW 6664   3.654   4.753   6.712
 1922SOL    HW1 6665   3.712   4.794   6.783
 1922SOL    HW2 6666   3.582   4.818   6.687
 1923SOL     OW 6667   1.817   3.050   1.021
 1923SOL    HW1 6668   1.774   2.984   1.082
 1923SOL    HW2 6669   1.811   3.018   0.927
 1924SOL     OW 6670   0.630   4.044   1.708
 1924SOL    HW1 6671   0.707   4.051   1.645
 1924SOL    HW2 6672   0.662   4.008   1.796
 1925SOL     OW 6673   3.436   4.391   0.384
 1925SOL    HW1 6674   3.433   4.313   0.446
 1925SOL    HW2 6675   3.431   4.476   0.437
 1926SOL     OW 6676   0.193   0.515   3.387
 1926SOL    HW1 6677   0.277   0.464   3.407
 1926SOL    HW2 6678   0.144   0.533   3.473
 1927SOL     OW 6679   5.473   3.222   1.806
 1927SOL    HW1 6680   5.428   3.306   1.837
 1927SOL    HW2 6681   5.443   3.145   1.863
 1928SOL     OW 6682   0.350   5.416   4.865
 1928SOL    HW1 6683   0.332   5.402   4.767
 1928SOL    HW2 6684   0.371   5.328   4.907
 1929SOL     OW 6685   1.600   4.574   3.373
 1929SOL    HW1 6686   1.694   4.569   3.340
 1929SOL    HW2 6687   1.599   4.593   3.471
 1930SOL     OW 6688   6.386   5.518   6.040
 1930SOL    HW1 6689   6.389   5.441   6.103
 1930SOL    HW2 6690   6.464   5.514   5.978
 1931SOL     OW 6691   2.114   2.416   3.238
 1931SOL    HW1 6692   2.039   2.480   3.256
 1931SOL    HW2 6693   2.078   2.332   3.198
 1932SOL     OW 6694   6.284   3.204   2.133
 1932SOL    HW1 6695   6.263   3.277   2.198
 1932SOL    HW2 6696   6.201   3.182   2.081
 1933SOL     OW 6697   2.275   5.236   0.387
 1933SOL    HW1 6698   2.233   5.297   0.455
 1933SOL    HW2 6699   2.243   5.143   0.402
 1934SOL     OW 6700   6.828   6.293   2.933
 1934SOL    HW1 6701   6.783   6.294   2.844
 1934SOL    HW2 6702   6.921   6.257   2.923
 1935SOL     OW 6703   1.098   1.628   2.363
 1935SOL    HW1 6704   1.015   1.652   2.413
 1935SOL    HW2 6705   1.087   1.537   2.322
 1936SOL     OW 6706   0.378   5.941   5.075
 1936SOL    HW1 6707   0.320   6.021   5.064
 1936SOL    HW2 6708   0.461   5.951   5.020
 1937SOL     OW 6709   4.658   1.745   3.473
 1937SOL    HW1 6710   4.656   1.824   3.533
 1937SOL    HW2 6711   4.584   1.682   3.497
 1938SOL     OW 6712   4.770   0.058   3.758
 1938SOL    HW1 6713   4.784   0.152   3.728
 1938SOL    HW2 6714   4.682   0.024   3.724
 1939SOL     OW 6715   2.623   0.918   4.483
 1939SOL    HW1 6716   2.656   0.847   4.545
 1939SOL    HW2 6717   2.612   1.004   4.533
 1940SOL     OW 6718   6.439   0.168   6.897
 1940SOL    HW1 6719   6.390   0.106   6.837
 1940SOL    HW2 6720   6.439   0.260   6.858
 1941SOL     OW 6721   4.407   5.028   2.705
 1941SOL    HW1 6722   4.399   4.977   2.791
 1941SOL    HW2 6723   4.501   5.025   2.673
 1942SOL     OW 6724   0.172   3.585   2.529
 1942SOL    HW1 6725   0.216   3.498   2.553
 1942SOL    HW2 6726   0.123   3.620   2.609
 1943SOL     OW 6727   3.520   5.287   3.613
 1943SOL    HW1 6728   3.527   5.378   3.571
 1943SOL    HW2 6729   3.426   5.271   3.643
 1944SOL     OW 6730   6.686   6.464   1.713
 1944SOL    HW1 6731   6.764   6.444   1.655
 1944SOL    HW2 6732   6.653   6.380   1.755
 1945SOL     OW 6733   2.960   5.439   2.481
 1945SOL    HW1 6734   2.966   5.341   2.503
 1945SOL    HW2 6735   2.975   5.493   2.563
 1946SOL     OW 6736   1.261   6.475   6.746
 1946SOL    HW1 6737   1.244   6.490   6.844
 1946SOL    HW2 6738   1.359   6.458   6.732
 1947SOL     OW 6739   4.245   1.052   3.712
 1947SOL    HW1 6740   4.185   0.977   3.740
 1947SOL    HW2 6741   4.259   1.114   3.789
 1948SOL     OW 6742   6.596   2.903   4.981
 1948SOL    HW1 6743   6.517   2.926   5.038
 1948SOL    HW2 6744   6.572   2.828   4.919
 1949SOL     OW 6745   4.720   3.587   0.074
 1949SOL    HW1 6746   4.813   3.550   0.076
 1949SOL    HW2 6747   4.681   3.580   0.166
 1950SOL     OW 6748   2.317   4.800   0.862
 1950SOL    HW1 6749   2.242   4.805   0.927
 1950SOL    HW2 6750   2.355   4.891   0.848
 1951SOL     OW 6751   5.734   3.096   6.316
 1951SOL    HW1 6752   5.738   3.099   6.416
 1951SOL    HW2 6753   5.773   3.181   6.280
 1952SOL     OW 6754   2.949   3.385   3.485
 1952SOL    HW1 6755   2.967   3.300   3.436
 1952SOL    HW2 6756   2.937   3.365   3.583
 1953SOL     OW 6757   0.572   2.222   4.641
 1953SOL    HW1 6758   0.503   2.287   4.610
 1953SOL    HW2 6759   0.526   2.140   4.675
 1954SOL     OW 6760   2.082   2.586   4.388
 1954SOL    HW1 6761   2.023   2.572   4.308
 1954SOL    HW2 6762   2.121   2.498   4.416
 1955SOL     OW 6763   6.615   5.440   2.774
 1955SOL    HW1 6764   6.611   5.484   2.685
 1955SOL    HW2 6765   6.522   5.415   2.803
 1956SOL     OW 6766   3.656   6.013   3.118
 1956SOL    HW1 6767   3.675   5.955   3.038
 1956SOL    HW2 6768   3.718   6.091   3.117
 1957SOL     OW 6769   2.320   6.291   5.718
 1957SOL    HW1 6770   2.350   6.323   5.628
 1957SOL    HW2 6771   2.270   6.205   5.708
 1958SOL     OW 6772   4.252   3.645   6.117
 1958SOL    HW1 6773   4.292   3.668   6.028
 1958SOL    HW2 6774   4.212   3.554   6.112
 1959SOL     OW 6775   2.614   0.430   0.888
 1959SOL    HW1 6776   2.542   0.404   0.952
 1959SOL    HW2 6777   2.599   0.384   0.800
 1960SOL     OW 6778   5.185   5.449   3.029
 1960SOL    HW1 6779   5.121   5.448   2.952
 1960SOL    HW2 6780   5.218   5.542   3.044
 1961SOL     OW 6781   5.715   4.217   5.111
 1961SOL    HW1 6782   5.735   4.313   5.131
 1961SOL    HW2 6783   5.674   4.174   5.192
 1962SOL     OW 6784   0.686   6.597   3.778
 1962SOL    HW1 6785   0.609   6.619   3.838
 1962SOL    HW2 6786   0.704   6.499   3.782
 1963SOL     OW 6787   2.574   1.256   3.531
 1963SOL    HW1 6788   2.587   1.160   3.506
 1963SOL    HW2 6789   2.570   1.265   3.630
 1964SOL     OW 6790   6.611   2.708   2.109
 1964SOL    HW1 6791   6.547   2.784   2.098
 1964SOL    HW2 6792   6.561   2.626   2.137
 1965SOL     OW 6793   1.958   0.024   3.326
 1965SOL    HW1 6794   1.995   7.006   3.240
 1965SOL    HW2 6795   1.933   6.968   3.387
 1966SOL     OW 6796   6.742   6.613   0.050
 1966SOL    HW1 6797   6.756   6.687   0.116
 1966SOL    HW2 6798   6.811   6.542   0.065
 1967SOL     OW 6799   6.121   2.469   5.017
 1967SOL    HW1 6800   6.098   2.564   4.996
 1967SOL    HW2 6801   6.127   2.457   5.116
 1968SOL     OW 6802   4.323   5.709   4.337
 1968SOL    HW1 6803   4.261   5.673   4.407
 1968SOL    HW2 6804   4.387   5.637   4.310
 1969SOL     OW 6805   6.354   0.505   1.684
 1969SOL    HW1 6806   6.314   0.415   1.700
 1969SOL    HW2 6807   6.370   0.517   1.585
 1970SOL     OW 6808   2.071   1.863   4.926
 1970SOL    HW1 6809   2.124   1.778   4.928
 1970SOL    HW2 6810   2.041   1.880   4.832
 1971SOL     OW 6811   0.594   1.198   6.299
 1971SOL    HW1 6812   0.617   1.102   6.282
 1971SOL    HW2 6813   0.518   1.225   6.238
 1972SOL     OW 6814   1.188   6.752   3.641
 1972SOL    HW1 6815   1.261   6.780   3.704
 1972SOL    HW2 6816   1.100   6.787   3.675
 1973SOL     OW 6817   3.460   3.297   0.125
 1973SOL    HW1 6818   3.476   3.200   0.143
 1973SOL    HW2 6819   3.373   3.308   0.078
 1974SOL     OW 6820   5.992   6.267   4.346
 1974SOL    HW1 6821   5.982   6.182   4.293
 1974SOL    HW2 6822   6.076   6.262   4.400
 1975SOL     OW 6823   2.504   6.868   3.990
 1975SOL    HW1 6824   2.497   6.912   3.900
 1975SOL    HW2 6825   2.599   6.842   4.006
 1976SOL     OW 6826   6.247   4.729   5.990
 1976SOL    HW1 6827   6.235   4.786   6.071
 1976SOL    HW2 6828   6.179   4.753   5.921
 1977SOL     OW 6829   3.337   2.072   5.061
 1977SOL    HW1 6830   3.270   2.142   5.085
 1977SOL    HW2 6831   3.338   2.059   4.962
 1978SOL     OW 6832   0.238   2.590   4.850
 1978SOL    HW1 6833   0.225   2.660   4.779
 1978SOL    HW2 6834   0.320   2.536   4.829
 1979SOL     OW 6835   6.974   4.075   2.710
 1979SOL    HW1 6836   0.041   4.029   2.733
 1979SOL    HW2 6837   6.962   4.154   2.769
 1980SOL     OW 6838   2.445   0.492   3.121
 1980SOL    HW1 6839   2.491   0.404   3.116
 1980SOL    HW2 6840   2.397   0.510   3.035
 1981SOL     OW 6841   5.829   3.463   2.005
 1981SOL    HW1 6842   5.794   3.411   1.927
 1981SOL    HW2 6843   5.821   3.560   1.987
 1982SOL     OW 6844   6.963   6.889   5.463
 1982SOL    HW1 6845   0.024   6.920   5.412
 1982SOL    HW2 6846   6.986   6.805   5.513
 1983SOL     OW 6847   1.023   4.852   1.731
 1983SOL    HW1 6848   1.054   4.833   1.638
 1983SOL    HW2 6849   0.934   4.809   1.745
 1984SOL     OW 6850   4.209   0.814   5.818
 1984SOL    HW1 6851   4.145   0.748   5.779
 1984SOL    HW2 6852   4.297   0.770   5.834
 1985SOL     OW 6853   1.085   5.450   1.847
 1985SOL    HW1 6854   1.155   5.428   1.915
 1985SOL    HW2 6855   1.061   5.367   1.796
 1986SOL     OW 6856   6.639   2.461   0.775
 1986SOL    HW1 6857   6.673   2.540   0.827
 1986SOL    HW2 6858   6.542   2.473   0.756
 1987SOL     OW 6859   2.257   3.268   0.257
 1987SOL    HW1 6860   2.195   3.196   0.228
 1987SOL    HW2 6861   2.270   3.264   0.356
 1988SOL     OW 6862   5.015   2.747   1.010
 1988SOL    HW1 6863   4.963   2.662   1.014
 1988SOL    HW2 6864   4.970   2.815   1.068
 1989SOL     OW 6865   2.583   2.451   3.486
 1989SOL    HW1 6866   2.606   2.548   3.475
 1989SOL    HW2 6867   2.498   2.432   3.437
 1990SOL     OW 6868   1.138   0.731   2.969
 1990SOL    HW1 6869   1.132   0.645   3.019
 1990SOL    HW2 6870   1.046   0.764   2.947
 1991SOL     OW 6871   4.693   5.908   2.618
 1991SOL    HW1 6872   4.613   5.953   2.579
 1991SOL    HW2 6873   4.664   5.827   2.669
 1992SOL     OW 6874   2.141   5.725   5.429
 1992SOL    HW1 6875   2.219   5.695   5.373
 1992SOL    HW2 6876   2.067   5.659   5.420
 1993SOL     OW 6877   3.299   2.991   4.003
 1993SOL    HW1 6878   3.309   2.970   3.906
 1993SOL    HW2 6879   3.372   3.053   4.031
 1994SOL     OW 6880   6.262   2.172   1.445
 1994SOL    HW1 6881   6.341   2.147   1.502
 1994SOL    HW2 6882   6.267   2.270   1.424
 1995SOL     OW 6883   4.111   2.476   1.372
 1995SOL    HW1 6884   4.177   2.432   1.433
 1995SOL    HW2 6885   4.036   2.515   1.425
 1996SOL     OW 6886   2.064   4.762   5.621
 1996SOL    HW1 6887   2.097   4.765   5.527
 1996SOL    HW2 6888   2.138   4.732   5.681
 1997SOL     OW 6889   5.399   6.299   4.225
 1997SOL    HW1 6890   5.464   6.333   4.293
 1997SOL    HW2 6891   5.378   6.373   4.160
 1998SOL     OW 6892   3.259   4.962   4.820
 1998SOL    HW1 6893   3.344   4.985   4.867
 1998SOL    HW2 6894   3.190   4.933   4.887
 1999SOL     OW 6895   3.431   1.697   1.788
 1999SOL    HW1 6896   3.507   1.671   1.847
 1999SOL    HW2 6897   3.454   1.781   1.739
 2000SOL     OW 6898   2.573   1.452   5.281
 2000SOL    HW1 6899   2.596   1.535   5.231
 2000SOL    HW2 6900   2.647   1.428   5.344
 2001SOL     OW 6901   2.197   2.805   6.888
 2001SOL    HW1 6902   2.220   2.894   6.928
 2001SOL    HW2 6903   2.256   2.735   6.927
 2002SOL     OW 6904   1.611   4.818   5.106
 2002SOL    HW1 6905   1.524   4.811   5.156
 2002SOL    HW2 6906   1.640   4.914   5.105
 2003SOL     OW 6907   6.404   3.670   3.332
 2003SOL    HW1 6908   6.313   3.676   3.373
 2003SOL    HW2 6909   6.427   3.757   3.289
 2004SOL     OW 6910   3.234   0.078   6.799
 2004SOL    HW1 6911   3.156   0.039   6.848
 2004SOL    HW2 6912   3.243   0.175   6.822
 2005SOL     OW 6913   2.795   6.654   5.286
 2005SOL    HW1 6914   2.824   6.692   5.374
 2005SOL    HW2 6915   2.838   6.565   5.273
 2006SOL     OW 6916   4.546   6.997   3.076
 2006SOL    HW1 6917   4.612   6.953   3.138
 2006SOL    HW2 6918   4.509   6.928   3.013
 2007SOL     OW 6919   0.117   5.492   6.901
 2007SOL    HW1 6920   0.045   5.561   6.897
 2007SOL    HW2 6921   0.138   5.460   6.808
 2008SOL     OW 6922   0.321   5.979   5.892
 2008SOL    HW1 6923   0.336   5.889   5.934
 2008SOL    HW2 6924   0.265   5.968   5.810
 2009SOL     OW 6925   1.220   0.461   7.008
 2009SOL    HW1 6926   1.187   0.417   6.925
 2009SOL    HW2 6927   1.143   0.498   0.041
 2010SOL     OW 6928   2.662   0.874   1.135
 2010SOL    HW1 6929   2.613   0.788   1.117
 2010SOL    HW2 6930   2.659   0.895   1.232
 2011SOL     OW 6931   6.589   1.335   4.659
 2011SOL    HW1 6932   6.672   1.367   4.613
 2011SOL    HW2 6933   6.559   1.403   4.725
 2012SOL     OW 6934   6.778   3.589   1.703
 2012SOL    HW1 6935   6.836   3.653   1.754
 2012SOL    HW2 6936   6.784   3.609   1.606
 2013SOL     OW 6937   3.625   2.574   1.502
 2013SOL    HW1 6938   3.559   2.526   1.559
 2013SOL    HW2 6939   3.624   2.671   1.524
 2014SOL     OW 6940   3.145   5.419   3.534
 2014SOL    HW1 6941   3.083   5.495   3.514
 2014SOL    HW2 6942   3.232   5.455   3.568
 2015SOL     OW 6943   2.794   5.404   0.259
 2015SOL    HW1 6944   2.854   5.483   0.263
 2015SOL    HW2 6945   2.759   5.383   0.350
 2016SOL     OW 6946   6.261   5.412   5.048
 2016SOL    HW1 6947   6.202   5.488   5.076
 2016SOL    HW2 6948   6.299   5.432   4.957
 2017SOL     OW 6949   1.369   5.177   1.636
 2017SOL    HW1 6950   1.305   5.230   1.580
 2017SOL    HW2 6951   1.364   5.081   1.609
 2018SOL     OW 6952   0.328   4.441   5.545
 2018SOL    HW1 6953   0.300   4.532   5.513
 2018SOL    HW2 6954   0.263   4.408   5.612
 2019SOL     OW 6955   5.210   0.554   2.683
 2019SOL    HW1 6956   5.149   0.617   2.733
 2019SOL    HW2 6957   5.171   0.535   2.593
 2020SOL     OW 6958   2.436   5.157   3.412
 2020SOL    HW1 6959   2.518   5.114   3.373
 2020SOL    HW2 6960   2.382   5.089   3.461
 2021SOL     OW 6961   1.814   5.915   2.025
 2021SOL    HW1 6962   1.758   5.975   2.083
 2021SOL    HW2 6963   1.788   5.820   2.041
 2022SOL     OW 6964   3.735   5.628   1.220
 2022SOL    HW1 6965   3.733   5.605   1.122
 2022SOL    HW2 6966   3.767   5.721   1.232
 2023SOL     OW 6967   6.382   2.451   5.846
 2023SOL    HW1 6968   6.389   2.516   5.770
 2023SOL    HW2 6969   6.471   2.444   5.892
 2024SOL     OW 6970   5.310   0.245   3.493
 2024SOL    HW1 6971   5.346   0.310   3.561
 2024SOL    HW2 6972   5.383   0.221   3.429
 2025SOL     OW 6973   5.989   0.782   1.467
 2025SOL    HW1 6974   5.950   0.874   1.467
 2025SOL    HW2 6975   6.080   0.785   1.510
 2026SOL     OW 6976   1.736   1.943   4.909
 2026SOL    HW1 6977   1.790   1.929   4.826
 2026SOL    HW2 6978   1.640   1.955   4.884
 2027SOL     OW 6979   6.783   6.998   2.307
 2027SOL    HW1 6980   6.747   6.940   2.381
 2027SOL    HW2 6981   6.708   0.003   2.245
 2028SOL     OW 6982   3.934   4.205   5.751
 2028SOL    HW1 6983   3.877   4.129   5.720
 2028SOL    HW2 6984   3.956   4.264   5.674
 2029SOL     OW 6985   2.107   0.575   0.215
 2029SOL    HW1 6986   2.042   0.617   0.279
 2029SOL    HW2 6987   2.069   0.577   0.123
 2030SOL     OW 6988   2.173   2.927   2.562
 2030SOL    HW1 6989   2.239   2.874   2.509
 2030SOL    HW2 6990   2.199   2.928   2.658
 2031SOL     OW 6991   5.627   6.863   2.349
 2031SOL    HW1 6992   5.568   6.914   2.411
 2031SOL    HW2 6993   5.595   6.875   2.255
 2032SOL     OW 6994   4.347   6.329   2.228
 2032SOL    HW1 6995   4.285   6.406   2.242
 2032SOL    HW2 6996   4.331   6.260   2.298
 2033SOL     OW 6997   0.289   4.770   6.558
 2033SOL    HW1 6998   0.327   4.851   6.514
 2033SOL    HW2 6999   0.358   4.698   6.561
 2034SOL     OW 7000   2.326   5.215   4.321
 2034SOL    HW1 7001   2.285   5.158   4.393
 2034SOL    HW2 7002   2.267   5.216   4.241
 2035SOL     OW 7003   0.588   1.886   3.272
 2035SOL    HW1 7004   0.507   1.838   3.305
 2035SOL    HW2 7005   0.623   1.946   3.344
 2036SOL     OW 7006   0.691   4.795   1.015
 2036SOL    HW1 7007   0.763   4.800   1.084
 2036SOL    HW2 7008   0.629   4.720   1.036
 2037SOL     OW 7009   0.525   2.714   6.666
 2037SOL    HW1 7010   0.551   2.679   6.756
 2037SOL    HW2 7011   0.597   2.775   6.632
 2038SOL     OW 7012   1.603   0.134   4.736
 2038SOL    HW1 7013   1.661   0.163   4.660
 2038SOL    HW2 7014   1.586   0.036   4.730
 2039SOL     OW 7015   1.171   5.328   2.360
 2039SOL    HW1 7016   1.166   5.364   2.453
 2039SOL    HW2 7017   1.111   5.380   2.300
 2040SOL     OW 7018   3.719   2.920   4.452
 2040SOL    HW1 7019   3.647   2.903   4.385
 2040SOL    HW2 7020   3.692   2.882   4.541
 2041SOL     OW 7021   5.225   2.940   6.625
 2041SOL    HW1 7022   5.292   2.868   6.610
 2041SOL    HW2 7023   5.178   2.960   6.538
 2042SOL     OW 7024   3.269   6.547   0.425
 2042SOL    HW1 7025   3.304   6.630   0.381
 2042SOL    HW2 7026   3.236   6.569   0.517
 2043SOL     OW 7027   4.835   5.724   2.485
 2043SOL    HW1 7028   4.773   5.798   2.512
 2043SOL    HW2 7029   4.782   5.645   2.456
 2044SOL     OW 7030   6.679   0.779   2.733
 2044SOL    HW1 7031   6.602   0.736   2.687
 2044SOL    HW2 7032   6.707   0.861   2.682
 2045SOL     OW 7033   3.103   6.676   5.846
 2045SOL    HW1 7034   3.200   6.668   5.825
 2045SOL    HW2 7035   3.051   6.689   5.762
 2046SOL     OW 7036   5.900   0.049   5.769
 2046SOL    HW1 7037   5.832   0.058   5.696
 2046SOL    HW2 7038   5.878   0.113   5.843
 2047SOL     OW 7039   5.129   3.244   7.009
 2047SOL    HW1 7040   5.191   3.249   0.069
 2047SOL    HW2 7041   5.115   3.148   6.985
 2048SOL     OW 7042   4.516   6.468   5.321
 2048SOL    HW1 7043   4.605   6.480   5.364
 2048SOL    HW2 7044   4.446   6.461   5.391
 2049SOL     OW 7045   5.414   5.478   6.554
 2049SOL    HW1 7046   5.343   5.434   6.499
 2049SOL    HW2 7047   5.500   5.429   6.541
 2050SOL     OW 7048   5.657   1.129   3.092
 2050SOL    HW1 7049   5.575   1.102   3.141
 2050SOL    HW2 7050   5.736   1.125   3.153
 2051SOL     OW 7051   3.140   6.076   1.112
 2051SOL    HW1 7052   3.189   6.113   1.191
 2051SOL    HW2 7053   3.061   6.023   1.143
 2052SOL     OW 7054   2.014   2.715   0.977
 2052SOL    HW1 7055   1.942   2.645   0.977
 2052SOL    HW2 7056   2.097   2.678   0.935
 2053SOL     OW 7057   4.527   0.801   0.582
 2053SOL    HW1 7058   4.592   0.731   0.552
 2053SOL    HW2 7059   4.533   0.881   0.523
 2054SOL     OW 7060   0.743   3.215   1.237
 2054SOL    HW1 7061   0.820   3.225   1.174
 2054SOL    HW2 7062   0.758   3.273   1.317
 2055SOL     OW 7063   6.679   1.004   3.614
 2055SOL    HW1 7064   6.702   0.928   3.673
 2055SOL    HW2 7065   6.610   1.061   3.657
 2056SOL     OW 7066   0.269   6.359   2.375
 2056SOL    HW1 7067   0.343   6.416   2.409
 2056SOL    HW2 7068   0.193   6.359   2.440
 2057SOL     OW 7069   4.770   2.977   4.250
 2057SOL    HW1 7070   4.755   2.880   4.228
 2057SOL    HW2 7071   4.708   3.034   4.196
 2058SOL     OW 7072   0.906   1.185   1.275
 2058SOL    HW1 7073   0.990   1.220   1.317
 2058SOL    HW2 7074   0.930   1.125   1.199
 2059SOL     OW 7075   1.716   0.913   6.934
 2059SOL    HW1 7076   1.695   1.007   6.908
 2059SOL    HW2 7077   1.743   0.861   6.852
 2060SOL     OW 7078   0.470   5.015   3.184
 2060SOL    HW1 7079   0.459   5.084   3.113
 2060SOL    HW2 7080   0.450   4.925   3.147
 2061SOL     OW 7081   1.591   0.231   0.498
 2061SOL    HW1 7082   1.628   0.293   0.427
 2061SOL    HW2 7083   1.647   0.239   0.580
 2062SOL     OW 7084   3.687   0.414   3.863
 2062SOL    HW1 7085   3.772   0.397   3.815
 2062SOL    HW2 7086   3.649   0.327   3.895
 2063SOL     OW 7087   2.390   2.767   1.555
 2063SOL    HW1 7088   2.478   2.720   1.553
 2063SOL    HW2 7089   2.396   2.846   1.615
 2064SOL     OW 7090   0.937   2.017   0.782
 2064SOL    HW1 7091   1.000   1.949   0.820
 2064SOL    HW2 7092   0.846   1.976   0.774
 2065SOL     OW 7093   0.348   2.853   2.777
 2065SOL    HW1 7094   0.412   2.858   2.853
 2065SOL    HW2 7095   0.376   2.782   2.713
 2066SOL     OW 7096   0.858   6.403   3.326
 2066SOL    HW1 7097   0.831   6.486   3.374
 2066SOL    HW2 7098   0.786   6.376   3.262
 2067SOL     OW 7099   0.168   0.835   0.614
 2067SOL    HW1 7100   0.070   0.828   0.600
 2067SOL    HW2 7101   0.216   0.799   0.534
 2068SOL     OW 7102   2.097   2.242   5.261
 2068SOL    HW1 7103   2.102   2.180   5.183
 2068SOL    HW2 7104   2.001   2.259   5.284
 2069SOL     OW 7105   1.543   2.107   2.038
 2069SOL    HW1 7106   1.444   2.092   2.039
 2069SOL    HW2 7107   1.591   2.020   2.047
 2070SOL     OW 7108   0.064   1.506   2.159
 2070SOL    HW1 7109   0.096   1.518   2.065
 2070SOL    HW2 7110   0.082   1.412   2.188
 2071SOL     OW 7111   2.206   6.030   5.746
 2071SOL    HW1 7112   2.214   5.959   5.677
 2071SOL    HW2 7113   2.246   5.998   5.832
 2072SOL     OW 7114   5.026   4.883   2.503
 2072SOL    HW1 7115   5.073   4.843   2.424
 2072SOL    HW2 7116   4.998   4.810   2.565
 2073SOL     OW 7117   3.229   6.527   5.224
 2073SOL    HW1 7118   3.281   6.465   5.283
 2073SOL    HW2 7119   3.286   6.606   5.200
 2074SOL     OW 7120   5.696   1.827   3.103
 2074SOL    HW1 7121   5.655   1.753   3.157
 2074SOL    HW2 7122   5.658   1.825   3.011
 2075SOL     OW 7123   3.797   3.121   6.427
 2075SOL    HW1 7124   3.832   3.059   6.498
 2075SOL    HW2 7125   3.771   3.208   6.469
 2076SOL     OW 7126   5.046   6.539   0.137
 2076SOL    HW1 7127   5.075   6.446   0.158
 2076SOL    HW2 7128   5.067   6.560   0.042
 2077SOL     OW 7129   4.417   0.861   4.732
 2077SOL    HW1 7130   4.371   0.773   4.726
 2077SOL    HW2 7131   4.350   0.935   4.735
 2078SOL     OW 7132   4.189   6.086   3.747
 2078SOL    HW1 7133   4.223   6.160   3.804
 2078SOL    HW2 7134   4.133   6.024   3.802
 2079SOL     OW 7135   5.729   0.122   4.117
 2079SOL    HW1 7136   5.782   0.189   4.065
 2079SOL    HW2 7137   5.790   0.071   4.178
 2080SOL     OW 7138   2.976   1.896   3.309
 2080SOL    HW1 7139   2.980   1.991   3.278
 2080SOL    HW2 7140   2.881   1.865   3.308
 2081SOL     OW 7141   0.876   5.921   4.227
 2081SOL    HW1 7142   0.894   5.984   4.302
 2081SOL    HW2 7143   0.962   5.900   4.179
 2082SOL     OW 7144   5.155   0.996   2.466
 2082SOL    HW1 7145   5.171   1.008   2.368
 2082SOL    HW2 7146   5.171   1.083   2.513
 2083SOL     OW 7147   3.567   4.662   5.922
 2083SOL    HW1 7148   3.636   4.719   5.968
 2083SOL    HW2 7149   3.532   4.711   5.843
 2084SOL     OW 7150   0.242   2.504   2.828
 2084SOL    HW1 7151   0.261   2.548   2.741
 2084SOL    HW2 7152   0.244   2.404   2.816
 2085SOL     OW 7153   5.951   6.516   0.164
 2085SOL    HW1 7154   5.911   6.596   0.210
 2085SOL    HW2 7155   5.915   6.433   0.206
 2086SOL     OW 7156   3.480   5.157   6.957
 2086SOL    HW1 7157   3.416   5.174   0.012
 2086SOL    HW2 7158   3.461   5.219   6.881
 2087SOL     OW 7159   5.781   6.120   3.473
 2087SOL    HW1 7160   5.695   6.086   3.436
 2087SOL    HW2 7161   5.786   6.098   3.571
 2088SOL     OW 7162   2.319   6.501   1.553
 2088SOL    HW1 7163   2.399   6.521   1.610
 2088SOL    HW2 7164   2.237   6.497   1.610
 2089SOL     OW 7165   2.603   1.121   6.456
 2089SOL    HW1 7166   2.529   1.137   6.522
 2089SOL    HW2 7167   2.571   1.057   6.386
 2090SOL     OW 7168   3.121   4.020   3.817
 2090SOL    HW1 7169   3.056   3.966   3.765
 2090SOL    HW2 7170   3.136   3.977   3.906
 2091SOL     OW 7171   2.356   4.371   1.569
 2091SOL    HW1 7172   2.272   4.320   1.582
 2091SOL    HW2 7173   2.434   4.309   1.576
 2092SOL     OW 7174   6.292   0.183   0.783
 2092SOL    HW1 7175   6.316   0.217   0.692
 2092SOL    HW2 7176   6.291   0.083   0.782
 2093SOL     OW 7177   1.733   1.287   1.728
 2093SOL    HW1 7178   1.721   1.382   1.756
 2093SOL    HW2 7179   1.827   1.273   1.697
 2094SOL     OW 7180   6.919   0.438   2.113
 2094SOL    HW1 7181   7.008   0.482   2.103
 2094SOL    HW2 7182   6.931   0.347   2.153
 2095SOL     OW 7183   6.275   4.408   5.193
 2095SOL    HW1 7184   6.225   4.371   5.272
 2095SOL    HW2 7185   6.263   4.507   5.189
 2096SOL     OW 7186   5.230   4.333   3.776
 2096SOL    HW1 7187   5.193   4.287   3.695
 2096SOL    HW2 7188   5.317   4.290   3.801
 2097SOL     OW 7189   6.461   3.593   5.766
 2097SOL    HW1 7190   6.365   3.577   5.741
 2097SOL    HW2 7191   6.491   3.521   5.829
 2098SOL     OW 7192   4.114   0.563   3.748
 2098SOL    HW1 7193   4.036   0.504   3.729
 2098SOL    HW2 7194   4.095   0.655   3.712
 2099SOL     OW 7195   2.413   1.714   3.489
 2099SOL    HW1 7196   2.395   1.789   3.425
 2099SOL    HW2 7197   2.334   1.652   3.490
 2100SOL     OW 7198   4.606   4.927   6.042
 2100SOL    HW1 7199   4.555   4.994   6.096
 2100SOL    HW2 7200   4.562   4.837   6.050
 2101SOL     OW 7201   5.918   6.607   1.804
 2101SOL    HW1 7202   5.902   6.604   1.705
 2101SOL    HW2 7203   5.855   6.545   1.850
 2102SOL     OW 7204   0.120   5.571   1.363
 2102SOL    HW1 7205   0.086   5.593   1.455
 2102SOL    HW2 7206   0.079   5.635   1.297
 2103SOL     OW 7207   3.213   3.670   6.577
 2103SOL    HW1 7208   3.285   3.607   6.548
 2103SOL    HW2 7209   3.236   3.763   6.549
 2104SOL     OW 7210   1.238   4.899   6.367
 2104SOL    HW1 7211   1.223   4.984   6.317
 2104SOL    HW2 7212   1.234   4.917   6.465
 2105SOL     OW 7213   6.323   5.845   2.807
 2105SOL    HW1 7214   6.339   5.936   2.843
 2105SOL    HW2 7215   6.241   5.806   2.849
 2106SOL     OW 7216   5.617   6.347   6.209
 2106SOL    HW1 7217   5.695   6.287   6.190
 2106SOL    HW2 7218   5.601   6.350   6.308
 2107SOL     OW 7219   2.713   5.368   0.514
 2107SOL    HW1 7220   2.792   5.399   0.568
 2107SOL    HW2 7221   2.694   5.272   0.534
 2108SOL     OW 7222   5.515   4.647   6.476
 2108SOL    HW1 7223   5.428   4.598   6.484
 2108SOL    HW2 7224   5.566   4.611   6.398
 2109SOL     OW 7225   5.078   5.533   2.797
 2109SOL    HW1 7226   5.016   5.612   2.798
 2109SOL    HW2 7227   5.123   5.527   2.708
 2110SOL     OW 7228   1.141   5.032   5.445
 2110SOL    HW1 7229   1.208   4.991   5.507
 2110SOL    HW2 7230   1.060   4.973   5.441
 2111SOL     OW 7231   1.858   2.068   6.694
 2111SOL    HW1 7232   1.873   2.092   6.598
 2111SOL    HW2 7233   1.911   1.986   6.716
 2112SOL     OW 7234   5.062   3.902   0.421
 2112SOL    HW1 7235   4.971   3.882   0.383
 2112SOL    HW2 7236   5.072   3.855   0.508
 2113SOL     OW 7237   6.940   1.303   3.517
 2113SOL    HW1 7238   6.980   1.239   3.452
 2113SOL    HW2 7239   6.994   1.387   3.519
 2114SOL     OW 7240   1.507   2.979   6.924
 2114SOL    HW1 7241   1.560   2.901   6.893
 2114SOL    HW2 7242   1.440   3.004   6.855
 2115SOL     OW 7243   4.188   5.271   1.976
 2115SOL    HW1 7244   4.089   5.277   1.964
 2115SOL    HW2 7245   4.213   5.302   2.067
 2116SOL     OW 7246   0.546   4.002   4.123
 2116SOL    HW1 7247   0.488   4.016   4.043
 2116SOL    HW2 7248   0.549   4.086   4.177
 2117SOL     OW 7249   6.330   5.807   5.628
 2117SOL    HW1 7250   6.302   5.899   5.600
 2117SOL    HW2 7251   6.412   5.780   5.577
 2118SOL     OW 7252   0.004   2.904   2.229
 2118SOL    HW1 7253   0.072   2.861   2.288
 2118SOL    HW2 7254   6.931   2.877   2.259
 2119SOL     OW 7255   4.065   6.545   0.139
 2119SOL    HW1 7256   4.104   6.533   0.230
 2119SOL    HW2 7257   4.061   6.643   0.116
 2120SOL     OW 7258   6.534   3.749   2.259
 2120SOL    HW1 7259   6.620   3.716   2.221
 2120SOL    HW2 7260   6.528   3.848   2.247
 2121SOL     OW 7261   0.690   3.906   5.222
 2121SOL    HW1 7262   0.627   3.970   5.268
 2121SOL    HW2 7263   0.702   3.825   5.279
 2122SOL     OW 7264   3.624   4.886   5.236
 2122SOL    HW1 7265   3.702   4.831   5.267
 2122SOL    HW2 7266   3.553   4.886   5.306
 2123SOL     OW 7267   3.884   5.770   3.282
 2123SOL    HW1 7268   3.952   5.745   3.213
 2123SOL    HW2 7269   3.929   5.779   3.371
 2124SOL     OW 7270   2.375   2.311   1.973
 2124SOL    HW1 7271   2.358   2.287   1.878
 2124SOL    HW2 7272   2.348   2.406   1.989
 2125SOL     OW 7273   4.844   5.909   0.151
 2125SOL    HW1 7274   4.923   5.855   0.180
 2125SOL    HW2 7275   4.792   5.938   0.231
 2126SOL     OW 7276   2.915   1.928   0.968
 2126SOL    HW1 7277   2.827   1.943   1.015
 2126SOL    HW2 7278   2.900   1.870   0.888
 2127SOL     OW 7279   5.088   2.631   4.260
 2127SOL    HW1 7280   5.147   2.712   4.263
 2127SOL    HW2 7281   5.143   2.549   4.277
 2128SOL     OW 7282   0.714   3.898   4.311
 2128SOL    HW1 7283   0.766   3.837   4.252
 2128SOL    HW2 7284   0.653   3.955   4.256
 2129SOL     OW 7285   4.543   2.257   5.037
 2129SOL    HW1 7286   4.561   2.355   5.048
 2129SOL    HW2 7287   4.546   2.234   4.939
 2130SOL     OW 7288   4.912   6.694   3.353
 2130SOL    HW1 7289   4.987   6.634   3.383
 2130SOL    HW2 7290   4.845   6.641   3.302
 2131SOL     OW 7291   5.032   1.718   6.839
 2131SOL    HW1 7292   5.101   1.758   6.899
 2131SOL    HW2 7293   5.060   1.731   6.743
 2132SOL     OW 7294   1.430   3.458   1.337
 2132SOL    HW1 7295   1.382   3.436   1.252
 2132SOL    HW2 7296   1.499   3.528   1.319
 2133SOL     OW 7297   2.265   3.918   6.518
 2133SOL    HW1 7298   2.268   4.001   6.462
 2133SOL    HW2 7299   2.269   3.943   6.615
 2134SOL     OW 7300   0.200   6.931   0.165
 2134SOL    HW1 7301   0.234   7.012   0.117
 2134SOL    HW2 7302   0.203   6.852   0.104
 2135SOL     OW 7303   6.438   5.345   5.489
 2135SOL    HW1 7304   6.530   5.313   5.512
 2135SOL    HW2 7305   6.372   5.272   5.504
 2136SOL     OW 7306   1.379   5.387   6.917
 2136SOL    HW1 7307   1.430   5.441   6.984
 2136SOL    HW2 7308   1.424   5.393   6.828
 2137SOL     OW 7309   1.509   6.662   3.516
 2137SOL    HW1 7310   1.545   6.619   3.433
 2137SOL    HW2 7311   1.445   6.734   3.491
 2138SOL     OW 7312   5.074   1.607   1.869
 2138SOL    HW1 7313   5.056   1.686   1.812
 2138SOL    HW2 7314   5.119   1.637   1.954
 2139SOL     OW 7315   2.631   6.108   5.642
 2139SOL    HW1 7316   2.575   6.027   5.622
 2139SOL    HW2 7317   2.666   6.146   5.556
 2140SOL     OW 7318   2.159   1.797   3.222
 2140SOL    HW1 7319   2.176   1.895   3.231
 2140SOL    HW2 7320   2.244   1.750   3.197
 2141SOL     OW 7321   6.987   3.379   2.778
 2141SOL    HW1 7322   0.013   3.461   2.811
 2141SOL    HW2 7323   6.952   3.326   2.856
 2142SOL     OW 7324   2.173   1.481   1.933
 2142SOL    HW1 7325   2.160   1.432   1.847
 2142SOL    HW2 7326   2.157   1.578   1.919
 2143SOL     OW 7327   6.634   5.653   5.827
 2143SOL    HW1 7328   6.656   5.745   5.858
 2143SOL    HW2 7329   6.609   5.655   5.730
 2144SOL     OW 7330   6.102   4.269   2.909
 2144SOL    HW1 7331   6.104   4.183   2.858
 2144SOL    HW2 7332   6.011   4.283   2.948
 2145SOL     OW 7333   3.297   1.555   3.490
 2145SOL    HW1 7334   3.377   1.560   3.550
 2145SOL    HW2 7335   3.277   1.646   3.454
 2146SOL     OW 7336   1.887   1.522   6.710
 2146SOL    HW1 7337   1.938   1.570   6.637
 2146SOL    HW2 7338   1.879   1.426   6.686
 2147SOL     OW 7339   6.151   6.966   5.339
 2147SOL    HW1 7340   6.249   6.975   5.318
 2147SOL    HW2 7341   6.135   6.986   5.435
 2148SOL     OW 7342   1.266   2.378   5.148
 2148SOL    HW1 7343   1.353   2.355   5.193
 2148SOL    HW2 7344   1.205   2.420   5.215
 2149SOL     OW 7345   0.570   6.764   0.018
 2149SOL    HW1 7346   0.493   6.752   6.975
 2149SOL    HW2 7347   0.603   6.858   0.012
 2150SOL     OW 7348   1.945   2.782   0.629
 2150SOL    HW1 7349   2.042   2.756   0.624
 2150SOL    HW2 7350   1.919   2.829   0.545
 2151SOL     OW 7351   0.981   5.151   6.427
 2151SOL    HW1 7352   1.071   5.163   6.384
 2151SOL    HW2 7353   0.961   5.231   6.483
 2152SOL     OW 7354   5.201   6.377   3.912
 2152SOL    HW1 7355   5.136   6.443   3.874
 2152SOL    HW2 7356   5.260   6.424   3.978
 2153SOL     OW 7357   4.852   6.987   4.002
 2153SOL    HW1 7358   4.909   0.029   4.057
 2153SOL    HW2 7359   4.804   0.022   3.933
 2154SOL     OW 7360   2.705   6.686   2.538
 2154SOL    HW1 7361   2.766   6.764   2.548
 2154SOL    HW2 7362   2.611   6.718   2.526
 2155SOL     OW 7363   5.261   0.500   0.674
 2155SOL    HW1 7364   5.248   0.423   0.736
 2155SOL    HW2 7365   5.191   0.569   0.691
 2156SOL     OW 7366   6.211   1.694   4.447
 2156SOL    HW1 7367   6.260   1.663   4.529
 2156SOL    HW2 7368   6.146   1.766   4.472
 2157SOL     OW 7369   4.539   6.476   3.804
 2157SOL    HW1 7370   4.619   6.436   3.848
 2157SOL    HW2 7371   4.548   6.468   3.704
 2158SOL     OW 7372   2.845   6.789   0.765
 2158SOL    HW1 7373   2.823   6.694   0.786
 2158SOL    HW2 7374   2.911   6.824   0.832
 2159SOL     OW 7375   0.162   1.690   5.563
 2159SOL    HW1 7376   0.111   1.692   5.477
 2159SOL    HW2 7377   0.260   1.699   5.545
 2160SOL     OW 7378   5.312   6.754   6.736
 2160SOL    HW1 7379   5.277   6.755   6.642
 2160SOL    HW2 7380   5.379   6.828   6.747
 2161SOL     OW 7381   1.408   3.765   0.962
 2161SOL    HW1 7382   1.507   3.755   0.973
 2161SOL    HW2 7383   1.387   3.797   0.870
 2162SOL     OW 7384   1.819   6.983   0.145
 2162SOL    HW1 7385   1.838   0.010   0.231
 2162SOL    HW2 7386   1.728   7.007   0.113
 2163SOL     OW 7387   0.832   2.959   4.523
 2163SOL    HW1 7388   0.850   3.043   4.574
 2163SOL    HW2 7389   0.913   2.900   4.528
 2164SOL     OW 7390   2.349   4.340   2.052
 2164SOL    HW1 7391   2.288   4.363   1.976
 2164SOL    HW2 7392   2.438   4.385   2.038
 2165SOL     OW 7393   6.321   1.772   5.547
 2165SOL    HW1 7394   6.262   1.778   5.466
 2165SOL    HW2 7395   6.415   1.796   5.521
 2166SOL     OW 7396   0.057   2.180   1.674
 2166SOL    HW1 7397   0.114   2.160   1.595
 2166SOL    HW2 7398   0.004   2.264   1.658
 2167SOL     OW 7399   1.399   2.347   2.576
 2167SOL    HW1 7400   1.348   2.406   2.514
 2167SOL    HW2 7401   1.434   2.402   2.652
 2168SOL     OW 7402   1.390   2.689   3.570
 2168SOL    HW1 7403   1.295   2.674   3.544
 2168SOL    HW2 7404   1.396   2.765   3.634
 2169SOL     OW 7405   6.834   6.847   0.933
 2169SOL    HW1 7406   6.827   6.870   1.030
 2169SOL    HW2 7407   6.747   6.808   0.902
 2170SOL     OW 7408   1.913   2.769   6.434
 2170SOL    HW1 7409   1.924   2.672   6.414
 2170SOL    HW2 7410   1.977   2.795   6.506
 2171SOL     OW 7411   6.776   6.336   1.221
 2171SOL    HW1 7412   6.812   6.428   1.209
 2171SOL    HW2 7413   6.736   6.328   1.313
 2172SOL     OW 7414   2.388   2.457   4.946
 2172SOL    HW1 7415   2.386   2.548   4.986
 2172SOL    HW2 7416   2.309   2.445   4.886
 2173SOL     OW 7417   4.441   0.498   4.979
 2173SOL    HW1 7418   4.515   0.448   5.024
 2173SOL    HW2 7419   4.476   0.547   4.900
 2174SOL     OW 7420   5.343   0.201   6.065
 2174SOL    HW1 7421   5.317   0.230   6.158
 2174SOL    HW2 7422   5.268   0.220   6.002
 2175SOL     OW 7423   3.541   2.864   5.550
 2175SOL    HW1 7424   3.503   2.879   5.459
 2175SOL    HW2 7425   3.599   2.942   5.575
 2176SOL     OW 7426   6.540   1.639   2.877
 2176SOL    HW1 7427   6.447   1.676   2.881
 2176SOL    HW2 7428   6.555   1.597   2.787
 2177SOL     OW 7429   0.523   1.314   5.393
 2177SOL    HW1 7430   0.574   1.310   5.479
 2177SOL    HW2 7431   0.446   1.251   5.397
 2178SOL     OW 7432   1.857   2.836   2.256
 2178SOL    HW1 7433   1.793   2.899   2.213
 2178SOL    HW2 7434   1.830   2.741   2.235
 2179SOL     OW 7435   1.895   4.093   6.707
 2179SOL    HW1 7436   1.831   4.162   6.673
 2179SOL    HW2 7437   1.882   4.007   6.659
 2180SOL     OW 7438   0.415   5.225   3.016
 2180SOL    HW1 7439   0.502   5.261   3.049
 2180SOL    HW2 7440   0.415   5.224   2.916
 2181SOL     OW 7441   4.395   4.602   3.793
 2181SOL    HW1 7442   4.414   4.634   3.885
 2181SOL    HW2 7443   4.336   4.669   3.746
 2182SOL     OW 7444   0.186   6.732   1.327
 2182SOL    HW1 7445   0.140   6.658   1.376
 2182SOL    HW2 7446   0.208   6.806   1.391
 2183SOL     OW 7447   3.736   3.221   6.850
 2183SOL    HW1 7448   3.835   3.218   6.844
 2183SOL    HW2 7449   3.709   3.275   6.931
 2184SOL     OW 7450   6.554   1.849   6.879
 2184SOL    HW1 7451   6.534   1.809   6.789
 2184SOL    HW2 7452   6.519   1.788   6.951
 2185SOL     OW 7453   0.765   0.658   6.290
 2185SOL    HW1 7454   0.780   0.657   6.389
 2185SOL    HW2 7455   0.695   0.726   6.267
 2186SOL     OW 7456   6.859   6.451   5.451
 2186SOL    HW1 7457   6.891   6.369   5.405
 2186SOL    HW2 7458   6.847   6.433   5.549
 2187SOL     OW 7459   6.002   4.258   1.925
 2187SOL    HW1 7460   5.991   4.159   1.927
 2187SOL    HW2 7461   5.919   4.300   1.887
 2188SOL     OW 7462   3.188   1.380   1.329
 2188SOL    HW1 7463   3.118   1.308   1.321
 2188SOL    HW2 7464   3.190   1.434   1.244
 2189SOL     OW 7465   2.188   0.753   2.523
 2189SOL    HW1 7466   2.229   0.836   2.560
 2189SOL    HW2 7467   2.158   0.770   2.429
 2190SOL     OW 7468   6.575   4.833   1.719
 2190SOL    HW1 7469   6.508   4.813   1.790
 2190SOL    HW2 7470   6.666   4.804   1.750
 2191SOL     OW 7471   3.334   6.908   6.615
 2191SOL    HW1 7472   3.318   6.994   6.664
 2191SOL    HW2 7473   3.334   6.832   6.679
 2192SOL     OW 7474   4.765   2.357   1.579
 2192SOL    HW1 7475   4.784   2.450   1.548
 2192SOL    HW2 7476   4.724   2.361   1.670
 2193SOL     OW 7477   1.658   0.641   5.449
 2193SOL    HW1 7478   1.757   0.627   5.450
 2193SOL    HW2 7479   1.638   0.738   5.430
 2194SOL     OW 7480   0.911   4.496   5.795
 2194SOL    HW1 7481   0.895   4.419   5.857
 2194SOL    HW2 7482   0.847   4.570   5.817
 2195SOL     OW 7483   0.198   4.352   5.792
 2195SOL    HW1 7484   0.117   4.382   5.844
 2195SOL    HW2 7485   0.198   4.252   5.786
 2196SOL     OW 7486   4.170   1.610   6.934
 2196SOL    HW1 7487   4.107   1.542   6.894
 2196SOL    HW2 7488   4.169   1.601   0.015
 2197SOL     OW 7489   4.155   5.295   6.744
 2197SOL    HW1 7490   4.105   5.276   6.829
 2197SOL    HW2 7491   4.136   5.223   6.677
 2198SOL     OW 7492   1.588   1.226   6.066
 2198SOL    HW1 7493   1.668   1.178   6.030
 2198SOL    HW2 7494   1.582   1.317   6.024
 2199SOL     OW 7495   4.078   6.783   3.911
 2199SOL    HW1 7496   4.168   6.746   3.887
 2199SOL    HW2 7497   4.043   6.838   3.835
 2200SOL     OW 7498   2.506   2.082   4.722
 2200SOL    HW1 7499   2.426   2.087   4.661
 2200SOL    HW2 7500   2.577   2.028   4.678
 2201SOL     OW 7501   6.102   3.400   4.956
 2201SOL    HW1 7502   6.091   3.309   4.998
 2201SOL    HW2 7503   6.014   3.432   4.922
 2202SOL     OW 7504   4.279   0.046   4.168
 2202SOL    HW1 7505   4.307   0.136   4.204
 2202SOL    HW2 7506   4.325   6.993   4.219
 2203SOL     OW 7507   2.230   6.263   1.338
 2203SOL    HW1 7508   2.315   6.314   1.345
 2203SOL    HW2 7509   2.157   6.323   1.306
 2204SOL     OW 7510   4.851   3.128   0.714
 2204SOL    HW1 7511   4.891   3.045   0.677
 2204SOL    HW2 7512   4.906   3.207   0.686
 2205SOL     OW 7513   4.690   5.779   1.103
 2205SOL    HW1 7514   4.683   5.766   1.004
 2205SOL    HW2 7515   4.723   5.695   1.145
 2206SOL     OW 7516   3.595   3.015   5.235
 2206SOL    HW1 7517   3.503   2.975   5.228
 2206SOL    HW2 7518   3.661   2.954   5.191
 2207SOL     OW 7519   4.615   4.950   1.609
 2207SOL    HW1 7520   4.656   4.864   1.639
 2207SOL    HW2 7521   4.585   4.941   1.514
 2208SOL     OW 7522   6.510   6.581   3.056
 2208SOL    HW1 7523   6.607   6.558   3.061
 2208SOL    HW2 7524   6.459   6.524   3.121
 2209SOL     OW 7525   2.360   5.516   3.805
 2209SOL    HW1 7526   2.449   5.487   3.842
 2209SOL    HW2 7527   2.347   5.476   3.715
 2210SOL     OW 7528   5.196   6.650   1.979
 2210SOL    HW1 7529   5.233   6.719   2.043
 2210SOL    HW2 7530   5.100   6.634   1.999
 2211SOL     OW 7531   1.533   0.613   1.623
 2211SOL    HW1 7532   1.436   0.636   1.618
 2211SOL    HW2 7533   1.586   0.698   1.628
 2212SOL     OW 7534   2.902   6.315   6.348
 2212SOL    HW1 7535   2.803   6.304   6.344
 2212SOL    HW2 7536   2.926   6.411   6.329
 2213SOL     OW 7537   3.046   1.315   4.694
 2213SOL    HW1 7538   3.072   1.375   4.770
 2213SOL    HW2 7539   3.067   1.360   4.607
 2214SOL     OW 7540   4.210   4.766   6.541
 2214SOL    HW1 7541   4.293   4.723   6.576
 2214SOL    HW2 7542   4.135   4.751   6.605
 2215SOL     OW 7543   6.092   5.508   6.207
 2215SOL    HW1 7544   6.098   5.510   6.108
 2215SOL    HW2 7545   6.183   5.519   6.247
 2216SOL     OW 7546   0.360   6.338   6.912
 2216SOL    HW1 7547   0.295   6.331   6.836
 2216SOL    HW2 7548   0.318   6.301   6.995
 2217SOL     OW 7549   3.937   1.363   3.329
 2217SOL    HW1 7550   3.869   1.290   3.341
 2217SOL    HW2 7551   3.915   1.438   3.391
 2218SOL     OW 7552   6.220   5.558   5.483
 2218SOL    HW1 7553   6.267   5.645   5.499
 2218SOL    HW2 7554   6.287   5.484   5.480
 2219SOL     OW 7555   5.483   2.152   0.367
 2219SOL    HW1 7556   5.424   2.133   0.445
 2219SOL    HW2 7557   5.469   2.246   0.336
 2220SOL     OW 7558   6.701   6.589   4.496
 2220SOL    HW1 7559   6.681   6.492   4.482
 2220SOL    HW2 7560   6.742   6.627   4.414
 2221SOL     OW 7561   5.060   0.304   3.783
 2221SOL    HW1 7562   5.096   0.224   3.736
 2221SOL    HW2 7563   4.963   0.314   3.763
 2222SOL     OW 7564   3.113   0.853   3.977
 2222SOL    HW1 7565   3.044   0.925   3.974
 2222SOL    HW2 7566   3.113   0.803   3.890
 2223SOL     OW 7567   0.826   0.069   5.352
 2223SOL    HW1 7568   0.783   0.006   5.416
 2223SOL    HW2 7569   0.859   0.150   5.401
 2224SOL     OW 7570   5.419   4.331   6.665
 2224SOL    HW1 7571   5.409   4.380   6.751
 2224SOL    HW2 7572   5.390   4.390   6.589
 2225SOL     OW 7573   6.378   0.313   0.566
 2225SOL    HW1 7574   6.425   0.283   0.483
 2225SOL    HW2 7575   6.304   0.376   0.543
 2226SOL     OW 7576   2.798   3.355   0.041
 2226SOL    HW1 7577   2.836   3.298   0.114
 2226SOL    HW2 7578   2.847   3.337   6.975
 2227SOL     OW 7579   4.427   1.518   1.595
 2227SOL    HW1 7580   4.411   1.429   1.554
 2227SOL    HW2 7581   4.431   1.588   1.523
 2228SOL     OW 7582   4.905   6.215   6.412
 2228SOL    HW1 7583   4.997   6.181   6.389
 2228SOL    HW2 7584   4.863   6.254   6.330
 2229SOL     OW 7585   2.995   3.171   4.308
 2229SOL    HW1 7586   3.004   3.126   4.219
 2229SOL    HW2 7587   2.952   3.261   4.295
 2230SOL     OW 7588   6.839   1.037   6.200
 2230SOL    HW1 7589   6.866   1.094   6.278
 2230SOL    HW2 7590   6.863   1.084   6.115
 2231SOL     OW 7591   1.170   0.026   6.201
 2231SOL    HW1 7592   1.135   6.976   6.138
 2231SOL    HW2 7593   1.235   0.085   6.152
 2232SOL     OW 7594   1.596   0.855   6.528
 2232SOL    HW1 7595   1.531   0.857   6.604
 2232SOL    HW2 7596   1.604   0.946   6.488
 2233SOL     OW 7597   2.783   6.063   1.323
 2233SOL    HW1 7598   2.687   6.088   1.318
 2233SOL    HW2 7599   2.810   6.054   1.419
 2234SOL     OW 7600   5.253   1.833   1.607
 2234SOL    HW1 7601   5.253   1.887   1.523
 2234SOL    HW2 7602   5.315   1.874   1.673
 2235SOL     OW 7603   0.983   2.523   3.377
 2235SOL    HW1 7604   1.028   2.435   3.362
 2235SOL    HW2 7605   0.961   2.565   3.289
 2236SOL     OW 7606   2.571   4.609   5.098
 2236SOL    HW1 7607   2.562   4.583   5.194
 2236SOL    HW2 7608   2.668   4.626   5.077
 2237SOL     OW 7609   6.089   6.701   6.195
 2237SOL    HW1 7610   6.158   6.761   6.156
 2237SOL    HW2 7611   6.025   6.754   6.250
 2238SOL     OW 7612   5.517   3.942   2.106
 2238SOL    HW1 7613   5.441   3.922   2.044
 2238SOL    HW2 7614   5.511   4.036   2.138
 2239SOL     OW 7615   3.709   0.254   3.196
 2239SOL    HW1 7616   3.727   0.246   3.098
 2239SOL    HW2 7617   3.768   0.324   3.235
 2240SOL     OW 7618   4.890   5.360   2.521
 2240SOL    HW1 7619   4.823   5.402   2.460
 2240SOL    HW2 7620   4.898   5.263   2.501
 2241SOL     OW 7621   0.992   1.999   3.085
 2241SOL    HW1 7622   1.037   2.084   3.111
 2241SOL    HW2 7623   0.925   1.974   3.154
 2242SOL     OW 7624   5.228   2.088   3.938
 2242SOL    HW1 7625   5.287   2.108   3.860
 2242SOL    HW2 7626   5.220   2.169   3.995
 2243SOL     OW 7627   2.573   0.632   0.243
 2243SOL    HW1 7628   2.584   0.535   0.222
 2243SOL    HW2 7629   2.548   0.681   0.160
 2244SOL     OW 7630   2.292   1.608   1.210
 2244SOL    HW1 7631   2.390   1.604   1.229
 2244SOL    HW2 7632   2.255   1.695   1.241
 2245SOL     OW 7633   0.025   0.975   0.393
 2245SOL    HW1 7634   6.969   1.039   0.406
 2245SOL    HW2 7635   0.101   1.000   0.452
 2246SOL     OW 7636   5.490   0.893   5.637
 2246SOL    HW1 7637   5.456   0.947   5.561
 2246SOL    HW2 7638   5.590   0.898   5.640
 2247SOL     OW 7639   3.684   3.494   1.823
 2247SOL    HW1 7640   3.735   3.484   1.909
 2247SOL    HW2 7641   3.613   3.563   1.834
 2248SOL     OW 7642   5.571   3.260   4.788
 2248SOL    HW1 7643   5.663   3.232   4.760
 2248SOL    HW2 7644   5.570   3.273   4.887
 2249SOL     OW 7645   2.259   5.918   3.466
 2249SOL    HW1 7646   2.228   6.012   3.485
 2249SOL    HW2 7647   2.229   5.858   3.540
 2250SOL     OW 7648   4.425   5.955   6.069
 2250SOL    HW1 7649   4.398   5.927   5.977
 2250SOL    HW2 7650   4.500   6.020   6.064
 2251SOL     OW 7651   3.777   6.738   4.865
 2251SOL    HW1 7652   3.699   6.680   4.842
 2251SOL    HW2 7653   3.789   6.807   4.794
 2252SOL     OW 7654   3.655   1.192   2.627
 2252SOL    HW1 7655   3.609   1.123   2.683
 2252SOL    HW2 7656   3.736   1.151   2.585
 2253SOL     OW 7657   1.505   2.813   1.577
 2253SOL    HW1 7658   1.460   2.755   1.646
 2253SOL    HW2 7659   1.437   2.843   1.509
 2254SOL     OW 7660   3.197   2.973   2.983
 2254SOL    HW1 7661   3.162   2.987   3.076
 2254SOL    HW2 7662   3.142   3.025   2.918
 2255SOL     OW 7663   1.415   2.291   6.377
 2255SOL    HW1 7664   1.339   2.268   6.438
 2255SOL    HW2 7665   1.384   2.358   6.309
 2256SOL     OW 7666   5.000   0.353   1.047
 2256SOL    HW1 7667   4.917   0.342   1.101
 2256SOL    HW2 7668   4.976   0.364   0.950
 2257SOL     OW 7669   0.179   0.587   6.452
 2257SOL    HW1 7670   0.220   0.595   6.543
 2257SOL    HW2 7671   0.108   0.517   6.454
 2258SOL     OW 7672   2.615   0.218   3.333
 2258SOL    HW1 7673   2.599   0.125   3.364
 2258SOL    HW2 7674   2.614   0.280   3.411
 2259SOL     OW 7675   6.065   0.408   5.616
 2259SOL    HW1 7676   6.127   0.360   5.679
 2259SOL    HW2 7677   6.077   0.506   5.626
 2260SOL     OW 7678   1.249   3.742   1.241
 2260SOL    HW1 7679   1.328   3.738   1.179
 2260SOL    HW2 7680   1.231   3.651   1.278
 2261SOL     OW 7681   4.829   4.440   6.645
 2261SOL    HW1 7682   4.892   4.506   6.685
 2261SOL    HW2 7683   4.759   4.487   6.592
 2262SOL     OW 7684   6.654   0.118   3.866
 2262SOL    HW1 7685   6.604   0.037   3.837
 2262SOL    HW2 7686   6.621   0.147   3.956
 2263SOL     OW 7687   2.302   4.369   6.680
 2263SOL    HW1 7688   2.239   4.297   6.708
 2263SOL    HW2 7689   2.381   4.329   6.634
 2264SOL     OW 7690   1.878   0.277   6.759
 2264SOL    HW1 7691   1.818   0.349   6.723
 2264SOL    HW2 7692   1.950   0.257   6.693
 2265SOL     OW 7693   0.511   6.266   3.487
 2265SOL    HW1 7694   0.495   6.324   3.567
 2265SOL    HW2 7695   0.609   6.250   3.477
 2266SOL     OW 7696   4.871   3.932   6.626
 2266SOL    HW1 7697   4.875   3.855   6.690
 2266SOL    HW2 7698   4.830   3.900   6.540
 2267SOL     OW 7699   5.534   2.980   4.719
 2267SOL    HW1 7700   5.547   3.076   4.744
 2267SOL    HW2 7701   5.604   2.953   4.653
 2268SOL     OW 7702   0.848   6.111   4.701
 2268SOL    HW1 7703   0.773   6.170   4.733
 2268SOL    HW2 7704   0.823   6.016   4.716
 2269SOL     OW 7705   1.862   2.346   5.406
 2269SOL    HW1 7706   1.938   2.411   5.406
 2269SOL    HW2 7707   1.854   2.304   5.497
 2270SOL     OW 7708   4.604   1.726   6.349
 2270SOL    HW1 7709   4.613   1.825   6.344
 2270SOL    HW2 7710   4.619   1.685   6.259
 2271SOL     OW 7711   3.848   5.838   5.354
 2271SOL    HW1 7712   3.775   5.770   5.351
 2271SOL    HW2 7713   3.914   5.813   5.425
 2272SOL     OW 7714   5.845   0.633   6.438
 2272SOL    HW1 7715   5.861   0.538   6.410
 2272SOL    HW2 7716   5.845   0.638   6.538
 2273SOL     OW 7717   1.206   2.117   4.178
 2273SOL    HW1 7718   1.234   2.080   4.090
 2273SOL    HW2 7719   1.271   2.186   4.208
 2274SOL     OW 7720   1.264   1.476   0.133
 2274SOL    HW1 7721   1.315   1.490   0.048
 2274SOL    HW2 7722   1.182   1.421   0.114
 2275SOL     OW 7723   5.696   3.367   3.120
 2275SOL    HW1 7724   5.710   3.268   3.117
 2275SOL    HW2 7725   5.598   3.387   3.120
 2276SOL     OW 7726   1.891   1.997   1.450
 2276SOL    HW1 7727   1.934   2.002   1.540
 2276SOL    HW2 7728   1.880   1.901   1.424
 2277SOL     OW 7729   3.804   3.012   3.302
 2277SOL    HW1 7730   3.851   3.099   3.285
 2277SOL    HW2 7731   3.802   2.958   3.218
 2278SOL     OW 7732   6.602   3.413   3.874
 2278SOL    HW1 7733   6.686   3.465   3.887
 2278SOL    HW2 7734   6.600   3.336   3.938
 2279SOL     OW 7735   0.667   5.245   5.701
 2279SOL    HW1 7736   0.738   5.303   5.663
 2279SOL    HW2 7737   0.688   5.225   5.797
 2280SOL     OW 7738   4.827   2.629   5.863
 2280SOL    HW1 7739   4.882   2.712   5.860
 2280SOL    HW2 7740   4.795   2.607   5.770
 2281SOL     OW 7741   5.014   6.691   2.253
 2281SOL    HW1 7742   4.966   6.677   2.167
 2281SOL    HW2 7743   4.954   6.665   2.329
 2282SOL     OW 7744   3.320   5.174   5.987
 2282SOL    HW1 7745   3.271   5.103   6.037
 2282SOL    HW2 7746   3.265   5.205   5.910
 2283SOL     OW 7747   0.094   1.050   5.241
 2283SOL    HW1 7748   0.160   1.123   5.254
 2283SOL    HW2 7749   0.003   1.082   5.267
 2284SOL     OW 7750   1.567   3.741   6.299
 2284SOL    HW1 7751   1.635   3.675   6.267
 2284SOL    HW2 7752   1.547   3.725   6.396
 2285SOL     OW 7753   1.429   5.131   6.490
 2285SOL    HW1 7754   1.519   5.090   6.473
 2285SOL    HW2 7755   1.381   5.079   6.560
 2286SOL     OW 7756   4.704   4.235   2.545
 2286SOL    HW1 7757   4.737   4.319   2.501
 2286SOL    HW2 7758   4.754   4.157   2.509
 2287SOL     OW 7759   1.618   1.268   4.188
 2287SOL    HW1 7760   1.567   1.194   4.145
 2287SOL    HW2 7761   1.678   1.310   4.120
 2288SOL     OW 7762   6.278   5.177   3.196
 2288SOL    HW1 7763   6.331   5.110   3.143
 2288SOL    HW2 7764   6.306   5.173   3.292
 2289SOL     OW 7765   0.245   5.120   0.172
 2289SOL    HW1 7766   0.159   5.157   0.135
 2289SOL    HW2 7767   0.315   5.121   0.101
 2290SOL     OW 7768   0.910   5.507   6.756
 2290SOL    HW1 7769   0.924   5.470   6.664
 2290SOL    HW2 7770   0.992   5.492   6.811
 2291SOL     OW 7771   1.932   1.700   6.931
 2291SOL    HW1 7772   1.839   1.735   6.925
 2291SOL    HW2 7773   1.950   1.638   6.855
 2292SOL     OW 7774   2.166   0.812   4.404
 2292SOL    HW1 7775   2.149   0.900   4.448
 2292SOL    HW2 7776   2.080   0.762   4.395
 2293SOL     OW 7777   5.150   4.188   3.071
 2293SOL    HW1 7778   5.163   4.110   3.133
 2293SOL    HW2 7779   5.102   4.261   3.120
 2294SOL     OW 7780   3.589   6.791   6.753
 2294SOL    HW1 7781   3.569   6.730   6.675
 2294SOL    HW2 7782   3.679   6.769   6.790
 2295SOL     OW 7783   1.073   0.758   2.220
 2295SOL    HW1 7784   0.988   0.790   2.179
 2295SOL    HW2 7785   1.062   0.755   2.320
 2296SOL     OW 7786   3.017   6.336   0.349
 2296SOL    HW1 7787   2.953   6.332   0.273
 2296SOL    HW2 7788   3.079   6.413   0.336
 2297SOL     OW 7789   4.125   6.361   6.698
 2297SOL    HW1 7790   4.152   6.397   6.787
 2297SOL    HW2 7791   4.165   6.418   6.626
 2298SOL     OW 7792   4.301   3.164   6.917
 2298SOL    HW1 7793   4.329   3.095   6.850
 2298SOL    HW2 7794   4.278   3.119   7.003
 2299SOL     OW 7795   4.591   6.984   1.008
 2299SOL    HW1 7796   4.622   6.890   0.990
 2299SOL    HW2 7797   4.540   7.018   0.930
 2300SOL     OW 7798   0.939   5.430   1.096
 2300SOL    HW1 7799   0.933   5.337   1.131
 2300SOL    HW2 7800   0.980   5.429   1.005
 2301SOL     OW 7801   3.618   3.242   1.739
 2301SOL    HW1 7802   3.676   3.171   1.779
 2301SOL    HW2 7803   3.653   3.332   1.765
 2302SOL     OW 7804   2.707   5.262   2.766
 2302SOL    HW1 7805   2.724   5.178   2.714
 2302SOL    HW2 7806   2.790   5.287   2.816
 2303SOL     OW 7807   0.227   3.415   6.281
 2303SOL    HW1 7808   0.295   3.396   6.352
 2303SOL    HW2 7809   0.205   3.512   6.280
 2304SOL     OW 7810   1.807   1.345   4.584
 2304SOL    HW1 7811   1.759   1.384   4.504
 2304SOL    HW2 7812   1.812   1.246   4.574
 2305SOL     OW 7813   4.131   4.841   1.720
 2305SOL    HW1 7814   4.035   4.861   1.702
 2305SOL    HW2 7815   4.187   4.871   1.643
 2306SOL     OW 7816   0.352   4.425   0.298
 2306SOL    HW1 7817   0.354   4.509   0.244
 2306SOL    HW2 7818   0.280   4.365   0.265
 2307SOL     OW 7819   0.185   0.896   3.201
 2307SOL    HW1 7820   0.135   0.814   3.174
 2307SOL    HW2 7821   0.269   0.870   3.248
 2308SOL     OW 7822   1.250   0.058   0.250
 2308SOL    HW1 7823   1.317   7.019   0.206
 2308SOL    HW2 7824   1.269   0.064   0.348
 2309SOL     OW 7825   2.229   4.724   6.389
 2309SOL    HW1 7826   2.184   4.741   6.476
 2309SOL    HW2 7827   2.188   4.781   6.318
 2310SOL     OW 7828   5.610   1.600   3.214
 2310SOL    HW1 7829   5.645   1.537   3.145
 2310SOL    HW2 7830   5.605   1.554   3.303
 2311SOL     OW 7831   2.573   0.072   2.760
 2311SOL    HW1 7832   2.671   0.075   2.780
 2311SOL    HW2 7833   2.559   0.085   2.662
 2312SOL     OW 7834   2.372   1.163   2.639
 2312SOL    HW1 7835   2.428   1.230   2.590
 2312SOL    HW2 7836   2.425   1.125   2.715
 2313SOL     OW 7837   5.062   4.495   1.844
 2313SOL    HW1 7838   5.077   4.441   1.762
 2313SOL    HW2 7839   5.084   4.591   1.826
 2314SOL     OW 7840   6.338   5.700   3.085
 2314SOL    HW1 7841   6.266   5.679   3.019
 2314SOL    HW2 7842   6.370   5.615   3.128
 2315SOL     OW 7843   4.913   6.417   5.193
 2315SOL    HW1 7844   4.848   6.358   5.145
 2315SOL    HW2 7845   4.984   6.360   5.235
 2316SOL     OW 7846   3.544   1.610   5.950
 2316SOL    HW1 7847   3.457   1.635   5.994
 2316SOL    HW2 7848   3.619   1.628   6.014
 2317SOL     OW 7849   6.896   4.899   2.501
 2317SOL    HW1 7850   6.996   4.888   2.499
 2317SOL    HW2 7851   6.861   4.869   2.590
 2318SOL     OW 7852   1.286   4.611   3.977
 2318SOL    HW1 7853   1.375   4.654   3.990
 2318SOL    HW2 7854   1.297   4.528   3.921
 2319SOL     OW 7855   2.455   5.711   2.935
 2319SOL    HW1 7856   2.504   5.647   2.994
 2319SOL    HW2 7857   2.420   5.786   2.991
 2320SOL     OW 7858   0.919   1.938   5.443
 2320SOL    HW1 7859   0.911   1.995   5.524
 2320SOL    HW2 7860   0.877   1.984   5.365
 2321SOL     OW 7861   2.005   5.075   5.134
 2321SOL    HW1 7862   2.059   5.131   5.196
 2321SOL    HW2 7863   1.908   5.089   5.154
 2322SOL     OW 7864   1.916   4.053   1.841
 2322SOL    HW1 7865   1.834   4.057   1.898
 2322SOL    HW2 7866   1.996   4.033   1.899
 2323SOL     OW 7867   2.737   5.952   0.589
 2323SOL    HW1 7868   2.664   5.886   0.606
 2323SOL    HW2 7869   2.802   5.913   0.523
 2324SOL     OW 7870   6.508   5.169   2.555
 2324SOL    HW1 7871   6.496   5.072   2.532
 2324SOL    HW2 7872   6.600   5.198   2.529
 2325SOL     OW 7873   6.634   4.382   2.883
 2325SOL    HW1 7874   6.537   4.360   2.879
 2325SOL    HW2 7875   6.655   4.455   2.818
 2326SOL     OW 7876   2.007   0.345   6.995
 2326SOL    HW1 7877   1.975   0.440   6.999
 2326SOL    HW2 7878   1.965   0.299   6.916
 2327SOL     OW 7879   6.406   6.331   2.099
 2327SOL    HW1 7880   6.500   6.330   2.132
 2327SOL    HW2 7881   6.404   6.300   2.004
 2328SOL     OW 7882   2.145   3.901   2.427
 2328SOL    HW1 7883   2.240   3.871   2.425
 2328SOL    HW2 7884   2.087   3.831   2.386
 2329SOL     OW 7885   0.598   4.723   2.721
 2329SOL    HW1 7886   0.614   4.630   2.755
 2329SOL    HW2 7887   0.600   4.722   2.621
 2330SOL     OW 7888   6.179   2.875   1.381
 2330SOL    HW1 7889   6.248   2.890   1.451
 2330SOL    HW2 7890   6.105   2.819   1.419
 2331SOL     OW 7891   4.925   5.906   1.201
 2331SOL    HW1 7892   4.833   5.866   1.199
 2331SOL    HW2 7893   4.928   5.985   1.139
 2332SOL     OW 7894   6.284   6.875   6.050
 2332SOL    HW1 7895   6.280   6.929   6.134
 2332SOL    HW2 7896   6.363   6.903   5.996
 2333SOL     OW 7897   1.445   4.632   2.837
 2333SOL    HW1 7898   1.426   4.649   2.740
 2333SOL    HW2 7899   1.543   4.617   2.850
 2334SOL     OW 7900   3.348   1.299   6.340
 2334SOL    HW1 7901   3.439   1.311   6.300
 2334SOL    HW2 7902   3.287   1.371   6.308
 2335SOL     OW 7903   6.956   1.314   3.785
 2335SOL    HW1 7904   6.923   1.317   3.690
 2335SOL    HW2 7905   6.894   1.257   3.839
 2336SOL     OW 7906   1.807   1.900   3.581
 2336SOL    HW1 7907   1.753   1.983   3.590
 2336SOL    HW2 7908   1.746   1.821   3.578
 2337SOL     OW 7909   3.930   0.943   1.764
 2337SOL    HW1 7910   3.884   1.031   1.770
 2337SOL    HW2 7911   3.995   0.944   1.688
 2338SOL     OW 7912   6.746   3.830   3.780
 2338SOL    HW1 7913   6.769   3.835   3.877
 2338SOL    HW2 7914   6.830   3.821   3.726
 2339SOL     OW 7915   3.450   2.863   2.887
 2339SOL    HW1 7916   3.443   2.764   2.894
 2339SOL    HW2 7917   3.365   2.905   2.917
 2340SOL     OW 7918   2.566   3.871   6.895
 2340SOL    HW1 7919   2.665   3.863   6.907
 2340SOL    HW2 7920   2.534   3.957   6.935
 2341SOL     OW 7921   2.803   4.766   4.251
 2341SOL    HW1 7922   2.747   4.699   4.299
 2341SOL    HW2 7923   2.798   4.749   4.153
 2342SOL     OW 7924   3.716   0.968   4.397
 2342SOL    HW1 7925   3.649   0.931   4.333
 2342SOL    HW2 7926   3.668   1.010   4.474
 2343SOL     OW 7927   0.084   0.298   1.132
 2343SOL    HW1 7928   0.173   0.264   1.162
 2343SOL    HW2 7929   0.013   0.264   1.193
 2344SOL     OW 7930   5.982   4.470   0.207
 2344SOL    HW1 7931   5.900   4.436   0.162
 2344SOL    HW2 7932   6.003   4.413   0.287
 2345SOL     OW 7933   3.560   6.327   4.654
 2345SOL    HW1 7934   3.493   6.302   4.724
 2345SOL    HW2 7935   3.641   6.269   4.663
 2346SOL     OW 7936   5.023   3.537   0.458
 2346SOL    HW1 7937   4.930   3.511   0.430
 2346SOL    HW2 7938   5.073   3.571   0.378
 2347SOL     OW 7939   1.542   1.092   1.671
 2347SOL    HW1 7940   1.606   1.169   1.675
 2347SOL    HW2 7941   1.592   1.008   1.651
 2348SOL     OW 7942   0.240   5.468   2.493
 2348SOL    HW1 7943   0.204   5.511   2.577
 2348SOL    HW2 7944   0.321   5.517   2.463
 2349SOL     OW 7945   1.012   4.374   5.206
 2349SOL    HW1 7946   1.030   4.470   5.229
 2349SOL    HW2 7947   1.028   4.317   5.286
 2350SOL     OW 7948   5.334   3.800   0.107
 2350SOL    HW1 7949   5.292   3.884   0.072
 2350SOL    HW2 7950   5.424   3.820   0.144
 2351SOL     OW 7951   2.610   5.997   1.696
 2351SOL    HW1 7952   2.622   5.999   1.795
 2351SOL    HW2 7953   2.581   5.906   1.668
 2352SOL     OW 7954   6.700   2.423   3.303
 2352SOL    HW1 7955   6.718   2.338   3.252
 2352SOL    HW2 7956   6.601   2.432   3.318
 2353SOL     OW 7957   3.032   5.589   4.131
 2353SOL    HW1 7958   3.051   5.491   4.126
 2353SOL    HW2 7959   2.979   5.617   4.050
 2354SOL     OW 7960   2.357   2.516   3.913
 2354SOL    HW1 7961   2.451   2.494   3.886
 2354SOL    HW2 7962   2.340   2.614   3.899
 2355SOL     OW 7963   2.526   5.704   4.381
 2355SOL    HW1 7964   2.528   5.613   4.424
 2355SOL    HW2 7965   2.619   5.737   4.370
 2356SOL     OW 7966   0.072   2.490   6.770
 2356SOL    HW1 7967   0.001   2.555   6.743
 2356SOL    HW2 7968   0.154   2.540   6.797
 2357SOL     OW 7969   2.241   6.805   2.817
 2357SOL    HW1 7970   2.297   6.793   2.734
 2357SOL    HW2 7971   2.256   6.896   2.854
 2358SOL     OW 7972   4.199   5.339   5.908
 2358SOL    HW1 7973   4.265   5.372   5.975
 2358SOL    HW2 7974   4.108   5.338   5.949
 2359SOL     OW 7975   1.716   0.596   4.994
 2359SOL    HW1 7976   1.651   0.651   5.046
 2359SOL    HW2 7977   1.667   0.532   4.935
 2360SOL     OW 7978   6.766   3.987   7.016
 2360SOL    HW1 7979   6.825   4.025   0.068
 2360SOL    HW2 7980   6.796   3.894   6.994
 2361SOL     OW 7981   3.826   1.243   0.444
 2361SOL    HW1 7982   3.728   1.225   0.429
 2361SOL    HW2 7983   3.839   1.281   0.535
 2362SOL     OW 7984   2.786   5.825   3.217
 2362SOL    HW1 7985   2.754   5.761   3.288
 2362SOL    HW2 7986   2.739   5.912   3.228
 2363SOL     OW 7987   4.067   0.855   3.797
 2363SOL    HW1 7988   4.055   0.839   3.895
 2363SOL    HW2 7989   3.978   0.850   3.751
 2364SOL     OW 7990   1.354   2.874   1.375
 2364SOL    HW1 7991   1.374   2.822   1.292
 2364SOL    HW2 7992   1.354   2.972   1.353
 2365SOL     OW 7993   4.898   1.818   0.407
 2365SOL    HW1 7994   4.965   1.890   0.390
 2365SOL    HW2 7995   4.857   1.831   0.497
 2366SOL     OW 7996   4.442   5.353   0.952
 2366SOL    HW1 7997   4.421   5.384   1.045
 2366SOL    HW2 7998   4.401   5.416   0.886
 2367SOL     OW 7999   2.193   3.284   6.058
 2367SOL    HW1 8000   2.262   3.296   5.987
 2367SOL    HW2 8001   2.102   3.295   6.017
 2368SOL     OW 8002   5.870   6.281   1.878
 2368SOL    HW1 8003   5.899   6.267   1.783
 2368SOL    HW2 8004   5.923   6.221   1.938
 2369SOL     OW 8005   2.481   1.618   3.137
 2369SOL    HW1 8006   2.480   1.718   3.142
 2369SOL    HW2 8007   2.516   1.581   3.223
 2370SOL     OW 8008   5.567   2.796   6.000
 2370SOL    HW1 8009   5.542   2.788   5.903
 2370SOL    HW2 8010   5.584   2.705   6.037
 2371SOL     OW 8011   2.035   6.219   1.719
 2371SOL    HW1 8012   1.965   6.152   1.698
 2371SOL    HW2 8013   2.117   6.201   1.665
 2372SOL     OW 8014   6.158   2.923   2.779
 2372SOL    HW1 8015   6.126   2.900   2.871
 2372SOL    HW2 8016   6.251   2.959   2.784
 2373SOL     OW 8017   2.379   3.634   6.470
 2373SOL    HW1 8018   2.443   3.630   6.393
 2373SOL    HW2 8019   2.348   3.729   6.482
 2374SOL     OW 8020   5.653   2.228   4.672
 2374SOL    HW1 8021   5.685   2.264   4.760
 2374SOL    HW2 8022   5.683   2.287   4.598
 2375SOL     OW 8023   1.595   6.906   5.863
 2375SOL    HW1 8024   1.559   6.863   5.780
 2375SOL    HW2 8025   1.585   7.006   5.856
 2376SOL     OW 8026   6.958   2.536   4.246
 2376SOL    HW1 8027   6.937   2.634   4.249
 2376SOL    HW2 8028   0.009   2.514   4.314
 2377SOL     OW 8029   3.371   2.888   3.767
 2377SOL    HW1 8030   3.336   2.862   3.676
 2377SOL    HW2 8031   3.469   2.906   3.761
 2378SOL     OW 8032   5.434   2.242   0.739
 2378SOL    HW1 8033   5.364   2.251   0.810
 2378SOL    HW2 8034   5.520   2.212   0.781
 2379SOL     OW 8035   6.905   6.924   6.329
 2379SOL    HW1 8036   6.808   6.902   6.340
 2379SOL    HW2 8037   6.957   6.878   6.401
 2380SOL     OW 8038   6.196   2.187   2.646
 2380SOL    HW1 8039   6.159   2.226   2.731
 2380SOL    HW2 8040   6.295   2.195   2.647
 2381SOL     OW 8041   1.986   6.141   2.627
 2381SOL    HW1 8042   1.912   6.085   2.663
 2381SOL    HW2 8043   2.070   6.120   2.676
 2382SOL     OW 8044   1.601   3.036   5.699
 2382SOL    HW1 8045   1.518   3.029   5.644
 2382SOL    HW2 8046   1.583   3.094   5.779
 2383SOL     OW 8047   5.787   5.681   2.162
 2383SOL    HW1 8048   5.837   5.639   2.238
 2383SOL    HW2 8049   5.729   5.755   2.196
 2384SOL     OW 8050   4.095   0.996   1.559
 2384SOL    HW1 8051   4.126   0.912   1.515
 2384SOL    HW2 8052   4.072   1.064   1.489
 2385SOL     OW 8053   1.513   2.372   6.869
 2385SOL    HW1 8054   1.566   2.446   6.910
 2385SOL    HW2 8055   1.569   2.288   6.867
 2386SOL     OW 8056   4.492   5.003   4.039
 2386SOL    HW1 8057   4.401   5.031   4.073
 2386SOL    HW2 8058   4.500   4.904   4.042
 2387SOL     OW 8059   1.074   1.527   2.928
 2387SOL    HW1 8060   1.151   1.571   2.974
 2387SOL    HW2 8061   1.097   1.430   2.912
 2388SOL     OW 8062   0.078   1.619   4.072
 2388SOL    HW1 8063   0.128   1.629   3.986
 2388SOL    HW2 8064   0.140   1.591   4.145
 2389SOL     OW 8065   3.587   6.722   2.521
 2389SOL    HW1 8066   3.573   6.736   2.619
 2389SOL    HW2 8067   3.666   6.661   2.507
 2390SOL     OW 8068   3.068   4.676   1.172
 2390SOL    HW1 8069   3.060   4.651   1.269
 2390SOL    HW2 8070   3.152   4.729   1.158
 2391SOL     OW 8071   4.209   5.275   4.690
 2391SOL    HW1 8072   4.220   5.369   4.723
 2391SOL    HW2 8073   4.242   5.211   4.760
 2392SOL     OW 8074   3.981   1.403   6.857
 2392SOL    HW1 8075   3.968   1.402   6.758
 2392SOL    HW2 8076   3.913   1.344   6.900
 2393SOL     OW 8077   3.497   5.184   5.004
 2393SOL    HW1 8078   3.552   5.233   5.072
 2393SOL    HW2 8079   3.401   5.208   5.015
 2394SOL     OW 8080   6.931   4.749   5.654
 2394SOL    HW1 8081   6.987   4.831   5.645
 2394SOL    HW2 8082   6.981   4.678   5.704
 2395SOL     OW 8083   4.479   6.604   6.558
 2395SOL    HW1 8084   4.560   6.662   6.557
 2395SOL    HW2 8085   4.448   6.588   6.464
 2396SOL     OW 8086   2.958   5.645   1.210
 2396SOL    HW1 8087   3.015   5.596   1.276
 2396SOL    HW2 8088   2.862   5.620   1.224
 2397SOL     OW 8089   0.633   3.641   4.443
 2397SOL    HW1 8090   0.648   3.706   4.517
 2397SOL    HW2 8091   0.628   3.549   4.480
 2398SOL     OW 8092   4.716   3.709   5.401
 2398SOL    HW1 8093   4.699   3.636   5.467
 2398SOL    HW2 8094   4.702   3.674   5.308
 2399SOL     OW 8095   4.456   2.550   1.441
 2399SOL    HW1 8096   4.410   2.632   1.473
 2399SOL    HW2 8097   4.413   2.469   1.482
 2400SOL     OW 8098   1.868   5.239   0.324
 2400SOL    HW1 8099   1.947   5.200   0.276
 2400SOL    HW2 8100   1.873   5.216   0.421
 2401SOL     OW 8101   6.475   5.942   6.541
 2401SOL    HW1 8102   6.436   6.034   6.548
 2401SOL    HW2 8103   6.407   5.880   6.504
 2402SOL     OW 8104   6.846   6.640   4.270
 2402SOL    HW1 8105   6.893   6.552   4.263
 2402SOL    HW2 8106   6.788   6.653   4.190
 2403SOL     OW 8107   0.794   1.023   3.958
 2403SOL    HW1 8108   0.850   1.041   4.039
 2403SOL    HW2 8109   0.837   0.952   3.902
 2404SOL     OW 8110   1.296   0.279   6.776
 2404SOL    HW1 8111   1.276   0.213   6.849
 2404SOL    HW2 8112   1.390   0.265   6.744
 2405SOL     OW 8113   2.931   4.656   1.428
 2405SOL    HW1 8114   2.862   4.690   1.364
 2405SOL    HW2 8115   2.888   4.631   1.514
 2406SOL     OW 8116   5.113   0.947   1.483
 2406SOL    HW1 8117   5.172   0.910   1.411
 2406SOL    HW2 8118   5.065   1.028   1.448
 2407SOL     OW 8119   5.304   0.021   3.675
 2407SOL    HW1 8120   5.301   0.090   3.604
 2407SOL    HW2 8121   5.211   7.014   3.701
 2408SOL     OW 8122   4.469   4.797   2.125
 2408SOL    HW1 8123   4.445   4.732   2.197
 2408SOL    HW2 8124   4.562   4.778   2.093
 2409SOL     OW 8125   0.953   4.352   0.673
 2409SOL    HW1 8126   1.015   4.277   0.696
 2409SOL    HW2 8127   0.890   4.322   0.602
 2410SOL     OW 8128   4.084   3.228   2.807
 2410SOL    HW1 8129   4.024   3.307   2.792
 2410SOL    HW2 8130   4.101   3.217   2.904
 2411SOL     OW 8131   3.953   0.737   4.661
 2411SOL    HW1 8132   3.878   0.670   4.665
 2411SOL    HW2 8133   3.928   0.817   4.716
 2412SOL     OW 8134   4.200   3.879   1.246
 2412SOL    HW1 8135   4.267   3.878   1.172
 2412SOL    HW2 8136   4.230   3.943   1.318
 2413SOL     OW 8137   3.996   0.344   3.210
 2413SOL    HW1 8138   4.006   0.421   3.274
 2413SOL    HW2 8139   4.007   0.258   3.259
 2414SOL     OW 8140   5.200   2.864   4.193
 2414SOL    HW1 8141   5.269   2.911   4.248
 2414SOL    HW2 8142   5.125   2.927   4.172
 2415SOL     OW 8143   4.402   0.578   3.454
 2415SOL    HW1 8144   4.398   0.605   3.358
 2415SOL    HW2 8145   4.472   0.507   3.466
 2416SOL     OW 8146   5.729   1.883   6.645
 2416SOL    HW1 8147   5.702   1.976   6.670
 2416SOL    HW2 8148   5.700   1.864   6.551
 2417SOL     OW 8149   3.362   3.870   5.196
 2417SOL    HW1 8150   3.354   3.916   5.284
 2417SOL    HW2 8151   3.455   3.834   5.185
 2418SOL     OW 8152   2.982   3.095   2.507
 2418SOL    HW1 8153   3.050   3.169   2.510
 2418SOL    HW2 8154   3.010   3.027   2.440
 2419SOL     OW 8155   6.762   0.531   3.608
 2419SOL    HW1 8156   6.699   0.482   3.669
 2419SOL    HW2 8157   6.735   0.514   3.513
 2420SOL     OW 8158   2.452   0.035   1.876
 2420SOL    HW1 8159   2.426   0.081   1.792
 2420SOL    HW2 8160   2.516   0.092   1.927
 2421SOL     OW 8161   3.628   2.088   3.090
 2421SOL    HW1 8162   3.703   2.142   3.129
 2421SOL    HW2 8163   3.638   2.084   2.991
 2422SOL     OW 8164   5.121   1.641   1.183
 2422SOL    HW1 8165   5.170   1.605   1.262
 2422SOL    HW2 8166   5.169   1.615   1.099
 2423SOL     OW 8167   1.772   5.047   2.386
 2423SOL    HW1 8168   1.850   5.071   2.327
 2423SOL    HW2 8169   1.703   5.119   2.380
 2424SOL     OW 8170   6.565   0.174   0.373
 2424SOL    HW1 8171   6.556   0.202   0.277
 2424SOL    HW2 8172   6.500   0.101   0.393
 2425SOL     OW 8173   6.905   7.001   4.567
 2425SOL    HW1 8174   6.837   6.959   4.626
 2425SOL    HW2 8175   6.866   0.064   4.524
 2426SOL     OW 8176   1.873   5.133   4.263
 2426SOL    HW1 8177   1.926   5.184   4.331
 2426SOL    HW2 8178   1.862   5.038   4.294
 2427SOL     OW 8179   6.665   0.654   5.578
 2427SOL    HW1 8180   6.579   0.662   5.627
 2427SOL    HW2 8181   6.673   0.562   5.539
 2428SOL     OW 8182   5.657   1.736   0.428
 2428SOL    HW1 8183   5.709   1.658   0.463
 2428SOL    HW2 8184   5.569   1.703   0.391
 2429SOL     OW 8185   4.594   5.003   2.496
 2429SOL    HW1 8186   4.596   5.012   2.396
 2429SOL    HW2 8187   4.628   4.912   2.521
 2430SOL     OW 8188   4.592   0.011   2.633
 2430SOL    HW1 8189   4.592   6.950   2.573
 2430SOL    HW2 8190   4.674   0.010   2.690
 2431SOL     OW 8191   4.309   6.783   2.484
 2431SOL    HW1 8192   4.278   6.877   2.492
 2431SOL    HW2 8193   4.408   6.781   2.470
 2432SOL     OW 8194   2.417   5.834   2.171
 2432SOL    HW1 8195   2.499   5.810   2.221
 2432SOL    HW2 8196   2.345   5.767   2.190
 2433SOL     OW 8197   5.213   6.751   0.683
 2433SOL    HW1 8198   5.213   6.850   0.694
 2433SOL    HW2 8199   5.120   6.716   0.698
 2434SOL     OW 8200   3.054   3.095   4.549
 2434SOL    HW1 8201   3.035   3.117   4.453
 2434SOL    HW2 8202   3.144   3.052   4.556
 2435SOL     OW 8203   5.686   6.018   6.247
 2435SOL    HW1 8204   5.680   5.940   6.184
 2435SOL    HW2 8205   5.759   6.079   6.217
 2436SOL     OW 8206   2.872   4.652   0.975
 2436SOL    HW1 8207   2.803   4.582   0.996
 2436SOL    HW2 8208   2.944   4.650   1.043
 2437SOL     OW 8209   0.047   0.655   5.809
 2437SOL    HW1 8210   6.975   0.695   5.811
 2437SOL    HW2 8211   0.041   0.555   5.808
 2438SOL     OW 8212   3.463   3.502   0.585
 2438SOL    HW1 8213   3.427   3.426   0.638
 2438SOL    HW2 8214   3.470   3.583   0.643
 2439SOL     OW 8215   6.003   4.399   5.997
 2439SOL    HW1 8216   5.998   4.334   6.073
 2439SOL    HW2 8217   5.979   4.490   6.028
 2440SOL     OW 8218   6.047   5.526   5.727
 2440SOL    HW1 8219   5.965   5.479   5.694
 2440SOL    HW2 8220   6.104   5.551   5.649
 2441SOL     OW 8221   6.650   2.110   0.683
 2441SOL    HW1 8222   6.727   2.078   0.738
 2441SOL    HW2 8223   6.571   2.125   0.742
 2442SOL     OW 8224   6.355   2.007   4.307
 2442SOL    HW1 8225   6.361   1.994   4.405
 2442SOL    HW2 8226   6.292   1.939   4.268
 2443SOL     OW 8227   2.938   4.780   5.771
 2443SOL    HW1 8228   2.964   4.803   5.677
 2443SOL    HW2 8229   3.021   4.767   5.826
 2444SOL     OW 8230   3.591   2.454   6.120
 2444SOL    HW1 8231   3.627   2.361   6.125
 2444SOL    HW2 8232   3.617   2.495   6.032
 2445SOL     OW 8233   1.233   0.248   0.959
 2445SOL    HW1 8234   1.321   0.288   0.983
 2445SOL    HW2 8235   1.159   0.298   1.004
 2446SOL     OW 8236   4.831   2.837   6.745
 2446SOL    HW1 8237   4.905   2.794   6.797
 2446SOL    HW2 8238   4.749   2.781   6.753
 2447SOL     OW 8239   1.095   3.743   6.487
 2447SOL    HW1 8240   1.136   3.733   6.396
 2447SOL    HW2 8241   1.158   3.791   6.548
 2448SOL     OW 8242   6.898   0.689   4.876
 2448SOL    HW1 8243   6.995   0.710   4.860
 2448SOL    HW2 8244   6.881   0.683   4.974
 2449SOL     OW 8245   6.759   3.081   5.531
 2449SOL    HW1 8246   6.731   3.137   5.609
 2449SOL    HW2 8247   6.680   3.030   5.497
 2450SOL     OW 8248   2.473   3.388   1.346
 2450SOL    HW1 8249   2.492   3.461   1.280
 2450SOL    HW2 8250   2.451   3.428   1.435
 2451SOL     OW 8251   1.936   5.974   3.662
 2451SOL    HW1 8252   1.986   6.025   3.732
 2451SOL    HW2 8253   1.838   5.982   3.678
 2452SOL     OW 8254   2.341   1.819   4.535
 2452SOL    HW1 8255   2.386   1.879   4.602
 2452SOL    HW2 8256   2.342   1.863   4.445
 2453SOL     OW 8257   0.068   4.194   0.813
 2453SOL    HW1 8258   0.162   4.197   0.845
 2453SOL    HW2 8259   0.010   4.248   0.875
 2454SOL     OW 8260   1.091   6.680   2.068
 2454SOL    HW1 8261   1.183   6.641   2.053
 2454SOL    HW2 8262   1.078   6.758   2.008
 2455SOL     OW 8263   5.710   3.632   1.311
 2455SOL    HW1 8264   5.797   3.662   1.272
 2455SOL    HW2 8265   5.702   3.533   1.302
 2456SOL     OW 8266   2.733   6.668   1.511
 2456SOL    HW1 8267   2.742   6.592   1.447
 2456SOL    HW2 8268   2.822   6.686   1.553
 2457SOL     OW 8269   5.463   5.806   0.930
 2457SOL    HW1 8270   5.464   5.740   0.856
 2457SOL    HW2 8271   5.415   5.767   1.009
 2458SOL     OW 8272   0.638   6.412   1.599
 2458SOL    HW1 8273   0.595   6.480   1.539
 2458SOL    HW2 8274   0.602   6.321   1.578
 2459SOL     OW 8275   1.746   1.991   0.350
 2459SOL    HW1 8276   1.767   1.906   0.398
 2459SOL    HW2 8277   1.659   1.980   0.301
 2460SOL     OW 8278   2.086   4.452   0.971
 2460SOL    HW1 8279   2.070   4.499   1.057
 2460SOL    HW2 8280   2.138   4.368   0.988
 2461SOL     OW 8281   4.393   1.296   3.249
 2461SOL    HW1 8282   4.415   1.345   3.165
 2461SOL    HW2 8283   4.427   1.348   3.327
 2462SOL     OW 8284   2.900   4.255   6.185
 2462SOL    HW1 8285   2.916   4.352   6.171
 2462SOL    HW2 8286   2.915   4.205   6.100
 2463SOL     OW 8287   1.076   3.275   5.342
 2463SOL    HW1 8288   1.046   3.182   5.322
 2463SOL    HW2 8289   1.064   3.294   5.440
 2464SOL     OW 8290   1.076   3.525   0.998
 2464SOL    HW1 8291   1.101   3.613   0.957
 2464SOL    HW2 8292   0.998   3.486   0.949
 2465SOL     OW 8293   6.064   4.020   2.808
 2465SOL    HW1 8294   5.968   3.999   2.827
 2465SOL    HW2 8295   6.108   3.943   2.763
 2466SOL     OW 8296   4.019   1.632   1.730
 2466SOL    HW1 8297   3.985   1.543   1.700
 2466SOL    HW2 8298   4.035   1.630   1.829
 2467SOL     OW 8299   0.938   1.239   4.369
 2467SOL    HW1 8300   0.908   1.146   4.390
 2467SOL    HW2 8301   1.020   1.235   4.311
 2468SOL     OW 8302   6.016   5.283   6.347
 2468SOL    HW1 8303   6.026   5.359   6.283
 2468SOL    HW2 8304   6.020   5.197   6.298
 2469SOL     OW 8305   2.605   2.202   5.949
 2469SOL    HW1 8306   2.600   2.301   5.948
 2469SOL    HW2 8307   2.514   2.164   5.963
 2470SOL     OW 8308   5.277   2.824   1.262
 2470SOL    HW1 8309   5.355   2.784   1.310
 2470SOL    HW2 8310   5.289   2.811   1.163
 2471SOL     OW 8311   0.126   1.306   2.979
 2471SOL    HW1 8312   0.047   1.359   2.947
 2471SOL    HW2 8313   0.096   1.214   3.004
 2472SOL     OW 8314   6.329   0.524   3.864
 2472SOL    HW1 8315   6.304   0.508   3.959
 2472SOL    HW2 8316   6.345   0.622   3.850
 2473SOL     OW 8317   0.783   5.793   5.055
 2473SOL    HW1 8318   0.815   5.740   5.134
 2473SOL    HW2 8319   0.758   5.885   5.084
 2474SOL     OW 8320   5.739   6.817   4.663
 2474SOL    HW1 8321   5.765   6.727   4.626
 2474SOL    HW2 8322   5.816   6.857   4.712
 2475SOL     OW 8323   3.479   2.802   6.438
 2475SOL    HW1 8324   3.481   2.751   6.353
 2475SOL    HW2 8325   3.572   2.819   6.470
 2476SOL     OW 8326   0.766   1.223   3.359
 2476SOL    HW1 8327   0.688   1.284   3.347
 2476SOL    HW2 8328   0.747   1.160   3.434
 2477SOL     OW 8329   4.484   4.523   2.187
 2477SOL    HW1 8330   4.518   4.439   2.144
 2477SOL    HW2 8331   4.389   4.538   2.159
 2478SOL     OW 8332   6.786   0.512   2.696
 2478SOL    HW1 8333   6.882   0.496   2.673
 2478SOL    HW2 8334   6.776   0.601   2.740
 2479SOL     OW 8335   1.435   3.096   0.440
 2479SOL    HW1 8336   1.531   3.098   0.469
 2479SOL    HW2 8337   1.386   3.173   0.481
 2480SOL     OW 8338   6.611   4.923   1.262
 2480SOL    HW1 8339   6.704   4.902   1.293
 2480SOL    HW2 8340   6.559   4.962   1.338
 2481SOL     OW 8341   4.258   4.736   2.373
 2481SOL    HW1 8342   4.166   4.749   2.335
 2481SOL    HW2 8343   4.302   4.825   2.386
 2482SOL     OW 8344   4.322   2.382   4.544
 2482SOL    HW1 8345   4.337   2.373   4.642
 2482SOL    HW2 8346   4.233   2.343   4.519
 2483SOL     OW 8347   1.000   3.409   0.332
 2483SOL    HW1 8348   1.003   3.495   0.382
 2483SOL    HW2 8349   0.995   3.427   0.234
 2484SOL     OW 8350   3.431   4.456   5.649
 2484SOL    HW1 8351   3.437   4.513   5.568
 2484SOL    HW2 8352   3.518   4.460   5.699
 2485SOL     OW 8353   0.697   4.920   0.125
 2485SOL    HW1 8354   0.672   4.866   0.044
 2485SOL    HW2 8355   0.795   4.911   0.142
 2486SOL     OW 8356   0.815   5.024   4.085
 2486SOL    HW1 8357   0.892   5.081   4.114
 2486SOL    HW2 8358   0.833   4.929   4.107
 2487SOL     OW 8359   2.976   1.316   1.160
 2487SOL    HW1 8360   2.931   1.292   1.075
 2487SOL    HW2 8361   2.946   1.408   1.188
 2488SOL     OW 8362   2.779   5.509   6.808
 2488SOL    HW1 8363   2.786   5.574   6.733
 2488SOL    HW2 8364   2.760   5.558   6.893
 2489SOL     OW 8365   6.512   5.514   4.556
 2489SOL    HW1 8366   6.595   5.531   4.503
 2489SOL    HW2 8367   6.494   5.416   4.558
 2490SOL     OW 8368   5.856   2.673   1.198
 2490SOL    HW1 8369   5.844   2.732   1.278
 2490SOL    HW2 8370   5.811   2.715   1.119
 2491SOL     OW 8371   6.495   4.077   2.948
 2491SOL    HW1 8372   6.540   4.125   2.872
 2491SOL    HW2 8373   6.431   4.010   2.911
 2492SOL     OW 8374   3.563   1.917   6.969
 2492SOL    HW1 8375   3.644   1.971   6.948
 2492SOL    HW2 8376   3.591   1.827   7.002
 2493SOL     OW 8377   6.994   0.931   5.901
 2493SOL    HW1 8378   6.904   0.890   5.884
 2493SOL    HW2 8379   7.007   1.009   5.839
 2494SOL     OW 8380   5.376   5.198   0.496
 2494SOL    HW1 8381   5.428   5.113   0.494
 2494SOL    HW2 8382   5.287   5.183   0.452
 2495SOL     OW 8383   6.914   1.179   2.191
 2495SOL    HW1 8384   7.002   1.160   2.149
 2495SOL    HW2 8385   6.841   1.144   2.133
 2496SOL     OW 8386   1.712   4.754   0.627
 2496SOL    HW1 8387   1.701   4.773   0.724
 2496SOL    HW2 8388   1.798   4.794   0.594
 2497SOL     OW 8389   5.975   1.142   6.436
 2497SOL    HW1 8390   5.891   1.171   6.389
 2497SOL    HW2 8391   6.042   1.216   6.430
 2498SOL     OW 8392   1.257   3.229   4.692
 2498SOL    HW1 8393   1.190   3.163   4.727
 2498SOL    HW2 8394   1.211   3.316   4.675
 2499SOL     OW 8395   5.092   0.390   6.747
 2499SOL    HW1 8396   5.096   0.328   6.825
 2499SOL    HW2 8397   5.128   0.480   6.774
 2500SOL     OW 8398   5.267   2.838   5.769
 2500SOL    HW1 8399   5.255   2.937   5.769
 2500SOL    HW2 8400   5.358   2.816   5.734
 2501SOL     OW 8401   6.414   4.770   1.112
 2501SOL    HW1 8402   6.452   4.683   1.081
 2501SOL    HW2 8403   6.485   4.822   1.160
 2502SOL     OW 8404   1.349   6.748   3.097
 2502SOL    HW1 8405   1.336   6.706   3.187
 2502SOL    HW2 8406   1.379   6.843   3.109
 2503SOL     OW 8407   5.416   6.194   3.567
 2503SOL    HW1 8408   5.334   6.178   3.621
 2503SOL    HW2 8409   5.497   6.188   3.626
 2504SOL     OW 8410   2.647   4.918   3.190
 2504SOL    HW1 8411   2.655   4.866   3.105
 2504SOL    HW2 8412   2.573   4.878   3.246
 2505SOL     OW 8413   5.059   3.789   4.477
 2505SOL    HW1 8414   5.010   3.849   4.540
 2505SOL    HW2 8415   5.157   3.797   4.494
 2506SOL     OW 8416   1.191   1.648   0.335
 2506SOL    HW1 8417   1.230   1.740   0.336
 2506SOL    HW2 8418   1.225   1.599   0.254
 2507SOL     OW 8419   0.037   5.899   0.500
 2507SOL    HW1 8420   0.005   5.848   0.420
 2507SOL    HW2 8421   0.104   5.843   0.550
 2508SOL     OW 8422   1.583   1.455   1.384
 2508SOL    HW1 8423   1.511   1.398   1.345
 2508SOL    HW2 8424   1.672   1.422   1.353
 2509SOL     OW 8425   5.842   6.928   3.915
 2509SOL    HW1 8426   5.880   6.916   3.823
 2509SOL    HW2 8427   5.774   6.857   3.931
 2510SOL     OW 8428   3.556   5.928   2.841
 2510SOL    HW1 8429   3.478   5.937   2.902
 2510SOL    HW2 8430   3.541   5.983   2.759
 2511SOL     OW 8431   0.919   5.149   4.370
 2511SOL    HW1 8432   0.820   5.132   4.375
 2511SOL    HW2 8433   0.939   5.235   4.417
 2512SOL     OW 8434   5.992   3.003   4.451
 2512SOL    HW1 8435   6.044   3.012   4.366
 2512SOL    HW2 8436   6.006   3.083   4.508
 2513SOL     OW 8437   0.428   5.029   1.295
 2513SOL    HW1 8438   0.505   5.093   1.299
 2513SOL    HW2 8439   0.343   5.077   1.319
 2514SOL     OW 8440   6.795   2.164   4.551
 2514SOL    HW1 8441   6.767   2.204   4.464
 2514SOL    HW2 8442   6.884   2.120   4.541
 2515SOL     OW 8443   0.780   4.976   6.425
 2515SOL    HW1 8444   0.823   5.064   6.443
 2515SOL    HW2 8445   0.833   4.927   6.356
 2516SOL     OW 8446   4.170   6.906   4.683
 2516SOL    HW1 8447   4.221   6.988   4.709
 2516SOL    HW2 8448   4.123   6.922   4.597
 2517SOL     OW 8449   2.851   5.822   0.382
 2517SOL    HW1 8450   2.903   5.906   0.397
 2517SOL    HW2 8451   2.915   5.746   0.366
 2518SOL     OW 8452   2.132   1.634   0.105
 2518SOL    HW1 8453   2.055   1.620   0.042
 2518SOL    HW2 8454   2.159   1.730   0.104
 2519SOL     OW 8455   6.212   4.392   4.593
 2519SOL    HW1 8456   6.241   4.309   4.546
 2519SOL    HW2 8457   6.247   4.472   4.544
 2520SOL     OW 8458   3.936   5.926   0.973
 2520SOL    HW1 8459   4.025   5.887   0.952
 2520SOL    HW2 8460   3.899   5.972   0.892
 2521SOL     OW 8461   5.968   6.725   5.608
 2521SOL    HW1 8462   6.042   6.670   5.569
 2521SOL    HW2 8463   5.995   6.760   5.698
 2522SOL     OW 8464   2.810   5.092   5.253
 2522SOL    HW1 8465   2.760   5.047   5.179
 2522SOL    HW2 8466   2.905   5.107   5.225
 2523SOL     OW 8467   0.803   2.056   6.924
 2523SOL    HW1 8468   0.777   2.008   6.839
 2523SOL    HW2 8469   0.882   2.010   6.965
 2524SOL     OW 8470   1.945   0.106   4.322
 2524SOL    HW1 8471   1.971   0.036   4.388
 2524SOL    HW2 8472   1.968   0.196   4.358
 2525SOL     OW 8473   2.850   4.845   2.378
 2525SOL    HW1 8474   2.802   4.781   2.318
 2525SOL    HW2 8475   2.819   4.833   2.472
 2526SOL     OW 8476   1.779   3.143   4.801
 2526SOL    HW1 8477   1.769   3.044   4.787
 2526SOL    HW2 8478   1.689   3.183   4.819
 2527SOL     OW 8479   6.941   6.766   3.933
 2527SOL    HW1 8480   6.933   6.803   4.025
 2527SOL    HW2 8481   6.914   6.670   3.933
 2528SOL     OW 8482   5.672   4.911   1.743
 2528SOL    HW1 8483   5.716   4.903   1.654
 2528SOL    HW2 8484   5.656   5.008   1.763
 2529SOL     OW 8485   5.164   4.843   4.711
 2529SOL    HW1 8486   5.254   4.818   4.747
 2529SOL    HW2 8487   5.172   4.865   4.613
 2530SOL     OW 8488   1.266   6.554   3.288
 2530SOL    HW1 8489   1.283   6.463   3.327
 2530SOL    HW2 8490   1.183   6.592   3.327
 2531SOL     OW 8491   5.434   2.503   6.325
 2531SOL    HW1 8492   5.339   2.483   6.303
 2531SOL    HW2 8493   5.483   2.527   6.241
 2532SOL     OW 8494   0.506   5.577   6.600
 2532SOL    HW1 8495   0.570   5.503   6.621
 2532SOL    HW2 8496   0.554   5.665   6.607
 2533SOL     OW 8497   5.289   0.787   4.177
 2533SOL    HW1 8498   5.275   0.863   4.114
 2533SOL    HW2 8499   5.261   0.814   4.269
 2534SOL     OW 8500   6.542   1.545   2.625
 2534SOL    HW1 8501   6.562   1.630   2.576
 2534SOL    HW2 8502   6.535   1.470   2.560
 2535SOL     OW 8503   3.263   1.306   1.867
 2535SOL    HW1 8504   3.175   1.348   1.889
 2535SOL    HW2 8505   3.294   1.338   1.778
 2536SOL     OW 8506   0.926   0.240   3.196
 2536SOL    HW1 8507   1.008   0.183   3.207
 2536SOL    HW2 8508   0.916   0.300   3.275
 2537SOL     OW 8509   1.964   6.221   1.977
 2537SOL    HW1 8510   1.991   6.211   1.881
 2537SOL    HW2 8511   1.932   6.133   2.012
 2538SOL     OW 8512   6.464   5.448   5.217
 2538SOL    HW1 8513   6.440   5.434   5.313
 2538SOL    HW2 8514   6.384   5.432   5.159
 2539SOL     OW 8515   1.033   0.106   5.179
 2539SOL    HW1 8516   1.120   0.080   5.223
 2539SOL    HW2 8517   0.964   0.120   5.250
 2540SOL     OW 8518   5.338   2.680   1.670
 2540SOL    HW1 8519   5.354   2.724   1.758
 2540SOL    HW2 8520   5.358   2.582   1.679
 2541SOL     OW 8521   1.851   0.753   0.230
 2541SOL    HW1 8522   1.854   0.679   0.298
 2541SOL    HW2 8523   1.756   0.779   0.215
 2542SOL     OW 8524   3.985   1.836   2.692
 2542SOL    HW1 8525   4.011   1.741   2.676
 2542SOL    HW2 8526   3.963   1.849   2.789
 2543SOL     OW 8527   5.738   6.255   5.099
 2543SOL    HW1 8528   5.685   6.174   5.123
 2543SOL    HW2 8529   5.754   6.311   5.181
 2544SOL     OW 8530   0.085   0.408   0.137
 2544SOL    HW1 8531   0.095   0.450   0.227
 2544SOL    HW2 8532   0.159   0.343   0.121
 2545SOL     OW 8533   0.613   1.465   0.437
 2545SOL    HW1 8534   0.549   1.540   0.454
 2545SOL    HW2 8535   0.693   1.475   0.494
 2546SOL     OW 8536   5.992   3.372   3.187
 2546SOL    HW1 8537   5.902   3.389   3.226
 2546SOL    HW2 8538   5.987   3.296   3.122
 2547SOL     OW 8539   5.638   3.947   0.865
 2547SOL    HW1 8540   5.694   3.941   0.782
 2547SOL    HW2 8541   5.541   3.941   0.840
 2548SOL     OW 8542   6.355   0.343   5.300
 2548SOL    HW1 8543   6.336   0.266   5.361
 2548SOL    HW2 8544   6.338   0.429   5.349
 2549SOL     OW 8545   2.646   4.262   6.835
 2549SOL    HW1 8546   2.632   4.223   6.745
 2549SOL    HW2 8547   2.744   4.271   6.853
 2550SOL     OW 8548   4.221   0.950   1.015
 2550SOL    HW1 8549   4.303   0.943   1.072
 2550SOL    HW2 8550   4.151   0.887   1.050
 2551SOL     OW 8551   2.699   4.609   1.285
 2551SOL    HW1 8552   2.758   4.528   1.291
 2551SOL    HW2 8553   2.604   4.581   1.300
 2552SOL     OW 8554   2.963   5.905   1.214
 2552SOL    HW1 8555   2.883   5.951   1.252
 2552SOL    HW2 8556   2.948   5.806   1.217
 2553SOL     OW 8557   4.341   2.077   1.380
 2553SOL    HW1 8558   4.345   2.043   1.286
 2553SOL    HW2 8559   4.407   2.029   1.436
 2554SOL     OW 8560   1.211   6.361   0.922
 2554SOL    HW1 8561   1.226   6.349   1.020
 2554SOL    HW2 8562   1.253   6.284   0.873
 2555SOL     OW 8563   0.562   6.354   4.640
 2555SOL    HW1 8564   0.463   6.352   4.625
 2555SOL    HW2 8565   0.586   6.293   4.716
 2556SOL     OW 8566   5.814   0.673   0.850
 2556SOL    HW1 8567   5.913   0.683   0.859
 2556SOL    HW2 8568   5.779   0.742   0.786
 2557SOL     OW 8569   2.507   1.451   6.881
 2557SOL    HW1 8570   2.566   1.381   6.921
 2557SOL    HW2 8571   2.529   1.541   6.920
 2558SOL     OW 8572   5.937   2.779   1.463
 2558SOL    HW1 8573   5.873   2.843   1.505
 2558SOL    HW2 8574   5.929   2.690   1.508
 2559SOL     OW 8575   6.698   5.684   3.255
 2559SOL    HW1 8576   6.741   5.723   3.173
 2559SOL    HW2 8577   6.629   5.747   3.289
 2560SOL     OW 8578   4.299   2.752   1.527
 2560SOL    HW1 8579   4.335   2.817   1.594
 2560SOL    HW2 8580   4.200   2.748   1.534
 2561SOL     OW 8581   3.596   0.700   4.468
 2561SOL    HW1 8582   3.553   0.716   4.557
 2561SOL    HW2 8583   3.676   0.759   4.458
 2562SOL     OW 8584   1.996   6.653   4.824
 2562SOL    HW1 8585   1.950   6.710   4.892
 2562SOL    HW2 8586   1.961   6.559   4.829
 2563SOL     OW 8587   4.563   2.429   0.031
 2563SOL    HW1 8588   4.535   2.333   0.041
 2563SOL    HW2 8589   4.513   2.485   0.096
 2564SOL     OW 8590   1.705   0.875   1.611
 2564SOL    HW1 8591   1.759   0.923   1.542
 2564SOL    HW2 8592   1.746   0.888   1.701
 2565SOL     OW 8593   6.755   0.178   0.859
 2565SOL    HW1 8594   6.726   0.226   0.942
 2565SOL    HW2 8595   6.735   0.081   0.868
 2566SOL     OW 8596   2.815   1.193   0.534
 2566SOL    HW1 8597   2.735   1.189   0.595
 2566SOL    HW2 8598   2.853   1.101   0.524
 2567SOL     OW 8599   2.098   1.094   5.991
 2567SOL    HW1 8600   2.196   1.079   5.999
 2567SOL    HW2 8601   2.072   1.175   6.042
 2568SOL     OW 8602   3.212   6.522   6.978
 2568SOL    HW1 8603   3.206   6.433   0.004
 2568SOL    HW2 8604   3.130   6.575   6.999
 2569SOL     OW 8605   2.764   6.310   6.740
 2569SOL    HW1 8606   2.743   6.232   6.681
 2569SOL    HW2 8607   2.702   6.311   6.818
 2570SOL     OW 8608   6.713   0.210   3.358
 2570SOL    HW1 8609   6.779   0.236   3.429
 2570SOL    HW2 8610   6.691   0.290   3.303
 2571SOL     OW 8611   3.616   3.525   2.535
 2571SOL    HW1 8612   3.584   3.569   2.619
 2571SOL    HW2 8613   3.539   3.484   2.487
 2572SOL     OW 8614   3.158   6.544   2.375
 2572SOL    HW1 8615   3.129   6.488   2.453
 2572SOL    HW2 8616   3.223   6.492   2.320
 2573SOL     OW 8617   5.973   0.494   2.835
 2573SOL    HW1 8618   6.009   0.565   2.897
 2573SOL    HW2 8619   5.891   0.453   2.875
 2574SOL     OW 8620   0.576   4.379   1.885
 2574SOL    HW1 8621   0.666   4.403   1.850
 2574SOL    HW2 8622   0.545   4.293   1.844
 2575SOL     OW 8623   4.476   3.484   5.347
 2575SOL    HW1 8624   4.548   3.518   5.287
 2575SOL    HW2 8625   4.505   3.398   5.388
 2576SOL     OW 8626   0.205   0.669   2.903
 2576SOL    HW1 8627   0.210   0.570   2.905
 2576SOL    HW2 8628   0.145   0.702   2.976
 2577SOL     OW 8629   1.360   4.542   0.689
 2577SOL    HW1 8630   1.457   4.562   0.674
 2577SOL    HW2 8631   1.347   4.443   0.699
 2578SOL     OW 8632   4.711   1.748   4.778
 2578SOL    HW1 8633   4.777   1.673   4.783
 2578SOL    HW2 8634   4.730   1.804   4.697
 2579SOL     OW 8635   0.215   1.894   6.602
 2579SOL    HW1 8636   0.138   1.935   6.554
 2579SOL    HW2 8637   0.193   1.885   6.699
 2580SOL     OW 8638   1.481   2.264   5.557
 2580SOL    HW1 8639   1.386   2.242   5.581
 2580SOL    HW2 8640   1.537   2.258   5.640
 2581SOL     OW 8641   4.457   6.439   4.256
 2581SOL    HW1 8642   4.401   6.498   4.198
 2581SOL    HW2 8643   4.404   6.358   4.282
 2582SOL     OW 8644   6.712   4.324   3.190
 2582SOL    HW1 8645   6.641   4.309   3.260
 2582SOL    HW2 8646   6.668   4.346   3.103
 2583SOL     OW 8647   2.535   1.012   0.008
 2583SOL    HW1 8648   2.574   1.041   6.940
 2583SOL    HW2 8649   2.605   1.020   0.079
 2584SOL     OW 8650   3.480   0.128   3.478
 2584SOL    HW1 8651   3.456   0.132   3.575
 2584SOL    HW2 8652   3.430   0.200   3.429
 2585SOL     OW 8653   3.690   0.774   2.747
 2585SOL    HW1 8654   3.785   0.778   2.781
 2585SOL    HW2 8655   3.641   0.702   2.796
 2586SOL     OW 8656   0.945   2.068   4.203
 2586SOL    HW1 8657   1.039   2.103   4.199
 2586SOL    HW2 8658   0.930   2.022   4.290
 2587SOL     OW 8659   6.406   4.255   3.556
 2587SOL    HW1 8660   6.408   4.198   3.639
 2587SOL    HW2 8661   6.375   4.347   3.580
 2588SOL     OW 8662   3.354   0.198   2.569
 2588SOL    HW1 8663   3.449   0.178   2.595
 2588SOL    HW2 8664   3.322   0.132   2.502
 2589SOL     OW 8665   4.393   6.685   1.995
 2589SOL    HW1 8666   4.366   6.589   1.988
 2589SOL    HW2 8667   4.312   6.744   1.982
 2590SOL     OW 8668   4.654   6.252   4.036
 2590SOL    HW1 8669   4.737   6.290   3.994
 2590SOL    HW2 8670   4.667   6.248   4.135
 2591SOL     OW 8671   5.721   0.795   1.145
 2591SOL    HW1 8672   5.781   0.875   1.153
 2591SOL    HW2 8673   5.748   0.741   1.065
 2592SOL     OW 8674   2.961   4.952   1.711
 2592SOL    HW1 8675   3.056   4.981   1.702
 2592SOL    HW2 8676   2.958   4.852   1.718
 2593SOL     OW 8677   2.370   0.093   4.084
 2593SOL    HW1 8678   2.363   0.133   4.176
 2593SOL    HW2 8679   2.445   0.027   4.083
 2594SOL     OW 8680   2.335   5.655   6.324
 2594SOL    HW1 8681   2.334   5.606   6.237
 2594SOL    HW2 8682   2.300   5.747   6.311
 2595SOL     OW 8683   6.796   3.187   5.104
 2595SOL    HW1 8684   6.842   3.273   5.124
 2595SOL    HW2 8685   6.842   3.141   5.028
 2596SOL     OW 8686   4.561   1.479   0.603
 2596SOL    HW1 8687   4.562   1.540   0.683
 2596SOL    HW2 8688   4.480   1.420   0.607
 2597SOL     OW 8689   2.533   2.331   6.374
 2597SOL    HW1 8690   2.485   2.243   6.370
 2597SOL    HW2 8691   2.530   2.365   6.468
 2598SOL     OW 8692   6.069   1.081   3.075
 2598SOL    HW1 8693   6.092   1.137   3.154
 2598SOL    HW2 8694   6.013   1.133   3.011
 2599SOL     OW 8695   4.878   5.546   6.007
 2599SOL    HW1 8696   4.941   5.599   5.950
 2599SOL    HW2 8697   4.926   5.466   6.044
 2600SOL     OW 8698   0.356   2.901   4.483
 2600SOL    HW1 8699   0.345   2.954   4.399
 2600SOL    HW2 8700   0.453   2.890   4.503
 2601SOL     OW 8701   4.365   4.476   5.383
 2601SOL    HW1 8702   4.316   4.461   5.298
 2601SOL    HW2 8703   4.464   4.479   5.366
 2602SOL     OW 8704   6.155   6.455   0.001
 2602SOL    HW1 8705   6.128   6.364   6.989
 2602SOL    HW2 8706   6.084   6.493   0.060
 2603SOL     OW 8707   1.737   1.624   0.153
 2603SOL    HW1 8708   1.814   1.676   0.189
 2603SOL    HW2 8709   1.769   1.562   0.081
 2604SOL     OW 8710   5.732   1.398   0.636
 2604SOL    HW1 8711   5.712   1.385   0.733
 2604SOL    HW2 8712   5.812   1.457   0.626
 2605SOL     OW 8713   5.596   2.506   5.454
 2605SOL    HW1 8714   5.581   2.603   5.435
 2605SOL    HW2 8715   5.654   2.467   5.383
 2606SOL     OW 8716   6.329   4.447   1.569
 2606SOL    HW1 8717   6.413   4.498   1.588
 2606SOL    HW2 8718   6.304   4.393   1.650
 2607SOL     OW 8719   0.420   0.870   3.347
 2607SOL    HW1 8720   0.395   0.950   3.402
 2607SOL    HW2 8721   0.516   0.877   3.319
 2608SOL     OW 8722   4.499   0.542   6.952
 2608SOL    HW1 8723   4.407   0.573   6.975
 2608SOL    HW2 8724   4.495   0.479   6.874
 2609SOL     OW 8725   0.661   4.307   3.645
 2609SOL    HW1 8726   0.721   4.316   3.565
 2609SOL    HW2 8727   0.716   4.281   3.724
 2610SOL     OW 8728   5.501   5.386   4.411
 2610SOL    HW1 8729   5.597   5.397   4.383
 2610SOL    HW2 8730   5.497   5.374   4.510
 2611SOL     OW 8731   2.596   6.560   1.969
 2611SOL    HW1 8732   2.523   6.618   2.006
 2611SOL    HW2 8733   2.602   6.574   1.870
 2612SOL     OW 8734   1.006   6.748   4.498
 2612SOL    HW1 8735   1.093   6.738   4.449
 2612SOL    HW2 8736   0.967   6.838   4.479
 2613SOL     OW 8737   4.147   1.595   0.182
 2613SOL    HW1 8738   4.117   1.666   0.246
 2613SOL    HW2 8739   4.173   1.513   0.233
 2614SOL     OW 8740   6.344   6.586   6.532
 2614SOL    HW1 8741   6.372   6.666   6.585
 2614SOL    HW2 8742   6.375   6.596   6.437
 2615SOL     OW 8743   0.289   3.901   1.454
 2615SOL    HW1 8744   0.240   3.880   1.369
 2615SOL    HW2 8745   0.376   3.945   1.432
 2616SOL     OW 8746   3.518   4.219   1.820
 2616SOL    HW1 8747   3.470   4.132   1.835
 2616SOL    HW2 8748   3.540   4.260   1.909
 2617SOL     OW 8749   3.072   6.742   1.165
 2617SOL    HW1 8750   2.984   6.771   1.203
 2617SOL    HW2 8751   3.072   6.760   1.066
 2618SOL     OW 8752   1.221   6.041   0.278
 2618SOL    HW1 8753   1.198   6.062   0.183
 2618SOL    HW2 8754   1.218   6.126   0.332
 2619SOL     OW 8755   6.448   1.026   2.009
 2619SOL    HW1 8756   6.359   1.021   2.055
 2619SOL    HW2 8757   6.499   0.942   2.025
 2620SOL     OW 8758   1.860   5.367   3.919
 2620SOL    HW1 8759   1.800   5.412   3.985
 2620SOL    HW2 8760   1.870   5.271   3.944
 2621SOL     OW 8761   1.623   5.594   4.185
 2621SOL    HW1 8762   1.705   5.544   4.212
 2621SOL    HW2 8763   1.612   5.588   4.086
 2622SOL     OW 8764   2.452   2.598   4.198
 2622SOL    HW1 8765   2.363   2.553   4.184
 2622SOL    HW2 8766   2.441   2.696   4.184
 2623SOL     OW 8767   3.111   0.058   5.629
 2623SOL    HW1 8768   3.031   0.053   5.689
 2623SOL    HW2 8769   3.135   6.985   5.598
 2624SOL     OW 8770   4.934   2.102   4.906
 2624SOL    HW1 8771   4.916   2.141   4.816
 2624SOL    HW2 8772   4.990   2.019   4.896
 2625SOL     OW 8773   2.453   6.843   5.905
 2625SOL    HW1 8774   2.483   6.871   5.814
 2625SOL    HW2 8775   2.378   6.902   5.934
 2626SOL     OW 8776   2.616   6.572   3.309
 2626SOL    HW1 8777   2.575   6.614   3.229
 2626SOL    HW2 8778   2.547   6.565   3.382
 2627SOL     OW 8779   0.884   0.562   4.839
 2627SOL    HW1 8780   0.836   0.647   4.863
 2627SOL    HW2 8781   0.937   0.576   4.756
 2628SOL     OW 8782   4.943   5.234   0.165
 2628SOL    HW1 8783   4.937   5.149   0.112
 2628SOL    HW2 8784   4.964   5.310   0.104
 2629SOL     OW 8785   2.897   3.679   1.885
 2629SOL    HW1 8786   2.918   3.691   1.982
 2629SOL    HW2 8787   2.977   3.703   1.830
 2630SOL     OW 8788   3.557   1.688   2.115
 2630SOL    HW1 8789   3.653   1.716   2.119
 2630SOL    HW2 8790   3.531   1.645   2.202
 2631SOL     OW 8791   3.152   6.702   4.156
 2631SOL    HW1 8792   3.239   6.679   4.201
 2631SOL    HW2 8793   3.149   6.656   4.067
 2632SOL     OW 8794   4.900   1.504   1.170
 2632SOL    HW1 8795   4.976   1.569   1.177
 2632SOL    HW2 8796   4.861   1.488   1.261
 2633SOL     OW 8797   0.467   2.299   0.118
 2633SOL    HW1 8798   0.564   2.316   0.100
 2633SOL    HW2 8799   0.414   2.315   0.036
 2634SOL     OW 8800   2.147   4.988   0.403
 2634SOL    HW1 8801   2.224   4.926   0.412
 2634SOL    HW2 8802   2.086   4.956   0.330
 2635SOL     OW 8803   6.895   4.181   3.777
 2635SOL    HW1 8804   6.903   4.089   3.816
 2635SOL    HW2 8805   6.827   4.181   3.704
 2636SOL     OW 8806   5.595   4.960   5.439
 2636SOL    HW1 8807   5.578   4.901   5.519
 2636SOL    HW2 8808   5.550   5.048   5.454
 2637SOL     OW 8809   5.234   5.270   2.211
 2637SOL    HW1 8810   5.229   5.220   2.297
 2637SOL    HW2 8811   5.319   5.246   2.163
 2638SOL     OW 8812   4.795   5.680   0.850
 2638SOL    HW1 8813   4.751   5.590   0.853
 2638SOL    HW2 8814   4.893   5.670   0.862
 2639SOL     OW 8815   6.680   0.906   0.345
 2639SOL    HW1 8816   6.719   0.814   0.345
 2639SOL    HW2 8817   6.586   0.902   0.310
 2640SOL     OW 8818   6.533   6.054   0.259
 2640SOL    HW1 8819   6.594   6.099   0.324
 2640SOL    HW2 8820   6.588   6.011   0.187
 2641SOL     OW 8821   6.997   5.750   1.211
 2641SOL    HW1 8822   6.943   5.818   1.260
 2641SOL    HW2 8823   0.004   5.787   1.122
 2642SOL     OW 8824   6.587   0.173   4.487
 2642SOL    HW1 8825   6.503   0.227   4.481
 2642SOL    HW2 8826   6.568   0.079   4.459
 2643SOL     OW 8827   1.837   0.633   2.320
 2643SOL    HW1 8828   1.786   0.563   2.369
 2643SOL    HW2 8829   1.932   0.604   2.310
 2644SOL     OW 8830   5.701   6.348   4.818
 2644SOL    HW1 8831   5.776   6.328   4.755
 2644SOL    HW2 8832   5.707   6.288   4.898
 2645SOL     OW 8833   5.240   5.671   6.608
 2645SOL    HW1 8834   5.281   5.729   6.679
 2645SOL    HW2 8835   5.305   5.599   6.582
 2646SOL     OW 8836   5.515   5.614   5.378
 2646SOL    HW1 8837   5.588   5.570   5.326
 2646SOL    HW2 8838   5.554   5.665   5.455
 2647SOL     OW 8839   3.454   4.172   0.508
 2647SOL    HW1 8840   3.536   4.164   0.563
 2647SOL    HW2 8841   3.374   4.149   0.563
 2648SOL     OW 8842   4.223   1.417   3.582
 2648SOL    HW1 8843   4.279   1.494   3.553
 2648SOL    HW2 8844   4.279   1.352   3.634
 2649SOL     OW 8845   3.012   3.952   4.921
 2649SOL    HW1 8846   2.994   3.857   4.895
 2649SOL    HW2 8847   3.105   3.961   4.955
 2650SOL     OW 8848   0.238   6.703   2.269
 2650SOL    HW1 8849   0.242   6.643   2.189
 2650SOL    HW2 8850   0.330   6.730   2.295
 2651SOL     OW 8851   1.542   6.969   2.739
 2651SOL    HW1 8852   1.585   6.976   2.649
 2651SOL    HW2 8853   1.448   6.935   2.729
 2652SOL     OW 8854   3.218   2.896   2.025
 2652SOL    HW1 8855   3.144   2.834   2.052
 2652SOL    HW2 8856   3.266   2.858   1.946
 2653SOL     OW 8857   6.069   6.654   1.340
 2653SOL    HW1 8858   6.072   6.720   1.265
 2653SOL    HW2 8859   5.976   6.648   1.375
 2654SOL     OW 8860   6.743   3.254   6.114
 2654SOL    HW1 8861   6.823   3.228   6.060
 2654SOL    HW2 8862   6.729   3.353   6.107
 2655SOL     OW 8863   5.755   4.660   4.183
 2655SOL    HW1 8864   5.776   4.728   4.253
 2655SOL    HW2 8865   5.657   4.662   4.163
 2656SOL     OW 8866   5.845   3.431   5.242
 2656SOL    HW1 8867   5.912   3.502   5.265
 2656SOL    HW2 8868   5.846   3.416   5.143
 2657SOL     OW 8869   4.049   2.061   5.783
 2657SOL    HW1 8870   4.091   2.152   5.783
 2657SOL    HW2 8871   3.967   2.062   5.725
 2658SOL     OW 8872   6.814   4.143   5.254
 2658SOL    HW1 8873   6.843   4.049   5.238
 2658SOL    HW2 8874   6.848   4.174   5.343
 2659SOL     OW 8875   6.456   1.073   3.731
 2659SOL    HW1 8876   6.478   1.076   3.828
 2659SOL    HW2 8877   6.368   1.118   3.716
 2660SOL     OW 8878   1.073   2.078   3.745
 2660SOL    HW1 8879   1.036   2.043   3.831
 2660SOL    HW2 8880   1.051   2.015   3.671
 2661SOL     OW 8881   3.427   6.804   3.574
 2661SOL    HW1 8882   3.334   6.815   3.539
 2661SOL    HW2 8883   3.485   6.768   3.501
 2662SOL     OW 8884   3.628   1.207   3.915
 2662SOL    HW1 8885   3.619   1.293   3.964
 2662SOL    HW2 8886   3.724   1.179   3.913
 2663SOL     OW 8887   0.646   3.836   2.889
 2663SOL    HW1 8888   0.687   3.778   2.819
 2663SOL    HW2 8889   0.563   3.793   2.924
 2664SOL     OW 8890   4.799   4.255   1.946
 2664SOL    HW1 8891   4.724   4.304   1.990
 2664SOL    HW2 8892   4.875   4.246   2.011
 2665SOL     OW 8893   4.791   0.920   5.306
 2665SOL    HW1 8894   4.721   0.989   5.287
 2665SOL    HW2 8895   4.782   0.844   5.242
 2666SOL     OW 8896   5.303   5.961   1.973
 2666SOL    HW1 8897   5.379   5.976   2.036
 2666SOL    HW2 8898   5.240   5.893   2.012
 2667SOL     OW 8899   1.741   4.608   2.506
 2667SOL    HW1 8900   1.691   4.602   2.419
 2667SOL    HW2 8901   1.805   4.532   2.513
 2668SOL     OW 8902   6.686   2.849   5.374
 2668SOL    HW1 8903   6.712   2.768   5.426
 2668SOL    HW2 8904   6.766   2.885   5.325
 2669SOL     OW 8905   3.715   6.117   4.742
 2669SOL    HW1 8906   3.703   6.117   4.841
 2669SOL    HW2 8907   3.813   6.121   4.720
 2670SOL     OW 8908   2.113   6.670   4.518
 2670SOL    HW1 8909   2.134   6.589   4.573
 2670SOL    HW2 8910   2.131   6.650   4.421
 2671SOL     OW 8911   3.002   3.841   0.067
 2671SOL    HW1 8912   3.062   3.920   0.078
 2671SOL    HW2 8913   3.051   3.758   0.095
 2672SOL     OW 8914   0.635   4.619   0.770
 2672SOL    HW1 8915   0.537   4.600   0.761
 2672SOL    HW2 8916   0.653   4.659   0.860
 2673SOL     OW 8917   3.942   1.884   2.955
 2673SOL    HW1 8918   3.887   1.923   3.029
 2673SOL    HW2 8919   3.966   1.789   2.978
 2674SOL     OW 8920   5.049   6.075   4.693
 2674SOL    HW1 8921   5.148   6.065   4.684
 2674SOL    HW2 8922   5.016   6.017   4.766
 2675SOL     OW 8923   0.418   5.139   5.642
 2675SOL    HW1 8924   0.350   5.189   5.695
 2675SOL    HW2 8925   0.510   5.168   5.668
 2676SOL     OW 8926   4.598   0.254   1.515
 2676SOL    HW1 8927   4.616   0.217   1.424
 2676SOL    HW2 8928   4.553   0.185   1.571
 2677SOL     OW 8929   2.440   4.778   2.008
 2677SOL    HW1 8930   2.476   4.690   1.977
 2677SOL    HW2 8931   2.491   4.852   1.964
 2678SOL     OW 8932   0.956   6.486   6.960
 2678SOL    HW1 8933   0.935   6.465   6.864
 2678SOL    HW2 8934   0.875   6.471   7.016
 2679SOL     OW 8935   2.150   5.192   1.533
 2679SOL    HW1 8936   2.071   5.199   1.593
 2679SOL    HW2 8937   2.128   5.232   1.444
 2680SOL     OW 8938   6.754   2.245   0.963
 2680SOL    HW1 8939   6.739   2.339   0.931
 2680SOL    HW2 8940   6.813   2.197   0.898
 2681SOL     OW 8941   1.667   2.261   1.731
 2681SOL    HW1 8942   1.693   2.245   1.636
 2681SOL    HW2 8943   1.668   2.175   1.781
 2682SOL     OW 8944   0.461   2.789   3.887
 2682SOL    HW1 8945   0.450   2.695   3.854
 2682SOL    HW2 8946   0.383   2.844   3.857
 2683SOL     OW 8947   1.941   0.014   0.712
 2683SOL    HW1 8948   1.939   6.938   0.683
 2683SOL    HW2 8949   1.853   0.039   0.751
 2684SOL     OW 8950   2.762   4.742   2.993
 2684SOL    HW1 8951   2.692   4.690   2.944
 2684SOL    HW2 8952   2.849   4.736   2.945
 2685SOL     OW 8953   5.173   4.126   5.791
 2685SOL    HW1 8954   5.272   4.138   5.784
 2685SOL    HW2 8955   5.153   4.043   5.842
 2686SOL     OW 8956   1.522   3.459   4.673
 2686SOL    HW1 8957   1.562   3.532   4.728
 2686SOL    HW2 8958   1.533   3.372   4.719
 2687SOL     OW 8959   4.526   5.226   3.055
 2687SOL    HW1 8960   4.519   5.128   3.033
 2687SOL    HW2 8961   4.506   5.280   2.974
 2688SOL     OW 8962   3.239   4.010   5.404
 2688SOL    HW1 8963   3.219   4.103   5.435
 2688SOL    HW2 8964   3.155   3.968   5.370
 2689SOL     OW 8965   6.031   1.796   3.795
 2689SOL    HW1 8966   5.995   1.805   3.888
 2689SOL    HW2 8967   6.091   1.873   3.775
 2690SOL     OW 8968   3.493   4.044   3.196
 2690SOL    HW1 8969   3.567   3.989   3.234
 2690SOL    HW2 8970   3.440   4.084   3.271
 2691SOL     OW 8971   1.067   6.001   1.145
 2691SOL    HW1 8972   1.119   6.002   1.230
 2691SOL    HW2 8973   1.121   5.956   1.073
 2692SOL     OW 8974   6.968   4.159   4.295
 2692SOL    HW1 8975   6.897   4.222   4.326
 2692SOL    HW2 8976   0.017   4.210   4.243
 2693SOL     OW 8977   2.139   3.904   2.699
 2693SOL    HW1 8978   2.134   3.920   2.601
 2693SOL    HW2 8979   2.181   3.983   2.744
 2694SOL     OW 8980   1.833   1.556   2.731
 2694SOL    HW1 8981   1.790   1.573   2.642
 2694SOL    HW2 8982   1.930   1.579   2.726
 2695SOL     OW 8983   3.921   2.129   1.968
 2695SOL    HW1 8984   3.891   2.207   1.913
 2695SOL    HW2 8985   3.852   2.108   2.037
 2696SOL     OW 8986   3.247   3.486   6.145
 2696SOL    HW1 8987   3.299   3.551   6.200
 2696SOL    HW2 8988   3.218   3.530   6.059
 2697SOL     OW 8989   2.345   0.879   5.151
 2697SOL    HW1 8990   2.427   0.841   5.193
 2697SOL    HW2 8991   2.355   0.879   5.051
 2698SOL     OW 8992   1.775   1.437   6.977
 2698SOL    HW1 8993   1.710   1.461   6.904
 2698SOL    HW2 8994   1.865   1.421   6.937
 2699SOL     OW 8995   1.384   4.947   3.782
 2699SOL    HW1 8996   1.326   4.959   3.863
 2699SOL    HW2 8997   1.337   4.888   3.716
 2700SOL     OW 8998   2.201   4.486   2.750
 2700SOL    HW1 8999   2.155   4.573   2.764
 2700SOL    HW2 9000   2.195   4.432   2.834
 2701SOL     OW 9001   1.884   0.842   5.451
 2701SOL    HW1 9002   1.920   0.787   5.526
 2701SOL    HW2 9003   1.794   0.878   5.476
 2702SOL     OW 9004   5.915   6.078   2.541
 2702SOL    HW1 9005   5.843   6.012   2.559
 2702SOL    HW2 9006   5.917   6.099   2.443
 2703SOL     OW 9007   2.069   2.657   2.415
 2703SOL    HW1 9008   2.147   2.717   2.400
 2703SOL    HW2 9009   1.995   2.709   2.459
 2704SOL     OW 9010   0.744   6.452   0.144
 2704SOL    HW1 9011   0.679   6.471   0.071
 2704SOL    HW2 9012   0.699   6.463   0.233
 2705SOL     OW 9013   0.534   3.262   2.552
 2705SOL    HW1 9014   0.436   3.246   2.562
 2705SOL    HW2 9015   0.580   3.177   2.528
 2706SOL     OW 9016   6.700   2.370   3.719
 2706SOL    HW1 9017   6.620   2.429   3.707
 2706SOL    HW2 9018   6.701   2.333   3.812
 2707SOL     OW 9019   3.576   1.322   0.388
 2707SOL    HW1 9020   3.509   1.253   0.414
 2707SOL    HW2 9021   3.583   1.326   0.288
 2708SOL     OW 9022   1.640   4.579   6.557
 2708SOL    HW1 9023   1.655   4.595   6.459
 2708SOL    HW2 9024   1.601   4.661   6.599
 2709SOL     OW 9025   3.960   0.204   1.938
 2709SOL    HW1 9026   4.037   0.254   1.899
 2709SOL    HW2 9027   3.927   0.251   2.020
 2710SOL     OW 9028   5.618   3.755   3.322
 2710SOL    HW1 9029   5.666   3.828   3.372
 2710SOL    HW2 9030   5.685   3.693   3.282
 2711SOL     OW 9031   0.553   6.496   1.827
 2711SOL    HW1 9032   0.624   6.462   1.888
 2711SOL    HW2 9033   0.579   6.479   1.732
 2712SOL     OW 9034   3.053   5.547   2.719
 2712SOL    HW1 9035   2.997   5.511   2.794
 2712SOL    HW2 9036   3.046   5.647   2.717
 2713SOL     OW 9037   2.285   2.808   5.534
 2713SOL    HW1 9038   2.309   2.901   5.506
 2713SOL    HW2 9039   2.276   2.751   5.453
 2714SOL     OW 9040   5.562   0.789   0.063
 2714SOL    HW1 9041   5.480   0.818   0.014
 2714SOL    HW2 9042   5.536   0.729   0.139
 2715SOL     OW 9043   5.797   0.374   0.222
 2715SOL    HW1 9044   5.708   0.343   0.255
 2715SOL    HW2 9045   5.784   0.432   0.142
 2716SOL     OW 9046   5.929   6.469   2.129
 2716SOL    HW1 9047   5.959   6.510   2.215
 2716SOL    HW2 9048   5.993   6.492   2.057
 2717SOL     OW 9049   0.475   0.013   3.259
 2717SOL    HW1 9050   0.573   0.022   3.278
 2717SOL    HW2 9051   0.444   0.092   3.206
 2718SOL     OW 9052   6.619   3.819   3.027
 2718SOL    HW1 9053   6.717   3.812   3.045
 2718SOL    HW2 9054   6.597   3.911   2.996
 2719SOL     OW 9055   4.779   4.475   3.073
 2719SOL    HW1 9056   4.797   4.483   2.975
 2719SOL    HW2 9057   4.710   4.542   3.100
 2720SOL     OW 9058   0.504   6.682   3.968
 2720SOL    HW1 9059   0.516   6.589   4.003
 2720SOL    HW2 9060   0.408   6.698   3.948
 2721SOL     OW 9061   5.072   6.238   3.093
 2721SOL    HW1 9062   4.972   6.235   3.088
 2721SOL    HW2 9063   5.101   6.327   3.128
 2722SOL     OW 9064   0.845   6.027   2.532
 2722SOL    HW1 9065   0.866   6.001   2.626
 2722SOL    HW2 9066   0.772   6.096   2.532
 2723SOL     OW 9067   1.922   2.401   4.168
 2723SOL    HW1 9068   1.985   2.390   4.091
 2723SOL    HW2 9069   1.830   2.418   4.134
 2724SOL     OW 9070   4.653   5.809   5.811
 2724SOL    HW1 9071   4.673   5.901   5.776
 2724SOL    HW2 9072   4.705   5.794   5.896
 2725SOL     OW 9073   2.019   4.889   2.583
 2725SOL    HW1 9074   1.938   4.841   2.617
 2725SOL    HW2 9075   2.059   4.837   2.508
 2726SOL     OW 9076   3.857   6.121   2.868
 2726SOL    HW1 9077   3.906   6.182   2.806
 2726SOL    HW2 9078   3.916   6.096   2.945
 2727SOL     OW 9079   2.247   5.335   4.067
 2727SOL    HW1 9080   2.207   5.272   3.999
 2727SOL    HW2 9081   2.316   5.392   4.023
 2728SOL     OW 9082   2.273   6.550   5.612
 2728SOL    HW1 9083   2.292   6.487   5.688
 2728SOL    HW2 9084   2.189   6.601   5.632
 2729SOL     OW 9085   0.298   4.191   2.502
 2729SOL    HW1 9086   0.231   4.230   2.566
 2729SOL    HW2 9087   0.267   4.101   2.472
 2730SOL     OW 9088   1.333   3.567   1.611
 2730SOL    HW1 9089   1.341   3.664   1.586
 2730SOL    HW2 9090   1.411   3.517   1.574
 2731SOL     OW 9091   2.109   3.089   6.949
 2731SOL    HW1 9092   2.138   3.100   6.854
 2731SOL    HW2 9093   2.019   3.130   6.962
 2732SOL     OW 9094   6.051   3.236   4.713
 2732SOL    HW1 9095   6.136   3.185   4.725
 2732SOL    HW2 9096   6.067   3.333   4.730
 2733SOL     OW 9097   2.187   0.167   0.109
 2733SOL    HW1 9098   2.115   0.215   0.059
 2733SOL    HW2 9099   2.234   0.232   0.169
 2734SOL     OW 9100   1.872   6.912   3.889
 2734SOL    HW1 9101   1.783   6.876   3.862
 2734SOL    HW2 9102   1.871   7.012   3.879
 2735SOL     OW 9103   1.568   5.519   1.559
 2735SOL    HW1 9104   1.600   5.444   1.617
 2735SOL    HW2 9105   1.470   5.532   1.573
 2736SOL     OW 9106   4.484   0.383   6.743
 2736SOL    HW1 9107   4.431   0.311   6.699
 2736SOL    HW2 9108   4.475   0.468   6.690
 2737SOL     OW 9109   4.380   4.122   5.455
 2737SOL    HW1 9110   4.361   4.213   5.490
 2737SOL    HW2 9111   4.478   4.103   5.463
 2738SOL     OW 9112   7.009   4.046   4.767
 2738SOL    HW1 9113   6.931   3.984   4.778
 2738SOL    HW2 9114   7.013   4.107   4.846
 2739SOL     OW 9115   4.523   3.846   6.664
 2739SOL    HW1 9116   4.444   3.785   6.654
 2739SOL    HW2 9117   4.559   3.838   6.757
 2740SOL     OW 9118   6.202   2.636   4.511
 2740SOL    HW1 9119   6.199   2.538   4.531
 2740SOL    HW2 9120   6.187   2.652   4.414
 2741SOL     OW 9121   2.296   3.324   5.820
 2741SOL    HW1 9122   2.314   3.231   5.789
 2741SOL    HW2 9123   2.377   3.381   5.803
 2742SOL     OW 9124   2.382   6.022   5.337
 2742SOL    HW1 9125   2.362   6.118   5.355
 2742SOL    HW2 9126   2.333   5.992   5.256
 2743SOL     OW 9127   5.830   3.765   6.093
 2743SOL    HW1 9128   5.777   3.780   6.176
 2743SOL    HW2 9129   5.837   3.850   6.041
 2744SOL     OW 9130   5.167   6.797   1.094
 2744SOL    HW1 9131   5.226   6.717   1.087
 2744SOL    HW2 9132   5.108   6.788   1.174
 2745SOL     OW 9133   3.182   5.560   2.338
 2745SOL    HW1 9134   3.175   5.660   2.341
 2745SOL    HW2 9135   3.124   5.521   2.410
 2746SOL     OW 9136   1.293   2.504   6.949
 2746SOL    HW1 9137   1.276   2.599   6.923
 2746SOL    HW2 9138   1.378   2.473   6.907
 2747SOL     OW 9139   4.879   6.425   3.943
 2747SOL    HW1 9140   4.937   6.456   4.018
 2747SOL    HW2 9141   4.928   6.435   3.857
 2748SOL     OW 9142   5.475   1.386   4.262
 2748SOL    HW1 9143   5.542   1.315   4.281
 2748SOL    HW2 9144   5.514   1.476   4.285
 2749SOL     OW 9145   5.637   5.052   3.157
 2749SOL    HW1 9146   5.641   5.150   3.177
 2749SOL    HW2 9147   5.569   5.009   3.217
 2750SOL     OW 9148   0.801   6.978   0.316
 2750SOL    HW1 9149   0.808   6.879   0.298
 2750SOL    HW2 9150   0.754   6.993   0.403
 2751SOL     OW 9151   1.265   0.523   6.594
 2751SOL    HW1 9152   1.175   0.564   6.609
 2751SOL    HW2 9153   1.281   0.452   6.662
 2752SOL     OW 9154   0.061   6.518   6.342
 2752SOL    HW1 9155   0.120   6.541   6.419
 2752SOL    HW2 9156   0.067   6.589   6.271
 2753SOL     OW 9157   3.571   5.221   4.410
 2753SOL    HW1 9158   3.544   5.215   4.314
 2753SOL    HW2 9159   3.550   5.135   4.456
 2754SOL     OW 9160   1.113   4.988   4.236
 2754SOL    HW1 9161   1.199   5.014   4.280
 2754SOL    HW2 9162   1.044   5.058   4.253
 2755SOL     OW 9163   4.647   6.617   2.675
 2755SOL    HW1 9164   4.638   6.717   2.683
 2755SOL    HW2 9165   4.564   6.580   2.633
 2756SOL     OW 9166   0.082   3.142   5.060
 2756SOL    HW1 9167   0.112   3.140   5.155
 2756SOL    HW2 9168   0.099   3.053   5.018
 2757SOL     OW 9169   4.977   4.027   5.503
 2757SOL    HW1 9170   4.996   4.106   5.445
 2757SOL    HW2 9171   4.905   4.050   5.568
 2758SOL     OW 9172   0.278   6.661   1.716
 2758SOL    HW1 9173   0.326   6.729   1.770
 2758SOL    HW2 9174   0.343   6.613   1.656
 2759SOL     OW 9175   4.011   3.829   4.765
 2759SOL    HW1 9176   4.111   3.831   4.765
 2759SOL    HW2 9177   3.979   3.789   4.851
 2760SOL     OW 9178   4.838   5.099   2.450
 2760SOL    HW1 9179   4.748   5.073   2.487
 2760SOL    HW2 9180   4.904   5.027   2.471
 2761SOL     OW 9181   1.979   3.540   3.883
 2761SOL    HW1 9182   1.939   3.582   3.801
 2761SOL    HW2 9183   1.939   3.583   3.965
 2762SOL     OW 9184   4.372   1.263   2.140
 2762SOL    HW1 9185   4.319   1.344   2.162
 2762SOL    HW2 9186   4.464   1.272   2.178
 2763SOL     OW 9187   5.544   1.056   3.910
 2763SOL    HW1 9188   5.487   1.059   3.992
 2763SOL    HW2 9189   5.548   0.963   3.875
 2764SOL     OW 9190   0.112   2.025   2.675
 2764SOL    HW1 9191   0.033   2.045   2.733
 2764SOL    HW2 9192   0.090   1.951   2.612
 2765SOL     OW 9193   0.030   6.673   6.854
 2765SOL    HW1 9194   0.090   6.642   6.928
 2765SOL    HW2 9195   7.000   6.596   6.816
 2766SOL     OW 9196   5.193   0.276   0.026
 2766SOL    HW1 9197   5.116   0.326   0.066
 2766SOL    HW2 9198   5.275   0.334   0.028
 2767SOL     OW 9199   0.649   6.078   6.108
 2767SOL    HW1 9200   0.587   6.009   6.145
 2767SOL    HW2 9201   0.660   6.152   6.174
 2768SOL     OW 9202   4.163   0.152   1.314
 2768SOL    HW1 9203   4.236   0.121   1.375
 2768SOL    HW2 9204   4.081   0.171   1.368
 2769SOL     OW 9205   0.751   5.164   5.990
 2769SOL    HW1 9206   0.765   5.171   6.089
 2769SOL    HW2 9207   0.815   5.098   5.952
 2770SOL     OW 9208   2.230   6.494   0.627
 2770SOL    HW1 9209   2.316   6.477   0.577
 2770SOL    HW2 9210   2.251   6.538   0.714
 2771SOL     OW 9211   3.830   6.119   5.643
 2771SOL    HW1 9212   3.836   6.212   5.677
 2771SOL    HW2 9213   3.916   6.071   5.661
 2772SOL     OW 9214   6.304   1.774   2.739
 2772SOL    HW1 9215   6.316   1.699   2.675
 2772SOL    HW2 9216   6.232   1.835   2.705
 2773SOL     OW 9217   5.202   1.717   6.085
 2773SOL    HW1 9218   5.145   1.709   6.166
 2773SOL    HW2 9219   5.145   1.707   6.003
 2774SOL     OW 9220   6.175   6.904   3.840
 2774SOL    HW1 9221   6.213   6.811   3.843
 2774SOL    HW2 9222   6.111   6.911   3.763
 2775SOL     OW 9223   6.970   2.508   4.818
 2775SOL    HW1 9224   0.021   2.562   4.864
 2775SOL    HW2 9225   6.991   2.503   4.720
 2776SOL     OW 9226   4.898   3.878   5.962
 2776SOL    HW1 9227   4.851   3.937   6.027
 2776SOL    HW2 9228   4.915   3.789   6.004
 2777SOL     OW 9229   1.745   1.372   0.649
 2777SOL    HW1 9230   1.715   1.427   0.571
 2777SOL    HW2 9231   1.813   1.423   0.701
 2778SOL     OW 9232   2.669   6.155   6.017
 2778SOL    HW1 9233   2.743   6.115   6.072
 2778SOL    HW2 9234   2.675   6.122   5.923
 2779SOL     OW 9235   5.273   1.240   3.729
 2779SOL    HW1 9236   5.273   1.144   3.702
 2779SOL    HW2 9237   5.367   1.269   3.749
 2780SOL     OW 9238   0.473   0.270   5.128
 2780SOL    HW1 9239   0.514   0.226   5.048
 2780SOL    HW2 9240   0.485   0.369   5.121
 2781SOL     OW 9241   6.816   0.053   2.857
 2781SOL    HW1 9242   6.832   0.151   2.865
 2781SOL    HW2 9243   6.903   0.005   2.859
 2782SOL     OW 9244   5.468   6.588   5.205
 2782SOL    HW1 9245   5.551   6.572   5.152
 2782SOL    HW2 9246   5.493   6.618   5.297
 2783SOL     OW 9247   6.728   2.395   1.721
 2783SOL    HW1 9248   6.797   2.364   1.656
 2783SOL    HW2 9249   6.760   2.478   1.766
 2784SOL     OW 9250   1.273   2.081   2.066
 2784SOL    HW1 9251   1.283   2.019   2.144
 2784SOL    HW2 9252   1.176   2.104   2.055
 2785SOL     OW 9253   5.239   3.534   3.745
 2785SOL    HW1 9254   5.148   3.499   3.724
 2785SOL    HW2 9255   5.308   3.482   3.695
 2786SOL     OW 9256   0.418   5.812   0.865
 2786SOL    HW1 9257   0.356   5.878   0.906
 2786SOL    HW2 9258   0.406   5.723   0.910
 2787SOL     OW 9259   0.444   6.546   6.243
 2787SOL    HW1 9260   0.524   6.596   6.276
 2787SOL    HW2 9261   0.472   6.478   6.176
 2788SOL     OW 9262   2.973   6.624   6.976
 2788SOL    HW1 9263   2.952   6.610   6.879
 2788SOL    HW2 9264   2.904   6.578   0.013
 2789SOL     OW 9265   2.040   2.052   3.514
 2789SOL    HW1 9266   1.953   2.010   3.541
 2789SOL    HW2 9267   2.083   2.094   3.594
 2790SOL     OW 9268   1.052   4.802   1.467
 2790SOL    HW1 9269   1.101   4.722   1.432
 2790SOL    HW2 9270   1.004   4.846   1.392
 2791SOL     OW 9271   0.150   3.753   5.580
 2791SOL    HW1 9272   0.159   3.808   5.663
 2791SOL    HW2 9273   0.092   3.673   5.599
 2792SOL     OW 9274   2.920   2.594   0.153
 2792SOL    HW1 9275   2.992   2.645   0.106
 2792SOL    HW2 9276   2.910   2.629   0.246
 2793SOL     OW 9277   4.395   3.766   6.310
 2793SOL    HW1 9278   4.395   3.721   6.400
 2793SOL    HW2 9279   4.340   3.713   6.246
 2794SOL     OW 9280   1.233   2.231   6.554
 2794SOL    HW1 9281   1.134   2.218   6.557
 2794SOL    HW2 9282   1.274   2.193   6.638
 2795SOL     OW 9283   1.395   0.006   0.474
 2795SOL    HW1 9284   1.435   6.937   0.447
 2795SOL    HW2 9285   1.468   0.070   0.498
 2796SOL     OW 9286   3.038   5.716   0.011
 2796SOL    HW1 9287   2.966   5.780   7.002
 2796SOL    HW2 9288   3.128   5.759   7.015
 2797SOL     OW 9289   4.851   4.010   4.663
 2797SOL    HW1 9290   4.787   4.086   4.675
 2797SOL    HW2 9291   4.893   3.987   4.751
 2798SOL     OW 9292   5.583   2.788   1.592
 2798SOL    HW1 9293   5.632   2.803   1.678
 2798SOL    HW2 9294   5.508   2.723   1.607
 2799SOL     OW 9295   3.352   0.055   4.609
 2799SOL    HW1 9296   3.414   0.127   4.641
 2799SOL    HW2 9297   3.385   6.986   4.642
 2800SOL     OW 9298   4.564   1.271   0.295
 2800SOL    HW1 9299   4.554   1.215   0.377
 2800SOL    HW2 9300   4.661   1.276   0.270
 2801SOL     OW 9301   0.058   4.424   3.224
 2801SOL    HW1 9302   0.129   4.432   3.294
 2801SOL    HW2 9303   0.020   4.332   3.225
 2802SOL     OW 9304   2.085   4.416   4.151
 2802SOL    HW1 9305   1.988   4.398   4.171
 2802SOL    HW2 9306   2.124   4.472   4.224
 2803SOL     OW 9307   2.877   2.934   6.545
 2803SOL    HW1 9308   2.932   2.978   6.474
 2803SOL    HW2 9309   2.822   2.861   6.504
 2804SOL     OW 9310   5.473   2.411   3.715
 2804SOL    HW1 9311   5.395   2.396   3.655
 2804SOL    HW2 9312   5.455   2.489   3.775
 2805SOL     OW 9313   4.102   5.565   0.412
 2805SOL    HW1 9314   4.085   5.658   0.445
 2805SOL    HW2 9315   4.024   5.534   0.358
 2806SOL     OW 9316   0.547   3.037   5.087
 2806SOL    HW1 9317   0.525   2.981   5.007
 2806SOL    HW2 9318   0.645   3.053   5.091
 2807SOL     OW 9319   4.504   1.486   3.862
 2807SOL    HW1 9320   4.418   1.439   3.885
 2807SOL    HW2 9321   4.496   1.583   3.885
 2808SOL     OW 9322   0.989   6.057   6.759
 2808SOL    HW1 9323   0.904   6.032   6.806
 2808SOL    HW2 9324   1.065   6.004   6.796
 2809SOL     OW 9325   0.901   6.421   0.636
 2809SOL    HW1 9326   0.927   6.325   0.639
 2809SOL    HW2 9327   0.877   6.452   0.729
 2810SOL     OW 9328   0.004   6.455   2.002
 2810SOL    HW1 9329   0.018   6.551   1.978
 2810SOL    HW2 9330   7.010   6.401   1.919
 2811SOL     OW 9331   0.883   0.242   0.705
 2811SOL    HW1 9332   0.791   0.221   0.671
 2811SOL    HW2 9333   0.951   0.213   0.638
 2812SOL     OW 9334   1.828   0.734   1.264
 2812SOL    HW1 9335   1.857   0.688   1.348
 2812SOL    HW2 9336   1.728   0.742   1.263
 2813SOL     OW 9337   5.994   2.129   1.438
 2813SOL    HW1 9338   6.089   2.158   1.446
 2813SOL    HW2 9339   5.938   2.207   1.408
 2814SOL     OW 9340   2.155   4.128   6.705
 2814SOL    HW1 9341   2.055   4.127   6.692
 2814SOL    HW2 9342   2.176   4.099   6.798
 2815SOL     OW 9343   6.181   6.310   4.832
 2815SOL    HW1 9344   6.154   6.341   4.923
 2815SOL    HW2 9345   6.124   6.355   4.763
 2816SOL     OW 9346   0.877   5.138   5.276
 2816SOL    HW1 9347   0.879   5.138   5.176
 2816SOL    HW2 9348   0.937   5.066   5.311
 2817SOL     OW 9349   3.062   0.776   1.640
 2817SOL    HW1 9350   3.067   0.836   1.560
 2817SOL    HW2 9351   3.053   0.681   1.610
 2818SOL     OW 9352   2.247   1.011   0.571
 2818SOL    HW1 9353   2.239   0.981   0.476
 2818SOL    HW2 9354   2.310   0.950   0.620
 2819SOL     OW 9355   5.935   0.355   6.678
 2819SOL    HW1 9356   5.844   0.360   6.637
 2819SOL    HW2 9357   6.004   0.366   6.607
 2820SOL     OW 9358   1.665   1.528   0.406
 2820SOL    HW1 9359   1.587   1.466   0.410
 2820SOL    HW2 9360   1.695   1.537   0.311
 2821SOL     OW 9361   3.648   2.173   6.018
 2821SOL    HW1 9362   3.555   2.137   6.031
 2821SOL    HW2 9363   3.714   2.100   6.036
 2822SOL     OW 9364   4.467   3.279   1.419
 2822SOL    HW1 9365   4.531   3.307   1.491
 2822SOL    HW2 9366   4.445   3.358   1.362
 2823SOL     OW 9367   5.429   4.086   2.982
 2823SOL    HW1 9368   5.418   4.032   2.899
 2823SOL    HW2 9369   5.339   4.118   3.013
 2824SOL     OW 9370   0.509   4.311   5.368
 2824SOL    HW1 9371   0.441   4.366   5.416
 2824SOL    HW2 9372   0.594   4.364   5.360
 2825SOL     OW 9373   5.069   2.690   5.586
 2825SOL    HW1 9374   5.100   2.734   5.670
 2825SOL    HW2 9375   5.119   2.604   5.572
 2826SOL     OW 9376   3.084   3.229   6.582
 2826SOL    HW1 9377   3.095   3.282   6.498
 2826SOL    HW2 9378   3.165   3.173   6.597
 2827SOL     OW 9379   6.710   1.650   0.199
 2827SOL    HW1 9380   6.650   1.590   0.251
 2827SOL    HW2 9381   6.656   1.709   0.140
 2828SOL     OW 9382   1.911   4.055   0.011
 2828SOL    HW1 9383   1.848   4.039   0.087
 2828SOL    HW2 9384   1.879   4.006   6.949
 2829SOL     OW 9385   3.292   4.347   1.043
 2829SOL    HW1 9386   3.232   4.291   0.986
 2829SOL    HW2 9387   3.315   4.431   0.994
 2830SOL     OW 9388   2.828   5.638   4.623
 2830SOL    HW1 9389   2.826   5.540   4.637
 2830SOL    HW2 9390   2.817   5.659   4.526
 2831SOL     OW 9391   5.533   1.522   1.874
 2831SOL    HW1 9392   5.575   1.544   1.962
 2831SOL    HW2 9393   5.457   1.459   1.889
 2832SOL     OW 9394   1.505   3.814   1.592
 2832SOL    HW1 9395   1.428   3.857   1.545
 2832SOL    HW2 9396   1.557   3.884   1.642
 2833SOL     OW 9397   6.337   1.944   3.533
 2833SOL    HW1 9398   6.315   1.846   3.530
 2833SOL    HW2 9399   6.288   1.987   3.609
 2834SOL     OW 9400   2.820   0.402   4.386
 2834SOL    HW1 9401   2.880   0.464   4.437
 2834SOL    HW2 9402   2.861   0.311   4.383
 2835SOL     OW 9403   6.566   1.533   0.627
 2835SOL    HW1 9404   6.558   1.449   0.682
 2835SOL    HW2 9405   6.620   1.600   0.677
 2836SOL     OW 9406   2.796   6.531   2.150
 2836SOL    HW1 9407   2.830   6.616   2.190
 2836SOL    HW2 9408   2.718   6.551   2.091
 2837SOL     OW 9409   5.133   3.973   3.237
 2837SOL    HW1 9410   5.045   3.942   3.203
 2837SOL    HW2 9411   5.145   3.942   3.332
 2838SOL     OW 9412   6.604   4.341   6.164
 2838SOL    HW1 9413   6.657   4.415   6.205
 2838SOL    HW2 9414   6.516   4.378   6.132
 2839SOL     OW 9415   5.337   2.679   6.554
 2839SOL    HW1 9416   5.390   2.595   6.561
 2839SOL    HW2 9417   5.239   2.657   6.553
 2840SOL     OW 9418   6.426   5.791   5.241
 2840SOL    HW1 9419   6.344   5.734   5.243
 2840SOL    HW2 9420   6.400   5.887   5.231
 2841SOL     OW 9421   5.549   3.365   2.890
 2841SOL    HW1 9422   5.479   3.430   2.860
 2841SOL    HW2 9423   5.636   3.412   2.903
 2842SOL     OW 9424   0.759   6.156   3.408
 2842SOL    HW1 9425   0.796   6.107   3.488
 2842SOL    HW2 9426   0.826   6.223   3.377
 2843SOL     OW 9427   0.716   2.544   4.144
 2843SOL    HW1 9428   0.670   2.626   4.176
 2843SOL    HW2 9429   0.710   2.539   4.044
 2844SOL     OW 9430   5.822   4.082   0.215
 2844SOL    HW1 9431   5.810   4.140   0.295
 2844SOL    HW2 9432   5.920   4.071   0.196
 2845SOL     OW 9433   3.595   1.687   1.049
 2845SOL    HW1 9434   3.595   1.780   1.011
 2845SOL    HW2 9435   3.532   1.683   1.126
 2846SOL     OW 9436   5.240   0.600   6.198
 2846SOL    HW1 9437   5.187   0.668   6.249
 2846SOL    HW2 9438   5.195   0.511   6.204
 2847SOL     OW 9439   5.874   4.513   2.683
 2847SOL    HW1 9440   5.944   4.501   2.613
 2847SOL    HW2 9441   5.878   4.606   2.720
 2848SOL     OW 9442   0.271   3.371   0.304
 2848SOL    HW1 9443   0.368   3.352   0.319
 2848SOL    HW2 9444   0.235   3.424   0.380
 2849SOL     OW 9445   5.192   0.890   0.513
 2849SOL    HW1 9446   5.286   0.923   0.507
 2849SOL    HW2 9447   5.130   0.961   0.479
 2850SOL     OW 9448   6.773   1.700   0.698
 2850SOL    HW1 9449   6.739   1.770   0.637
 2850SOL    HW2 9450   6.866   1.675   0.673
 2851SOL     OW 9451   3.399   3.157   2.294
 2851SOL    HW1 9452   3.387   3.059   2.307
 2851SOL    HW2 9453   3.424   3.175   2.199
 2852SOL     OW 9454   0.905   4.890   5.436
 2852SOL    HW1 9455   0.905   4.804   5.386
 2852SOL    HW2 9456   0.829   4.891   5.502
 2853SOL     OW 9457   0.044   4.983   5.654
 2853SOL    HW1 9458   0.110   4.986   5.579
 2853SOL    HW2 9459   7.006   5.065   5.651
 2854SOL     OW 9460   3.278   0.423   6.590
 2854SOL    HW1 9461   3.355   0.427   6.526
 2854SOL    HW2 9462   3.219   0.346   6.565
 2855SOL     OW 9463   2.672   2.465   4.358
 2855SOL    HW1 9464   2.616   2.501   4.283
 2855SOL    HW2 9465   2.688   2.368   4.343
 2856SOL     OW 9466   1.348   5.370   4.970
 2856SOL    HW1 9467   1.410   5.293   4.952
 2856SOL    HW2 9468   1.335   5.379   5.069
 2857SOL     OW 9469   0.919   4.228   0.183
 2857SOL    HW1 9470   0.882   4.261   0.097
 2857SOL    HW2 9471   0.999   4.282   0.209
 2858SOL     OW 9472   5.496   4.606   4.056
 2858SOL    HW1 9473   5.404   4.642   4.074
 2858SOL    HW2 9474   5.512   4.527   4.115
 2859SOL     OW 9475   0.289   5.293   2.127
 2859SOL    HW1 9476   0.253   5.270   2.036
 2859SOL    HW2 9477   0.365   5.233   2.150
 2860SOL     OW 9478   1.287   6.251   2.839
 2860SOL    HW1 9479   1.269   6.349   2.842
 2860SOL    HW2 9480   1.349   6.227   2.913
 2861SOL     OW 9481   5.638   3.272   5.321
 2861SOL    HW1 9482   5.706   3.338   5.289
 2861SOL    HW2 9483   5.614   3.292   5.416
 2862SOL     OW 9484   4.638   1.097   0.546
 2862SOL    HW1 9485   4.716   1.139   0.592
 2862SOL    HW2 9486   4.670   1.041   0.469
 2863SOL     OW 9487   5.534   1.343   6.452
 2863SOL    HW1 9488   5.471   1.265   6.452
 2863SOL    HW2 9489   5.491   1.419   6.403
 2864SOL     OW 9490   4.176   4.685   0.787
 2864SOL    HW1 9491   4.215   4.650   0.702
 2864SOL    HW2 9492   4.169   4.784   0.783
 2865SOL     OW 9493   5.649   4.514   6.264
 2865SOL    HW1 9494   5.563   4.499   6.214
 2865SOL    HW2 9495   5.691   4.425   6.284
 2866SOL     OW 9496   4.463   5.917   1.498
 2866SOL    HW1 9497   4.434   5.966   1.580
 2866SOL    HW2 9498   4.390   5.857   1.467
 2867SOL     OW 9499   0.635   5.893   3.555
 2867SOL    HW1 9500   0.588   5.831   3.618
 2867SOL    HW2 9501   0.663   5.976   3.604
 2868SOL     OW 9502   6.639   0.389   5.523
 2868SOL    HW1 9503   6.612   0.423   5.433
 2868SOL    HW2 9504   6.697   0.308   5.512
 2869SOL     OW 9505   5.965   4.592   5.054
 2869SOL    HW1 9506   5.957   4.510   4.998
 2869SOL    HW2 9507   5.891   4.655   5.031
 2870SOL     OW 9508   0.604   1.191   1.175
 2870SOL    HW1 9509   0.688   1.159   1.219
 2870SOL    HW2 9510   0.553   1.248   1.239
 2871SOL     OW 9511   4.722   1.272   3.211
 2871SOL    HW1 9512   4.626   1.244   3.218
 2871SOL    HW2 9513   4.758   1.291   3.302
 2872SOL     OW 9514   3.494   1.353   2.471
 2872SOL    HW1 9515   3.407   1.306   2.456
 2872SOL    HW2 9516   3.544   1.308   2.545
 2873SOL     OW 9517   0.109   0.153   2.712
 2873SOL    HW1 9518   0.168   0.076   2.736
 2873SOL    HW2 9519   0.035   0.121   2.651
 2874SOL     OW 9520   1.431   1.074   1.915
 2874SOL    HW1 9521   1.472   1.086   1.824
 2874SOL    HW2 9522   1.477   1.135   1.980
 2875SOL     OW 9523   3.138   0.554   2.154
 2875SOL    HW1 9524   3.155   0.588   2.061
 2875SOL    HW2 9525   3.112   0.458   2.150
 2876SOL     OW 9526   1.307   6.992   1.063
 2876SOL    HW1 9527   1.291   0.068   1.038
 2876SOL    HW2 9528   1.320   6.985   1.162
 2877SOL     OW 9529   0.812   3.314   6.608
 2877SOL    HW1 9530   0.845   3.408   6.607
 2877SOL    HW2 9531   0.852   3.264   6.532
 2878SOL     OW 9532   3.884   3.556   4.646
 2878SOL    HW1 9533   3.829   3.639   4.652
 2878SOL    HW2 9534   3.980   3.577   4.664
 2879SOL     OW 9535   6.324   6.297   0.246
 2879SOL    HW1 9536   6.374   6.249   0.318
 2879SOL    HW2 9537   6.384   6.314   0.169
 2880SOL     OW 9538   1.360   1.584   2.703
 2880SOL    HW1 9539   1.283   1.549   2.756
 2880SOL    HW2 9540   1.368   1.533   2.617
 2881SOL     OW 9541   5.351   5.444   0.008
 2881SOL    HW1 9542   5.361   5.496   0.092
 2881SOL    HW2 9543   5.255   5.423   7.012
 2882SOL     OW 9544   4.925   6.309   0.339
 2882SOL    HW1 9545   5.000   6.294   0.273
 2882SOL    HW2 9546   4.842   6.332   0.289
 2883SOL     OW 9547   5.229   6.017   3.078
 2883SOL    HW1 9548   5.193   6.014   2.985
 2883SOL    HW2 9549   5.183   6.090   3.130
 2884SOL     OW 9550   6.279   5.975   3.470
 2884SOL    HW1 9551   6.300   5.985   3.567
 2884SOL    HW2 9552   6.184   5.944   3.459
 2885SOL     OW 9553   0.463   4.277   3.367
 2885SOL    HW1 9554   0.514   4.235   3.442
 2885SOL    HW2 9555   0.440   4.207   3.299
 2886SOL     OW 9556   1.729   4.357   5.297
 2886SOL    HW1 9557   1.795   4.315   5.359
 2886SOL    HW2 9558   1.697   4.288   5.231
 2887SOL     OW 9559   0.089   4.758   2.803
 2887SOL    HW1 9560   0.177   4.805   2.808
 2887SOL    HW2 9561   0.075   4.703   2.886
 2888SOL     OW 9562   4.580   5.954   6.843
 2888SOL    HW1 9563   4.519   6.017   6.795
 2888SOL    HW2 9564   4.543   5.933   6.933
 2889SOL     OW 9565   3.941   5.080   3.722
 2889SOL    HW1 9566   3.842   5.092   3.723
 2889SOL    HW2 9567   3.982   5.148   3.661
 2890SOL     OW 9568   1.356   1.613   0.874
 2890SOL    HW1 9569   1.389   1.632   0.782
 2890SOL    HW2 9570   1.406   1.670   0.940
 2891SOL     OW 9571   1.281   1.611   5.405
 2891SOL    HW1 9572   1.203   1.658   5.446
 2891SOL    HW2 9573   1.302   1.653   5.316
 2892SOL     OW 9574   5.819   3.597   2.282
 2892SOL    HW1 9575   5.720   3.583   2.284
 2892SOL    HW2 9576   5.855   3.571   2.192
 2893SOL     OW 9577   6.683   5.763   5.245
 2893SOL    HW1 9578   6.583   5.767   5.243
 2893SOL    HW2 9579   6.718   5.770   5.152
 2894SOL     OW 9580   1.620   5.655   1.330
 2894SOL    HW1 9581   1.583   5.614   1.414
 2894SOL    HW2 9582   1.582   5.608   1.251
 2895SOL     OW 9583   4.850   6.378   6.207
 2895SOL    HW1 9584   4.872   6.403   6.113
 2895SOL    HW2 9585   4.786   6.445   6.246
 2896SOL     OW 9586   6.885   0.144   6.447
 2896SOL    HW1 9587   6.929   0.063   6.407
 2896SOL    HW2 9588   6.822   0.115   6.520
 2897SOL     OW 9589   2.724   6.361   3.833
 2897SOL    HW1 9590   2.755   6.433   3.770
 2897SOL    HW2 9591   2.728   6.272   3.787
 2898SOL     OW 9592   5.431   2.293   2.522
 2898SOL    HW1 9593   5.366   2.327   2.590
 2898SOL    HW2 9594   5.414   2.337   2.434
 2899SOL     OW 9595   6.383   2.692   0.978
 2899SOL    HW1 9596   6.298   2.684   1.031
 2899SOL    HW2 9597   6.384   2.622   0.906
 2900SOL     OW 9598   3.115   3.131   5.027
 2900SOL    HW1 9599   3.078   3.130   4.934
 2900SOL    HW2 9600   3.212   3.158   5.023
 2901SOL     OW 9601   1.394   3.141   1.278
 2901SOL    HW1 9602   1.381   3.213   1.345
 2901SOL    HW2 9603   1.459   3.172   1.208
 2902SOL     OW 9604   4.999   6.048   3.689
 2902SOL    HW1 9605   4.927   6.050   3.620
 2902SOL    HW2 9606   4.992   5.962   3.741
 2903SOL     OW 9607   0.988   5.244   1.708
 2903SOL    HW1 9608   0.892   5.263   1.729
 2903SOL    HW2 9609   0.997   5.150   1.673
 2904SOL     OW 9610   2.928   5.028   4.036
 2904SOL    HW1 9611   2.953   5.019   4.132
 2904SOL    HW2 9612   2.883   4.944   4.005
 2905SOL     OW 9613   1.149   4.378   1.152
 2905SOL    HW1 9614   1.069   4.323   1.127
 2905SOL    HW2 9615   1.232   4.333   1.120
 2906SOL     OW 9616   6.420   6.252   6.477
 2906SOL    HW1 9617   6.384   6.224   6.388
 2906SOL    HW2 9618   6.348   6.301   6.528
 2907SOL     OW 9619   6.867   1.486   6.020
 2907SOL    HW1 9620   6.917   1.534   5.949
 2907SOL    HW2 9621   6.831   1.400   5.984
 2908SOL     OW 9622   3.650   5.902   3.655
 2908SOL    HW1 9623   3.554   5.895   3.627
 2908SOL    HW2 9624   3.679   5.817   3.697
 2909SOL     OW 9625   0.197   6.459   0.874
 2909SOL    HW1 9626   0.183   6.440   0.777
 2909SOL    HW2 9627   0.132   6.528   0.904
 2910SOL     OW 9628   1.037   0.087   4.226
 2910SOL    HW1 9629   0.940   0.063   4.222
 2910SOL    HW2 9630   1.076   0.053   4.311
 2911SOL     OW 9631   6.764   3.384   3.571
 2911SOL    HW1 9632   6.814   3.424   3.495
 2911SOL    HW2 9633   6.826   3.331   3.628
 2912SOL     OW 9634   6.899   1.599   3.096
 2912SOL    HW1 9635   6.860   1.533   3.161
 2912SOL    HW2 9636   6.921   1.552   3.011
 2913SOL     OW 9637   1.003   6.628   4.167
 2913SOL    HW1 9638   1.013   6.717   4.122
 2913SOL    HW2 9639   1.063   6.625   4.248
 2914SOL     OW 9640   3.863   4.562   0.869
 2914SOL    HW1 9641   3.922   4.481   0.871
 2914SOL    HW2 9642   3.825   4.577   0.960
 2915SOL     OW 9643   2.170   0.057   3.683
 2915SOL    HW1 9644   2.173   0.084   3.586
 2915SOL    HW2 9645   2.202   6.982   3.692
 2916SOL     OW 9646   0.573   5.910   6.297
 2916SOL    HW1 9647   0.663   5.921   6.338
 2916SOL    HW2 9648   0.505   5.891   6.368
 2917SOL     OW 9649   1.662   1.647   4.015
 2917SOL    HW1 9650   1.686   1.554   3.986
 2917SOL    HW2 9651   1.745   1.702   4.023
 2918SOL     OW 9652   4.822   1.281   1.021
 2918SOL    HW1 9653   4.909   1.236   1.000
 2918SOL    HW2 9654   4.837   1.352   1.089
 2919SOL     OW 9655   0.915   5.445   5.031
 2919SOL    HW1 9656   0.825   5.404   5.016
 2919SOL    HW2 9657   0.931   5.456   5.129
 2920SOL     OW 9658   2.753   2.248   1.768
 2920SOL    HW1 9659   2.825   2.187   1.735
 2920SOL    HW2 9660   2.794   2.333   1.799
 2921SOL     OW 9661   0.114   5.550   3.845
 2921SOL    HW1 9662   0.061   5.599   3.775
 2921SOL    HW2 9663   0.197   5.513   3.804
 2922SOL     OW 9664   3.963   4.776   3.542
 2922SOL    HW1 9665   3.932   4.792   3.636
 2922SOL    HW2 9666   3.901   4.822   3.479
 2923SOL     OW 9667   1.312   4.469   3.594
 2923SOL    HW1 9668   1.411   4.480   3.603
 2923SOL    HW2 9669   1.274   4.440   3.681
 2924SOL     OW 9670   4.685   1.401   7.011
 2924SOL    HW1 9671   4.771   1.433   6.972
 2924SOL    HW2 9672   4.615   1.472   7.001
 2925SOL     OW 9673   5.277   6.811   4.764
 2925SOL    HW1 9674   5.365   6.795   4.810
 2925SOL    HW2 9675   5.225   6.879   4.815
 2926SOL     OW 9676   0.170   2.670   5.171
 2926SOL    HW1 9677   0.157   2.714   5.082
 2926SOL    HW2 9678   0.234   2.724   5.226
 2927SOL     OW 9679   0.820   1.787   2.718
 2927SOL    HW1 9680   0.912   1.783   2.758
 2927SOL    HW2 9681   0.812   1.717   2.647
 2928SOL     OW 9682   4.795   5.016   0.415
 2928SOL    HW1 9683   4.817   5.061   0.328
 2928SOL    HW2 9684   4.785   5.085   0.486
 2929SOL     OW 9685   1.566   1.658   2.986
 2929SOL    HW1 9686   1.542   1.574   2.938
 2929SOL    HW2 9687   1.487   1.689   3.039
 2930SOL     OW 9688   0.649   2.991   4.315
 2930SOL    HW1 9689   0.614   2.901   4.290
 2930SOL    HW2 9690   0.713   2.982   4.391
 2931SOL     OW 9691   5.703   3.893   5.601
 2931SOL    HW1 9692   5.785   3.860   5.553
 2931SOL    HW2 9693   5.648   3.814   5.629
 2932SOL     OW 9694   0.201   6.816   0.654
 2932SOL    HW1 9695   0.134   6.755   0.612
 2932SOL    HW2 9696   0.154   6.894   0.696
 2933SOL     OW 9697   0.756   0.577   0.068
 2933SOL    HW1 9698   0.816   0.497   0.073
 2933SOL    HW2 9699   0.714   0.593   0.158
 2934SOL     OW 9700   5.642   5.177   2.653
 2934SOL    HW1 9701   5.573   5.125   2.602
 2934SOL    HW2 9702   5.653   5.137   2.744
 2935SOL     OW 9703   0.712   4.607   6.214
 2935SOL    HW1 9704   0.757   4.555   6.141
 2935SOL    HW2 9705   0.771   4.683   6.242
 2936SOL     OW 9706   4.355   6.275   2.617
 2936SOL    HW1 9707   4.330   6.224   2.699
 2936SOL    HW2 9708   4.392   6.213   2.548
 2937SOL     OW 9709   6.258   3.367   3.217
 2937SOL    HW1 9710   6.160   3.388   3.217
 2937SOL    HW2 9711   6.288   3.351   3.123
 2938SOL     OW 9712   0.314   5.344   1.623
 2938SOL    HW1 9713   0.325   5.366   1.720
 2938SOL    HW2 9714   0.389   5.387   1.571
 2939SOL     OW 9715   5.518   6.012   2.106
 2939SOL    HW1 9716   5.560   6.093   2.064
 2939SOL    HW2 9717   5.577   5.976   2.177
 2940SOL     OW 9718   4.774   5.444   3.421
 2940SOL    HW1 9719   4.702   5.504   3.387
 2940SOL    HW2 9720   4.733   5.364   3.465
 2941SOL     OW 9721   3.257   5.239   2.410
 2941SOL    HW1 9722   3.166   5.229   2.450
 2941SOL    HW2 9723   3.258   5.198   2.319
 2942SOL     OW 9724   2.835   1.803   0.738
 2942SOL    HW1 9725   2.785   1.889   0.733
 2942SOL    HW2 9726   2.777   1.729   0.704
 2943SOL     OW 9727   0.269   4.567   3.981
 2943SOL    HW1 9728   0.243   4.488   3.926
 2943SOL    HW2 9729   0.221   4.564   4.069
 2944SOL     OW 9730   0.738   5.279   3.596
 2944SOL    HW1 9731   0.681   5.349   3.553
 2944SOL    HW2 9732   0.725   5.191   3.548
 2945SOL     OW 9733   5.581   3.502   0.578
 2945SOL    HW1 9734   5.543   3.470   0.491
 2945SOL    HW2 9735   5.513   3.493   0.650
 2946SOL     OW 9736   3.250   4.039   4.360
 2946SOL    HW1 9737   3.304   3.957   4.340
 2946SOL    HW2 9738   3.163   4.011   4.401
 2947SOL     OW 9739   6.564   6.611   0.547
 2947SOL    HW1 9740   6.527   6.567   0.465
 2947SOL    HW2 9741   6.664   6.608   0.546
 2948SOL     OW 9742   6.072   4.465   0.908
 2948SOL    HW1 9743   6.093   4.421   0.995
 2948SOL    HW2 9744   6.129   4.546   0.896
 2949SOL     OW 9745   1.828   6.074   0.975
 2949SOL    HW1 9746   1.794   6.134   1.047
 2949SOL    HW2 9747   1.755   6.056   0.909
 2950SOL     OW 9748   5.545   4.822   2.009
 2950SOL    HW1 9749   5.580   4.821   1.915
 2950SOL    HW2 9750   5.445   4.819   2.007
 2951SOL     OW 9751   0.594   2.276   0.905
 2951SOL    HW1 9752   0.644   2.318   0.830
 2951SOL    HW2 9753   0.597   2.337   0.985
 2952SOL     OW 9754   0.898   1.530   4.403
 2952SOL    HW1 9755   0.800   1.534   4.385
 2952SOL    HW2 9756   0.929   1.435   4.399
 2953SOL     OW 9757   1.274   5.545   3.254
 2953SOL    HW1 9758   1.254   5.507   3.164
 2953SOL    HW2 9759   1.343   5.617   3.246
 2954SOL     OW 9760   0.446   4.711   6.171
 2954SOL    HW1 9761   0.527   4.651   6.171
 2954SOL    HW2 9762   0.370   4.664   6.125
 2955SOL     OW 9763   1.715   4.840   5.731
 2955SOL    HW1 9764   1.779   4.917   5.740
 2955SOL    HW2 9765   1.628   4.864   5.775
 2956SOL     OW 9766   6.513   3.391   4.997
 2956SOL    HW1 9767   6.446   3.456   4.961
 2956SOL    HW2 9768   6.557   3.343   4.920
 2957SOL     OW 9769   1.510   4.894   1.907
 2957SOL    HW1 9770   1.599   4.920   1.944
 2957SOL    HW2 9771   1.457   4.846   1.977
 2958SOL     OW 9772   2.006   3.721   1.034
 2958SOL    HW1 9773   1.942   3.680   0.969
 2958SOL    HW2 9774   1.969   3.712   1.127
 2959SOL     OW 9775   0.451   4.592   4.161
 2959SOL    HW1 9776   0.492   4.501   4.149
 2959SOL    HW2 9777   0.389   4.610   4.085
 2960SOL     OW 9778   4.902   6.266   0.746
 2960SOL    HW1 9779   4.863   6.344   0.794
 2960SOL    HW2 9780   4.987   6.294   0.701
 2961SOL     OW 9781   5.831   2.143   0.588
 2961SOL    HW1 9782   5.759   2.074   0.580
 2961SOL    HW2 9783   5.813   2.199   0.669
 2962SOL     OW 9784   6.560   0.414   3.765
 2962SOL    HW1 9785   6.475   0.460   3.790
 2962SOL    HW2 9786   6.570   0.331   3.820
 2963SOL     OW 9787   2.031   1.773   5.851
 2963SOL    HW1 9788   2.034   1.861   5.806
 2963SOL    HW2 9789   2.119   1.727   5.839
 2964SOL     OW 9790   0.897   0.836   5.932
 2964SOL    HW1 9791   0.891   0.879   5.842
 2964SOL    HW2 9792   0.980   0.780   5.936
 2965SOL     OW 9793   5.926   0.246   6.063
 2965SOL    HW1 9794   6.014   0.211   6.095
 2965SOL    HW2 9795   5.854   0.180   6.081
 2966SOL     OW 9796   3.364   6.949   3.183
 2966SOL    HW1 9797   3.458   6.936   3.152
 2966SOL    HW2 9798   3.340   6.878   3.249
 2967SOL     OW 9799   6.023   0.184   5.295
 2967SOL    HW1 9800   6.020   0.207   5.198
 2967SOL    HW2 9801   6.054   0.090   5.307
 2968SOL     OW 9802   1.706   3.994   1.980
 2968SOL    HW1 9803   1.687   4.044   2.065
 2968SOL    HW2 9804   1.751   3.907   2.002
 2969SOL     OW 9805   4.292   2.014   4.941
 2969SOL    HW1 9806   4.318   1.961   4.861
 2969SOL    HW2 9807   4.202   2.056   4.926
 2970SOL     OW 9808   3.197   2.479   5.947
 2970SOL    HW1 9809   3.240   2.433   5.870
 2970SOL    HW2 9810   3.258   2.550   5.982
 2971SOL     OW 9811   4.095   3.467   5.622
 2971SOL    HW1 9812   4.014   3.474   5.565
 2971SOL    HW2 9813   4.069   3.435   5.713
 2972SOL     OW 9814   0.823   5.713   6.432
 2972SOL    HW1 9815   0.775   5.655   6.365
 2972SOL    HW2 9816   0.904   5.752   6.389
 2973SOL     OW 9817   5.538   0.621   4.192
 2973SOL    HW1 9818   5.552   0.584   4.100
 2973SOL    HW2 9819   5.454   0.674   4.193
 2974SOL     OW 9820   5.063   5.467   2.352
 2974SOL    HW1 9821   5.009   5.428   2.426
 2974SOL    HW2 9822   5.109   5.394   2.302
 2975SOL     OW 9823   0.578   3.333   4.595
 2975SOL    HW1 9824   0.504   3.273   4.562
 2975SOL    HW2 9825   0.568   3.346   4.693
 2976SOL     OW 9826   4.157   0.428   1.216
 2976SOL    HW1 9827   4.247   0.470   1.216
 2976SOL    HW2 9828   4.165   0.331   1.241
 2977SOL     OW 9829   1.596   1.355   2.402
 2977SOL    HW1 9830   1.501   1.327   2.392
 2977SOL    HW2 9831   1.645   1.288   2.458
 2978SOL     OW 9832   3.402   6.083   0.186
 2978SOL    HW1 9833   3.435   6.032   0.265
 2978SOL    HW2 9834   3.473   6.086   0.115
 2979SOL     OW 9835   2.238   1.310   5.485
 2979SOL    HW1 9836   2.252   1.236   5.419
 2979SOL    HW2 9837   2.307   1.304   5.557
 2980SOL     OW 9838   3.035   3.176   3.315
 2980SOL    HW1 9839   2.983   3.181   3.230
 2980SOL    HW2 9840   3.097   3.098   3.312
 2981SOL     OW 9841   2.777   1.890   1.630
 2981SOL    HW1 9842   2.864   1.841   1.632
 2981SOL    HW2 9843   2.739   1.888   1.537
 2982SOL     OW 9844   0.602   0.192   2.665
 2982SOL    HW1 9845   0.677   0.177   2.600
 2982SOL    HW2 9846   0.638   0.196   2.758
 2983SOL     OW 9847   6.053   2.400   6.190
 2983SOL    HW1 9848   6.075   2.350   6.274
 2983SOL    HW2 9849   6.122   2.471   6.175
 2984SOL     OW 9850   0.704   6.031   1.095
 2984SOL    HW1 9851   0.776   6.089   1.056
 2984SOL    HW2 9852   0.731   5.935   1.088
 2985SOL     OW 9853   6.858   6.849   5.756
 2985SOL    HW1 9854   6.798   6.855   5.676
 2985SOL    HW2 9855   6.895   6.940   5.776
 2986SOL     OW 9856   4.090   3.796   2.693
 2986SOL    HW1 9857   4.142   3.852   2.628
 2986SOL    HW2 9858   4.095   3.700   2.665
 2987SOL     OW 9859   2.362   6.291   5.367
 2987SOL    HW1 9860   2.450   6.323   5.403
 2987SOL    HW2 9861   2.320   6.363   5.312
 2988SOL     OW 9862   0.862   1.832   6.721
 2988SOL    HW1 9863   0.769   1.824   6.685
 2988SOL    HW2 9864   0.919   1.760   6.682
 2989SOL     OW 9865   5.897   3.526   5.982
 2989SOL    HW1 9866   5.889   3.610   6.035
 2989SOL    HW2 9867   5.992   3.515   5.951
 2990SOL     OW 9868   5.100   1.866   4.906
 2990SOL    HW1 9869   5.105   1.792   4.839
 2990SOL    HW2 9870   5.190   1.879   4.948
 2991SOL     OW 9871   6.116   2.605   0.220
 2991SOL    HW1 9872   6.142   2.698   0.245
 2991SOL    HW2 9873   6.061   2.607   0.137
 2992SOL     OW 9874   2.114   4.112   4.515
 2992SOL    HW1 9875   2.028   4.094   4.468
 2992SOL    HW2 9876   2.112   4.071   4.606
 2993SOL     OW 9877   3.946   5.158   6.427
 2993SOL    HW1 9878   3.902   5.204   6.504
 2993SOL    HW2 9879   4.042   5.139   6.450
 2994SOL     OW 9880   2.547   5.188   4.602
 2994SOL    HW1 9881   2.603   5.175   4.684
 2994SOL    HW2 9882   2.515   5.099   4.569
 2995SOL     OW 9883   5.328   0.213   2.063
 2995SOL    HW1 9884   5.255   0.173   2.008
 2995SOL    HW2 9885   5.353   0.151   2.137
 2996SOL     OW 9886   0.149   0.420   3.782
 2996SOL    HW1 9887   0.134   0.479   3.703
 2996SOL    HW2 9888   0.066   0.417   3.838
 2997SOL     OW 9889   4.805   5.560   3.697
 2997SOL    HW1 9890   4.788   5.632   3.630
 2997SOL    HW2 9891   4.798   5.471   3.653
 2998SOL     OW 9892   2.900   0.213   1.922
 2998SOL    HW1 9893   2.906   0.242   1.827
 2998SOL    HW2 9894   2.804   0.195   1.945
 2999SOL     OW 9895   2.396   5.053   0.640
 2999SOL    HW1 9896   2.475   5.055   0.579
 2999SOL    HW2 9897   2.328   4.990   0.604
 3000SOL     OW 9898   1.811   4.201   6.455
 3000SOL    HW1 9899   1.909   4.187   6.438
 3000SOL    HW2 9900   1.779   4.281   6.403
 3001SOL     OW 9901   3.470   0.417   6.158
 3001SOL    HW1 9902   3.475   0.472   6.074
 3001SOL    HW2 9903   3.444   0.324   6.135
 3002SOL     OW 9904   1.333   2.070   1.589
 3002SOL    HW1 9905   1.392   1.996   1.621
 3002SOL    HW2 9906   1.279   2.104   1.666
 3003SOL     OW 9907   1.738   5.893   0.028
 3003SOL    HW1 9908   1.761   5.982   0.067
 3003SOL    HW2 9909   1.639   5.881   0.027
 3004SOL     OW 9910   2.961   0.620   5.016
 3004SOL    HW1 9911   2.952   0.595   4.919
 3004SOL    HW2 9912   2.871   0.644   5.053
 3005SOL     OW 9913   2.508   1.459   6.609
 3005SOL    HW1 9914   2.603   1.459   6.576
 3005SOL    HW2 9915   2.506   1.481   6.706
 3006SOL     OW 9916   6.063   0.807   5.898
 3006SOL    HW1 9917   6.146   0.797   5.952
 3006SOL    HW2 9918   6.025   0.898   5.912
 3007SOL     OW 9919   6.279   5.781   5.897
 3007SOL    HW1 9920   6.294   5.771   5.799
 3007SOL    HW2 9921   6.312   5.699   5.944
 3008SOL     OW 9922   5.418   3.763   5.230
 3008SOL    HW1 9923   5.509   3.795   5.204
 3008SOL    HW2 9924   5.427   3.687   5.294
 3009SOL     OW 9925   5.519   3.659   1.644
 3009SOL    HW1 9926   5.493   3.675   1.549
 3009SOL    HW2 9927   5.454   3.705   1.704
 3010SOL     OW 9928   4.448   4.523   1.558
 3010SOL    HW1 9929   4.525   4.516   1.621
 3010SOL    HW2 9930   4.370   4.471   1.595
 3011SOL     OW 9931   5.952   0.008   0.979
 3011SOL    HW1 9932   5.991   0.091   0.939
 3011SOL    HW2 9933   5.907   6.974   0.907
 3012SOL     OW 9934   1.954   2.199   4.764
 3012SOL    HW1 9935   1.962   2.104   4.732
 3012SOL    HW2 9936   1.877   2.207   4.827
 3013SOL     OW 9937   0.363   5.230   5.135
 3013SOL    HW1 9938   0.440   5.183   5.177
 3013SOL    HW2 9939   0.369   5.222   5.035
 3014SOL     OW 9940   3.975   0.169   0.525
 3014SOL    HW1 9941   4.034   0.204   0.598
 3014SOL    HW2 9942   4.005   0.078   0.498
 3015SOL     OW 9943   2.276   6.591   6.063
 3015SOL    HW1 9944   2.321   6.669   6.019
 3015SOL    HW2 9945   2.297   6.592   6.161
 3016SOL     OW 9946   2.939   0.822   4.500
 3016SOL    HW1 9947   2.986   0.895   4.551
 3016SOL    HW2 9948   2.851   0.803   4.543
 3017SOL     OW 9949   1.816   6.129   0.157
 3017SOL    HW1 9950   1.816   6.207   0.220
 3017SOL    HW2 9951   1.904   6.082   0.164
 3018SOL     OW 9952   2.232   2.831   1.943
 3018SOL    HW1 9953   2.258   2.843   2.039
 3018SOL    HW2 9954   2.202   2.737   1.928
 3019SOL     OW 9955   0.956   1.217   5.587
 3019SOL    HW1 9956   0.909   1.168   5.514
 3019SOL    HW2 9957   1.045   1.174   5.604
 3020SOL     OW 9958   5.733   4.246   6.305
 3020SOL    HW1 9959   5.818   4.204   6.273
 3020SOL    HW2 9960   5.722   4.228   6.403
 3021SOL     OW 9961   4.322   6.642   4.430
 3021SOL    HW1 9962   4.359   6.558   4.470
 3021SOL    HW2 9963   4.280   6.622   4.342
 3022SOL     OW 9964   3.845   6.612   2.445
 3022SOL    HW1 9965   3.906   6.545   2.488
 3022SOL    HW2 9966   3.844   6.695   2.500
 3023SOL     OW 9967   5.432   4.377   5.131
 3023SOL    HW1 9968   5.408   4.316   5.056
 3023SOL    HW2 9969   5.419   4.330   5.218
 3024SOL     OW 9970   6.012   1.388   6.714
 3024SOL    HW1 9971   5.944   1.353   6.650
 3024SOL    HW2 9972   5.980   1.373   6.808
 3025SOL     OW 9973   4.102   5.417   0.991
 3025SOL    HW1 9974   4.166   5.489   1.013
 3025SOL    HW2 9975   4.016   5.457   0.957
 3026SOL     OW 9976   6.844   6.521   2.219
 3026SOL    HW1 9977   6.927   6.505   2.166
 3026SOL    HW2 9978   6.788   6.590   2.174
 3027SOL     OW 9979   4.160   0.245   0.743
 3027SOL    HW1 9980   4.191   0.160   0.786
 3027SOL    HW2 9981   4.164   0.319   0.809
 3028SOL     OW 9982   3.762   3.404   4.013
 3028SOL    HW1 9983   3.839   3.353   4.052
 3028SOL    HW2 9984   3.716   3.347   3.945
 3029SOL     OW 9985   0.275   2.429   5.295
 3029SOL    HW1 9986   0.353   2.436   5.357
 3029SOL    HW2 9987   0.244   2.520   5.270
 3030SOL     OW 9988   0.224   3.711   6.251
 3030SOL    HW1 9989   0.246   3.749   6.340
 3030SOL    HW2 9990   0.308   3.705   6.196
 3031SOL     OW 9991   0.328   4.767   6.878
 3031SOL    HW1 9992   0.249   4.797   6.825
 3031SOL    HW2 9993   0.356   4.676   6.847
 3032SOL     OW 9994   3.846   6.855   3.578
 3032SOL    HW1 9995   3.760   6.894   3.612
 3032SOL    HW2 9996   3.923   6.899   3.625
 3033SOL     OW 9997   2.062   0.560   6.575
 3033SOL    HW1 9998   2.121   0.597   6.646
 3033SOL    HW2 9999   2.003   0.632   6.539
 3034SOL     OW10000   4.843   3.495   3.209
 3034SOL    HW110001   4.839   3.577   3.267
 3034SOL    HW210002   4.888   3.518   3.123
 3035SOL     OW10003   6.413   4.418   6.556
 3035SOL    HW110004   6.495   4.456   6.599
 3035SOL    HW210005   6.419   4.318   6.556
 3036SOL     OW10006   2.778   2.724   6.391
 3036SOL    HW110007   2.678   2.725   6.397
 3036SOL    HW210008   2.809   2.630   6.378
 3037SOL     OW10009   0.694   5.550   6.278
 3037SOL    HW110010   0.710   5.599   6.193
 3037SOL    HW210011   0.596   5.551   6.300
 3038SOL     OW10012   5.725   4.763   4.940
 3038SOL    HW110013   5.723   4.773   5.040
 3038SOL    HW210014   5.632   4.754   4.905
 3039SOL     OW10015   6.172   3.564   6.675
 3039SOL    HW110016   6.237   3.578   6.751
 3039SOL    HW210017   6.218   3.585   6.589
 3040SOL     OW10018   3.613   6.564   6.523
 3040SOL    HW110019   3.693   6.554   6.581
 3040SOL    HW210020   3.550   6.488   6.539
 3041SOL     OW10021   2.690   5.826   6.345
 3041SOL    HW110022   2.599   5.840   6.384
 3041SOL    HW210023   2.723   5.735   6.370
 3042SOL     OW10024   0.287   5.390   4.589
 3042SOL    HW110025   0.197   5.412   4.551
 3042SOL    HW210026   0.334   5.326   4.528
 3043SOL     OW10027   2.209   3.667   0.831
 3043SOL    HW110028   2.201   3.568   0.822
 3043SOL    HW210029   2.150   3.699   0.906
 3044SOL     OW10030   4.103   3.750   3.890
 3044SOL    HW110031   4.088   3.751   3.989
 3044SOL    HW210032   4.133   3.659   3.862
 3045SOL     OW10033   5.535   0.053   3.348
 3045SOL    HW110034   5.564   0.126   3.285
 3045SOL    HW210035   5.570   6.985   3.316
 3046SOL     OW10036   6.868   5.907   1.386
 3046SOL    HW110037   6.807   5.882   1.461
 3046SOL    HW210038   6.814   5.944   1.310
 3047SOL     OW10039   4.425   1.832   3.701
 3047SOL    HW110040   4.357   1.904   3.685
 3047SOL    HW210041   4.416   1.762   3.631
 3048SOL     OW10042   4.266   4.940   1.009
 3048SOL    HW110043   4.200   4.984   0.947
 3048SOL    HW210044   4.218   4.907   1.091
 3049SOL     OW10045   0.211   0.759   0.886
 3049SOL    HW110046   0.113   0.757   0.867
 3049SOL    HW210047   0.261   0.788   0.804
 3050SOL     OW10048   3.816   2.695   5.279
 3050SOL    HW110049   3.727   2.657   5.303
 3050SOL    HW210050   3.828   2.691   5.179
 3051SOL     OW10051   2.189   4.298   6.048
 3051SOL    HW110052   2.121   4.363   6.082
 3051SOL    HW210053   2.278   4.319   6.088
 3052SOL     OW10054   6.052   6.456   3.972
 3052SOL    HW110055   6.073   6.398   4.051
 3052SOL    HW210056   5.968   6.507   3.989
 3053SOL     OW10057   0.597   5.536   5.872
 3053SOL    HW110058   0.533   5.561   5.799
 3053SOL    HW210059   0.547   5.516   5.956
 3054SOL     OW10060   6.106   6.579   3.536
 3054SOL    HW110061   6.132   6.518   3.611
 3054SOL    HW210062   6.172   6.653   3.529
 3055SOL     OW10063   5.762   6.264   0.841
 3055SOL    HW110064   5.727   6.189   0.785
 3055SOL    HW210065   5.706   6.274   0.923
 3056SOL     OW10066   4.503   2.285   1.188
 3056SOL    HW110067   4.445   2.363   1.211
 3056SOL    HW210068   4.562   2.264   1.266
 3057SOL     OW10069   6.727   2.472   2.885
 3057SOL    HW110070   6.770   2.493   2.972
 3057SOL    HW210071   6.687   2.555   2.846
 3058SOL     OW10072   5.392   3.750   6.525
 3058SOL    HW110073   5.392   3.839   6.480
 3058SOL    HW210074   5.437   3.683   6.466
 3059SOL     OW10075   1.838   2.607   3.319
 3059SOL    HW110076   1.803   2.549   3.393
 3059SOL    HW210077   1.912   2.665   3.355
 3060SOL     OW10078   6.278   3.013   3.843
 3060SOL    HW110079   6.252   2.918   3.864
 3060SOL    HW210080   6.213   3.053   3.780
 3061SOL     OW10081   5.331   6.047   2.499
 3061SOL    HW110082   5.302   5.957   2.531
 3061SOL    HW210083   5.251   6.099   2.468
 3062SOL     OW10084   4.063   5.263   6.996
 3062SOL    HW110085   4.114   5.283   0.060
 3062SOL    HW210086   4.047   5.164   6.990
 3063SOL     OW10087   6.207   5.595   1.211
 3063SOL    HW110088   6.261   5.642   1.281
 3063SOL    HW210089   6.110   5.598   1.237
 3064SOL     OW10090   5.049   0.875   5.776
 3064SOL    HW110091   5.050   0.966   5.819
 3064SOL    HW210092   5.135   0.829   5.797
 3065SOL     OW10093   4.948   1.373   6.435
 3065SOL    HW110094   4.936   1.338   6.342
 3065SOL    HW210095   4.909   1.465   6.441
 3066SOL     OW10096   5.545   6.929   5.769
 3066SOL    HW110097   5.622   6.938   5.706
 3066SOL    HW210098   5.460   6.953   5.722
 3067SOL     OW10099   1.059   2.238   4.868
 3067SOL    HW110100   0.965   2.234   4.835
 3067SOL    HW210101   1.104   2.150   4.850
 3068SOL     OW10102   5.989   0.471   0.916
 3068SOL    HW110103   6.062   0.532   0.945
 3068SOL    HW210104   5.915   0.524   0.875
 3069SOL     OW10105   5.701   5.845   3.820
 3069SOL    HW110106   5.733   5.812   3.909
 3069SOL    HW210107   5.636   5.779   3.782
 3070SOL     OW10108   2.652   1.629   0.617
 3070SOL    HW110109   2.578   1.651   0.553
 3070SOL    HW210110   2.719   1.571   0.571
 3071SOL     OW10111   6.565   4.260   4.624
 3071SOL    HW110112   6.531   4.332   4.563
 3071SOL    HW210113   6.520   4.173   4.601
 3072SOL     OW10114   1.790   6.774   4.393
 3072SOL    HW110115   1.776   6.721   4.477
 3072SOL    HW210116   1.871   6.740   4.345
 3073SOL     OW10117   0.244   5.227   3.229
 3073SOL    HW110118   0.305   5.220   3.150
 3073SOL    HW210119   0.285   5.179   3.307
 3074SOL     OW10120   3.158   3.422   2.022
 3074SOL    HW110121   3.067   3.441   2.059
 3074SOL    HW210122   3.164   3.326   1.994
 3075SOL     OW10123   3.841   4.754   0.379
 3075SOL    HW110124   3.910   4.817   0.344
 3075SOL    HW210125   3.835   4.762   0.479
 3076SOL     OW10126   2.184   1.143   4.072
 3076SOL    HW110127   2.167   1.113   3.978
 3076SOL    HW210128   2.240   1.226   4.071
 3077SOL     OW10129   6.844   3.725   2.746
 3077SOL    HW110130   6.792   3.659   2.800
 3077SOL    HW210131   6.789   3.807   2.731
 3078SOL     OW10132   6.139   4.612   1.464
 3078SOL    HW110133   6.189   4.697   1.448
 3078SOL    HW210134   6.204   4.539   1.486
 3079SOL     OW10135   0.195   4.045   2.218
 3079SOL    HW110136   0.097   4.024   2.212
 3079SOL    HW210137   0.208   4.141   2.241
 3080SOL     OW10138   3.267   5.078   1.404
 3080SOL    HW110139   3.272   5.007   1.474
 3080SOL    HW210140   3.348   5.074   1.346
 3081SOL     OW10141   2.002   2.401   6.103
 3081SOL    HW110142   2.077   2.347   6.064
 3081SOL    HW210143   2.020   2.417   6.200
 3082SOL     OW10144   6.486   3.582   4.554
 3082SOL    HW110145   6.564   3.619   4.504
 3082SOL    HW210146   6.499   3.595   4.652
 3083SOL     OW10147   4.386   5.974   1.759
 3083SOL    HW110148   4.464   6.035   1.777
 3083SOL    HW210149   4.311   5.998   1.820
 3084SOL     OW10150   0.357   5.177   4.387
 3084SOL    HW110151   0.353   5.227   4.301
 3084SOL    HW210152   0.314   5.088   4.376
 3085SOL     OW10153   6.901   5.786   5.559
 3085SOL    HW110154   6.890   5.854   5.486
 3085SOL    HW210155   6.913   5.695   5.519
 3086SOL     OW10156   6.072   6.222   6.359
 3086SOL    HW110157   6.094   6.226   6.457
 3086SOL    HW210158   6.149   6.180   6.310
 3087SOL     OW10159   3.387   0.143   1.349
 3087SOL    HW110160   3.316   0.072   1.356
 3087SOL    HW210161   3.429   0.156   1.439
 3088SOL     OW10162   2.522   3.206   5.331
 3088SOL    HW110163   2.615   3.233   5.306
 3088SOL    HW210164   2.499   3.119   5.286
 3089SOL     OW10165   4.099   6.821   0.086
 3089SOL    HW110166   4.017   6.878   0.090
 3089SOL    HW210167   4.133   6.806   0.179
 3090SOL     OW10168   1.079   1.960   2.683
 3090SOL    HW110169   1.081   1.884   2.748
 3090SOL    HW210170   1.146   1.943   2.611
 3091SOL     OW10171   1.281   2.168   6.071
 3091SOL    HW110172   1.301   2.083   6.023
 3091SOL    HW210173   1.312   2.245   6.016
 3092SOL     OW10174   4.939   1.929   3.523
 3092SOL    HW110175   4.925   1.866   3.446
 3092SOL    HW210176   4.862   1.920   3.587
 3093SOL     OW10177   6.196   5.508   6.796
 3093SOL    HW110178   6.100   5.529   6.812
 3093SOL    HW210179   6.245   5.591   6.770
 3094SOL     OW10180   2.034   1.029   6.451
 3094SOL    HW110181   2.123   1.005   6.412
 3094SOL    HW210182   2.045   1.056   6.546
 3095SOL     OW10183   1.910   3.239   6.001
 3095SOL    HW110184   1.909   3.190   6.088
 3095SOL    HW210185   1.882   3.176   5.928
 3096SOL     OW10186   2.008   3.291   3.750
 3096SOL    HW110187   2.020   3.370   3.810
 3096SOL    HW210188   1.910   3.273   3.737
 3097SOL     OW10189   5.089   2.253   6.494
 3097SOL    HW110190   5.155   2.307   6.547
 3097SOL    HW210191   5.037   2.314   6.435
 3098SOL     OW10192   1.968   4.164   2.674
 3098SOL    HW110193   1.954   4.074   2.715
 3098SOL    HW210194   2.053   4.165   2.622
 3099SOL     OW10195   0.233   0.783   5.990
 3099SOL    HW110196   0.141   0.766   5.957
 3099SOL    HW210197   0.294   0.798   5.912
 3100SOL     OW10198   5.765   3.871   2.961
 3100SOL    HW110199   5.801   3.904   3.049
 3100SOL    HW210200   5.745   3.773   2.968
 3101SOL     OW10201   5.154   0.557   4.089
 3101SOL    HW110202   5.057   0.576   4.074
 3101SOL    HW210203   5.200   0.640   4.120
 3102SOL     OW10204   5.703   3.055   3.171
 3102SOL    HW110205   5.744   2.995   3.102
 3102SOL    HW210206   5.611   3.022   3.193
 3103SOL     OW10207   1.351   1.170   2.558
 3103SOL    HW110208   1.437   1.119   2.554
 3103SOL    HW210209   1.274   1.105   2.560
 3104SOL     OW10210   5.743   1.209   6.301
 3104SOL    HW110211   5.668   1.212   6.368
 3104SOL    HW210212   5.708   1.174   6.214
 3105SOL     OW10213   5.492   4.414   0.177
 3105SOL    HW110214   5.553   4.336   0.161
 3105SOL    HW210215   5.412   4.383   0.229
 3106SOL     OW10216   5.470   2.131   5.783
 3106SOL    HW110217   5.406   2.072   5.832
 3106SOL    HW210218   5.449   2.129   5.685
 3107SOL     OW10219   4.599   2.234   4.585
 3107SOL    HW110220   4.599   2.205   4.681
 3107SOL    HW210221   4.505   2.256   4.557
 3108SOL     OW10222   2.319   4.699   4.057
 3108SOL    HW110223   2.244   4.669   3.997
 3108SOL    HW210224   2.378   4.621   4.077
 3109SOL     OW10225   0.073   5.139   4.190
 3109SOL    HW110226   0.047   5.145   4.094
 3109SOL    HW210227   0.091   5.044   4.214
 3110SOL     OW10228   1.848   5.072   3.958
 3110SOL    HW110229   1.811   5.096   4.048
 3110SOL    HW210230   1.774   5.066   3.892
 3111SOL     OW10231   6.753   3.599   4.001
 3111SOL    HW110232   6.746   3.581   4.099
 3111SOL    HW210233   6.849   3.596   3.973
 3112SOL     OW10234   4.650   0.327   0.950
 3112SOL    HW110235   4.568   0.282   0.913
 3112SOL    HW210236   4.702   0.262   1.005
 3113SOL     OW10237   1.476   6.357   3.745
 3113SOL    HW110238   1.483   6.358   3.845
 3113SOL    HW210239   1.402   6.419   3.717
 3114SOL     OW10240   4.909   5.704   5.189
 3114SOL    HW110241   4.977   5.751   5.246
 3114SOL    HW210242   4.910   5.606   5.210
 3115SOL     OW10243   4.952   5.381   4.632
 3115SOL    HW110244   4.941   5.470   4.676
 3115SOL    HW210245   4.992   5.394   4.541
 3116SOL     OW10246   0.883   2.574   6.568
 3116SOL    HW110247   0.791   2.556   6.533
 3116SOL    HW210248   0.880   2.653   6.629
 3117SOL     OW10249   4.262   6.979   1.885
 3117SOL    HW110250   4.166   6.982   1.860
 3117SOL    HW210251   4.271   6.993   1.984
 3118SOL     OW10252   0.749   2.460   3.506
 3118SOL    HW110253   0.687   2.409   3.447
 3118SOL    HW210254   0.833   2.481   3.456
 3119SOL     OW10255   4.431   6.526   3.523
 3119SOL    HW110256   4.423   6.625   3.513
 3119SOL    HW210257   4.347   6.489   3.564
 3120SOL     OW10258   3.941   6.206   6.484
 3120SOL    HW110259   3.871   6.197   6.555
 3120SOL    HW210260   4.030   6.179   6.522
 3121SOL     OW10261   3.997   1.596   2.930
 3121SOL    HW110262   4.055   1.589   2.849
 3121SOL    HW210263   4.028   1.529   2.998
 3122SOL     OW10264   5.497   3.358   6.399
 3122SOL    HW110265   5.589   3.325   6.420
 3122SOL    HW210266   5.501   3.455   6.375
 3123SOL     OW10267   2.033   3.331   2.809
 3123SOL    HW110268   1.979   3.259   2.764
 3123SOL    HW210269   2.000   3.421   2.778
 3124SOL     OW10270   5.031   6.986   5.578
 3124SOL    HW110271   5.048   0.023   5.497
 3124SOL    HW210272   4.934   6.991   5.601
 3125SOL     OW10273   1.957   1.901   4.677
 3125SOL    HW110274   1.975   1.804   4.663
 3125SOL    HW210275   1.901   1.936   4.602
 3126SOL     OW10276   5.277   4.168   4.998
 3126SOL    HW110277   5.206   4.208   4.940
 3126SOL    HW210278   5.246   4.078   5.030
 3127SOL     OW10279   6.367   2.283   6.324
 3127SOL    HW110280   6.457   2.321   6.346
 3127SOL    HW210281   6.361   2.264   6.227
 3128SOL     OW10282   4.521   1.944   1.543
 3128SOL    HW110283   4.483   1.995   1.621
 3128SOL    HW210284   4.575   1.867   1.577
 3129SOL     OW10285   4.270   4.694   0.476
 3129SOL    HW110286   4.338   4.653   0.416
 3129SOL    HW210287   4.214   4.621   0.516
 3130SOL     OW10288   6.210   5.142   2.585
 3130SOL    HW110289   6.211   5.105   2.678
 3130SOL    HW210290   6.301   5.175   2.561
 3131SOL     OW10291   0.203   2.400   3.225
 3131SOL    HW110292   0.197   2.332   3.151
 3131SOL    HW210293   0.290   2.449   3.218
 3132SOL     OW10294   4.770   3.985   6.197
 3132SOL    HW110295   4.763   3.949   6.290
 3132SOL    HW210296   4.683   3.973   6.150
 3133SOL     OW10297   5.551   6.485   4.357
 3133SOL    HW110298   5.650   6.490   4.359
 3133SOL    HW210299   5.516   6.475   4.450
 3134SOL     OW10300   4.045   4.775   3.099
 3134SOL    HW110301   4.070   4.702   3.034
 3134SOL    HW210302   4.083   4.862   3.067
 3135SOL     OW10303   4.223   1.036   6.154
 3135SOL    HW110304   4.288   1.042   6.078
 3135SOL    HW210305   4.133   1.008   6.119
 3136SOL     OW10306   6.015   6.101   1.994
 3136SOL    HW110307   6.110   6.112   1.965
 3136SOL    HW210308   5.991   6.005   1.992
 3137SOL     OW10309   5.112   3.943   6.974
 3137SOL    HW110310   5.106   3.856   6.925
 3137SOL    HW210311   5.022   3.969   7.009
 3138SOL     OW10312   0.051   6.644   5.044
 3138SOL    HW110313   7.015   6.727   5.036
 3138SOL    HW210314   0.089   6.637   5.136
 3139SOL     OW10315   1.396   4.990   2.202
 3139SOL    HW110316   1.411   4.892   2.195
 3139SOL    HW210317   1.300   5.008   2.222
 3140SOL     OW10318   4.713   5.699   0.040
 3140SOL    HW110319   4.801   5.693   7.012
 3140SOL    HW210320   4.702   5.790   0.078
 3141SOL     OW10321   5.947   2.139   0.344
 3141SOL    HW110322   5.909   2.127   0.435
 3141SOL    HW210323   5.947   2.237   0.320
 3142SOL     OW10324   4.245   1.004   4.008
 3142SOL    HW110325   4.157   0.984   4.051
 3142SOL    HW210326   4.288   0.919   3.977
 3143SOL     OW10327   6.135   1.464   0.057
 3143SOL    HW110328   6.059   1.426   0.004
 3143SOL    HW210329   6.139   1.563   0.043
 3144SOL     OW10330   3.714   5.064   6.277
 3144SOL    HW110331   3.695   4.979   6.327
 3144SOL    HW210332   3.796   5.107   6.315
 3145SOL     OW10333   0.612   6.114   5.594
 3145SOL    HW110334   0.695   6.060   5.606
 3145SOL    HW210335   0.575   6.139   5.684
 3146SOL     OW10336   6.681   1.591   4.163
 3146SOL    HW110337   6.756   1.646   4.125
 3146SOL    HW210338   6.636   1.541   4.090
 3147SOL     OW10339   4.863   6.896   0.707
 3147SOL    HW110340   4.834   6.909   0.612
 3147SOL    HW210341   4.788   6.855   0.759
 3148SOL     OW10342   5.811   4.745   0.291
 3148SOL    HW110343   5.829   4.809   0.365
 3148SOL    HW210344   5.811   4.652   0.326
 3149SOL     OW10345   4.236   3.076   0.136
 3149SOL    HW110346   4.318   3.112   0.179
 3149SOL    HW210347   4.250   2.980   0.111
 3150SOL     OW10348   0.013   0.208   5.310
 3150SOL    HW110349   0.106   0.171   5.307
 3150SOL    HW210350   7.008   0.229   5.405
 3151SOL     OW10351   0.314   1.494   6.625
 3151SOL    HW110352   0.314   1.587   6.587
 3151SOL    HW210353   0.303   1.499   6.724
 3152SOL     OW10354   2.851   1.950   6.284
 3152SOL    HW110355   2.903   1.888   6.225
 3152SOL    HW210356   2.754   1.926   6.279
 3153SOL     OW10357   5.675   5.945   1.597
 3153SOL    HW110358   5.646   6.039   1.619
 3153SOL    HW210359   5.698   5.897   1.682
 3154SOL     OW10360   3.222   2.084   0.803
 3154SOL    HW110361   3.243   2.030   0.723
 3154SOL    HW210362   3.264   2.043   0.884
 3155SOL     OW10363   6.887   5.968   6.630
 3155SOL    HW110364   6.876   5.951   6.532
 3155SOL    HW210365   6.918   5.884   6.675
 3156SOL     OW10366   2.677   4.380   1.022
 3156SOL    HW110367   2.599   4.422   0.977
 3156SOL    HW210368   2.658   4.368   1.119
 3157SOL     OW10369   1.382   1.428   3.068
 3157SOL    HW110370   1.320   1.506   3.061
 3157SOL    HW210371   1.432   1.432   3.154
 3158SOL     OW10372   1.986   0.302   5.713
 3158SOL    HW110373   2.016   0.321   5.807
 3158SOL    HW210374   2.002   0.205   5.693
 3159SOL     OW10375   4.687   5.753   1.595
 3159SOL    HW110376   4.638   5.808   1.527
 3159SOL    HW210377   4.622   5.708   1.656
 3160SOL     OW10378   2.438   1.248   5.679
 3160SOL    HW110379   2.412   1.188   5.755
 3160SOL    HW210380   2.500   1.199   5.618
 3161SOL     OW10381   1.986   2.543   1.920
 3161SOL    HW110382   2.058   2.521   1.854
 3161SOL    HW210383   1.927   2.463   1.933
 3162SOL     OW10384   1.395   5.960   2.094
 3162SOL    HW110385   1.467   6.029   2.090
 3162SOL    HW210386   1.329   5.976   2.021
 3163SOL     OW10387   5.459   4.440   2.077
 3163SOL    HW110388   5.481   4.528   2.036
 3163SOL    HW210389   5.360   4.427   2.079
 3164SOL     OW10390   2.403   7.007   3.464
 3164SOL    HW110391   2.360   0.078   3.454
 3164SOL    HW210392   2.382   6.952   3.383
 3165SOL     OW10393   0.430   5.785   0.039
 3165SOL    HW110394   0.401   5.805   0.133
 3165SOL    HW210395   0.432   5.686   0.025
 3166SOL     OW10396   3.611   2.099   4.647
 3166SOL    HW110397   3.677   2.097   4.722
 3166SOL    HW210398   3.519   2.107   4.684
 3167SOL     OW10399   6.397   3.168   2.759
 3167SOL    HW110400   6.336   3.174   2.679
 3167SOL    HW210401   6.492   3.161   2.728
 3168SOL     OW10402   5.318   1.871   0.892
 3168SOL    HW110403   5.289   1.905   0.981
 3168SOL    HW210404   5.259   1.909   0.821
 3169SOL     OW10405   0.940   2.694   1.896
 3169SOL    HW110406   0.886   2.679   1.813
 3169SOL    HW210407   1.002   2.617   1.910
 3170SOL     OW10408   2.534   4.543   3.863
 3170SOL    HW110409   2.590   4.556   3.944
 3170SOL    HW210410   2.572   4.595   3.786
 3171SOL     OW10411   5.791   1.784   4.603
 3171SOL    HW110412   5.833   1.800   4.692
 3171SOL    HW210413   5.691   1.789   4.613
 3172SOL     OW10414   5.647   4.233   1.211
 3172SOL    HW110415   5.665   4.220   1.113
 3172SOL    HW210416   5.733   4.223   1.262
 3173SOL     OW10417   5.243   4.275   0.278
 3173SOL    HW110418   5.223   4.189   0.231
 3173SOL    HW210419   5.217   4.352   0.219
 3174SOL     OW10420   2.980   3.129   0.024
 3174SOL    HW110421   2.901   3.086   0.068
 3174SOL    HW210422   2.979   3.110   6.945
 3175SOL     OW10423   6.020   6.012   5.644
 3175SOL    HW110424   5.996   6.105   5.673
 3175SOL    HW210425   6.100   6.015   5.584
 3176SOL     OW10426   6.805   5.097   3.950
 3176SOL    HW110427   6.902   5.110   3.931
 3176SOL    HW210428   6.752   5.117   3.867
 3177SOL     OW10429   5.414   2.399   1.678
 3177SOL    HW110430   5.423   2.358   1.588
 3177SOL    HW210431   5.505   2.408   1.720
 3178SOL     OW10432   1.522   0.893   2.523
 3178SOL    HW110433   1.615   0.867   2.549
 3178SOL    HW210434   1.461   0.883   2.601
 3179SOL     OW10435   0.458   4.106   2.828
 3179SOL    HW110436   0.496   4.169   2.760
 3179SOL    HW210437   0.471   4.012   2.797
 3180SOL     OW10438   6.136   0.272   6.373
 3180SOL    HW110439   6.075   0.213   6.426
 3180SOL    HW210440   6.148   0.233   6.281
 3181SOL     OW10441   0.022   6.555   4.654
 3181SOL    HW110442   6.997   6.523   4.570
 3181SOL    HW210443   0.054   6.475   4.706
 3182SOL     OW10444   1.357   6.937   1.332
 3182SOL    HW110445   1.304   6.967   1.411
 3182SOL    HW210446   1.452   6.968   1.341
 3183SOL     OW10447   4.461   4.104   0.373
 3183SOL    HW110448   4.406   4.021   0.372
 3183SOL    HW210449   4.523   4.102   0.451
 3184SOL     OW10450   6.338   0.499   4.572
 3184SOL    HW110451   6.265   0.557   4.607
 3184SOL    HW210452   6.423   0.518   4.622
 3185SOL     OW10453   1.344   0.821   6.138
 3185SOL    HW110454   1.378   0.904   6.182
 3185SOL    HW210455   1.339   0.747   6.206
 3186SOL     OW10456   0.800   2.221   5.968
 3186SOL    HW110457   0.742   2.269   6.033
 3186SOL    HW210458   0.821   2.129   6.003
 3187SOL     OW10459   4.798   0.469   3.262
 3187SOL    HW110460   4.802   0.530   3.341
 3187SOL    HW210461   4.853   0.507   3.188
 3188SOL     OW10462   1.248   6.032   1.357
 3188SOL    HW110463   1.165   6.053   1.407
 3188SOL    HW210464   1.328   6.065   1.407
 3189SOL     OW10465   2.447   2.148   5.315
 3189SOL    HW110466   2.397   2.129   5.400
 3189SOL    HW210467   2.414   2.234   5.275
 3190SOL     OW10468   6.276   5.988   4.587
 3190SOL    HW110469   6.312   5.897   4.605
 3190SOL    HW210470   6.184   5.996   4.625
 3191SOL     OW10471   3.838   5.089   0.553
 3191SOL    HW110472   3.812   5.068   0.459
 3191SOL    HW210473   3.911   5.027   0.581
 3192SOL     OW10474   5.541   0.824   3.159
 3192SOL    HW110475   5.510   0.907   3.206
 3192SOL    HW210476   5.476   0.800   3.087
 3193SOL     OW10477   3.516   6.000   4.583
 3193SOL    HW110478   3.549   6.013   4.489
 3193SOL    HW210479   3.582   6.039   4.647
 3194SOL     OW10480   2.354   6.161   6.097
 3194SOL    HW110481   2.442   6.178   6.054
 3194SOL    HW210482   2.282   6.210   6.046
 3195SOL     OW10483   0.273   6.001   1.505
 3195SOL    HW110484   0.328   5.918   1.512
 3195SOL    HW210485   0.188   5.989   1.556
 3196SOL     OW10486   5.647   0.275   3.144
 3196SOL    HW110487   5.583   0.335   3.191
 3196SOL    HW210488   5.739   0.290   3.181
 3197SOL     OW10489   3.293   1.148   7.018
 3197SOL    HW110490   3.325   1.137   6.924
 3197SOL    HW210491   3.333   1.076   0.056
 3198SOL     OW10492   5.700   4.161   4.151
 3198SOL    HW110493   5.710   4.116   4.240
 3198SOL    HW210494   5.665   4.096   4.084
 3199SOL     OW10495   5.271   3.150   4.069
 3199SOL    HW110496   5.312   3.162   4.159
 3199SOL    HW210497   5.177   3.119   4.078
 3200SOL     OW10498   6.767   3.071   4.850
 3200SOL    HW110499   6.733   3.000   4.911
 3200SOL    HW210500   6.691   3.126   4.815
 3201SOL     OW10501   6.540   3.728   2.705
 3201SOL    HW110502   6.577   3.813   2.742
 3201SOL    HW210503   6.601   3.652   2.729
 3202SOL     OW10504   3.061   2.879   5.943
 3202SOL    HW110505   3.043   2.915   5.852
 3202SOL    HW210506   3.071   2.954   6.008
 3203SOL     OW10507   3.266   6.711   1.577
 3203SOL    HW110508   3.293   6.621   1.610
 3203SOL    HW210509   3.344   6.773   1.579
 3204SOL     OW10510   5.013   0.435   3.506
 3204SOL    HW110511   5.017   0.336   3.514
 3204SOL    HW210512   5.083   0.477   3.564
 3205SOL     OW10513   5.025   3.025   0.376
 3205SOL    HW110514   5.081   3.004   0.456
 3205SOL    HW210515   4.929   3.021   0.401
 3206SOL     OW10516   3.768   5.123   0.000
 3206SOL    HW110517   3.685   5.163   6.981
 3206SOL    HW210518   3.770   5.025   7.002
 3207SOL     OW10519   2.021   6.412   2.999
 3207SOL    HW110520   1.928   6.380   2.984
 3207SOL    HW210521   2.032   6.441   3.094
 3208SOL     OW10522   6.865   3.766   6.907
 3208SOL    HW110523   6.912   3.678   6.908
 3208SOL    HW210524   6.930   3.839   6.887
 3209SOL     OW10525   5.575   0.110   5.196
 3209SOL    HW110526   5.526   0.190   5.163
 3209SOL    HW210527   5.648   0.087   5.130
 3210SOL     OW10528   4.804   5.217   2.181
 3210SOL    HW110529   4.877   5.206   2.114
 3210SOL    HW210530   4.834   5.178   2.269
 3211SOL     OW10531   2.581   0.055   6.830
 3211SOL    HW110532   2.662   7.016   6.823
 3211SOL    HW210533   2.563   0.098   6.741
 3212SOL     OW10534   3.219   6.734   4.559
 3212SOL    HW110535   3.124   6.762   4.548
 3212SOL    HW210536   3.270   6.756   4.475
 3213SOL     OW10537   1.150   0.158   5.489
 3213SOL    HW110538   1.130   0.117   5.578
 3213SOL    HW210539   1.249   0.157   5.474
 3214SOL     OW10540   2.604   0.274   3.069
 3214SOL    HW110541   2.545   0.210   3.018
 3214SOL    HW210542   2.611   0.244   3.164
 3215SOL     OW10543   2.312   3.209   1.770
 3215SOL    HW110544   2.323   3.301   1.807
 3215SOL    HW210545   2.228   3.168   1.807
 3216SOL     OW10546   6.457   4.113   1.120
 3216SOL    HW110547   6.502   4.030   1.088
 3216SOL    HW210548   6.403   4.093   1.201
 3217SOL     OW10549   6.315   5.976   3.738
 3217SOL    HW110550   6.309   5.876   3.744
 3217SOL    HW210551   6.223   6.013   3.722
 3218SOL     OW10552   5.834   1.313   3.388
 3218SOL    HW110553   5.835   1.230   3.333
 3218SOL    HW210554   5.928   1.345   3.402
 3219SOL     OW10555   4.937   1.875   4.542
 3219SOL    HW110556   4.884   1.958   4.560
 3219SOL    HW210557   4.991   1.888   4.458
 3220SOL     OW10558   0.122   3.332   5.532
 3220SOL    HW110559   0.074   3.351   5.617
 3220SOL    HW210560   0.165   3.415   5.499
 3221SOL     OW10561   4.252   1.759   2.230
 3221SOL    HW110562   4.199   1.800   2.305
 3221SOL    HW210563   4.280   1.831   2.166
 3222SOL     OW10564   3.054   0.827   3.442
 3222SOL    HW110565   3.002   0.903   3.401
 3222SOL    HW210566   3.029   0.819   3.538
 3223SOL     OW10567   1.795   5.722   0.756
 3223SOL    HW110568   1.869   5.745   0.693
 3223SOL    HW210569   1.829   5.722   0.850
 3224SOL     OW10570   4.390   2.465   3.625
 3224SOL    HW110571   4.443   2.532   3.571
 3224SOL    HW210572   4.418   2.471   3.721
 3225SOL     OW10573   3.701   0.879   5.025
 3225SOL    HW110574   3.755   0.924   4.955
 3225SOL    HW210575   3.711   0.927   5.112
 3226SOL     OW10576   5.900   0.930   0.326
 3226SOL    HW110577   5.849   0.988   0.264
 3226SOL    HW210578   5.837   0.874   0.380
 3227SOL     OW10579   5.865   3.938   5.854
 3227SOL    HW110580   5.806   3.868   5.815
 3227SOL    HW210581   5.811   3.998   5.913
 3228SOL     OW10582   1.814   4.524   0.835
 3228SOL    HW110583   1.879   4.544   0.909
 3228SOL    HW210584   1.763   4.607   0.813
 3229SOL     OW10585   1.114   0.815   0.825
 3229SOL    HW110586   1.156   0.882   0.887
 3229SOL    HW210587   1.178   0.792   0.752
 3230SOL     OW10588   3.250   6.287   5.483
 3230SOL    HW110589   3.305   6.218   5.436
 3230SOL    HW210590   3.183   6.242   5.543
 3231SOL     OW10591   2.827   2.285   2.615
 3231SOL    HW110592   2.802   2.321   2.525
 3231SOL    HW210593   2.924   2.261   2.615
 3232SOL     OW10594   2.795   4.781   3.972
 3232SOL    HW110595   2.816   4.777   3.874
 3232SOL    HW210596   2.699   4.806   3.985
 3233SOL     OW10597   2.210   0.338   5.380
 3233SOL    HW110598   2.144   0.359   5.453
 3233SOL    HW210599   2.175   0.265   5.322
 3234SOL     OW10600   3.393   3.766   0.708
 3234SOL    HW110601   3.409   3.824   0.788
 3234SOL    HW210602   3.295   3.749   0.699
 3235SOL     OW10603   0.267   2.235   2.795
 3235SOL    HW110604   0.353   2.234   2.744
 3235SOL    HW210605   0.211   2.157   2.768
 3236SOL     OW10606   5.873   6.538   0.638
 3236SOL    HW110607   5.957   6.552   0.690
 3236SOL    HW210608   5.875   6.593   0.555
 3237SOL     OW10609   6.113   2.089   5.647
 3237SOL    HW110610   6.193   2.096   5.588
 3237SOL    HW210611   6.051   2.019   5.610
 3238SOL     OW10612   0.232   5.211   1.095
 3238SOL    HW110613   0.233   5.287   1.030
 3238SOL    HW210614   0.228   5.247   1.188
 3239SOL     OW10615   6.188   1.325   5.033
 3239SOL    HW110616   6.122   1.300   4.962
 3239SOL    HW210617   6.264   1.260   5.033
 3240SOL     OW10618   0.633   1.818   1.380
 3240SOL    HW110619   0.699   1.872   1.328
 3240SOL    HW210620   0.674   1.787   1.466
 3241SOL     OW10621   0.084   2.868   5.735
 3241SOL    HW110622   0.035   2.943   5.689
 3241SOL    HW210623   0.181   2.891   5.743
 3242SOL     OW10624   0.376   4.922   5.263
 3242SOL    HW110625   0.336   4.903   5.173
 3242SOL    HW210626   0.458   4.978   5.251
 3243SOL     OW10627   6.343   5.152   5.031
 3243SOL    HW110628   6.326   5.242   5.070
 3243SOL    HW210629   6.310   5.149   4.937
 3244SOL     OW10630   4.734   0.317   6.846
 3244SOL    HW110631   4.641   0.338   6.814
 3244SOL    HW210632   4.756   0.222   6.822
 3245SOL     OW10633   2.050   6.365   4.323
 3245SOL    HW110634   2.086   6.453   4.289
 3245SOL    HW210635   2.106   6.291   4.287
 3246SOL     OW10636   6.322   5.935   2.537
 3246SOL    HW110637   6.269   6.019   2.530
 3246SOL    HW210638   6.335   5.912   2.634
 3247SOL     OW10639   2.287   4.400   4.690
 3247SOL    HW110640   2.344   4.442   4.760
 3247SOL    HW210641   2.250   4.314   4.725
 3248SOL     OW10642   6.246   2.451   3.707
 3248SOL    HW110643   6.189   2.460   3.625
 3248SOL    HW210644   6.201   2.391   3.773
 3249SOL     OW10645   4.061   3.694   4.157
 3249SOL    HW110646   4.045   3.602   4.194
 3249SOL    HW210647   4.046   3.762   4.229
 3250SOL     OW10648   4.629   5.311   3.691
 3250SOL    HW110649   4.533   5.331   3.712
 3250SOL    HW210650   4.633   5.231   3.630
 3251SOL     OW10651   1.827   1.991   2.230
 3251SOL    HW110652   1.872   2.072   2.191
 3251SOL    HW210653   1.871   1.909   2.195
 3252SOL     OW10654   1.721   1.606   2.478
 3252SOL    HW110655   1.676   1.524   2.444
 3252SOL    HW210656   1.661   1.685   2.465
 3253SOL     OW10657   6.474   3.305   1.136
 3253SOL    HW110658   6.436   3.215   1.113
 3253SOL    HW210659   6.401   3.363   1.171
 3254SOL     OW10660   6.270   6.917   0.820
 3254SOL    HW110661   6.339   6.869   0.767
 3254SOL    HW210662   6.179   6.894   0.784
 3255SOL     OW10663   3.703   4.847   2.246
 3255SOL    HW110664   3.641   4.788   2.194
 3255SOL    HW210665   3.677   4.846   2.342
 3256SOL     OW10666   5.632   2.561   2.030
 3256SOL    HW110667   5.700   2.566   2.104
 3256SOL    HW210668   5.648   2.479   1.976
 3257SOL     OW10669   2.628   1.155   2.808
 3257SOL    HW110670   2.550   1.134   2.867
 3257SOL    HW210671   2.650   1.252   2.815
 3258SOL     OW10672   0.676   5.238   4.155
 3258SOL    HW110673   0.727   5.164   4.110
 3258SOL    HW210674   0.583   5.242   4.118
 3259SOL     OW10675   6.332   5.093   3.449
 3259SOL    HW110676   6.292   5.014   3.495
 3259SOL    HW210677   6.358   5.162   3.516
 3260SOL     OW10678   2.569   4.663   3.617
 3260SOL    HW110679   2.497   4.732   3.607
 3260SOL    HW210680   2.643   4.682   3.553
 3261SOL     OW10681   5.711   6.678   3.924
 3261SOL    HW110682   5.738   6.697   3.830
 3261SOL    HW210683   5.712   6.579   3.941
 3262SOL     OW10684   2.801   1.706   2.714
 3262SOL    HW110685   2.791   1.638   2.641
 3262SOL    HW210686   2.892   1.697   2.755
 3263SOL     OW10687   5.593   0.211   2.003
 3263SOL    HW110688   5.493   0.212   2.003
 3263SOL    HW210689   5.626   0.269   1.929
 3264SOL     OW10690   1.214   5.145   6.278
 3264SOL    HW110691   1.223   5.160   6.179
 3264SOL    HW210692   1.287   5.194   6.325
 3265SOL     OW10693   6.765   5.907   5.867
 3265SOL    HW110694   6.831   5.982   5.868
 3265SOL    HW210695   6.703   5.917   5.790
 3266SOL     OW10696   3.884   4.469   6.260
 3266SOL    HW110697   3.888   4.424   6.171
 3266SOL    HW210698   3.969   4.451   6.310
 3267SOL     OW10699   3.008   0.285   0.723
 3267SOL    HW110700   3.031   0.232   0.641
 3267SOL    HW210701   2.981   0.377   0.696
 3268SOL     OW10702   5.298   4.192   2.362
 3268SOL    HW110703   5.368   4.188   2.290
 3268SOL    HW210704   5.340   4.217   2.449
 3269SOL     OW10705   2.136   5.681   0.904
 3269SOL    HW110706   2.049   5.708   0.944
 3269SOL    HW210707   2.211   5.703   0.967
 3270SOL     OW10708   2.014   3.273   6.583
 3270SOL    HW110709   2.073   3.354   6.582
 3270SOL    HW210710   2.051   3.204   6.521
 3271SOL     OW10711   0.710   3.778   1.331
 3271SOL    HW110712   0.646   3.702   1.321
 3271SOL    HW210713   0.803   3.742   1.335
 3272SOL     OW10714   3.689   0.413   0.283
 3272SOL    HW110715   3.685   0.314   0.295
 3272SOL    HW210716   3.780   0.446   0.309
 3273SOL     OW10717   4.323   3.668   6.569
 3273SOL    HW110718   4.228   3.671   6.540
 3273SOL    HW210719   4.351   3.573   6.584
 3274SOL     OW10720   4.292   0.306   1.998
 3274SOL    HW110721   4.265   0.356   2.080
 3274SOL    HW210722   4.356   0.233   2.022
 3275SOL     OW10723   5.053   0.366   1.435
 3275SOL    HW110724   5.120   0.440   1.442
 3275SOL    HW210725   4.973   0.387   1.491
 3276SOL     OW10726   6.057   5.740   0.263
 3276SOL    HW110727   6.026   5.719   0.355
 3276SOL    HW210728   6.024   5.671   0.199
 3277SOL     OW10729   4.266   0.892   2.473
 3277SOL    HW110730   4.311   0.827   2.534
 3277SOL    HW210731   4.262   0.853   2.381
 3278SOL     OW10732   4.915   1.463   6.902
 3278SOL    HW110733   4.969   1.546   6.888
 3278SOL    HW210734   4.938   1.396   6.832
 3279SOL     OW10735   4.388   0.562   2.326
 3279SOL    HW110736   4.302   0.523   2.293
 3279SOL    HW210737   4.371   0.622   2.404
 3280SOL     OW10738   6.645   2.514   4.191
 3280SOL    HW110739   6.738   2.528   4.157
 3280SOL    HW210740   6.635   2.421   4.226
 3281SOL     OW10741   6.209   2.759   2.087
 3281SOL    HW110742   6.221   2.790   2.182
 3281SOL    HW210743   6.137   2.813   2.043
 3282SOL     OW10744   6.928   4.605   5.119
 3282SOL    HW110745   6.957   4.606   5.024
 3282SOL    HW210746   6.859   4.533   5.132
 3283SOL     OW10747   3.378   1.421   0.564
 3283SOL    HW110748   3.451   1.412   0.496
 3283SOL    HW210749   3.396   1.501   0.621
 3284SOL     OW10750   2.047   1.088   5.383
 3284SOL    HW110751   2.140   1.092   5.348
 3284SOL    HW210752   2.024   0.993   5.404
 3285SOL     OW10753   3.905   1.578   4.001
 3285SOL    HW110754   3.994   1.537   4.023
 3285SOL    HW210755   3.906   1.609   3.906
 3286SOL     OW10756   1.065   4.187   3.300
 3286SOL    HW110757   0.990   4.123   3.317
 3286SOL    HW210758   1.143   4.137   3.262
 3287SOL     OW10759   3.284   1.493   0.263
 3287SOL    HW110760   3.215   1.470   0.331
 3287SOL    HW210761   3.277   1.430   0.186
 3288SOL     OW10762   3.238   5.418   1.852
 3288SOL    HW110763   3.247   5.391   1.948
 3288SOL    HW210764   3.159   5.373   1.812
 3289SOL     OW10765   5.066   6.985   0.109
 3289SOL    HW110766   5.157   6.967   0.148
 3289SOL    HW210767   5.075   0.021   0.027
 3290SOL     OW10768   0.838   4.385   6.999
 3290SOL    HW110769   0.744   4.411   0.002
 3290SOL    HW210770   0.852   4.390   6.900
 3291SOL     OW10771   5.029   6.544   5.861
 3291SOL    HW110772   5.094   6.577   5.929
 3291SOL    HW210773   5.042   6.592   5.775
 3292SOL     OW10774   0.353   2.985   1.247
 3292SOL    HW110775   0.353   3.085   1.245
 3292SOL    HW210776   0.429   2.951   1.192
 3293SOL     OW10777   6.658   4.368   2.530
 3293SOL    HW110778   6.657   4.434   2.605
 3293SOL    HW210779   6.593   4.398   2.459
 3294SOL     OW10780   4.170   3.148   5.257
 3294SOL    HW110781   4.233   3.088   5.306
 3294SOL    HW210782   4.080   3.143   5.299
 3295SOL     OW10783   1.054   3.434   3.585
 3295SOL    HW110784   0.959   3.414   3.560
 3295SOL    HW210785   1.114   3.401   3.512
 3296SOL     OW10786   2.417   0.436   6.997
 3296SOL    HW110787   2.329   0.476   6.972
 3296SOL    HW210788   2.490   0.497   6.969
 3297SOL     OW10789   2.759   0.730   5.887
 3297SOL    HW110790   2.809   0.675   5.821
 3297SOL    HW210791   2.796   0.822   5.889
 3298SOL     OW10792   3.731   4.109   6.171
 3298SOL    HW110793   3.665   4.166   6.220
 3298SOL    HW210794   3.682   4.057   6.101
 3299SOL     OW10795   2.527   7.018   4.355
 3299SOL    HW110796   2.558   0.065   4.423
 3299SOL    HW210797   2.606   6.969   4.318
 3300SOL     OW10798   1.764   0.857   3.114
 3300SOL    HW110799   1.816   0.911   3.180
 3300SOL    HW210800   1.825   0.789   3.072
 3301SOL     OW10801   1.220   1.021   2.234
 3301SOL    HW110802   1.163   1.044   2.313
 3301SOL    HW210803   1.192   0.932   2.197
 3302SOL     OW10804   1.339   4.595   4.878
 3302SOL    HW110805   1.245   4.571   4.854
 3302SOL    HW210806   1.394   4.604   4.794
 3303SOL     OW10807   4.483   3.737   0.672
 3303SOL    HW110808   4.439   3.707   0.588
 3303SOL    HW210809   4.414   3.751   0.743
 3304SOL     OW10810   2.360   3.981   1.088
 3304SOL    HW110811   2.449   3.963   1.045
 3304SOL    HW210812   2.289   3.983   1.017
 3305SOL     OW10813   3.112   2.699   0.007
 3305SOL    HW110814   3.152   2.781   0.048
 3305SOL    HW210815   3.096   2.715   6.929
 3306SOL     OW10816   2.757   0.696   0.852
 3306SOL    HW110817   2.849   0.675   0.884
 3306SOL    HW210818   2.704   0.611   0.843
 3307SOL     OW10819   1.839   5.724   5.222
 3307SOL    HW110820   1.871   5.669   5.146
 3307SOL    HW210821   1.758   5.777   5.194
 3308SOL     OW10822   5.083   5.764   1.366
 3308SOL    HW110823   5.099   5.797   1.459
 3308SOL    HW210824   5.034   5.834   1.314
 3309SOL     OW10825   5.928   3.514   4.298
 3309SOL    HW110826   5.853   3.487   4.358
 3309SOL    HW210827   5.903   3.498   4.203
 3310SOL     OW10828   6.231   4.593   6.643
 3310SOL    HW110829   6.249   4.672   6.584
 3310SOL    HW210830   6.297   4.521   6.623
 3311SOL     OW10831   1.827   2.991   0.755
 3311SOL    HW110832   1.817   3.063   0.686
 3311SOL    HW210833   1.884   2.918   0.719
 3312SOL     OW10834   5.136   3.669   0.227
 3312SOL    HW110835   5.139   3.729   0.308
 3312SOL    HW210836   5.196   3.705   0.156
 3313SOL     OW10837   1.022   6.682   3.425
 3313SOL    HW110838   0.932   6.655   3.458
 3313SOL    HW210839   1.082   6.702   3.502
 3314SOL     OW10840   3.081   5.981   3.818
 3314SOL    HW110841   2.999   6.007   3.869
 3314SOL    HW210842   3.163   6.013   3.866
 3315SOL     OW10843   1.205   6.468   3.705
 3315SOL    HW110844   1.210   6.558   3.662
 3315SOL    HW210845   1.189   6.480   3.804
 3316SOL     OW10846   3.760   1.935   0.232
 3316SOL    HW110847   3.823   1.952   0.157
 3316SOL    HW210848   3.777   1.844   0.271
 3317SOL     OW10849   5.667   2.082   1.066
 3317SOL    HW110850   5.616   2.068   0.982
 3317SOL    HW210851   5.757   2.039   1.058
 3318SOL     OW10852   3.841   2.536   0.701
 3318SOL    HW110853   3.853   2.573   0.794
 3318SOL    HW210854   3.774   2.592   0.652
 3319SOL     OW10855   6.404   6.520   3.833
 3319SOL    HW110856   6.341   6.456   3.789
 3319SOL    HW210857   6.352   6.578   3.896
 3320SOL     OW10858   6.324   0.386   2.685
 3320SOL    HW110859   6.259   0.446   2.638
 3320SOL    HW210860   6.275   0.333   2.754
 3321SOL     OW10861   4.542   1.865   6.899
 3321SOL    HW110862   4.635   1.864   6.937
 3321SOL    HW210863   4.529   1.785   6.840
 3322SOL     OW10864   6.070   3.821   1.400
 3322SOL    HW110865   5.986   3.843   1.352
 3322SOL    HW210866   6.132   3.772   1.339
 3323SOL     OW10867   0.944   0.392   2.351
 3323SOL    HW110868   0.895   0.450   2.287
 3323SOL    HW210869   1.004   0.329   2.300
 3324SOL     OW10870   6.348   5.565   6.372
 3324SOL    HW110871   6.324   5.476   6.409
 3324SOL    HW210872   6.440   5.561   6.333
 3325SOL     OW10873   2.627   5.058   6.621
 3325SOL    HW110874   2.649   5.073   6.718
 3325SOL    HW210875   2.676   4.977   6.588
 3326SOL     OW10876   4.093   1.627   1.992
 3326SOL    HW110877   4.065   1.594   2.082
 3326SOL    HW210878   4.191   1.645   1.992
 3327SOL     OW10879   1.358   6.295   5.733
 3327SOL    HW110880   1.330   6.275   5.827
 3327SOL    HW210881   1.292   6.356   5.691
 3328SOL     OW10882   4.509   2.811   5.382
 3328SOL    HW110883   4.562   2.838   5.302
 3328SOL    HW210884   4.567   2.759   5.445
 3329SOL     OW10885   6.830   6.421   5.711
 3329SOL    HW110886   6.894   6.430   5.787
 3329SOL    HW210887   6.776   6.338   5.721
 3330SOL     OW10888   6.673   2.838   2.872
 3330SOL    HW110889   6.670   2.888   2.959
 3330SOL    HW210890   6.592   2.780   2.865
 3331SOL     OW10891   1.781   3.267   0.692
 3331SOL    HW110892   1.795   3.326   0.613
 3331SOL    HW210893   1.709   3.306   0.750
 3332SOL     OW10894   6.955   4.115   1.844
 3332SOL    HW110895   0.001   4.149   1.911
 3332SOL    HW210896   6.976   4.155   1.754
 3333SOL     OW10897   3.233   6.014   5.191
 3333SOL    HW110898   3.323   6.006   5.233
 3333SOL    HW210899   3.240   5.994   5.093
 3334SOL     OW10900   1.558   3.276   1.068
 3334SOL    HW110901   1.563   3.343   0.995
 3334SOL    HW210902   1.640   3.218   1.066
 3335SOL     OW10903   5.425   4.437   4.553
 3335SOL    HW110904   5.500   4.374   4.576
 3335SOL    HW210905   5.461   4.514   4.500
 3336SOL     OW10906   3.459   6.298   5.808
 3336SOL    HW110907   3.360   6.284   5.802
 3336SOL    HW210908   3.506   6.211   5.798
 3337SOL     OW10909   3.668   1.547   0.591
 3337SOL    HW110910   3.673   1.449   0.571
 3337SOL    HW210911   3.581   1.566   0.637
 3338SOL     OW10912   0.143   5.325   0.387
 3338SOL    HW110913   0.212   5.261   0.355
 3338SOL    HW210914   0.064   5.274   0.421
 3339SOL     OW10915   0.198   4.378   6.476
 3339SOL    HW110916   0.125   4.324   6.434
 3339SOL    HW210917   0.157   4.457   6.522
 3340SOL     OW10918   3.935   0.453   1.776
 3340SOL    HW110919   3.984   0.369   1.754
 3340SOL    HW210920   3.866   0.471   1.706
 3341SOL     OW10921   0.927   0.374   0.105
 3341SOL    HW110922   0.968   0.407   0.189
 3341SOL    HW210923   0.979   0.297   0.070
 3342SOL     OW10924   1.733   6.571   5.353
 3342SOL    HW110925   1.810   6.612   5.304
 3342SOL    HW210926   1.750   6.576   5.451
 3343SOL     OW10927   0.351   2.133   0.911
 3343SOL    HW110928   0.442   2.174   0.917
 3343SOL    HW210929   0.332   2.080   0.994
 3344SOL     OW10930   1.880   2.491   6.358
 3344SOL    HW110931   1.813   2.446   6.299
 3344SOL    HW210932   1.852   2.484   6.453
 3345SOL     OW10933   2.824   3.412   6.437
 3345SOL    HW110934   2.755   3.349   6.473
 3345SOL    HW210935   2.876   3.367   6.364
 3346SOL     OW10936   2.262   5.630   2.705
 3346SOL    HW110937   2.337   5.632   2.770
 3346SOL    HW210938   2.182   5.588   2.748
 3347SOL     OW10939   6.324   3.887   4.336
 3347SOL    HW110940   6.237   3.926   4.308
 3347SOL    HW210941   6.351   3.815   4.273
 3348SOL     OW10942   3.903   3.866   3.476
 3348SOL    HW110943   3.934   3.861   3.381
 3348SOL    HW210944   3.907   3.961   3.507
 3349SOL     OW10945   4.950   2.598   0.584
 3349SOL    HW110946   5.036   2.555   0.555
 3349SOL    HW210947   4.877   2.570   0.521
 3350SOL     OW10948   2.480   3.111   1.282
 3350SOL    HW110949   2.495   3.210   1.293
 3350SOL    HW210950   2.419   3.096   1.204
 3351SOL     OW10951   5.889   2.871   0.677
 3351SOL    HW110952   5.948   2.834   0.605
 3351SOL    HW210953   5.945   2.892   0.757
 3352SOL     OW10954   0.029   3.359   0.148
 3352SOL    HW110955   6.990   3.382   0.226
 3352SOL    HW210956   0.124   3.353   0.179
 3353SOL     OW10957   1.402   6.698   6.453
 3353SOL    HW110958   1.308   6.683   6.484
 3353SOL    HW210959   1.401   6.744   6.364
 3354SOL     OW10960   0.898   6.767   2.266
 3354SOL    HW110961   0.976   6.722   2.224
 3354SOL    HW210962   0.931   6.834   2.333
 3355SOL     OW10963   5.886   0.707   2.523
 3355SOL    HW110964   5.921   0.629   2.470
 3355SOL    HW210965   5.830   0.673   2.599
 3356SOL     OW10966   1.160   4.033   6.956
 3356SOL    HW110967   1.191   4.052   0.030
 3356SOL    HW210968   1.239   4.029   6.895
 3357SOL     OW10969   2.641   5.721   2.299
 3357SOL    HW110970   2.696   5.650   2.256
 3357SOL    HW210971   2.669   5.731   2.394
 3358SOL     OW10972   6.829   3.948   3.355
 3358SOL    HW110973   6.881   3.935   3.439
 3358SOL    HW210974   6.733   3.923   3.370
 3359SOL     OW10975   2.276   1.383   1.611
 3359SOL    HW110976   2.247   1.476   1.632
 3359SOL    HW210977   2.351   1.357   1.672
 3360SOL     OW10978   2.889   1.164   6.446
 3360SOL    HW110979   2.795   1.148   6.417
 3360SOL    HW210980   2.949   1.096   6.403
 3361SOL     OW10981   2.420   1.115   3.002
 3361SOL    HW110982   2.474   1.061   3.066
 3361SOL    HW210983   2.327   1.126   3.037
 3362SOL     OW10984   3.041   2.234   4.407
 3362SOL    HW110985   2.989   2.268   4.485
 3362SOL    HW210986   2.991   2.252   4.323
 3363SOL     OW10987   6.399   0.870   6.979
 3363SOL    HW110988   6.414   0.910   0.051
 3363SOL    HW210989   6.369   0.775   6.988
 3364SOL     OW10990   1.669   5.438   5.436
 3364SOL    HW110991   1.746   5.423   5.374
 3364SOL    HW210992   1.676   5.376   5.514
 3365SOL     OW10993   6.480   2.100   5.132
 3365SOL    HW110994   6.579   2.115   5.123
 3365SOL    HW210995   6.433   2.187   5.121
 3366SOL     OW10996   5.362   0.479   0.055
 3366SOL    HW110997   5.399   0.478   0.148
 3366SOL    HW210998   5.266   0.505   0.057
 3367SOL     OW10999   2.129   0.053   2.359
 3367SOL    HW111000   2.219   0.094   2.351
 3367SOL    HW211001   2.060   0.124   2.366
 3368SOL     OW11002   6.004   1.455   4.535
 3368SOL    HW111003   6.063   1.527   4.497
 3368SOL    HW211004   5.916   1.456   4.488
 3369SOL     OW11005   4.040   5.495   6.577
 3369SOL    HW111006   3.961   5.518   6.635
 3369SOL    HW211007   4.086   5.414   6.615
 3370SOL     OW11008   6.206   0.774   5.559
 3370SOL    HW111009   6.113   0.765   5.595
 3370SOL    HW211010   6.250   0.856   5.598
 3371SOL     OW11011   6.834   4.857   1.433
 3371SOL    HW111012   6.911   4.796   1.413
 3371SOL    HW211013   6.864   4.930   1.493
 3372SOL     OW11014   1.380   3.040   3.111
 3372SOL    HW111015   1.437   2.978   3.165
 3372SOL    HW211016   1.393   3.020   3.014
 3373SOL     OW11017   1.253   2.763   6.192
 3373SOL    HW111018   1.319   2.824   6.236
 3373SOL    HW211019   1.174   2.750   6.251
 3374SOL     OW11020   3.554   6.260   5.163
 3374SOL    HW111021   3.530   6.163   5.169
 3374SOL    HW211022   3.585   6.291   5.253
 3375SOL     OW11023   3.464   3.798   4.864
 3375SOL    HW111024   3.444   3.889   4.900
 3375SOL    HW211025   3.553   3.800   4.817
 3376SOL     OW11026   3.335   2.949   1.592
 3376SOL    HW111027   3.364   3.045   1.588
 3376SOL    HW211028   3.262   2.933   1.525
 3377SOL     OW11029   2.876   5.305   6.040
 3377SOL    HW111030   2.808   5.317   6.112
 3377SOL    HW211031   2.885   5.389   5.988
 3378SOL     OW11032   6.559   1.091   1.095
 3378SOL    HW111033   6.602   1.180   1.081
 3378SOL    HW211034   6.588   1.053   1.183
 3379SOL     OW11035   5.788   5.164   5.478
 3379SOL    HW111036   5.854   5.189   5.407
 3379SOL    HW211037   5.696   5.161   5.438
 3380SOL     OW11038   0.804   3.999   5.542
 3380SOL    HW111039   0.863   3.936   5.493
 3380SOL    HW211040   0.849   4.029   5.626
 3381SOL     OW11041   2.979   2.250   1.029
 3381SOL    HW111042   3.062   2.304   1.012
 3381SOL    HW211043   2.978   2.170   0.969
 3382SOL     OW11044   0.019   6.726   0.449
 3382SOL    HW111045   0.079   6.674   0.388
 3382SOL    HW211046   6.996   6.801   0.399
 3383SOL     OW11047   0.493   3.994   1.334
 3383SOL    HW111048   0.503   4.032   1.242
 3383SOL    HW211049   0.572   3.936   1.354
 3384SOL     OW11050   3.353   3.796   3.195
 3384SOL    HW111051   3.346   3.698   3.179
 3384SOL    HW211052   3.446   3.818   3.226
 3385SOL     OW11053   6.745   3.884   4.114
 3385SOL    HW111054   6.791   3.863   4.201
 3385SOL    HW211055   6.701   3.801   4.080
 3386SOL     OW11056   5.820   4.364   4.405
 3386SOL    HW111057   5.783   4.272   4.393
 3386SOL    HW211058   5.832   4.407   4.316
 3387SOL     OW11059   3.519   1.626   2.408
 3387SOL    HW111060   3.615   1.653   2.416
 3387SOL    HW211061   3.508   1.531   2.438
 3388SOL     OW11062   5.883   1.891   1.447
 3388SOL    HW111063   5.940   1.972   1.437
 3388SOL    HW211064   5.916   1.820   1.385
 3389SOL     OW11065   4.147   5.843   2.549
 3389SOL    HW111066   4.058   5.840   2.594
 3389SOL    HW211067   4.177   5.750   2.530
 3390SOL     OW11068   4.414   1.498   5.671
 3390SOL    HW111069   4.491   1.476   5.730
 3390SOL    HW211070   4.399   1.423   5.606
 3391SOL     OW11071   2.916   1.931   3.942
 3391SOL    HW111072   2.949   2.011   3.892
 3391SOL    HW211073   2.825   1.950   3.978
 3392SOL     OW11074   5.228   6.139   3.767
 3392SOL    HW111075   5.134   6.127   3.736
 3392SOL    HW211076   5.236   6.224   3.819
 3393SOL     OW11077   0.008   6.785   6.526
 3393SOL    HW111078   0.042   6.694   6.546
 3393SOL    HW211079   0.004   6.839   6.610
 3394SOL     OW11080   5.196   1.372   1.987
 3394SOL    HW111081   5.283   1.323   1.980
 3394SOL    HW211082   5.184   1.430   1.906
 3395SOL     OW11083   1.775   3.902   5.046
 3395SOL    HW111084   1.868   3.913   5.079
 3395SOL    HW211085   1.755   3.805   5.032
 3396SOL     OW11086   6.310   3.350   4.431
 3396SOL    HW111087   6.357   3.424   4.479
 3396SOL    HW211088   6.322   3.360   4.333
 3397SOL     OW11089   3.389   5.628   6.291
 3397SOL    HW111090   3.405   5.561   6.364
 3397SOL    HW211091   3.429   5.595   6.206
 3398SOL     OW11092   0.465   1.303   3.326
 3398SOL    HW111093   0.368   1.321   3.311
 3398SOL    HW211094   0.512   1.294   3.239
 3399SOL     OW11095   4.153   5.931   4.569
 3399SOL    HW111096   4.158   5.834   4.545
 3399SOL    HW211097   4.139   5.985   4.487
 3400SOL     OW11098   4.985   2.235   0.576
 3400SOL    HW111099   4.907   2.232   0.639
 3400SOL    HW211100   5.053   2.167   0.603
 3401SOL     OW11101   6.659   4.759   6.576
 3401SOL    HW111102   6.691   4.851   6.598
 3401SOL    HW211103   6.563   4.763   6.547
 3402SOL     OW11104   4.083   4.712   2.011
 3402SOL    HW111105   3.998   4.766   2.005
 3402SOL    HW211106   4.078   4.636   1.946
 3403SOL     OW11107   4.001   1.900   6.223
 3403SOL    HW111108   4.000   1.800   6.221
 3403SOL    HW211109   3.923   1.933   6.276
 3404SOL     OW11110   4.743   5.802   2.049
 3404SOL    HW111111   4.676   5.871   2.023
 3404SOL    HW211112   4.697   5.729   2.101
 3405SOL     OW11113   6.058   4.481   6.795
 3405SOL    HW111114   6.039   4.537   6.876
 3405SOL    HW211115   6.134   4.522   6.744
 3406SOL     OW11116   1.182   3.172   1.669
 3406SOL    HW111117   1.202   3.104   1.739
 3406SOL    HW211118   1.266   3.201   1.625
 3407SOL     OW11119   1.288   5.613   2.789
 3407SOL    HW111120   1.293   5.529   2.843
 3407SOL    HW211121   1.214   5.671   2.823
 3408SOL     OW11122   5.194   3.570   2.712
 3408SOL    HW111123   5.218   3.473   2.717
 3408SOL    HW211124   5.103   3.584   2.751
 3409SOL     OW11125   2.428   1.183   6.667
 3409SOL    HW111126   2.476   1.133   6.738
 3409SOL    HW211127   2.459   1.279   6.667
 3410SOL     OW11128   0.321   1.921   0.225
 3410SOL    HW111129   0.321   1.991   0.297
 3410SOL    HW211130   0.412   1.914   0.185
 3411SOL     OW11131   4.833   2.130   2.352
 3411SOL    HW111132   4.838   2.194   2.429
 3411SOL    HW211133   4.873   2.172   2.271
 3412SOL     OW11134   4.267   5.383   0.226
 3412SOL    HW111135   4.210   5.464   0.210
 3412SOL    HW211136   4.326   5.367   0.147
 3413SOL     OW11137   5.312   1.215   2.630
 3413SOL    HW111138   5.266   1.174   2.709
 3413SOL    HW211139   5.267   1.301   2.605
 3414SOL     OW11140   3.583   0.394   5.405
 3414SOL    HW111141   3.624   0.384   5.496
 3414SOL    HW211142   3.564   0.303   5.367
 3415SOL     OW11143   1.650   5.865   5.570
 3415SOL    HW111144   1.743   5.850   5.536
 3415SOL    HW211145   1.637   5.963   5.589
 3416SOL     OW11146   2.442   4.206   5.574
 3416SOL    HW111147   2.408   4.300   5.583
 3416SOL    HW211148   2.537   4.202   5.604
 3417SOL     OW11149   5.172   0.553   1.114
 3417SOL    HW111150   5.104   0.480   1.128
 3417SOL    HW211151   5.248   0.517   1.061
 3418SOL     OW11152   3.192   1.929   5.661
 3418SOL    HW111153   3.196   1.932   5.561
 3418SOL    HW211154   3.275   1.886   5.696
 3419SOL     OW11155   4.748   3.579   6.276
 3419SOL    HW111156   4.806   3.502   6.249
 3419SOL    HW211157   4.703   3.616   6.195
 3420SOL     OW11158   3.172   0.857   5.097
 3420SOL    HW111159   3.100   0.828   5.034
 3420SOL    HW211160   3.137   0.930   5.156
 3421SOL     OW11161   0.362   6.746   2.962
 3421SOL    HW111162   0.313   6.751   3.050
 3421SOL    HW211163   0.459   6.764   2.977
 3422SOL     OW11164   3.269   2.069   2.817
 3422SOL    HW111165   3.255   2.064   2.916
 3422SOL    HW211166   3.279   1.977   2.780
 3423SOL     OW11167   3.537   0.892   1.734
 3423SOL    HW111168   3.588   0.865   1.816
 3423SOL    HW211169   3.550   0.990   1.718
 3424SOL     OW11170   4.968   1.701   1.586
 3424SOL    HW111171   5.044   1.765   1.574
 3424SOL    HW211172   4.999   1.608   1.568
 3425SOL     OW11173   4.384   3.884   1.703
 3425SOL    HW111174   4.430   3.972   1.689
 3425SOL    HW211175   4.293   3.887   1.662
 3426SOL     OW11176   4.711   3.841   0.960
 3426SOL    HW111177   4.744   3.787   1.037
 3426SOL    HW211178   4.730   3.793   0.875
 3427SOL     OW11179   0.861   1.518   0.558
 3427SOL    HW111180   0.952   1.551   0.585
 3427SOL    HW211181   0.810   1.490   0.640
 3428SOL     OW11182   4.596   4.677   3.135
 3428SOL    HW111183   4.613   4.679   3.233
 3428SOL    HW211184   4.505   4.640   3.117
 3429SOL     OW11185   0.457   2.594   1.276
 3429SOL    HW111186   0.507   2.672   1.314
 3429SOL    HW211187   0.377   2.626   1.226
 3430SOL     OW11188   0.911   5.405   6.500
 3430SOL    HW111189   0.940   5.432   6.409
 3430SOL    HW211190   0.813   5.384   6.499
 3431SOL     OW11191   2.044   5.997   6.293
 3431SOL    HW111192   2.039   6.088   6.252
 3431SOL    HW211193   1.965   5.942   6.264
 3432SOL     OW11194   3.895   2.024   6.014
 3432SOL    HW111195   3.961   1.971   6.067
 3432SOL    HW211196   3.927   2.032   5.920
 3433SOL     OW11197   4.232   1.218   4.287
 3433SOL    HW111198   4.180   1.141   4.325
 3433SOL    HW211199   4.296   1.252   4.356
 3434SOL     OW11200   4.393   1.641   3.495
 3434SOL    HW111201   4.382   1.699   3.413
 3434SOL    HW211202   4.446   1.560   3.471
 3435SOL     OW11203   0.980   1.357   0.010
 3435SOL    HW111204   0.983   1.379   0.107
 3435SOL    HW211205   0.959   1.439   6.977
 3436SOL     OW11206   4.108   6.731   1.973
 3436SOL    HW111207   4.092   6.644   1.927
 3436SOL    HW211208   4.079   6.806   1.913
 3437SOL     OW11209   4.006   0.092   6.913
 3437SOL    HW111210   3.927   0.062   6.966
 3437SOL    HW211211   4.003   0.191   6.901
 3438SOL     OW11212   0.666   5.325   6.631
 3438SOL    HW111213   0.579   5.302   6.675
 3438SOL    HW211214   0.742   5.296   6.690
 3439SOL     OW11215   2.226   0.481   4.155
 3439SOL    HW111216   2.251   0.569   4.114
 3439SOL    HW211217   2.301   0.447   4.210
 3440SOL     OW11218   3.576   2.165   0.120
 3440SOL    HW111219   3.525   2.114   0.051
 3440SOL    HW211220   3.674   2.157   0.103
 3441SOL     OW11221   4.759   0.786   3.906
 3441SOL    HW111222   4.838   0.824   3.955
 3441SOL    HW211223   4.680   0.787   3.967
 3442SOL     OW11224   1.101   5.224   2.963
 3442SOL    HW111225   1.040   5.205   2.886
 3442SOL    HW211226   1.088   5.154   3.033
 3443SOL     OW11227   5.290   6.594   4.405
 3443SOL    HW111228   5.276   6.693   4.410
 3443SOL    HW211229   5.388   6.574   4.402
 3444SOL     OW11230   4.141   5.638   0.053
 3444SOL    HW111231   4.189   5.622   6.986
 3444SOL    HW211232   4.061   5.695   0.037
 3445SOL     OW11233   5.822   4.848   5.276
 3445SOL    HW111234   5.738   4.876   5.323
 3445SOL    HW211235   5.858   4.924   5.224
 3446SOL     OW11236   2.082   6.495   1.712
 3446SOL    HW111237   2.052   6.400   1.723
 3446SOL    HW211238   2.120   6.528   1.799
 3447SOL     OW11239   6.176   4.411   5.433
 3447SOL    HW111240   6.076   4.421   5.433
 3447SOL    HW211241   6.218   4.500   5.448
 3448SOL     OW11242   3.911   3.223   0.781
 3448SOL    HW111243   3.964   3.225   0.866
 3448SOL    HW211244   3.865   3.135   0.772
 3449SOL     OW11245   6.694   6.390   3.179
 3449SOL    HW111246   6.618   6.327   3.196
 3449SOL    HW211247   6.742   6.363   3.095
 3450SOL     OW11248   0.677   2.096   1.073
 3450SOL    HW111249   0.667   2.160   0.996
 3450SOL    HW211250   0.615   2.019   1.061
 3451SOL     OW11251   1.793   5.006   4.614
 3451SOL    HW111252   1.848   5.076   4.569
 3451SOL    HW211253   1.767   4.936   4.548
 3452SOL     OW11254   6.841   1.992   0.820
 3452SOL    HW111255   6.840   1.929   0.898
 3452SOL    HW211256   6.934   1.999   0.785
 3453SOL     OW11257   5.856   5.746   5.209
 3453SOL    HW111258   5.815   5.801   5.136
 3453SOL    HW211259   5.841   5.792   5.297
 3454SOL     OW11260   0.341   1.037   0.727
 3454SOL    HW111261   0.293   1.110   0.678
 3454SOL    HW211262   0.438   1.041   0.705
 3455SOL     OW11263   1.174   2.970   3.564
 3455SOL    HW111264   1.111   2.892   3.561
 3455SOL    HW211265   1.136   3.046   3.511
 3456SOL     OW11266   6.179   0.516   0.478
 3456SOL    HW111267   6.080   0.526   0.465
 3456SOL    HW211268   6.225   0.602   0.457
 3457SOL     OW11269   1.932   6.558   3.769
 3457SOL    HW111270   2.005   6.625   3.761
 3457SOL    HW211271   1.903   6.529   3.677
 3458SOL     OW11272   5.106   5.144   0.375
 3458SOL    HW111273   5.029   5.200   0.343
 3458SOL    HW211274   5.156   5.108   0.297
 3459SOL     OW11275   5.983   0.012   3.359
 3459SOL    HW111276   5.960   0.103   3.395
 3459SOL    HW211277   5.899   6.987   3.326
 3460SOL     OW11278   4.333   2.611   0.578
 3460SOL    HW111279   4.368   2.697   0.542
 3460SOL    HW211280   4.238   2.598   0.549
 3461SOL     OW11281   2.767   5.884   2.934
 3461SOL    HW111282   2.756   5.858   3.030
 3461SOL    HW211283   2.677   5.889   2.890
 3462SOL     OW11284   4.852   2.290   2.562
 3462SOL    HW111285   4.815   2.366   2.508
 3462SOL    HW211286   4.951   2.299   2.569
 3463SOL     OW11287   1.114   3.036   0.861
 3463SOL    HW111288   1.105   2.961   0.926
 3463SOL    HW211289   1.203   3.080   0.874
 3464SOL     OW11290   5.380   1.622   5.856
 3464SOL    HW111291   5.306   1.674   5.898
 3464SOL    HW211292   5.434   1.577   5.928
 3465SOL     OW11293   1.755   4.627   1.783
 3465SOL    HW111294   1.820   4.639   1.709
 3465SOL    HW211295   1.803   4.630   1.871
 3466SOL     OW11296   6.540   3.984   4.494
 3466SOL    HW111297   6.599   3.905   4.479
 3466SOL    HW211298   6.453   3.972   4.445
 3467SOL     OW11299   3.900   3.479   0.233
 3467SOL    HW111300   3.862   3.503   0.323
 3467SOL    HW211301   3.830   3.432   0.179
 3468SOL     OW11302   3.952   1.367   1.638
 3468SOL    HW111303   4.030   1.304   1.644
 3468SOL    HW211304   3.878   1.334   1.696
 3469SOL     OW11305   3.611   5.699   5.346
 3469SOL    HW111306   3.534   5.705   5.409
 3469SOL    HW211307   3.579   5.704   5.252
 3470SOL     OW11308   1.435   2.419   1.403
 3470SOL    HW111309   1.454   2.507   1.359
 3470SOL    HW211310   1.467   2.422   1.498
 3471SOL     OW11311   4.907   3.011   4.891
 3471SOL    HW111312   4.931   2.914   4.883
 3471SOL    HW211313   4.847   3.037   4.815
 3472SOL     OW11314   5.133   1.693   2.583
 3472SOL    HW111315   5.222   1.685   2.537
 3472SOL    HW211316   5.074   1.756   2.532
 3473SOL     OW11317   6.142   4.538   1.927
 3473SOL    HW111318   6.204   4.462   1.945
 3473SOL    HW211319   6.066   4.536   1.992
 3474SOL     OW11320   4.922   4.066   3.679
 3474SOL    HW111321   4.849   4.121   3.719
 3474SOL    HW211322   4.948   3.993   3.742
 3475SOL     OW11323   0.146   3.820   4.404
 3475SOL    HW111324   0.171   3.852   4.495
 3475SOL    HW211325   0.227   3.785   4.357
 3476SOL     OW11326   1.910   2.235   3.163
 3476SOL    HW111327   1.869   2.144   3.168
 3476SOL    HW211328   1.888   2.277   3.076
 3477SOL     OW11329   0.984   4.221   1.841
 3477SOL    HW111330   1.036   4.146   1.800
 3477SOL    HW211331   0.968   4.201   1.938
 3478SOL     OW11332   2.771   0.523   1.347
 3478SOL    HW111333   2.804   0.430   1.331
 3478SOL    HW211334   2.847   0.581   1.377
 3479SOL     OW11335   0.826   4.373   5.545
 3479SOL    HW111336   0.804   4.364   5.448
 3479SOL    HW211337   0.919   4.408   5.555
 3480SOL     OW11338   1.310   4.928   6.633
 3480SOL    HW111339   1.234   4.927   6.698
 3480SOL    HW211340   1.383   4.868   6.666
 3481SOL     OW11341   6.097   1.061   4.772
 3481SOL    HW111342   6.051   0.984   4.816
 3481SOL    HW211343   6.144   1.028   4.690
 3482SOL     OW11344   6.044   2.870   6.702
 3482SOL    HW111345   6.076   2.787   6.657
 3482SOL    HW211346   5.947   2.861   6.724
 3483SOL     OW11347   5.127   2.625   5.295
 3483SOL    HW111348   5.036   2.648   5.330
 3483SOL    HW211349   5.129   2.530   5.264
 3484SOL     OW11350   1.446   3.096   4.538
 3484SOL    HW111351   1.462   3.007   4.580
 3484SOL    HW211352   1.370   3.142   4.584
 3485SOL     OW11353   6.990   3.533   6.949
 3485SOL    HW111354   6.971   3.505   0.024
 3485SOL    HW211355   0.017   3.459   6.901
 3486SOL     OW11356   1.952   6.959   5.092
 3486SOL    HW111357   1.908   0.009   5.034
 3486SOL    HW211358   2.047   6.948   5.065
 3487SOL     OW11359   4.220   1.867   6.899
 3487SOL    HW111360   4.250   1.882   6.805
 3487SOL    HW211361   4.202   1.770   6.913
 3488SOL     OW11362   4.880   6.661   5.303
 3488SOL    HW111363   4.888   6.741   5.243
 3488SOL    HW211364   4.884   6.578   5.247
 3489SOL     OW11365   3.408   6.274   0.449
 3489SOL    HW111366   3.359   6.349   0.404
 3489SOL    HW211367   3.383   6.188   0.405
 3490SOL     OW11368   3.454   6.483   0.906
 3490SOL    HW111369   3.476   6.580   0.918
 3490SOL    HW211370   3.427   6.444   0.994
 3491SOL     OW11371   4.852   4.653   5.758
 3491SOL    HW111372   4.864   4.584   5.829
 3491SOL    HW211373   4.896   4.621   5.673
 3492SOL     OW11374   5.935   3.924   3.644
 3492SOL    HW111375   5.919   4.012   3.689
 3492SOL    HW211376   5.915   3.933   3.546
 3493SOL     OW11377   6.958   3.321   5.773
 3493SOL    HW111378   6.884   3.254   5.766
 3493SOL    HW211379   7.003   3.311   5.862
 3494SOL     OW11380   4.168   1.069   2.205
 3494SOL    HW111381   4.086   1.119   2.232
 3494SOL    HW211382   4.243   1.134   2.192
 3495SOL     OW11383   1.797   3.924   3.852
 3495SOL    HW111384   1.824   3.835   3.815
 3495SOL    HW211385   1.842   3.938   3.940
 3496SOL     OW11386   6.129   5.352   1.093
 3496SOL    HW111387   6.078   5.371   1.009
 3496SOL    HW211388   6.182   5.434   1.118
 3497SOL     OW11389   3.712   0.160   1.783
 3497SOL    HW111390   3.810   0.148   1.770
 3497SOL    HW211391   3.695   0.217   1.863
 3498SOL     OW11392   2.623   2.611   1.474
 3498SOL    HW111393   2.670   2.536   1.428
 3498SOL    HW211394   2.633   2.695   1.420
 3499SOL     OW11395   5.502   6.453   4.645
 3499SOL    HW111396   5.572   6.412   4.703
 3499SOL    HW211397   5.415   6.408   4.662
 3500SOL     OW11398   3.185   2.071   3.783
 3500SOL    HW111399   3.284   2.069   3.789
 3500SOL    HW211400   3.154   2.013   3.708
 3501SOL     OW11401   1.571   6.980   6.196
 3501SOL    HW111402   1.530   6.990   6.287
 3501SOL    HW211403   1.608   6.888   6.186
 3502SOL     OW11404   5.005   2.536   1.944
 3502SOL    HW111405   5.097   2.541   1.906
 3502SOL    HW211406   4.944   2.598   1.895
 3503SOL     OW11407   1.079   5.756   6.304
 3503SOL    HW111408   1.106   5.702   6.384
 3503SOL    HW211409   1.096   5.853   6.322
 3504SOL     OW11410   1.973   1.005   0.077
 3504SOL    HW111411   2.057   0.976   0.124
 3504SOL    HW211412   1.902   0.935   0.090
 3505SOL     OW11413   5.113   3.031   5.396
 3505SOL    HW111414   5.015   3.017   5.393
 3505SOL    HW211415   5.139   3.104   5.332
 3506SOL     OW11416   4.242   4.714   5.193
 3506SOL    HW111417   4.169   4.771   5.154
 3506SOL    HW211418   4.281   4.656   5.122
 3507SOL     OW11419   3.202   1.518   1.083
 3507SOL    HW111420   3.207   1.433   1.029
 3507SOL    HW211421   3.155   1.588   1.030
 3508SOL     OW11422   3.937   1.609   6.222
 3508SOL    HW111423   3.838   1.597   6.227
 3508SOL    HW211424   3.973   1.558   6.144
 3509SOL     OW11425   4.469   5.634   6.718
 3509SOL    HW111426   4.556   5.587   6.732
 3509SOL    HW211427   4.485   5.732   6.707
 3510SOL     OW11428   2.524   1.427   1.399
 3510SOL    HW111429   2.597   1.377   1.352
 3510SOL    HW211430   2.564   1.502   1.451
 3511SOL     OW11431   2.522   4.533   1.879
 3511SOL    HW111432   2.529   4.556   1.782
 3511SOL    HW211433   2.609   4.552   1.924
 3512SOL     OW11434   0.229   5.365   6.240
 3512SOL    HW111435   0.224   5.433   6.167
 3512SOL    HW211436   0.248   5.275   6.200
 3513SOL     OW11437   5.677   1.824   0.017
 3513SOL    HW111438   5.710   1.918   0.024
 3513SOL    HW211439   5.593   1.816   0.070
 3514SOL     OW11440   3.161   1.771   1.898
 3514SOL    HW111441   3.142   1.865   1.926
 3514SOL    HW211442   3.246   1.769   1.847
 3515SOL     OW11443   0.497   4.349   4.513
 3515SOL    HW111444   0.451   4.308   4.591
 3515SOL    HW211445   0.491   4.287   4.434
 3516SOL     OW11446   4.906   0.953   1.101
 3516SOL    HW111447   4.933   0.907   1.186
 3516SOL    HW211448   4.813   0.989   1.110
 3517SOL     OW11449   5.027   0.620   1.768
 3517SOL    HW111450   4.972   0.655   1.692
 3517SOL    HW211451   4.988   0.651   1.855
 3518SOL     OW11452   5.869   1.407   5.624
 3518SOL    HW111453   5.839   1.415   5.529
 3518SOL    HW211454   5.953   1.354   5.628
 3519SOL     OW11455   3.398   1.692   1.232
 3519SOL    HW111456   3.334   1.651   1.168
 3519SOL    HW211457   3.378   1.789   1.242
 3520SOL     OW11458   2.616   6.020   4.280
 3520SOL    HW111459   2.541   6.085   4.292
 3520SOL    HW211460   2.640   5.980   4.368
 3521SOL     OW11461   2.522   2.830   6.419
 3521SOL    HW111462   2.429   2.793   6.414
 3521SOL    HW211463   2.529   2.911   6.360
 3522SOL     OW11464   1.287   6.170   6.658
 3522SOL    HW111465   1.331   6.251   6.619
 3522SOL    HW211466   1.197   6.156   6.615
 3523SOL     OW11467   3.374   5.576   0.089
 3523SOL    HW111468   3.312   5.500   0.069
 3523SOL    HW211469   3.329   5.662   0.065
 3524SOL     OW11470   4.587   0.864   3.564
 3524SOL    HW111471   4.504   0.828   3.607
 3524SOL    HW211472   4.655   0.880   3.635
 3525SOL     OW11473   0.353   2.841   3.433
 3525SOL    HW111474   0.272   2.827   3.490
 3525SOL    HW211475   0.427   2.879   3.489
 3526SOL     OW11476   0.353   6.521   1.997
 3526SOL    HW111477   0.417   6.509   1.921
 3526SOL    HW211478   0.276   6.578   1.967
 3527SOL     OW11479   6.381   2.952   0.212
 3527SOL    HW111480   6.446   2.889   0.169
 3527SOL    HW211481   6.404   3.046   0.186
 3528SOL     OW11482   2.247   4.818   4.950
 3528SOL    HW111483   2.161   4.818   5.002
 3528SOL    HW211484   2.245   4.744   4.883
 3529SOL     OW11485   4.490   4.321   0.697
 3529SOL    HW111486   4.567   4.283   0.647
 3529SOL    HW211487   4.423   4.249   0.715
 3530SOL     OW11488   6.416   6.977   0.444
 3530SOL    HW111489   6.456   6.964   0.535
 3530SOL    HW211490   6.327   6.933   0.440
 3531SOL     OW11491   4.671   2.060   0.505
 3531SOL    HW111492   4.582   2.025   0.478
 3531SOL    HW211493   4.704   2.125   0.436
 3532SOL     OW11494   2.392   0.560   1.534
 3532SOL    HW111495   2.418   0.620   1.610
 3532SOL    HW211496   2.298   0.528   1.547
 3533SOL     OW11497   1.879   2.622   3.038
 3533SOL    HW111498   1.865   2.608   3.136
 3533SOL    HW211499   1.936   2.547   3.002
 3534SOL     OW11500   0.665   1.123   0.702
 3534SOL    HW111501   0.671   1.143   0.605
 3534SOL    HW211502   0.721   1.043   0.723
 3535SOL     OW11503   3.749   6.575   3.481
 3535SOL    HW111504   3.731   6.660   3.430
 3535SOL    HW211505   3.704   6.579   3.570
 3536SOL     OW11506   4.172   1.954   3.681
 3536SOL    HW111507   4.124   2.031   3.640
 3536SOL    HW211508   4.156   1.872   3.625
 3537SOL     OW11509   1.843   6.621   2.868
 3537SOL    HW111510   1.807   6.571   2.788
 3537SOL    HW211511   1.770   6.633   2.935
 3538SOL     OW11512   3.306   5.817   1.751
 3538SOL    HW111513   3.262   5.755   1.816
 3538SOL    HW211514   3.237   5.879   1.713
 3539SOL     OW11515   3.520   4.143   4.325
 3539SOL    HW111516   3.461   4.223   4.328
 3539SOL    HW211517   3.592   4.152   4.394
 3540SOL     OW11518   1.376   2.281   3.239
 3540SOL    HW111519   1.452   2.221   3.212
 3540SOL    HW211520   1.402   2.335   3.319
 3541SOL     OW11521   3.856   3.940   4.580
 3541SOL    HW111522   3.895   3.907   4.494
 3541SOL    HW211523   3.912   3.907   4.656
 3542SOL     OW11524   6.738   5.616   1.145
 3542SOL    HW111525   6.681   5.697   1.132
 3542SOL    HW211526   6.834   5.642   1.141
 3543SOL     OW11527   4.995   2.214   4.404
 3543SOL    HW111528   4.940   2.202   4.321
 3543SOL    HW211529   5.091   2.226   4.379
 3544SOL     OW11530   2.623   6.704   6.957
 3544SOL    HW111531   2.682   6.667   0.010
 3544SOL    HW211532   2.664   6.787   6.920
 3545SOL     OW11533   2.848   5.438   0.804
 3545SOL    HW111534   2.773   5.504   0.810
 3545SOL    HW211535   2.917   5.458   0.873
 3546SOL     OW11536   0.973   4.640   2.798
 3546SOL    HW111537   0.964   4.737   2.773
 3546SOL    HW211538   0.997   4.587   2.717
 3547SOL     OW11539   5.101   4.807   4.429
 3547SOL    HW111540   5.016   4.853   4.405
 3547SOL    HW211541   5.083   4.710   4.445
 3548SOL     OW11542   4.971   2.910   5.858
 3548SOL    HW111543   5.033   2.881   5.931
 3548SOL    HW211544   4.977   3.009   5.848
 3549SOL     OW11545   4.865   3.267   2.567
 3549SOL    HW111546   4.877   3.315   2.479
 3549SOL    HW211547   4.919   3.183   2.566
 3550SOL     OW11548   4.919   1.645   3.682
 3550SOL    HW111549   4.919   1.615   3.587
 3550SOL    HW211550   4.983   1.721   3.693
 3551SOL     OW11551   2.018   6.642   2.307
 3551SOL    HW111552   2.099   6.584   2.315
 3551SOL    HW211553   1.988   6.668   2.399
 3552SOL     OW11554   6.455   4.176   3.200
 3552SOL    HW111555   6.488   4.151   3.109
 3552SOL    HW211556   6.363   4.139   3.214
 3553SOL     OW11557   6.315   1.678   3.439
 3553SOL    HW111558   6.370   1.645   3.362
 3553SOL    HW211559   6.335   1.623   3.520
 3554SOL     OW11560   4.269   5.535   6.838
 3554SOL    HW111561   4.231   5.456   6.790
 3554SOL    HW211562   4.349   5.568   6.788
 3555SOL     OW11563   0.860   2.300   3.919
 3555SOL    HW111564   0.904   2.307   4.008
 3555SOL    HW211565   0.926   2.262   3.853
 3556SOL     OW11566   4.274   1.595   6.181
 3556SOL    HW111567   4.291   1.694   6.186
 3556SOL    HW211568   4.314   1.551   6.261
 3557SOL     OW11569   0.737   0.183   3.933
 3557SOL    HW111570   0.752   0.282   3.931
 3557SOL    HW211571   0.640   0.164   3.941
 3558SOL     OW11572   0.498   6.720   1.240
 3558SOL    HW111573   0.451   6.803   1.208
 3558SOL    HW211574   0.558   6.744   1.317
 3559SOL     OW11575   0.833   0.232   5.810
 3559SOL    HW111576   0.894   0.312   5.817
 3559SOL    HW211577   0.756   0.256   5.751
 3560SOL     OW11578   6.957   0.305   1.535
 3560SOL    HW111579   6.940   0.233   1.467
 3560SOL    HW211580   6.876   0.316   1.593
 3561SOL     OW11581   5.615   4.685   3.797
 3561SOL    HW111582   5.579   4.677   3.890
 3561SOL    HW211583   5.694   4.624   3.786
 3562SOL     OW11584   4.008   2.159   2.380
 3562SOL    HW111585   3.975   2.154   2.474
 3562SOL    HW211586   3.932   2.145   2.317
 3563SOL     OW11587   4.510   6.413   1.627
 3563SOL    HW111588   4.536   6.501   1.586
 3563SOL    HW211589   4.424   6.382   1.586
 3564SOL     OW11590   5.920   4.352   2.330
 3564SOL    HW111591   5.952   4.257   2.331
 3564SOL    HW211592   5.980   4.408   2.386
 3565SOL     OW11593   0.934   0.903   5.673
 3565SOL    HW111594   0.962   0.867   5.584
 3565SOL    HW211595   0.979   0.991   5.689
 3566SOL     OW11596   0.956   4.294   6.010
 3566SOL    HW111597   0.960   4.202   5.971
 3566SOL    HW211598   0.867   4.309   6.052
 3567SOL     OW11599   6.943   2.305   1.292
 3567SOL    HW111600   6.934   2.390   1.241
 3567SOL    HW211601   6.938   2.228   1.229
 3568SOL     OW11602   5.106   4.212   3.543
 3568SOL    HW111603   5.079   4.271   3.467
 3568SOL    HW211604   5.025   4.166   3.580
 3569SOL     OW11605   4.062   3.483   3.724
 3569SOL    HW111606   3.976   3.518   3.685
 3569SOL    HW211607   4.047   3.457   3.819
 3570SOL     OW11608   0.391   2.381   5.575
 3570SOL    HW111609   0.318   2.359   5.640
 3570SOL    HW211610   0.436   2.297   5.546
 3571SOL     OW11611   2.895   0.169   4.460
 3571SOL    HW111612   2.987   0.184   4.495
 3571SOL    HW211613   2.833   0.152   4.536
 3572SOL     OW11614   5.030   4.172   2.517
 3572SOL    HW111615   5.098   4.160   2.445
 3572SOL    HW211616   5.023   4.268   2.542
 3573SOL     OW11617   0.288   4.964   4.002
 3573SOL    HW111618   0.327   4.942   3.912
 3573SOL    HW211619   0.356   5.015   4.056
 3574SOL     OW11620   1.870   1.841   6.063
 3574SOL    HW111621   1.810   1.762   6.078
 3574SOL    HW211622   1.936   1.819   5.992
 3575SOL     OW11623   4.992   0.709   6.361
 3575SOL    HW111624   4.923   0.701   6.290
 3575SOL    HW211625   4.948   0.737   6.447
 3576SOL     OW11626   0.676   2.633   0.968
 3576SOL    HW111627   0.619   2.696   0.915
 3576SOL    HW211628   0.731   2.685   1.033
 3577SOL     OW11629   1.762   3.700   4.623
 3577SOL    HW111630   1.698   3.705   4.700
 3577SOL    HW211631   1.716   3.732   4.540
 3578SOL     OW11632   4.262   2.285   0.633
 3578SOL    HW111633   4.191   2.225   0.597
 3578SOL    HW211634   4.349   2.266   0.588
 3579SOL     OW11635   0.895   3.467   2.158
 3579SOL    HW111636   0.974   3.501   2.107
 3579SOL    HW211637   0.900   3.368   2.167
 3580SOL     OW11638   6.847   4.495   1.944
 3580SOL    HW111639   6.758   4.472   1.907
 3580SOL    HW211640   6.883   4.417   1.995
 3581SOL     OW11641   1.690   0.427   2.567
 3581SOL    HW111642   1.607   0.378   2.593
 3581SOL    HW211643   1.712   0.495   2.636
 3582SOL     OW11644   4.656   6.138   6.202
 3582SOL    HW111645   4.716   6.217   6.190
 3582SOL    HW211646   4.703   6.069   6.258
 3583SOL     OW11647   1.636   6.019   0.782
 3583SOL    HW111648   1.587   6.057   0.703
 3583SOL    HW211649   1.646   5.920   0.770
 3584SOL     OW11650   5.513   4.620   4.813
 3584SOL    HW111651   5.571   4.540   4.803
 3584SOL    HW211652   5.521   4.678   4.733
 3585SOL     OW11653   4.102   2.283   3.823
 3585SOL    HW111654   4.043   2.364   3.815
 3585SOL    HW211655   4.101   2.233   3.736
 3586SOL     OW11656   6.442   2.403   5.406
 3586SOL    HW111657   6.460   2.448   5.494
 3586SOL    HW211658   6.468   2.463   5.331
 3587SOL     OW11659   2.239   0.712   6.089
 3587SOL    HW111660   2.258   0.651   6.166
 3587SOL    HW211661   2.314   0.705   6.023
 3588SOL     OW11662   6.200   3.645   3.910
 3588SOL    HW111663   6.292   3.670   3.880
 3588SOL    HW211664   6.204   3.560   3.962
 3589SOL     OW11665   0.521   0.821   6.253
 3589SOL    HW111666   0.520   0.839   6.351
 3589SOL    HW211667   0.426   0.816   6.219
 3590SOL     OW11668   6.085   5.180   5.703
 3590SOL    HW111669   6.115   5.191   5.798
 3590SOL    HW211670   5.994   5.138   5.702
 3591SOL     OW11671   4.758   1.943   0.925
 3591SOL    HW111672   4.826   1.898   0.984
 3591SOL    HW211673   4.692   1.991   0.982
 3592SOL     OW11674   0.965   6.290   1.364
 3592SOL    HW111675   1.061   6.317   1.356
 3592SOL    HW211676   0.915   6.322   1.284
 3593SOL     OW11677   4.215   3.389   5.943
 3593SOL    HW111678   4.118   3.390   5.918
 3593SOL    HW211679   4.269   3.355   5.866
 3594SOL     OW11680   4.570   4.320   5.111
 3594SOL    HW111681   4.594   4.243   5.169
 3594SOL    HW211682   4.471   4.338   5.119
 3595SOL     OW11683   4.787   6.975   5.697
 3595SOL    HW111684   4.787   6.915   5.777
 3595SOL    HW211685   4.720   0.028   5.710
 3596SOL     OW11686   3.333   1.526   2.077
 3596SOL    HW111687   3.380   1.603   2.035
 3596SOL    HW211688   3.327   1.451   2.012
 3597SOL     OW11689   4.126   4.601   5.460
 3597SOL    HW111690   4.215   4.581   5.418
 3597SOL    HW211691   4.084   4.515   5.490
 3598SOL     OW11692   0.012   5.590   4.721
 3598SOL    HW111693   0.095   5.610   4.668
 3598SOL    HW211694   6.990   5.506   4.687
 3599SOL     OW11695   2.452   1.303   5.047
 3599SOL    HW111696   2.373   1.246   5.069
 3599SOL    HW211697   2.474   1.361   5.125
 3600SOL     OW11698   2.238   4.234   0.974
 3600SOL    HW111699   2.198   4.156   0.925
 3600SOL    HW211700   2.333   4.213   0.997
 3601SOL     OW11701   3.307   0.229   5.023
 3601SOL    HW111702   3.353   0.265   4.942
 3601SOL    HW211703   3.369   0.234   5.102
 3602SOL     OW11704   1.497   2.131   0.881
 3602SOL    HW111705   1.449   2.049   0.914
 3602SOL    HW211706   1.583   2.103   0.838
 3603SOL     OW11707   1.331   6.783   6.190
 3603SOL    HW111708   1.235   6.804   6.170
 3603SOL    HW211709   1.390   6.835   6.129
 3604SOL     OW11710   0.002   0.871   4.476
 3604SOL    HW111711   0.002   0.819   4.390
 3604SOL    HW211712   6.931   0.909   4.492
 3605SOL     OW11713   1.426   0.311   4.577
 3605SOL    HW111714   1.474   0.236   4.623
 3605SOL    HW211715   1.477   0.396   4.590
 3606SOL     OW11716   2.309   0.192   3.112
 3606SOL    HW111717   2.281   0.157   3.202
 3606SOL    HW211718   2.305   0.117   3.046
 3607SOL     OW11719   6.017   1.539   4.101
 3607SOL    HW111720   5.959   1.457   4.096
 3607SOL    HW211721   5.960   1.620   4.113
 3608SOL     OW11722   4.120   1.848   5.601
 3608SOL    HW111723   4.112   1.930   5.657
 3608SOL    HW211724   4.111   1.873   5.504
 3609SOL     OW11725   2.906   6.729   4.914
 3609SOL    HW111726   2.935   6.661   4.846
 3609SOL    HW211727   2.972   6.730   4.989
 3610SOL     OW11728   1.460   0.280   5.794
 3610SOL    HW111729   1.442   0.182   5.791
 3610SOL    HW211730   1.557   0.297   5.775
 3611SOL     OW11731   5.227   3.333   3.033
 3611SOL    HW111732   5.223   3.433   3.039
 3611SOL    HW211733   5.169   3.302   2.959
 3612SOL     OW11734   4.855   1.928   0.666
 3612SOL    HW111735   4.823   1.932   0.761
 3612SOL    HW211736   4.780   1.955   0.605
 3613SOL     OW11737   3.980   0.528   2.895
 3613SOL    HW111738   4.008   0.442   2.939
 3613SOL    HW211739   4.018   0.533   2.803
 3614SOL     OW11740   3.323   5.747   0.353
 3614SOL    HW111741   3.351   5.695   0.272
 3614SOL    HW211742   3.255   5.694   0.404
 3615SOL     OW11743   5.748   2.266   4.928
 3615SOL    HW111744   5.753   2.178   4.975
 3615SOL    HW211745   5.756   2.340   4.994
 3616SOL     OW11746   1.616   1.076   1.249
 3616SOL    HW111747   1.693   1.080   1.313
 3616SOL    HW211748   1.651   1.073   1.156
 3617SOL     OW11749   3.937   5.254   4.619
 3617SOL    HW111750   4.036   5.259   4.636
 3617SOL    HW211751   3.919   5.269   4.522
 3618SOL     OW11752   0.900   5.308   4.633
 3618SOL    HW111753   0.814   5.356   4.649
 3618SOL    HW211754   0.962   5.324   4.710
 3619SOL     OW11755   6.828   2.075   2.469
 3619SOL    HW111756   6.804   2.123   2.553
 3619SOL    HW211757   6.890   2.000   2.491
 3620SOL     OW11758   4.745   6.335   5.667
 3620SOL    HW111759   4.760   6.358   5.764
 3620SOL    HW211760   4.721   6.418   5.616
 3621SOL     OW11761   3.180   2.967   3.268
 3621SOL    HW111762   3.234   2.996   3.348
 3621SOL    HW211763   3.207   2.875   3.242
 3622SOL     OW11764   2.698   5.373   6.232
 3622SOL    HW111765   2.619   5.320   6.263
 3622SOL    HW211766   2.666   5.459   6.191
 3623SOL     OW11767   1.614   6.360   5.611
 3623SOL    HW111768   1.630   6.272   5.656
 3623SOL    HW211769   1.539   6.408   5.656
 3624SOL     OW11770   2.641   1.922   2.762
 3624SOL    HW111771   2.681   1.836   2.733
 3624SOL    HW211772   2.600   1.968   2.684
 3625SOL     OW11773   6.219   2.333   1.808
 3625SOL    HW111774   6.309   2.376   1.818
 3625SOL    HW211775   6.226   2.236   1.831
 3626SOL     OW11776   0.764   3.424   5.916
 3626SOL    HW111777   0.757   3.327   5.890
 3626SOL    HW211778   0.673   3.459   5.937
 3627SOL     OW11779   3.239   1.538   2.589
 3627SOL    HW111780   3.334   1.507   2.595
 3627SOL    HW211781   3.203   1.557   2.680
 3628SOL     OW11782   0.246   0.916   1.890
 3628SOL    HW111783   0.300   0.959   1.817
 3628SOL    HW211784   0.169   0.866   1.850
 3629SOL     OW11785   1.624   0.804   4.337
 3629SOL    HW111786   1.670   0.744   4.402
 3629SOL    HW211787   1.547   0.756   4.296
 3630SOL     OW11788   6.709   2.139   2.729
 3630SOL    HW111789   6.797   2.100   2.758
 3630SOL    HW211790   6.642   2.129   2.803
 3631SOL     OW11791   2.063   5.426   2.720
 3631SOL    HW111792   2.138   5.360   2.708
 3631SOL    HW211793   1.978   5.384   2.690
 3632SOL     OW11794   5.235   2.842   2.651
 3632SOL    HW111795   5.162   2.774   2.646
 3632SOL    HW211796   5.215   2.909   2.722
 3633SOL     OW11797   4.580   5.211   5.857
 3633SOL    HW111798   4.521   5.267   5.916
 3633SOL    HW211799   4.576   5.246   5.763
 3634SOL     OW11800   3.131   5.343   6.185
 3634SOL    HW111801   3.168   5.259   6.225
 3634SOL    HW211802   3.035   5.331   6.163
 3635SOL     OW11803   1.989   6.828   2.742
 3635SOL    HW111804   1.944   6.754   2.793
 3635SOL    HW211805   2.087   6.829   2.765
 3636SOL     OW11806   6.678   6.053   4.367
 3636SOL    HW111807   6.663   6.037   4.270
 3636SOL    HW211808   6.608   6.004   4.420
 3637SOL     OW11809   5.262   2.052   6.557
 3637SOL    HW111810   5.178   2.105   6.547
 3637SOL    HW211811   5.261   2.001   6.643
 3638SOL     OW11812   0.705   2.480   3.781
 3638SOL    HW111813   0.759   2.425   3.845
 3638SOL    HW211814   0.743   2.470   3.689
 3639SOL     OW11815   3.690   3.422   4.272
 3639SOL    HW111816   3.715   3.439   4.176
 3639SOL    HW211817   3.711   3.327   4.296
 3640SOL     OW11818   4.817   1.583   2.591
 3640SOL    HW111819   4.741   1.534   2.547
 3640SOL    HW211820   4.801   1.681   2.586
 3641SOL     OW11821   0.446   3.645   1.240
 3641SOL    HW111822   0.482   3.552   1.230
 3641SOL    HW211823   0.472   3.700   1.161
 3642SOL     OW11824   4.455   4.438   6.292
 3642SOL    HW111825   4.427   4.425   6.387
 3642SOL    HW211826   4.402   4.377   6.233
 3643SOL     OW11827   4.256   5.528   4.779
 3643SOL    HW111828   4.232   5.605   4.839
 3643SOL    HW211829   4.353   5.532   4.756
 3644SOL     OW11830   3.854   1.442   1.373
 3644SOL    HW111831   3.876   1.426   1.469
 3644SOL    HW211832   3.770   1.495   1.367
 3645SOL     OW11833   1.884   3.689   3.651
 3645SOL    HW111834   1.786   3.703   3.646
 3645SOL    HW211835   1.919   3.666   3.560
 3646SOL     OW11836   2.491   4.870   5.063
 3646SOL    HW111837   2.521   4.782   5.100
 3646SOL    HW211838   2.407   4.857   5.011
 3647SOL     OW11839   3.549   0.642   0.401
 3647SOL    HW111840   3.465   0.661   0.351
 3647SOL    HW211841   3.604   0.576   0.350
 3648SOL     OW11842   5.812   5.105   3.550
 3648SOL    HW111843   5.843   5.058   3.467
 3648SOL    HW211844   5.748   5.046   3.600
 3649SOL     OW11845   5.485   2.857   0.147
 3649SOL    HW111846   5.572   2.891   0.113
 3649SOL    HW211847   5.469   2.892   0.239
 3650SOL     OW11848   5.533   6.507   0.178
 3650SOL    HW111849   5.505   6.471   0.090
 3650SOL    HW211850   5.539   6.607   0.173
 3651SOL     OW11851   1.183   1.624   5.918
 3651SOL    HW111852   1.097   1.573   5.906
 3651SOL    HW211853   1.175   1.686   5.995
 3652SOL     OW11854   5.829   2.452   2.662
 3652SOL    HW111855   5.882   2.520   2.713
 3652SOL    HW211856   5.813   2.485   2.569
 3653SOL     OW11857   2.221   1.868   0.634
 3653SOL    HW111858   2.156   1.870   0.557
 3653SOL    HW211859   2.212   1.951   0.688
 3654SOL     OW11860   3.892   6.095   0.731
 3654SOL    HW111861   3.794   6.100   0.713
 3654SOL    HW211862   3.941   6.078   0.645
 3655SOL     OW11863   0.770   0.078   4.183
 3655SOL    HW111864   0.689   0.030   4.215
 3655SOL    HW211865   0.757   0.105   4.088
 3656SOL     OW11866   0.509   0.797   0.637
 3656SOL    HW111867   0.606   0.809   0.615
 3656SOL    HW211868   0.492   0.828   0.731
 3657SOL     OW11869   6.221   4.944   6.203
 3657SOL    HW111870   6.166   5.020   6.169
 3657SOL    HW211871   6.315   4.974   6.216
 3658SOL     OW11872   1.825   4.626   5.843
 3658SOL    HW111873   1.765   4.696   5.805
 3658SOL    HW211874   1.908   4.669   5.879
 3659SOL     OW11875   1.167   2.124   0.003
 3659SOL    HW111876   1.221   2.152   6.942
 3659SOL    HW211877   1.211   2.157   0.086
 3660SOL     OW11878   4.296   4.887   4.543
 3660SOL    HW111879   4.346   4.824   4.603
 3660SOL    HW211880   4.357   4.961   4.515
 3661SOL     OW11881   1.254   0.822   5.262
 3661SOL    HW111882   1.267   0.778   5.173
 3661SOL    HW211883   1.222   0.915   5.249
 3662SOL     OW11884   3.826   2.395   5.680
 3662SOL    HW111885   3.888   2.426   5.752
 3662SOL    HW211886   3.779   2.475   5.641
 3663SOL     OW11887   1.452   2.626   5.826
 3663SOL    HW111888   1.375   2.683   5.855
 3663SOL    HW211889   1.538   2.668   5.857
 3664SOL     OW11890   2.153   2.077   0.858
 3664SOL    HW111891   2.055   2.060   0.858
 3664SOL    HW211892   2.200   2.000   0.901
 3665SOL     OW11893   0.007   6.906   5.000
 3665SOL    HW111894   0.066   6.965   5.056
 3665SOL    HW211895   0.059   6.873   4.921
 3666SOL     OW11896   2.144   3.693   4.906
 3666SOL    HW111897   2.101   3.689   4.815
 3666SOL    HW211898   2.236   3.731   4.897
 3667SOL     OW11899   2.318   6.573   1.299
 3667SOL    HW111900   2.233   6.553   1.250
 3667SOL    HW211901   2.303   6.559   1.397
 3668SOL     OW11902   4.910   1.084   0.701
 3668SOL    HW111903   4.938   1.157   0.764
 3668SOL    HW211904   4.922   0.996   0.746
 3669SOL     OW11905   6.739   0.940   2.330
 3669SOL    HW111906   6.815   0.991   2.288
 3669SOL    HW211907   6.752   0.842   2.314
 3670SOL     OW11908   2.224   6.754   2.109
 3670SOL    HW111909   2.234   6.818   2.034
 3670SOL    HW211910   2.131   6.759   2.145
 3671SOL     OW11911   0.564   0.317   5.734
 3671SOL    HW111912   0.523   0.406   5.757
 3671SOL    HW211913   0.577   0.312   5.635
 3672SOL     OW11914   2.833   0.421   3.522
 3672SOL    HW111915   2.878   0.369   3.449
 3672SOL    HW211916   2.738   0.438   3.496
 3673SOL     OW11917   3.580   1.568   1.367
 3673SOL    HW111918   3.509   1.622   1.321
 3673SOL    HW211919   3.561   1.470   1.354
 3674SOL     OW11920   6.733   5.504   6.032
 3674SOL    HW111921   6.756   5.420   5.984
 3674SOL    HW211922   6.706   5.574   5.965
 3675SOL     OW11923   6.059   0.524   5.278
 3675SOL    HW111924   6.082   0.494   5.371
 3675SOL    HW211925   6.122   0.481   5.214
 3676SOL     OW11926   1.994   0.844   6.060
 3676SOL    HW111927   2.077   0.788   6.057
 3676SOL    HW211928   2.016   0.938   6.031
 3677SOL     OW11929   1.380   0.926   4.715
 3677SOL    HW111930   1.419   0.845   4.759
 3677SOL    HW211931   1.453   0.980   4.674
 3678SOL     OW11932   2.597   0.982   3.476
 3678SOL    HW111933   2.595   1.010   3.572
 3678SOL    HW211934   2.584   0.883   3.470
 3679SOL     OW11935   3.229   1.049   2.004
 3679SOL    HW111936   3.300   1.114   1.978
 3679SOL    HW211937   3.223   0.976   1.936
 3680SOL     OW11938   4.241   1.623   3.975
 3680SOL    HW111939   4.183   1.697   3.942
 3680SOL    HW211940   4.325   1.661   4.014
 3681SOL     OW11941   1.111   5.364   3.386
 3681SOL    HW111942   1.166   5.436   3.344
 3681SOL    HW211943   1.146   5.274   3.358
 3682SOL     OW11944   5.426   1.259   1.905
 3682SOL    HW111945   5.380   1.247   1.817
 3682SOL    HW211946   5.446   1.170   1.945
 3683SOL     OW11947   6.527   2.131   1.089
 3683SOL    HW111948   6.592   2.184   1.035
 3683SOL    HW211949   6.566   2.112   1.179
 3684SOL     OW11950   2.715   5.760   5.813
 3684SOL    HW111951   2.799   5.814   5.816
 3684SOL    HW211952   2.643   5.806   5.865
 3685SOL     OW11953   1.616   6.626   3.025
 3685SOL    HW111954   1.572   6.569   2.955
 3685SOL    HW211955   1.558   6.705   3.045
 3686SOL     OW11956   1.025   5.249   0.753
 3686SOL    HW111957   1.070   5.326   0.798
 3686SOL    HW211958   1.074   5.165   0.773
 3687SOL     OW11959   0.475   4.616   4.454
 3687SOL    HW111960   0.485   4.524   4.492
 3687SOL    HW211961   0.490   4.612   4.355
 3688SOL     OW11962   0.065   3.232   1.724
 3688SOL    HW111963   0.132   3.296   1.762
 3688SOL    HW211964   0.109   3.175   1.654
 3689SOL     OW11965   2.497   2.384   5.491
 3689SOL    HW111966   2.496   2.421   5.397
 3689SOL    HW211967   2.587   2.343   5.509
 3690SOL     OW11968   0.149   5.494   2.223
 3690SOL    HW111969   0.179   5.493   2.318
 3690SOL    HW211970   0.184   5.413   2.176
 3691SOL     OW11971   2.219   1.888   0.130
 3691SOL    HW111972   2.153   1.957   0.099
 3691SOL    HW211973   2.269   1.924   0.209
 3692SOL     OW11974   0.763   2.875   5.592
 3692SOL    HW111975   0.741   2.922   5.506
 3692SOL    HW211976   0.859   2.848   5.591
 3693SOL     OW11977   0.133   1.885   2.999
 3693SOL    HW111978   0.120   1.859   3.095
 3693SOL    HW211979   0.207   1.952   2.993
 3694SOL     OW11980   6.817   6.681   1.824
 3694SOL    HW111981   6.798   6.674   1.922
 3694SOL    HW211982   6.757   6.619   1.774
 3695SOL     OW11983   6.036   3.555   4.725
 3695SOL    HW111984   5.995   3.646   4.735
 3695SOL    HW211985   6.135   3.563   4.727
 3696SOL     OW11986   4.012   0.309   4.113
 3696SOL    HW111987   4.111   0.321   4.112
 3696SOL    HW211988   3.968   0.393   4.145
 3697SOL     OW11989   6.668   4.577   2.725
 3697SOL    HW111990   6.587   4.623   2.689
 3697SOL    HW211991   6.741   4.644   2.738
 3698SOL     OW11992   1.143   0.206   3.699
 3698SOL    HW111993   1.066   0.151   3.731
 3698SOL    HW211994   1.218   0.199   3.765
 3699SOL     OW11995   3.412   1.828   3.549
 3699SOL    HW111996   3.312   1.828   3.550
 3699SOL    HW211997   3.445   1.923   3.541
 3700SOL     OW11998   0.681   5.303   4.987
 3700SOL    HW111999   0.652   5.330   4.895
 3700SOL    HW212000   0.691   5.203   4.990
 3701SOL     OW12001   6.589   0.519   2.364
 3701SOL    HW112002   6.559   0.517   2.459
 3701SOL    HW212003   6.644   0.438   2.344
 3702SOL     OW12004   6.671   4.506   3.643
 3702SOL    HW112005   6.763   4.533   3.670
 3702SOL    HW212006   6.676   4.424   3.585
 3703SOL     OW12007   0.915   2.139   3.350
 3703SOL    HW112008   0.948   2.055   3.394
 3703SOL    HW212009   0.987   2.208   3.351
 3704SOL     OW12010   6.471   6.576   1.055
 3704SOL    HW112011   6.388   6.531   1.088
 3704SOL    HW212012   6.540   6.576   1.128
 3705SOL     OW12013   6.589   4.033   3.678
 3705SOL    HW112014   6.551   4.091   3.750
 3705SOL    HW212015   6.625   3.949   3.719
 3706SOL     OW12016   0.383   5.790   6.785
 3706SOL    HW112017   0.369   5.794   6.884
 3706SOL    HW212018   0.431   5.705   6.761
 3707SOL     OW12019   6.922   4.143   3.161
 3707SOL    HW112020   6.920   4.076   3.236
 3707SOL    HW212021   6.834   4.190   3.155
 3708SOL     OW12022   1.262   5.789   0.142
 3708SOL    HW112023   1.214   5.860   0.194
 3708SOL    HW212024   1.226   5.700   0.167
 3709SOL     OW12025   0.380   1.595   1.056
 3709SOL    HW112026   0.347   1.501   1.055
 3709SOL    HW212027   0.412   1.618   1.148
 3710SOL     OW12028   2.227   3.565   5.377
 3710SOL    HW112029   2.241   3.566   5.476
 3710SOL    HW212030   2.133   3.592   5.356
 3711SOL     OW12031   1.628   4.573   5.545
 3711SOL    HW112032   1.645   4.628   5.626
 3711SOL    HW212033   1.707   4.516   5.526
 3712SOL     OW12034   3.153   4.883   3.973
 3712SOL    HW112035   3.076   4.944   3.990
 3712SOL    HW212036   3.131   4.821   3.897
 3713SOL     OW12037   6.485   0.463   6.078
 3713SOL    HW112038   6.552   0.536   6.087
 3713SOL    HW212039   6.394   0.502   6.067
 3714SOL     OW12040   0.439   5.442   0.439
 3714SOL    HW112041   0.502   5.441   0.516
 3714SOL    HW212042   0.473   5.381   0.367
 3715SOL     OW12043   5.505   4.180   2.179
 3715SOL    HW112044   5.569   4.203   2.253
 3715SOL    HW212045   5.486   4.262   2.125
 3716SOL     OW12046   5.232   5.211   5.405
 3716SOL    HW112047   5.207   5.203   5.501
 3716SOL    HW212048   5.229   5.307   5.378
 3717SOL     OW12049   4.805   0.128   1.040
 3717SOL    HW112050   4.734   0.057   1.040
 3717SOL    HW212051   4.889   0.091   1.001
 3718SOL     OW12052   5.110   6.223   6.673
 3718SOL    HW112053   5.128   6.252   6.579
 3718SOL    HW212054   5.089   6.125   6.675
 3719SOL     OW12055   2.756   3.950   0.197
 3719SOL    HW112056   2.764   3.888   0.275
 3719SOL    HW212057   2.831   3.934   0.133
 3720SOL     OW12058   0.886   2.087   0.475
 3720SOL    HW112059   0.804   2.134   0.508
 3720SOL    HW212060   0.871   1.988   0.477
 3721SOL     OW12061   6.686   0.425   5.822
 3721SOL    HW112062   6.659   0.334   5.852
 3721SOL    HW212063   6.677   0.432   5.723
 3722SOL     OW12064   5.488   6.662   1.531
 3722SOL    HW112065   5.433   6.667   1.614
 3722SOL    HW212066   5.572   6.716   1.544
 3723SOL     OW12067   4.344   4.222   6.180
 3723SOL    HW112068   4.365   4.147   6.243
 3723SOL    HW212069   4.281   4.189   6.110
 3724SOL     OW12070   6.218   4.023   5.183
 3724SOL    HW112071   6.166   4.088   5.128
 3724SOL    HW212072   6.232   4.061   5.275
 3725SOL     OW12073   0.054   6.206   0.888
 3725SOL    HW112074   0.033   6.162   0.801
 3725SOL    HW212075   0.089   6.298   0.871
 3726SOL     OW12076   5.880   3.352   5.542
 3726SOL    HW112077   5.946   3.279   5.529
 3726SOL    HW212078   5.868   3.402   5.456
 3727SOL     OW12079   6.547   1.959   4.081
 3727SOL    HW112080   6.634   1.910   4.083
 3727SOL    HW212081   6.513   1.972   4.175
 3728SOL     OW12082   1.922   4.924   0.620
 3728SOL    HW112083   1.951   4.939   0.714
 3728SOL    HW212084   1.989   4.965   0.558
 3729SOL     OW12085   0.300   6.855   6.390
 3729SOL    HW112086   0.210   6.844   6.347
 3729SOL    HW212087   0.337   6.765   6.413
 3730SOL     OW12088   5.714   4.443   4.728
 3730SOL    HW112089   5.774   4.408   4.800
 3730SOL    HW212090   5.768   4.501   4.666
 3731SOL     OW12091   6.418   1.266   1.763
 3731SOL    HW112092   6.367   1.275   1.848
 3731SOL    HW212093   6.363   1.219   1.695
 3732SOL     OW12094   4.475   2.594   6.841
 3732SOL    HW112095   4.385   2.615   6.879
 3732SOL    HW212096   4.543   2.591   6.914
 3733SOL     OW12097   1.581   1.493   3.288
 3733SOL    HW112098   1.591   1.416   3.351
 3733SOL    HW212099   1.639   1.478   3.208
 3734SOL     OW12100   4.086   0.883   1.980
 3734SOL    HW112101   4.141   0.963   2.005
 3734SOL    HW212102   4.019   0.909   1.911
 3735SOL     OW12103   3.915   0.562   2.475
 3735SOL    HW112104   3.920   0.475   2.524
 3735SOL    HW212105   3.864   0.629   2.530
 3736SOL     OW12106   0.889   1.093   0.060
 3736SOL    HW112107   0.870   1.068   6.985
 3736SOL    HW212108   0.895   1.192   0.069
 3737SOL     OW12109   5.102   1.696   4.672
 3737SOL    HW112110   5.184   1.701   4.615
 3737SOL    HW212111   5.032   1.756   4.635
 3738SOL     OW12112   0.773   0.865   0.364
 3738SOL    HW112113   0.848   0.907   0.313
 3738SOL    HW212114   0.810   0.802   0.432
 3739SOL     OW12115   3.456   4.938   6.558
 3739SOL    HW112116   3.517   4.880   6.504
 3739SOL    HW212117   3.377   4.885   6.587
 3740SOL     OW12118   6.667   6.814   6.844
 3740SOL    HW112119   6.692   6.738   6.905
 3740SOL    HW212120   6.724   6.894   6.865
 3741SOL     OW12121   6.182   4.882   6.775
 3741SOL    HW112122   6.197   4.973   6.736
 3741SOL    HW212123   6.084   4.863   6.777
 3742SOL     OW12124   5.046   5.164   1.647
 3742SOL    HW112125   5.028   5.154   1.549
 3742SOL    HW212126   4.963   5.144   1.699
 3743SOL     OW12127   2.158   3.990   1.287
 3743SOL    HW112128   2.183   3.893   1.296
 3743SOL    HW212129   2.214   4.033   1.216
 3744SOL     OW12130   6.257   5.902   2.105
 3744SOL    HW112131   6.260   5.987   2.158
 3744SOL    HW212132   6.163   5.879   2.082
 3745SOL     OW12133   6.311   0.879   2.674
 3745SOL    HW112134   6.332   0.970   2.711
 3745SOL    HW212135   6.248   0.832   2.736
 3746SOL     OW12136   5.506   6.962   5.424
 3746SOL    HW112137   5.506   7.017   5.340
 3746SOL    HW212138   5.421   6.980   5.474
 3747SOL     OW12139   1.974   5.196   5.521
 3747SOL    HW112140   1.969   5.113   5.577
 3747SOL    HW212141   1.884   5.215   5.482
 3748SOL     OW12142   5.131   1.911   3.134
 3748SOL    HW112143   5.202   1.854   3.175
 3748SOL    HW212144   5.042   1.866   3.146
 3749SOL     OW12145   5.634   5.361   0.961
 3749SOL    HW112146   5.634   5.453   0.923
 3749SOL    HW212147   5.623   5.295   0.887
 3750SOL     OW12148   0.252   4.530   1.414
 3750SOL    HW112149   0.261   4.467   1.491
 3750SOL    HW212150   0.310   4.498   1.339
 3751SOL     OW12151   1.812   5.253   0.810
 3751SOL    HW112152   1.791   5.255   0.712
 3751SOL    HW212153   1.887   5.316   0.829
 3752SOL     OW12154   1.404   0.151   6.106
 3752SOL    HW112155   1.482   0.091   6.125
 3752SOL    HW212156   1.425   0.244   6.138
 3753SOL     OW12157   0.678   1.300   5.912
 3753SOL    HW112158   0.585   1.282   5.946
 3753SOL    HW212159   0.745   1.273   5.982
 3754SOL     OW12160   6.620   6.620   1.287
 3754SOL    HW112161   6.717   6.610   1.264
 3754SOL    HW212162   6.599   6.565   1.367
 3755SOL     OW12163   4.409   2.387   2.981
 3755SOL    HW112164   4.386   2.385   2.884
 3755SOL    HW212165   4.483   2.453   2.996
 3756SOL     OW12166   3.187   0.211   0.241
 3756SOL    HW112167   3.093   0.193   0.213
 3756SOL    HW212168   3.245   0.134   0.215
 3757SOL     OW12169   2.869   4.075   5.160
 3757SOL    HW112170   2.905   4.064   5.067
 3757SOL    HW212171   2.773   4.047   5.163
 3758SOL     OW12172   0.473   0.658   1.943
 3758SOL    HW112173   0.507   0.634   2.033
 3758SOL    HW212174   0.391   0.715   1.952
 3759SOL     OW12175   5.464   4.256   0.461
 3759SOL    HW112176   5.397   4.246   0.387
 3759SOL    HW212177   5.416   4.276   0.546
 3760SOL     OW12178   1.744   1.726   5.647
 3760SOL    HW112179   1.820   1.664   5.666
 3760SOL    HW212180   1.738   1.742   5.549
 3761SOL     OW12181   0.100   6.298   4.209
 3761SOL    HW112182   0.021   6.334   4.259
 3761SOL    HW212183   0.122   6.207   4.242
 3762SOL     OW12184   0.181   3.513   1.181
 3762SOL    HW112185   0.268   3.546   1.146
 3762SOL    HW212186   0.113   3.586   1.175
 3763SOL     OW12187   0.500   2.484   4.805
 3763SOL    HW112188   0.571   2.547   4.836
 3763SOL    HW212189   0.521   2.391   4.835
 3764SOL     OW12190   2.134   0.367   2.991
 3764SOL    HW112191   2.197   0.390   2.916
 3764SOL    HW212192   2.186   0.333   3.069
 3765SOL     OW12193   6.236   1.166   3.899
 3765SOL    HW112194   6.251   1.263   3.916
 3765SOL    HW212195   6.140   1.144   3.913
 3766SOL     OW12196   2.299   1.306   4.505
 3766SOL    HW112197   2.252   1.394   4.496
 3766SOL    HW212198   2.395   1.317   4.478
 3767SOL     OW12199   6.690   4.592   1.432
 3767SOL    HW112200   6.714   4.689   1.424
 3767SOL    HW212201   6.622   4.580   1.505
 3768SOL     OW12202   5.030   6.661   1.271
 3768SOL    HW112203   4.963   6.597   1.310
 3768SOL    HW212204   5.102   6.680   1.338
 3769SOL     OW12205   4.212   6.632   4.724
 3769SOL    HW112206   4.289   6.633   4.788
 3769SOL    HW212207   4.207   6.720   4.677
 3770SOL     OW12208   1.905   3.379   0.332
 3770SOL    HW112209   1.816   3.425   0.327
 3770SOL    HW212210   1.891   3.281   0.345
 3771SOL     OW12211   4.853   1.398   5.330
 3771SOL    HW112212   4.764   1.426   5.365
 3771SOL    HW212213   4.878   1.309   5.369
 3772SOL     OW12214   5.070   0.363   2.870
 3772SOL    HW112215   5.140   0.431   2.850
 3772SOL    HW212216   5.095   0.313   2.953
 3773SOL     OW12217   6.009   2.469   1.319
 3773SOL    HW112218   5.949   2.533   1.271
 3773SOL    HW212219   5.985   2.468   1.416
 3774SOL     OW12220   2.027   1.264   1.712
 3774SOL    HW112221   2.048   1.324   1.635
 3774SOL    HW212222   2.104   1.203   1.730
 3775SOL     OW12223   5.784   2.600   3.394
 3775SOL    HW112224   5.768   2.522   3.454
 3775SOL    HW212225   5.702   2.656   3.389
 3776SOL     OW12226   2.789   2.182   6.456
 3776SOL    HW112227   2.806   2.095   6.411
 3776SOL    HW212228   2.726   2.237   6.401
 3777SOL     OW12229   1.270   4.026   3.647
 3777SOL    HW112230   1.272   3.928   3.664
 3777SOL    HW212231   1.327   4.048   3.568
 3778SOL     OW12232   1.826   0.499   1.900
 3778SOL    HW112233   1.886   0.513   1.978
 3778SOL    HW212234   1.731   0.497   1.932
 3779SOL     OW12235   1.668   4.639   0.193
 3779SOL    HW112236   1.751   4.584   0.202
 3779SOL    HW212237   1.606   4.595   0.128
 3780SOL     OW12238   1.975   0.207   4.006
 3780SOL    HW112239   2.074   0.218   4.005
 3780SOL    HW212240   1.950   0.145   4.081
 3781SOL     OW12241   2.982   4.989   4.570
 3781SOL    HW112242   3.010   5.055   4.640
 3781SOL    HW212243   2.927   4.917   4.612
 3782SOL     OW12244   2.646   1.057   2.261
 3782SOL    HW112245   2.599   0.968   2.269
 3782SOL    HW212246   2.684   1.081   2.350
 3783SOL     OW12247   5.233   4.530   4.761
 3783SOL    HW112248   5.190   4.441   4.779
 3783SOL    HW212249   5.322   4.516   4.719
 3784SOL     OW12250   4.791   2.750   4.513
 3784SOL    HW112251   4.818   2.778   4.421
 3784SOL    HW212252   4.773   2.652   4.515
 3785SOL     OW12253   0.452   0.061   2.166
 3785SOL    HW112254   0.353   0.075   2.172
 3785SOL    HW212255   0.472   6.983   2.175
 3786SOL     OW12256   2.801   6.466   1.345
 3786SOL    HW112257   2.879   6.405   1.330
 3786SOL    HW212258   2.739   6.460   1.267
 3787SOL     OW12259   4.120   1.166   3.414
 3787SOL    HW112260   4.062   1.238   3.374
 3787SOL    HW212261   4.198   1.208   3.460
 3788SOL     OW12262   0.154   2.966   2.631
 3788SOL    HW112263   0.130   2.909   2.553
 3788SOL    HW212264   0.235   2.929   2.677
 3789SOL     OW12265   2.058   5.293   2.388
 3789SOL    HW112266   2.113   5.281   2.470
 3789SOL    HW212267   2.025   5.387   2.383
 3790SOL     OW12268   1.828   3.537   2.758
 3790SOL    HW112269   1.746   3.480   2.759
 3790SOL    HW212270   1.838   3.583   2.846
 3791SOL     OW12271   6.616   0.867   2.979
 3791SOL    HW112272   6.558   0.947   2.963
 3791SOL    HW212273   6.633   0.820   2.893
 3792SOL     OW12274   1.590   5.380   5.942
 3792SOL    HW112275   1.659   5.343   5.880
 3792SOL    HW212276   1.552   5.464   5.902
 3793SOL     OW12277   6.782   6.113   2.572
 3793SOL    HW112278   6.824   6.082   2.486
 3793SOL    HW212279   6.699   6.164   2.552
 3794SOL     OW12280   4.415   0.248   4.313
 3794SOL    HW112281   4.341   0.244   4.380
 3794SOL    HW212282   4.499   0.215   4.354
 3795SOL     OW12283   5.727   0.415   0.604
 3795SOL    HW112284   5.787   0.459   0.537
 3795SOL    HW212285   5.671   0.484   0.649
 3796SOL     OW12286   6.936   2.707   1.521
 3796SOL    HW112287   6.992   2.757   1.454
 3796SOL    HW212288   6.984   2.704   1.609
 3797SOL     OW12289   6.500   5.962   2.316
 3797SOL    HW112290   6.427   5.953   2.383
 3797SOL    HW212291   6.548   6.049   2.331
 3798SOL     OW12292   1.362   4.466   0.122
 3798SOL    HW112293   1.433   4.436   0.058
 3798SOL    HW212294   1.336   4.560   0.102
 3799SOL     OW12295   0.699   0.610   5.462
 3799SOL    HW112296   0.775   0.574   5.517
 3799SOL    HW212297   0.626   0.543   5.458
 3800SOL     OW12298   4.766   2.497   4.655
 3800SOL    HW112299   4.672   2.479   4.627
 3800SOL    HW212300   4.828   2.477   4.579
 3801SOL     OW12301   6.960   0.391   5.808
 3801SOL    HW112302   6.861   0.396   5.795
 3801SOL    HW212303   6.981   0.334   5.887
 3802SOL     OW12304   1.834   2.579   5.126
 3802SOL    HW112305   1.875   2.660   5.086
 3802SOL    HW212306   1.906   2.512   5.147
 3803SOL     OW12307   4.695   1.038   1.323
 3803SOL    HW112308   4.675   0.940   1.314
 3803SOL    HW212309   4.659   1.072   1.410
 3804SOL     OW12310   5.159   3.837   4.774
 3804SOL    HW112311   5.212   3.807   4.853
 3804SOL    HW212312   5.076   3.781   4.766
 3805SOL     OW12313   1.935   3.827   1.302
 3805SOL    HW112314   2.001   3.887   1.257
 3805SOL    HW212315   1.977   3.787   1.383
 3806SOL     OW12316   3.538   0.771   0.120
 3806SOL    HW112317   3.539   0.708   0.042
 3806SOL    HW212318   3.613   0.747   0.182
 3807SOL     OW12319   1.705   6.303   2.602
 3807SOL    HW112320   1.804   6.296   2.598
 3807SOL    HW212321   1.663   6.251   2.528
 3808SOL     OW12322   4.118   1.231   0.724
 3808SOL    HW112323   4.149   1.138   0.708
 3808SOL    HW212324   4.134   1.286   0.642
 3809SOL     OW12325   4.181   1.296   0.473
 3809SOL    HW112326   4.152   1.201   0.490
 3809SOL    HW212327   4.178   1.315   0.375
 3810SOL     OW12328   1.732   3.699   6.931
 3810SOL    HW112329   1.654   3.752   6.897
 3810SOL    HW212330   1.702   3.606   6.950
 3811SOL     OW12331   0.246   0.719   5.641
 3811SOL    HW112332   0.181   0.695   5.713
 3811SOL    HW212333   0.293   0.804   5.667
 3812SOL     OW12334   4.264   0.589   6.111
 3812SOL    HW112335   4.317   0.627   6.034
 3812SOL    HW212336   4.216   0.663   6.158
 3813SOL     OW12337   3.856   4.861   2.005
 3813SOL    HW112338   3.787   4.832   1.938
 3813SOL    HW212339   3.813   4.873   2.095
 3814SOL     OW12340   2.233   0.336   1.918
 3814SOL    HW112341   2.214   0.429   1.948
 3814SOL    HW212342   2.165   0.307   1.850
 3815SOL     OW12343   4.971   2.281   2.112
 3815SOL    HW112344   4.996   2.335   2.031
 3815SOL    HW212345   4.991   2.184   2.095
 3816SOL     OW12346   0.397   6.442   0.463
 3816SOL    HW112347   0.457   6.514   0.500
 3816SOL    HW212348   0.453   6.362   0.440
 3817SOL     OW12349   5.466   2.113   5.500
 3817SOL    HW112350   5.454   2.093   5.403
 3817SOL    HW212351   5.556   2.153   5.515
 3818SOL     OW12352   3.372   6.663   3.242
 3818SOL    HW112353   3.293   6.685   3.298
 3818SOL    HW212354   3.378   6.564   3.230
 3819SOL     OW12355   5.321   3.327   6.017
 3819SOL    HW112356   5.413   3.364   6.004
 3819SOL    HW212357   5.323   3.257   6.088
 3820SOL     OW12358   3.996   6.038   3.072
 3820SOL    HW112359   3.958   6.085   3.152
 3820SOL    HW212360   3.993   5.939   3.087
 3821SOL     OW12361   0.569   4.581   1.526
 3821SOL    HW112362   0.592   4.488   1.556
 3821SOL    HW212363   0.540   4.635   1.605
 3822SOL     OW12364   1.065   3.756   1.626
 3822SOL    HW112365   1.079   3.664   1.590
 3822SOL    HW212366   0.968   3.767   1.649
 3823SOL     OW12367   2.756   3.337   5.279
 3823SOL    HW112368   2.829   3.379   5.334
 3823SOL    HW212369   2.792   3.315   5.189
 3824SOL     OW12370   0.504   2.620   6.219
 3824SOL    HW112371   0.571   2.615   6.146
 3824SOL    HW212372   0.412   2.610   6.181
 3825SOL     OW12373   0.813   6.135   6.376
 3825SOL    HW112374   0.757   6.087   6.443
 3825SOL    HW212375   0.763   6.215   6.342
 3826SOL     OW12376   0.026   1.461   1.494
 3826SOL    HW112377   6.990   1.429   1.417
 3826SOL    HW212378   6.989   1.516   1.555
 3827SOL     OW12379   5.010   1.913   2.455
 3827SOL    HW112380   4.938   1.909   2.524
 3827SOL    HW212381   4.997   1.994   2.398
 3828SOL     OW12382   3.620   1.072   1.351
 3828SOL    HW112383   3.597   1.161   1.389
 3828SOL    HW212384   3.546   1.041   1.291
 3829SOL     OW12385   1.002   5.217   3.613
 3829SOL    HW112386   1.056   5.267   3.545
 3829SOL    HW212387   0.908   5.250   3.613
 3830SOL     OW12388   1.894   0.292   5.360
 3830SOL    HW112389   1.965   0.247   5.305
 3830SOL    HW212390   1.875   0.383   5.323
 3831SOL     OW12391   4.691   1.908   2.293
 3831SOL    HW112392   4.632   1.944   2.220
 3831SOL    HW212393   4.726   1.984   2.348
 3832SOL     OW12394   5.885   0.016   2.499
 3832SOL    HW112395   5.822   6.962   2.475
 3832SOL    HW212396   5.854   0.102   2.457
 3833SOL     OW12397   1.394   6.501   2.608
 3833SOL    HW112398   1.404   6.406   2.578
 3833SOL    HW212399   1.314   6.542   2.563
 3834SOL     OW12400   3.284   2.777   0.545
 3834SOL    HW112401   3.276   2.721   0.628
 3834SOL    HW212402   3.357   2.740   0.487
 3835SOL     OW12403   3.172   5.006   3.018
 3835SOL    HW112404   3.117   5.025   2.937
 3835SOL    HW212405   3.113   4.973   3.092
 3836SOL     OW12406   1.615   2.798   6.358
 3836SOL    HW112407   1.713   2.820   6.354
 3836SOL    HW212408   1.562   2.882   6.355
 3837SOL     OW12409   3.370   4.503   6.448
 3837SOL    HW112410   3.317   4.475   6.369
 3837SOL    HW212411   3.465   4.520   6.420
 3838SOL     OW12412   0.044   3.308   4.864
 3838SOL    HW112413   0.067   3.251   4.943
 3838SOL    HW212414   0.028   3.249   4.785
 3839SOL     OW12415   0.604   6.120   0.076
 3839SOL    HW112416   0.638   6.212   0.095
 3839SOL    HW212417   0.505   6.125   0.059
 3840SOL     OW12418   3.405   2.112   3.255
 3840SOL    HW112419   3.491   2.082   3.214
 3840SOL    HW212420   3.329   2.060   3.215
 3841SOL     OW12421   1.070   3.289   3.808
 3841SOL    HW112422   0.989   3.231   3.800
 3841SOL    HW212423   1.079   3.345   3.726
 3842SOL     OW12424   0.763   5.139   6.829
 3842SOL    HW112425   0.770   5.151   6.928
 3842SOL    HW212426   0.681   5.085   6.807
 3843SOL     OW12427   6.670   5.057   6.729
 3843SOL    HW112428   6.710   5.125   6.791
 3843SOL    HW212429   6.601   5.004   6.779
 3844SOL     OW12430   3.088   4.215   5.520
 3844SOL    HW112431   3.050   4.254   5.436
 3844SOL    HW212432   3.015   4.173   5.574
 3845SOL     OW12433   3.188   3.626   4.504
 3845SOL    HW112434   3.191   3.529   4.528
 3845SOL    HW212435   3.094   3.652   4.482
 3846SOL     OW12436   6.802   4.338   4.871
 3846SOL    HW112437   6.764   4.360   4.961
 3846SOL    HW212438   6.798   4.419   4.812
 3847SOL     OW12439   1.157   6.778   0.936
 3847SOL    HW112440   1.069   6.752   0.975
 3847SOL    HW212441   1.197   6.852   0.989
 3848SOL     OW12442   2.835   6.419   2.411
 3848SOL    HW112443   2.803   6.490   2.473
 3848SOL    HW212444   2.800   6.437   2.319
 3849SOL     OW12445   2.530   1.690   4.952
 3849SOL    HW112446   2.571   1.705   5.042
 3849SOL    HW212447   2.601   1.691   4.883
 3850SOL     OW12448   1.699   3.432   1.516
 3850SOL    HW112449   1.715   3.389   1.605
 3850SOL    HW212450   1.608   3.406   1.482
 3851SOL     OW12451   2.653   2.774   0.467
 3851SOL    HW112452   2.612   2.836   0.535
 3851SOL    HW212453   2.621   2.681   0.485
 3852SOL     OW12454   4.419   0.703   5.452
 3852SOL    HW112455   4.345   0.769   5.439
 3852SOL    HW212456   4.502   0.751   5.482
 3853SOL     OW12457   0.383   3.275   2.009
 3853SOL    HW112458   0.454   3.336   2.045
 3853SOL    HW212459   0.294   3.303   2.044
 3854SOL     OW12460   1.345   3.962   4.100
 3854SOL    HW112461   1.272   3.963   4.168
 3854SOL    HW212462   1.394   4.049   4.104
 3855SOL     OW12463   0.016   2.006   4.890
 3855SOL    HW112464   0.077   2.079   4.860
 3855SOL    HW212465   0.050   1.918   4.857
 3856SOL     OW12466   1.038   6.160   6.139
 3856SOL    HW112467   1.099   6.087   6.170
 3856SOL    HW212468   1.016   6.220   6.216
 3857SOL     OW12469   6.962   0.305   6.815
 3857SOL    HW112470   6.986   0.221   6.865
 3857SOL    HW212471   6.967   0.383   6.877
 3858SOL     OW12472   4.207   5.106   6.556
 3858SOL    HW112473   4.169   5.019   6.588
 3858SOL    HW212474   4.302   5.094   6.529
 3859SOL     OW12475   6.463   2.418   2.352
 3859SOL    HW112476   6.559   2.447   2.357
 3859SOL    HW212477   6.431   2.423   2.258
 3860SOL     OW12478   2.069   6.143   4.667
 3860SOL    HW112479   2.054   6.082   4.745
 3860SOL    HW212480   2.009   6.117   4.592
 3861SOL     OW12481   3.159   3.715   0.526
 3861SOL    HW112482   3.219   3.763   0.463
 3861SOL    HW212483   3.112   3.641   0.478
 3862SOL     OW12484   0.659   6.406   5.455
 3862SOL    HW112485   0.677   6.398   5.553
 3862SOL    HW212486   0.590   6.339   5.428
 3863SOL     OW12487   2.341   3.277   0.518
 3863SOL    HW112488   2.430   3.239   0.542
 3863SOL    HW212489   2.347   3.377   0.513
 3864SOL     OW12490   3.358   1.926   1.428
 3864SOL    HW112491   3.407   1.928   1.516
 3864SOL    HW212492   3.260   1.940   1.444
 3865SOL     OW12493   4.232   0.788   2.198
 3865SOL    HW112494   4.182   0.845   2.133
 3865SOL    HW212495   4.311   0.746   2.153
 3866SOL     OW12496   4.446   6.157   6.684
 3866SOL    HW112497   4.508   6.229   6.714
 3866SOL    HW212498   4.423   6.171   6.588
 3867SOL     OW12499   1.895   5.124   3.017
 3867SOL    HW112500   1.835   5.148   2.941
 3867SOL    HW212501   1.969   5.192   3.024
 3868SOL     OW12502   2.389   5.170   3.113
 3868SOL    HW112503   2.364   5.180   3.209
 3868SOL    HW212504   2.306   5.163   3.057
 3869SOL     OW12505   1.078   1.148   3.585
 3869SOL    HW112506   1.079   1.135   3.486
 3869SOL    HW212507   0.993   1.111   3.622
 3870SOL     OW12508   4.101   3.608   0.096
 3870SOL    HW112509   4.067   3.546   0.026
 3870SOL    HW212510   4.063   3.582   0.185
 3871SOL     OW12511   3.027   0.554   4.503
 3871SOL    HW112512   3.018   0.651   4.527
 3871SOL    HW212513   3.119   0.536   4.471
 3872SOL     OW12514   5.059   4.119   0.615
 3872SOL    HW112515   5.051   4.039   0.555
 3872SOL    HW212516   4.967   4.148   0.643
 3873SOL     OW12517   6.260   4.927   1.724
 3873SOL    HW112518   6.278   5.025   1.734
 3873SOL    HW212519   6.161   4.912   1.716
 3874SOL     OW12520   5.601   6.388   5.757
 3874SOL    HW112521   5.584   6.480   5.792
 3874SOL    HW212522   5.700   6.377   5.741
 3875SOL     OW12523   3.125   3.413   0.382
 3875SOL    HW112524   3.053   3.451   0.324
 3875SOL    HW212525   3.214   3.447   0.352
 3876SOL     OW12526   5.447   3.978   2.575
 3876SOL    HW112527   5.379   3.935   2.636
 3876SOL    HW212528   5.421   4.073   2.560
 3877SOL     OW12529   4.396   1.722   1.804
 3877SOL    HW112530   4.479   1.734   1.858
 3877SOL    HW212531   4.408   1.646   1.740
 3878SOL     OW12532   6.107   5.648   5.109
 3878SOL    HW112533   6.028   5.698   5.146
 3878SOL    HW212534   6.147   5.700   5.033
 3879SOL     OW12535   2.266   6.195   0.628
 3879SOL    HW112536   2.310   6.229   0.545
 3879SOL    HW212537   2.239   6.272   0.685
 3880SOL     OW12538   5.720   1.991   4.361
 3880SOL    HW112539   5.775   1.924   4.410
 3880SOL    HW212540   5.736   2.082   4.399
 3881SOL     OW12541   6.932   6.110   5.830
 3881SOL    HW112542   0.004   6.124   5.867
 3881SOL    HW212543   6.933   6.125   5.731
 3882SOL     OW12544   6.977   6.187   0.135
 3882SOL    HW112545   0.020   6.110   0.120
 3882SOL    HW212546   6.885   6.161   0.104
 3883SOL     OW12547   4.021   1.992   0.407
 3883SOL    HW112548   4.014   1.896   0.381
 3883SOL    HW212549   3.935   2.022   0.449
 3884SOL     OW12550   2.939   5.891   5.907
 3884SOL    HW112551   2.895   5.921   5.991
 3884SOL    HW212552   3.035   5.921   5.908
 3885SOL     OW12553   0.417   1.032   3.888
 3885SOL    HW112554   0.429   0.951   3.945
 3885SOL    HW212555   0.323   1.036   3.855
 3886SOL     OW12556   6.878   6.116   4.542
 3886SOL    HW112557   6.841   6.171   4.617
 3886SOL    HW212558   6.804   6.080   4.486
 3887SOL     OW12559   0.157   3.141   5.307
 3887SOL    HW112560   0.117   3.072   5.368
 3887SOL    HW212561   0.175   3.225   5.359
 3888SOL     OW12562   4.555   2.051   3.167
 3888SOL    HW112563   4.640   2.002   3.188
 3888SOL    HW212564   4.531   2.036   3.072
 3889SOL     OW12565   6.367   5.407   0.567
 3889SOL    HW112566   6.415   5.478   0.618
 3889SOL    HW212567   6.433   5.344   0.527
 3890SOL     OW12568   5.978   3.203   3.387
 3890SOL    HW112569   5.995   3.256   3.304
 3890SOL    HW212570   5.884   3.219   3.417
 3891SOL     OW12571   3.914   4.258   6.034
 3891SOL    HW112572   3.903   4.234   5.938
 3891SOL    HW212573   3.834   4.225   6.086
 3892SOL     OW12574   5.109   5.773   4.266
 3892SOL    HW112575   5.092   5.734   4.175
 3892SOL    HW212576   5.097   5.872   4.262
 3893SOL     OW12577   2.552   6.007   4.937
 3893SOL    HW112578   2.454   5.992   4.930
 3893SOL    HW212579   2.601   5.933   4.892
 3894SOL     OW12580   5.433   5.994   5.888
 3894SOL    HW112581   5.524   5.992   5.845
 3894SOL    HW212582   5.393   6.085   5.878
 3895SOL     OW12583   1.219   1.645   5.006
 3895SOL    HW112584   1.257   1.639   4.914
 3895SOL    HW212585   1.278   1.704   5.062
 3896SOL     OW12586   6.591   2.656   0.510
 3896SOL    HW112587   6.601   2.698   0.419
 3896SOL    HW212588   6.557   2.562   0.500
 3897SOL     OW12589   2.638   0.721   3.157
 3897SOL    HW112590   2.693   0.695   3.237
 3897SOL    HW212591   2.568   0.651   3.142
 3898SOL     OW12592   3.273   4.108   3.014
 3898SOL    HW112593   3.333   4.082   3.089
 3898SOL    HW212594   3.256   4.207   3.017
 3899SOL     OW12595   4.702   1.567   6.121
 3899SOL    HW112596   4.664   1.475   6.110
 3899SOL    HW212597   4.797   1.560   6.152
 3900SOL     OW12598   0.981   2.438   4.152
 3900SOL    HW112599   1.034   2.444   4.237
 3900SOL    HW212600   0.886   2.463   4.171
 3901SOL     OW12601   3.765   6.339   4.233
 3901SOL    HW112602   3.723   6.415   4.283
 3901SOL    HW212603   3.861   6.360   4.217
 3902SOL     OW12604   2.943   4.905   3.152
 3902SOL    HW112605   2.930   4.989   3.204
 3902SOL    HW212606   2.854   4.862   3.135
 3903SOL     OW12607   2.610   4.053   6.083
 3903SOL    HW112608   2.571   4.100   6.004
 3903SOL    HW212609   2.547   4.060   6.160
 3904SOL     OW12610   3.019   6.400   1.052
 3904SOL    HW112611   2.968   6.342   1.115
 3904SOL    HW212612   3.057   6.478   1.102
 3905SOL     OW12613   4.109   6.358   5.297
 3905SOL    HW112614   4.207   6.343   5.307
 3905SOL    HW212615   4.092   6.421   5.221
 3906SOL     OW12616   6.644   5.929   4.114
 3906SOL    HW112617   6.563   5.878   4.142
 3906SOL    HW212618   6.625   5.975   4.026
 3907SOL     OW12619   1.619   1.127   4.942
 3907SOL    HW112620   1.552   1.065   4.983
 3907SOL    HW212621   1.630   1.104   4.845
 3908SOL     OW12622   2.252   2.094   4.604
 3908SOL    HW112623   2.200   2.099   4.690
 3908SOL    HW212624   2.259   2.185   4.564
 3909SOL     OW12625   6.418   3.423   2.579
 3909SOL    HW112626   6.490   3.354   2.567
 3909SOL    HW212627   6.458   3.514   2.573
 3910SOL     OW12628   1.795   2.314   0.087
 3910SOL    HW112629   1.788   2.283   0.182
 3910SOL    HW212630   1.826   2.409   0.085
 3911SOL     OW12631   6.458   0.654   2.606
 3911SOL    HW112632   6.411   0.737   2.636
 3911SOL    HW212633   6.412   0.574   2.644
 3912SOL     OW12634   4.818   4.562   1.033
 3912SOL    HW112635   4.764   4.643   1.056
 3912SOL    HW212636   4.908   4.569   1.077
 3913SOL     OW12637   4.104   4.652   1.057
 3913SOL    HW112638   4.177   4.590   1.087
 3913SOL    HW212639   4.106   4.660   0.958
 3914SOL     OW12640   0.330   0.965   0.424
 3914SOL    HW112641   0.328   0.867   0.441
 3914SOL    HW212642   0.297   0.984   0.331
 3915SOL     OW12643   5.174   0.063   4.885
 3915SOL    HW112644   5.267   0.074   4.850
 3915SOL    HW212645   5.174   0.070   4.984
 3916SOL     OW12646   2.112   2.943   2.206
 3916SOL    HW112647   2.109   3.000   2.288
 3916SOL    HW212648   2.025   2.894   2.196
 3917SOL     OW12649   3.593   5.715   2.077
 3917SOL    HW112650   3.501   5.754   2.088
 3917SOL    HW212651   3.585   5.616   2.063
 3918SOL     OW12652   3.962   6.302   0.057
 3918SOL    HW112653   3.999   6.394   0.071
 3918SOL    HW212654   3.988   6.269   6.986
 3919SOL     OW12655   4.992   4.460   3.390
 3919SOL    HW112656   4.902   4.498   3.371
 3919SOL    HW212657   5.035   4.511   3.464
 3920SOL     OW12658   4.494   0.530   5.694
 3920SOL    HW112659   4.406   0.560   5.657
 3920SOL    HW212660   4.568   0.580   5.650
 3921SOL     OW12661   1.237   3.872   5.469
 3921SOL    HW112662   1.161   3.859   5.532
 3921SOL    HW212663   1.236   3.800   5.400
 3922SOL     OW12664   5.475   1.719   3.898
 3922SOL    HW112665   5.380   1.689   3.894
 3922SOL    HW212666   5.494   1.779   3.821
 3923SOL     OW12667   5.843   0.557   1.715
 3923SOL    HW112668   5.752   0.525   1.740
 3923SOL    HW212669   5.836   0.613   1.632
 3924SOL     OW12670   5.619   5.131   3.864
 3924SOL    HW112671   5.561   5.099   3.940
 3924SOL    HW212672   5.566   5.192   3.805
 3925SOL     OW12673   3.704   4.283   1.619
 3925SOL    HW112674   3.667   4.240   1.702
 3925SOL    HW212675   3.705   4.383   1.631
 3926SOL     OW12676   0.718   6.027   5.161
 3926SOL    HW112677   0.638   6.023   5.220
 3926SOL    HW212678   0.788   6.085   5.204
 3927SOL     OW12679   5.987   6.085   5.094
 3927SOL    HW112680   5.984   6.018   5.020
 3927SOL    HW212681   5.905   6.142   5.091
 3928SOL     OW12682   4.334   5.264   2.595
 3928SOL    HW112683   4.364   5.176   2.633
 3928SOL    HW212684   4.237   5.258   2.571
 3929SOL     OW12685   1.955   1.060   4.993
 3929SOL    HW112686   1.896   1.141   4.998
 3929SOL    HW212687   1.943   1.006   5.076
 3930SOL     OW12688   1.833   5.809   4.260
 3930SOL    HW112689   1.754   5.859   4.297
 3930SOL    HW212690   1.836   5.819   4.161
 3931SOL     OW12691   0.534   1.939   0.452
 3931SOL    HW112692   0.486   1.943   0.540
 3931SOL    HW212693   0.513   2.021   0.400
 3932SOL     OW12694   1.572   4.336   2.692
 3932SOL    HW112695   1.564   4.281   2.775
 3932SOL    HW212696   1.558   4.432   2.715
 3933SOL     OW12697   1.211   0.013   1.575
 3933SOL    HW112698   1.197   0.097   1.523
 3933SOL    HW212699   1.147   0.010   1.652
 3934SOL     OW12700   1.304   0.029   2.053
 3934SOL    HW112701   1.217   0.079   2.048
 3934SOL    HW212702   1.375   0.081   2.006
 3935SOL     OW12703   6.798   0.932   4.754
 3935SOL    HW112704   6.833   0.839   4.766
 3935SOL    HW212705   6.784   0.950   4.657
 3936SOL     OW12706   6.202   4.649   3.902
 3936SOL    HW112707   6.149   4.730   3.879
 3936SOL    HW212708   6.275   4.674   3.964
 3937SOL     OW12709   1.641   6.754   0.071
 3937SOL    HW112710   1.717   6.810   0.104
 3937SOL    HW212711   1.675   6.691   0.001
 3938SOL     OW12712   1.077   4.992   6.820
 3938SOL    HW112713   1.048   4.897   6.817
 3938SOL    HW212714   1.007   5.050   6.776
 3939SOL     OW12715   2.088   6.083   4.286
 3939SOL    HW112716   2.072   6.043   4.376
 3939SOL    HW212717   2.077   6.013   4.215
 3940SOL     OW12718   2.514   5.918   6.764
 3940SOL    HW112719   2.602   5.935   6.721
 3940SOL    HW212720   2.445   5.982   6.729
 3941SOL     OW12721   5.680   5.052   2.888
 3941SOL    HW112722   5.672   4.962   2.845
 3941SOL    HW212723   5.638   5.049   2.979
 3942SOL     OW12724   1.062   6.716   0.014
 3942SOL    HW112725   1.019   6.630   7.005
 3942SOL    HW212726   1.022   6.792   6.982
 3943SOL     OW12727   0.594   4.862   0.361
 3943SOL    HW112728   0.496   4.859   0.341
 3943SOL    HW212729   0.643   4.895   0.280
 3944SOL     OW12730   5.216   3.049   0.566
 3944SOL    HW112731   5.252   3.139   0.542
 3944SOL    HW212732   5.210   3.041   0.665
 3945SOL     OW12733   0.327   0.925   2.845
 3945SOL    HW112734   0.301   0.875   2.928
 3945SOL    HW212735   0.324   0.863   2.766
 3946SOL     OW12736   5.052   1.155   0.948
 3946SOL    HW112737   4.990   1.082   0.977
 3946SOL    HW212738   5.142   1.141   0.989
 3947SOL     OW12739   5.248   0.295   0.817
 3947SOL    HW112740   5.245   0.234   0.896
 3947SOL    HW212741   5.185   0.261   0.747
 3948SOL     OW12742   1.917   1.624   4.380
 3948SOL    HW112743   1.884   1.546   4.328
 3948SOL    HW212744   1.884   1.709   4.337
 3949SOL     OW12745   6.032   6.667   2.286
 3949SOL    HW112746   5.976   6.743   2.254
 3949SOL    HW212747   6.052   6.679   2.384
 3950SOL     OW12748   2.508   4.584   1.575
 3950SOL    HW112749   2.474   4.668   1.618
 3950SOL    HW212750   2.432   4.520   1.561
 3951SOL     OW12751   7.010   2.558   2.949
 3951SOL    HW112752   0.083   2.539   2.915
 3951SOL    HW212753   6.942   2.524   2.884
 3952SOL     OW12754   5.939   5.518   6.829
 3952SOL    HW112755   5.858   5.577   6.833
 3952SOL    HW212756   5.918   5.436   6.776
 3953SOL     OW12757   3.385   2.874   4.966
 3953SOL    HW112758   3.323   2.816   4.914
 3953SOL    HW212759   3.422   2.824   5.043
 3954SOL     OW12760   1.092   4.641   6.009
 3954SOL    HW112761   1.045   4.603   5.929
 3954SOL    HW212762   1.060   4.734   6.025
 3955SOL     OW12763   6.206   3.324   0.221
 3955SOL    HW112764   6.132   3.302   0.285
 3955SOL    HW212765   6.227   3.422   0.227
 3956SOL     OW12766   6.957   2.925   4.729
 3956SOL    HW112767   7.011   2.994   4.680
 3956SOL    HW212768   6.876   2.969   4.769
 3957SOL     OW12769   1.960   2.866   1.615
 3957SOL    HW112770   1.894   2.841   1.544
 3957SOL    HW212771   2.015   2.786   1.638
 3958SOL     OW12772   5.322   5.433   0.873
 3958SOL    HW112773   5.312   5.337   0.897
 3958SOL    HW212774   5.288   5.490   0.948
 3959SOL     OW12775   3.030   4.833   0.542
 3959SOL    HW112776   3.013   4.741   0.579
 3959SOL    HW212777   3.118   4.833   0.495
 3960SOL     OW12778   5.788   3.372   1.239
 3960SOL    HW112779   5.858   3.387   1.170
 3960SOL    HW212780   5.783   3.274   1.261
 3961SOL     OW12781   6.744   1.228   1.544
 3961SOL    HW112782   6.835   1.202   1.510
 3961SOL    HW212783   6.706   1.299   1.485
 3962SOL     OW12784   0.453   6.695   6.555
 3962SOL    HW112785   0.519   6.619   6.548
 3962SOL    HW212786   0.501   6.778   6.582
 3963SOL     OW12787   6.216   2.758   4.747
 3963SOL    HW112788   6.215   2.707   4.662
 3963SOL    HW212789   6.145   2.724   4.808
 3964SOL     OW12790   5.844   5.089   6.674
 3964SOL    HW112791   5.887   5.017   6.730
 3964SOL    HW212792   5.747   5.095   6.696
 3965SOL     OW12793   2.666   5.272   1.463
 3965SOL    HW112794   2.657   5.215   1.381
 3965SOL    HW212795   2.749   5.327   1.456
 3966SOL     OW12796   0.004   4.083   5.780
 3966SOL    HW112797   0.015   4.105   5.683
 3966SOL    HW212798   6.933   4.113   5.811
 3967SOL     OW12799   2.488   0.250   0.717
 3967SOL    HW112800   2.499   0.268   0.619
 3967SOL    HW212801   2.531   0.164   0.741
 3968SOL     OW12802   4.697   3.049   0.949
 3968SOL    HW112803   4.716   2.953   0.970
 3968SOL    HW212804   4.743   3.074   0.864
 3969SOL     OW12805   6.238   6.454   1.400
 3969SOL    HW112806   6.170   6.527   1.388
 3969SOL    HW212807   6.253   6.409   1.313
 3970SOL     OW12808   6.198   4.116   3.734
 3970SOL    HW112809   6.145   4.197   3.709
 3970SOL    HW212810   6.150   4.034   3.702
 3971SOL     OW12811   7.007   5.763   4.212
 3971SOL    HW112812   0.030   5.679   4.176
 3971SOL    HW212813   0.057   5.817   4.259
 3972SOL     OW12814   0.819   0.678   6.549
 3972SOL    HW112815   0.758   0.687   6.628
 3972SOL    HW212816   0.906   0.639   6.579
 3973SOL     OW12817   4.195   3.091   1.789
 3973SOL    HW112818   4.189   3.186   1.819
 3973SOL    HW212819   4.132   3.035   1.843
 3974SOL     OW12820   5.317   0.829   6.941
 3974SOL    HW112821   5.251   0.847   7.015
 3974SOL    HW212822   5.284   0.753   6.885
 3975SOL     OW12823   0.291   6.447   3.777
 3975SOL    HW112824   0.260   6.469   3.870
 3975SOL    HW212825   0.217   6.401   3.728
 3976SOL     OW12826   0.635   3.285   5.366
 3976SOL    HW112827   0.589   3.338   5.437
 3976SOL    HW212828   0.707   3.341   5.324
 3977SOL     OW12829   2.289   4.675   5.765
 3977SOL    HW112830   2.360   4.711   5.827
 3977SOL    HW212831   2.326   4.597   5.715
 3978SOL     OW12832   4.456   3.405   6.081
 3978SOL    HW112833   4.364   3.366   6.069
 3978SOL    HW212834   4.488   3.387   6.174
 3979SOL     OW12835   0.071   5.603   2.659
 3979SOL    HW112836   7.006   5.569   2.701
 3979SOL    HW212837   0.088   5.697   2.689
 3980SOL     OW12838   5.475   4.299   3.887
 3980SOL    HW112839   5.472   4.368   3.959
 3980SOL    HW212840   5.548   4.322   3.821
 3981SOL     OW12841   6.772   1.035   6.699
 3981SOL    HW112842   6.766   1.135   6.697
 3981SOL    HW212843   6.685   0.997   6.728
 3982SOL     OW12844   2.165   3.036   3.739
 3982SOL    HW112845   2.193   3.132   3.732
 3982SOL    HW212846   2.068   3.032   3.766
 3983SOL     OW12847   2.634   1.236   3.112
 3983SOL    HW112848   2.638   1.137   3.115
 3983SOL    HW212849   2.550   1.265   3.066
 3984SOL     OW12850   1.408   6.155   2.594
 3984SOL    HW112851   1.378   6.188   2.684
 3984SOL    HW212852   1.469   6.077   2.607
 3985SOL     OW12853   1.544   2.341   1.035
 3985SOL    HW112854   1.618   2.325   1.100
 3985SOL    HW212855   1.533   2.261   0.976
 3986SOL     OW12856   0.593   1.302   3.083
 3986SOL    HW112857   0.655   1.379   3.068
 3986SOL    HW212858   0.636   1.218   3.051
 3987SOL     OW12859   1.634   4.017   5.712
 3987SOL    HW112860   1.585   3.936   5.680
 3987SOL    HW212861   1.672   4.066   5.633
 3988SOL     OW12862   5.063   5.828   2.382
 3988SOL    HW112863   5.137   5.765   2.358
 3988SOL    HW212864   4.988   5.778   2.423
 3989SOL     OW12865   4.313   0.727   6.405
 3989SOL    HW112866   4.218   0.720   6.375
 3989SOL    HW212867   4.371   0.752   6.327
 3990SOL     OW12868   6.239   6.677   3.961
 3990SOL    HW112869   6.245   6.737   4.041
 3990SOL    HW212870   6.181   6.599   3.982
 3991SOL     OW12871   0.207   2.265   4.239
 3991SOL    HW112872   0.256   2.292   4.156
 3991SOL    HW212873   0.160   2.179   4.223
 3992SOL     OW12874   6.238   3.866   5.727
 3992SOL    HW112875   6.189   3.926   5.791
 3992SOL    HW212876   6.221   3.897   5.633
 3993SOL     OW12877   1.916   0.683   4.339
 3993SOL    HW112878   1.892   0.615   4.270
 3993SOL    HW212879   1.836   0.740   4.359
 3994SOL     OW12880   3.452   2.086   3.824
 3994SOL    HW112881   3.453   2.109   3.727
 3994SOL    HW212882   3.545   2.091   3.861
 3995SOL     OW12883   1.843   3.750   2.065
 3995SOL    HW112884   1.875   3.724   1.974
 3995SOL    HW212885   1.920   3.753   2.128
 3996SOL     OW12886   0.323   5.717   5.179
 3996SOL    HW112887   0.356   5.804   5.143
 3996SOL    HW212888   0.237   5.693   5.134
 3997SOL     OW12889   6.252   3.060   4.776
 3997SOL    HW112890   6.270   3.072   4.874
 3997SOL    HW212891   6.240   2.962   4.757
 3998SOL     OW12892   4.358   2.385   2.724
 3998SOL    HW112893   4.425   2.449   2.687
 3998SOL    HW212894   4.329   2.321   2.652
 3999SOL     OW12895   4.536   3.456   1.072
 3999SOL    HW112896   4.572   3.476   1.163
 3999SOL    HW212897   4.438   3.476   1.069
 4000SOL     OW12898   2.369   4.609   2.406
 4000SOL    HW112899   2.271   4.621   2.417
 4000SOL    HW212900   2.408   4.690   2.362
 4001SOL     OW12901   0.777   5.606   4.018
 4001SOL    HW112902   0.859   5.663   4.023
 4001SOL    HW212903   0.786   5.542   3.942
 4002SOL     OW12904   3.948   4.063   5.066
 4002SOL    HW112905   4.001   4.026   4.990
 4002SOL    HW212906   4.010   4.106   5.132
 4003SOL     OW12907   2.804   1.614   4.243
 4003SOL    HW112908   2.843   1.531   4.203
 4003SOL    HW212909   2.874   1.686   4.243
 4004SOL     OW12910   1.975   3.558   5.073
 4004SOL    HW112911   2.047   3.602   5.020
 4004SOL    HW212912   1.929   3.489   5.016
 4005SOL     OW12913   5.667   2.046   1.351
 4005SOL    HW112914   5.674   2.048   1.252
 4005SOL    HW212915   5.751   2.006   1.389
 4006SOL     OW12916   0.354   5.764   2.354
 4006SOL    HW112917   0.367   5.860   2.378
 4006SOL    HW212918   0.434   5.711   2.383
 4007SOL     OW12919   0.482   1.358   1.329
 4007SOL    HW112920   0.475   1.454   1.303
 4007SOL    HW212921   0.512   1.352   1.424
 4008SOL     OW12922   4.200   0.476   1.490
 4008SOL    HW112923   4.148   0.462   1.406
 4008SOL    HW212924   4.197   0.573   1.514
 4009SOL     OW12925   3.783   2.805   1.371
 4009SOL    HW112926   3.759   2.842   1.460
 4009SOL    HW212927   3.882   2.803   1.361
 4010SOL     OW12928   1.402   5.188   1.114
 4010SOL    HW112929   1.314   5.205   1.158
 4010SOL    HW212930   1.476   5.202   1.179
 4011SOL     OW12931   5.694   6.543   6.923
 4011SOL    HW112932   5.749   6.570   7.002
 4011SOL    HW212933   5.736   6.464   6.879
 4012SOL     OW12934   5.542   4.310   1.497
 4012SOL    HW112935   5.538   4.227   1.552
 4012SOL    HW212936   5.638   4.334   1.479
 4013SOL     OW12937   0.063   1.889   6.860
 4013SOL    HW112938   7.001   1.837   6.836
 4013SOL    HW212939   0.075   1.888   6.960
 4014SOL     OW12940   3.662   6.304   2.950
 4014SOL    HW112941   3.729   6.236   2.919
 4014SOL    HW212942   3.583   6.303   2.889
 4015SOL     OW12943   3.187   6.471   4.628
 4015SOL    HW112944   3.161   6.430   4.716
 4015SOL    HW212945   3.222   6.564   4.644
 4016SOL     OW12946   4.532   5.322   4.037
 4016SOL    HW112947   4.562   5.405   3.990
 4016SOL    HW212948   4.487   5.261   3.972
 4017SOL     OW12949   1.712   6.173   5.759
 4017SOL    HW112950   1.656   6.181   5.842
 4017SOL    HW212951   1.809   6.166   5.785
 4018SOL     OW12952   5.171   5.469   0.492
 4018SOL    HW112953   5.226   5.407   0.548
 4018SOL    HW212954   5.195   5.564   0.514
 4019SOL     OW12955   0.649   2.411   2.755
 4019SOL    HW112956   0.589   2.363   2.691
 4019SOL    HW212957   0.720   2.348   2.786
 4020SOL     OW12958   6.660   5.845   4.697
 4020SOL    HW112959   6.662   5.945   4.693
 4020SOL    HW212960   6.665   5.816   4.793
 4021SOL     OW12961   4.602   5.544   5.789
 4021SOL    HW112962   4.592   5.519   5.885
 4021SOL    HW212963   4.613   5.644   5.782
 4022SOL     OW12964   3.908   0.185   1.423
 4022SOL    HW112965   3.871   0.268   1.464
 4022SOL    HW212966   3.856   0.163   1.340
 4023SOL     OW12967   0.710   1.980   4.082
 4023SOL    HW112968   0.784   2.035   4.122
 4023SOL    HW212969   0.750   1.907   4.027
 4024SOL     OW12970   0.789   6.412   6.329
 4024SOL    HW112971   0.881   6.401   6.292
 4024SOL    HW212972   0.767   6.510   6.334
 4025SOL     OW12973   1.164   4.352   4.725
 4025SOL    HW112974   1.113   4.437   4.715
 4025SOL    HW212975   1.165   4.325   4.822
 4026SOL     OW12976   0.654   6.644   4.562
 4026SOL    HW112977   0.635   6.555   4.604
 4026SOL    HW212978   0.728   6.634   4.495
 4027SOL     OW12979   3.169   5.826   4.936
 4027SOL    HW112980   3.222   5.852   4.855
 4027SOL    HW212981   3.211   5.746   4.979
 4028SOL     OW12982   4.440   1.417   4.586
 4028SOL    HW112983   4.419   1.467   4.502
 4028SOL    HW212984   4.357   1.373   4.620
 4029SOL     OW12985   2.080   6.763   0.941
 4029SOL    HW112986   2.105   6.859   0.930
 4029SOL    HW212987   2.034   6.750   1.028
 4030SOL     OW12988   0.852   1.112   2.020
 4030SOL    HW112989   0.940   1.119   1.973
 4030SOL    HW212990   0.824   1.202   2.052
 4031SOL     OW12991   6.237   5.793   0.621
 4031SOL    HW112992   6.263   5.826   0.712
 4031SOL    HW212993   6.274   5.854   0.552
 4032SOL     OW12994   5.041   2.005   2.029
 4032SOL    HW112995   4.991   1.926   2.062
 4032SOL    HW212996   5.039   2.007   1.929
 4033SOL     OW12997   1.157   3.551   3.146
 4033SOL    HW112998   1.183   3.477   3.209
 4033SOL    HW212999   1.161   3.638   3.194
 4034SOL     OW13000   2.387   2.228   4.256
 4034SOL    HW113001   2.483   2.245   4.278
 4034SOL    HW213002   2.377   2.222   4.156
 4035SOL     OW13003   3.531   2.387   1.686
 4035SOL    HW113004   3.613   2.360   1.737
 4035SOL    HW213005   3.459   2.319   1.701
 4036SOL     OW13006   4.278   6.864   3.548
 4036SOL    HW113007   4.316   6.952   3.519
 4036SOL    HW213008   4.256   6.809   3.467
 4037SOL     OW13009   1.609   1.224   5.469
 4037SOL    HW113010   1.531   1.283   5.445
 4037SOL    HW213011   1.693   1.263   5.430
 4038SOL     OW13012   4.195   4.898   5.703
 4038SOL    HW113013   4.276   4.910   5.646
 4038SOL    HW213014   4.206   4.949   5.788
 4039SOL     OW13015   5.772   4.607   1.779
 4039SOL    HW113016   5.774   4.635   1.683
 4039SOL    HW213017   5.854   4.641   1.825
 4040SOL     OW13018   2.447   6.520   5.123
 4040SOL    HW113019   2.483   6.613   5.130
 4040SOL    HW213020   2.348   6.522   5.139
 4041SOL     OW13021   1.484   6.037   1.550
 4041SOL    HW113022   1.547   5.962   1.531
 4041SOL    HW213023   1.535   6.115   1.586
 4042SOL     OW13024   1.274   1.772   4.147
 4042SOL    HW113025   1.181   1.751   4.179
 4042SOL    HW213026   1.268   1.826   4.063
 4043SOL     OW13027   3.649   2.598   5.886
 4043SOL    HW113028   3.692   2.580   5.797
 4043SOL    HW213029   3.691   2.679   5.927
 4044SOL     OW13030   4.730   4.190   3.135
 4044SOL    HW113031   4.736   4.289   3.126
 4044SOL    HW213032   4.770   4.162   3.222
 4045SOL     OW13033   4.393   1.262   4.932
 4045SOL    HW113034   4.378   1.165   4.949
 4045SOL    HW213035   4.340   1.315   4.999
 4046SOL     OW13036   5.135   1.250   3.995
 4046SOL    HW113037   5.166   1.323   4.055
 4046SOL    HW213038   5.182   1.258   3.907
 4047SOL     OW13039   2.993   2.424   6.346
 4047SOL    HW113040   2.904   2.420   6.302
 4047SOL    HW213041   2.986   2.389   6.440
 4048SOL     OW13042   4.587   2.336   3.285
 4048SOL    HW113043   4.554   2.247   3.251
 4048SOL    HW213044   4.625   2.324   3.376
 4049SOL     OW13045   3.908   3.998   2.490
 4049SOL    HW113046   3.897   4.060   2.568
 4049SOL    HW213047   3.851   3.917   2.504
 4050SOL     OW13048   6.910   4.792   3.256
 4050SOL    HW113049   6.858   4.795   3.171
 4050SOL    HW213050   6.902   4.701   3.297
 4051SOL     OW13051   5.820   0.711   3.858
 4051SOL    HW113052   5.831   0.612   3.844
 4051SOL    HW213053   5.851   0.760   3.776
 4052SOL     OW13054   4.571   1.247   4.405
 4052SOL    HW113055   4.565   1.301   4.489
 4052SOL    HW213056   4.591   1.152   4.428
 4053SOL     OW13057   0.696   4.213   3.203
 4053SOL    HW113058   0.627   4.275   3.165
 4053SOL    HW213059   0.773   4.205   3.139
 4054SOL     OW13060   5.288   3.803   1.742
 4054SOL    HW113061   5.292   3.833   1.837
 4054SOL    HW213062   5.245   3.712   1.738
 4055SOL     OW13063   0.228   4.354   6.949
 4055SOL    HW113064   0.295   4.426   6.965
 4055SOL    HW213065   0.259   4.294   6.875
 4056SOL     OW13066   4.658   4.055   6.993
 4056SOL    HW113067   4.651   4.109   0.057
 4056SOL    HW213068   4.684   4.114   6.917
 4057SOL     OW13069   6.789   4.695   5.883
 4057SOL    HW113070   6.840   4.625   5.933
 4057SOL    HW213071   6.836   4.716   5.797
 4058SOL     OW13072   3.197   0.744   4.216
 4058SOL    HW113073   3.166   0.783   4.130
 4058SOL    HW213074   3.208   0.817   4.284
 4059SOL     OW13075   1.224   1.395   3.606
 4059SOL    HW113076   1.163   1.326   3.567
 4059SOL    HW213077   1.188   1.425   3.694
 4060SOL     OW13078   0.258   6.799   3.982
 4060SOL    HW113079   0.173   6.752   3.958
 4060SOL    HW213080   0.249   6.841   4.072
 4061SOL     OW13081   1.674   4.216   2.436
 4061SOL    HW113082   1.694   4.263   2.523
 4061SOL    HW213083   1.589   4.165   2.445
 4062SOL     OW13084   2.694   4.208   0.130
 4062SOL    HW113085   2.626   4.189   0.059
 4062SOL    HW213086   2.741   4.123   0.154
 4063SOL     OW13087   3.916   0.978   0.973
 4063SOL    HW113088   3.961   1.066   0.959
 4063SOL    HW213089   3.886   0.971   1.069
 4064SOL     OW13090   2.461   0.013   4.739
 4064SOL    HW113091   2.418   6.953   4.696
 4064SOL    HW213092   2.391   0.070   4.783
 4065SOL     OW13093   2.176   1.383   1.326
 4065SOL    HW113094   2.220   1.378   1.415
 4065SOL    HW213095   2.226   1.447   1.267
 4066SOL     OW13096   0.573   3.759   5.032
 4066SOL    HW113097   0.626   3.824   5.086
 4066SOL    HW213098   0.629   3.725   4.956
 4067SOL     OW13099   6.072   4.683   1.728
 4067SOL    HW113100   6.110   4.624   1.799
 4067SOL    HW213101   6.083   4.640   1.639
 4068SOL     OW13102   2.152   2.918   6.023
 4068SOL    HW113103   2.158   2.826   5.984
 4068SOL    HW213104   2.219   2.977   5.979
 4069SOL     OW13105   4.072   6.940   5.859
 4069SOL    HW113106   4.158   6.904   5.825
 4069SOL    HW213107   4.090   7.013   5.926
 4070SOL     OW13108   1.926   3.999   4.081
 4070SOL    HW113109   2.026   3.994   4.076
 4070SOL    HW213110   1.898   4.095   4.090
 4071SOL     OW13111   1.312   0.424   5.441
 4071SOL    HW113112   1.378   0.471   5.382
 4071SOL    HW213113   1.248   0.373   5.384
 4072SOL     OW13114   2.978   6.541   2.752
 4072SOL    HW113115   2.936   6.540   2.843
 4072SOL    HW213116   3.012   6.633   2.731
 4073SOL     OW13117   4.696   5.189   6.811
 4073SOL    HW113118   4.599   5.211   6.806
 4073SOL    HW213119   4.708   5.095   6.842
 4074SOL     OW13120   1.728   5.623   2.286
 4074SOL    HW113121   1.672   5.701   2.314
 4074SOL    HW213122   1.712   5.604   2.189
 4075SOL     OW13123   5.356   0.547   6.813
 4075SOL    HW113124   5.429   0.608   6.786
 4075SOL    HW213125   5.381   0.500   6.898
 4076SOL     OW13126   2.271   5.737   3.677
 4076SOL    HW113127   2.259   5.640   3.694
 4076SOL    HW213128   2.355   5.769   3.722
 4077SOL     OW13129   2.318   1.966   1.741
 4077SOL    HW113130   2.361   1.894   1.686
 4077SOL    HW213131   2.367   2.052   1.726
 4078SOL     OW13132   4.414   4.988   1.821
 4078SOL    HW113133   4.469   4.968   1.740
 4078SOL    HW213134   4.436   5.080   1.854
 4079SOL     OW13135   0.643   2.291   4.216
 4079SOL    HW113136   0.673   2.384   4.196
 4079SOL    HW213137   0.713   2.244   4.269
 4080SOL     OW13138   5.827   2.289   4.426
 4080SOL    HW113139   5.786   2.297   4.335
 4080SOL    HW213140   5.857   2.379   4.457
 4081SOL     OW13141   6.657   3.388   2.430
 4081SOL    HW113142   6.688   3.482   2.436
 4081SOL    HW213143   6.735   3.326   2.439
 4082SOL     OW13144   0.171   3.493   0.530
 4082SOL    HW113145   0.081   3.486   0.573
 4082SOL    HW213146   0.241   3.504   0.601
 4083SOL     OW13147   6.803   3.339   5.432
 4083SOL    HW113148   6.795   3.240   5.444
 4083SOL    HW213149   6.730   3.385   5.482
 4084SOL     OW13150   5.008   0.803   4.053
 4084SOL    HW113151   5.105   0.780   4.064
 4084SOL    HW213152   5.000   0.897   4.020
 4085SOL     OW13153   3.127   5.116   6.991
 4085SOL    HW113154   3.143   5.189   6.924
 4085SOL    HW213155   3.067   5.151   0.044
 4086SOL     OW13156   0.188   2.127   1.451
 4086SOL    HW113157   0.194   2.218   1.410
 4086SOL    HW213158   0.278   2.084   1.452
 4087SOL     OW13159   1.895   1.226   3.168
 4087SOL    HW113160   1.860   1.316   3.143
 4087SOL    HW213161   1.896   1.167   3.087
 4088SOL     OW13162   0.044   2.399   6.240
 4088SOL    HW113163   0.038   2.301   6.258
 4088SOL    HW213164   0.035   2.450   6.325
 4089SOL     OW13165   0.553   1.635   5.569
 4089SOL    HW113166   0.601   1.608   5.653
 4089SOL    HW213167   0.475   1.575   5.554
 4090SOL     OW13168   3.200   5.237   6.756
 4090SOL    HW113169   3.124   5.277   6.705
 4090SOL    HW213170   3.286   5.253   6.707
 4091SOL     OW13171   4.536   6.546   1.226
 4091SOL    HW113172   4.480   6.625   1.251
 4091SOL    HW213173   4.624   6.552   1.272
 4092SOL     OW13174   0.842   1.174   3.737
 4092SOL    HW113175   0.823   1.115   3.815
 4092SOL    HW213176   0.771   1.161   3.668
 4093SOL     OW13177   4.786   6.712   3.985
 4093SOL    HW113178   4.821   6.701   3.892
 4093SOL    HW213179   4.810   6.802   4.019
 4094SOL     OW13180   3.202   3.245   6.342
 4094SOL    HW113181   3.236   3.319   6.285
 4094SOL    HW213182   3.259   3.164   6.330
 4095SOL     OW13183   1.760   3.608   5.860
 4095SOL    HW113184   1.663   3.603   5.886
 4095SOL    HW213185   1.809   3.663   5.928
 4096SOL     OW13186   4.716   4.714   1.716
 4096SOL    HW113187   4.743   4.746   1.807
 4096SOL    HW213188   4.671   4.625   1.725
 4097SOL     OW13189   3.593   3.831   3.340
 4097SOL    HW113190   3.667   3.788   3.288
 4097SOL    HW213191   3.632   3.896   3.406
 4098SOL     OW13192   1.529   3.198   2.574
 4098SOL    HW113193   1.471   3.135   2.626
 4098SOL    HW213194   1.506   3.191   2.477
 4099SOL     OW13195   2.533   6.253   1.598
 4099SOL    HW113196   2.435   6.244   1.580
 4099SOL    HW213197   2.571   6.164   1.623
 4100SOL     OW13198   3.548   0.014   2.864
 4100SOL    HW113199   3.541   0.112   2.880
 4100SOL    HW213200   3.605   6.992   2.935
 4101SOL     OW13201   4.335   1.964   0.109
 4101SOL    HW113202   4.288   1.938   0.024
 4101SOL    HW213203   4.378   1.883   0.149
 4102SOL     OW13204   4.363   1.400   5.998
 4102SOL    HW113205   4.303   1.394   5.919
 4102SOL    HW213206   4.341   1.483   6.050
 4103SOL     OW13207   0.173   0.181   1.574
 4103SOL    HW113208   0.204   0.231   1.655
 4103SOL    HW213209   0.082   0.214   1.547
 4104SOL     OW13210   1.942   4.098   2.133
 4104SOL    HW113211   1.900   4.061   2.216
 4104SOL    HW213212   2.014   4.036   2.102
 4105SOL     OW13213   6.166   5.226   0.471
 4105SOL    HW113214   6.163   5.197   0.375
 4105SOL    HW213215   6.246   5.284   0.486
 4106SOL     OW13216   0.407   3.790   4.304
 4106SOL    HW113217   0.417   3.856   4.229
 4106SOL    HW213218   0.496   3.754   4.329
 4107SOL     OW13219   6.944   0.734   0.858
 4107SOL    HW113220   6.930   0.699   0.765
 4107SOL    HW213221   6.856   0.761   0.897
 4108SOL     OW13222   6.366   2.363   5.070
 4108SOL    HW113223   6.439   2.425   5.040
 4108SOL    HW213224   6.277   2.404   5.048
 4109SOL     OW13225   1.980   6.369   3.990
 4109SOL    HW113226   1.986   6.406   3.897
 4109SOL    HW213227   2.064   6.388   4.039
 4110SOL     OW13228   4.812   3.392   5.303
 4110SOL    HW113229   4.851   3.339   5.227
 4110SOL    HW213230   4.755   3.466   5.266
 4111SOL     OW13231   3.765   3.551   6.342
 4111SOL    HW113232   3.691   3.486   6.325
 4111SOL    HW213233   3.852   3.502   6.344
 4112SOL     OW13234   4.108   0.533   5.759
 4112SOL    HW113235   4.051   0.547   5.678
 4112SOL    HW213236   4.113   0.436   5.780
 4113SOL     OW13237   3.590   5.384   4.139
 4113SOL    HW113238   3.617   5.447   4.211
 4113SOL    HW213239   3.671   5.336   4.104
 4114SOL     OW13240   3.660   1.839   3.648
 4114SOL    HW113241   3.563   1.832   3.625
 4114SOL    HW213242   3.689   1.935   3.642
 4115SOL     OW13243   4.868   3.704   3.384
 4115SOL    HW113244   4.786   3.707   3.441
 4115SOL    HW213245   4.949   3.721   3.440
 4116SOL     OW13246   2.814   1.265   1.895
 4116SOL    HW113247   2.823   1.177   1.940
 4116SOL    HW213248   2.780   1.333   1.960
 4117SOL     OW13249   1.214   6.296   2.131
 4117SOL    HW113250   1.246   6.281   2.224
 4117SOL    HW213251   1.210   6.209   2.082
 4118SOL     OW13252   1.747   0.583   6.391
 4118SOL    HW113253   1.653   0.556   6.411
 4118SOL    HW213254   1.747   0.663   6.331
 4119SOL     OW13255   5.219   1.475   3.184
 4119SOL    HW113256   5.315   1.502   3.177
 4119SOL    HW213257   5.207   1.417   3.264
 4120SOL     OW13258   5.621   1.137   2.270
 4120SOL    HW113259   5.716   1.117   2.246
 4120SOL    HW213260   5.562   1.115   2.192
 4121SOL     OW13261   5.861   2.079   3.826
 4121SOL    HW113262   5.778   2.033   3.857
 4121SOL    HW213263   5.881   2.054   3.732
 4122SOL     OW13264   2.470   5.170   0.244
 4122SOL    HW113265   2.409   5.222   0.304
 4122SOL    HW213266   2.419   5.099   0.196
 4123SOL     OW13267   3.996   3.912   5.364
 4123SOL    HW113268   4.061   3.898   5.438
 4123SOL    HW213269   3.905   3.927   5.403
 4124SOL     OW13270   4.806   6.240   3.013
 4124SOL    HW113271   4.717   6.243   3.058
 4124SOL    HW213272   4.804   6.297   2.931
 4125SOL     OW13273   4.677   1.393   1.673
 4125SOL    HW113274   4.609   1.459   1.642
 4125SOL    HW213275   4.724   1.429   1.753
 4126SOL     OW13276   2.118   3.973   4.759
 4126SOL    HW113277   2.166   3.954   4.845
 4126SOL    HW213278   2.063   3.895   4.733
 4127SOL     OW13279   5.246   4.747   4.047
 4127SOL    HW113280   5.171   4.715   3.989
 4127SOL    HW213281   5.225   4.839   4.080
 4128SOL     OW13282   6.943   1.644   1.821
 4128SOL    HW113283   7.004   1.580   1.869
 4128SOL    HW213284   6.973   1.653   1.726
 4129SOL     OW13285   0.016   2.691   0.169
 4129SOL    HW113286   7.014   2.691   0.071
 4129SOL    HW213287   6.979   2.759   0.215
 4130SOL     OW13288   6.236   1.905   1.321
 4130SOL    HW113289   6.265   1.998   1.344
 4130SOL    HW213290   6.306   1.862   1.265
 4131SOL     OW13291   6.955   3.262   3.046
 4131SOL    HW113292   6.931   3.267   3.143
 4131SOL    HW213293   0.024   3.217   3.036
 4132SOL     OW13294   4.349   1.535   4.339
 4132SOL    HW113295   4.334   1.490   4.252
 4132SOL    HW213296   4.354   1.634   4.325
 4133SOL     OW13297   2.511   2.493   0.976
 4133SOL    HW113298   2.419   2.498   1.015
 4133SOL    HW213299   2.573   2.452   1.043
 4134SOL     OW13300   2.295   0.981   0.134
 4134SOL    HW113301   2.324   0.929   0.215
 4134SOL    HW213302   2.372   0.991   0.071
 4135SOL     OW13303   1.973   0.404   0.776
 4135SOL    HW113304   2.066   0.370   0.764
 4135SOL    HW213305   1.956   0.424   0.872
 4136SOL     OW13306   1.036   1.939   3.523
 4136SOL    HW113307   1.132   1.910   3.517
 4136SOL    HW213308   0.983   1.893   3.451
 4137SOL     OW13309   3.871   3.071   5.100
 4137SOL    HW113310   3.897   3.041   5.192
 4137SOL    HW213311   3.933   3.143   5.069
 4138SOL     OW13312   4.842   5.493   1.491
 4138SOL    HW113313   4.808   5.574   1.537
 4138SOL    HW213314   4.929   5.513   1.446
 4139SOL     OW13315   2.897   1.596   6.750
 4139SOL    HW113316   2.895   1.565   6.845
 4139SOL    HW213317   2.904   1.696   6.747
 4140SOL     OW13318   4.875   2.477   4.923
 4140SOL    HW113319   4.872   2.385   4.964
 4140SOL    HW213320   4.857   2.470   4.825
 4141SOL     OW13321   5.067   6.293   1.148
 4141SOL    HW113322   5.048   6.364   1.080
 4141SOL    HW213323   5.159   6.257   1.135
 4142SOL     OW13324   6.140   3.207   1.492
 4142SOL    HW113325   6.189   3.134   1.539
 4142SOL    HW213326   6.067   3.241   1.552
 4143SOL     OW13327   1.768   2.770   1.466
 4143SOL    HW113328   1.677   2.790   1.503
 4143SOL    HW213329   1.779   2.671   1.458
 4144SOL     OW13330   3.975   0.832   2.383
 4144SOL    HW113331   4.034   0.884   2.321
 4144SOL    HW213332   3.998   0.735   2.379
 4145SOL     OW13333   2.794   6.962   3.615
 4145SOL    HW113334   2.782   6.912   3.529
 4145SOL    HW213335   2.848   0.025   3.598
 4146SOL     OW13336   5.320   4.666   0.682
 4146SOL    HW113337   5.417   4.665   0.659
 4146SOL    HW213338   5.269   4.615   0.613
 4147SOL     OW13339   2.783   1.969   5.744
 4147SOL    HW113340   2.812   2.048   5.798
 4147SOL    HW213341   2.716   1.996   5.676
 4148SOL     OW13342   6.717   6.702   2.069
 4148SOL    HW113343   6.779   6.777   2.089
 4148SOL    HW213344   6.630   6.717   2.116
 4149SOL     OW13345   4.728   4.202   2.250
 4149SOL    HW113346   4.663   4.239   2.184
 4149SOL    HW213347   4.691   4.212   2.342
 4150SOL     OW13348   3.479   0.485   4.863
 4150SOL    HW113349   3.391   0.486   4.912
 4150SOL    HW213350   3.547   0.535   4.916
 4151SOL     OW13351   0.872   5.648   0.254
 4151SOL    HW113352   0.845   5.716   0.185
 4151SOL    HW213353   0.857   5.686   0.345
 4152SOL     OW13354   3.349   3.964   0.886
 4152SOL    HW113355   3.298   3.992   0.967
 4152SOL    HW213356   3.447   3.983   0.899
 4153SOL     OW13357   6.050   5.935   6.033
 4153SOL    HW113358   6.136   5.885   6.038
 4153SOL    HW213359   5.988   5.904   6.105
 4154SOL     OW13360   4.593   2.733   4.749
 4154SOL    HW113361   4.635   2.775   4.830
 4154SOL    HW213362   4.665   2.704   4.686
 4155SOL     OW13363   1.731   3.088   0.389
 4155SOL    HW113364   1.698   3.052   0.301
 4155SOL    HW213365   1.822   3.052   0.408
 4156SOL     OW13366   6.189   0.957   5.308
 4156SOL    HW113367   6.211   0.978   5.403
 4156SOL    HW213368   6.246   0.882   5.275
 4157SOL     OW13369   3.542   1.072   3.636
 4157SOL    HW113370   3.588   1.107   3.718
 4157SOL    HW213371   3.600   1.087   3.557
 4158SOL     OW13372   0.725   0.581   3.376
 4158SOL    HW113373   0.630   0.551   3.368
 4158SOL    HW213374   0.732   0.650   3.448
 4159SOL     OW13375   0.475   4.696   5.638
 4159SOL    HW113376   0.454   4.735   5.728
 4159SOL    HW213377   0.469   4.596   5.643
 4160SOL     OW13378   6.566   0.690   1.152
 4160SOL    HW113379   6.529   0.646   1.070
 4160SOL    HW213380   6.497   0.687   1.225
 4161SOL     OW13381   6.152   1.321   1.350
 4161SOL    HW113382   6.238   1.368   1.330
 4161SOL    HW213383   6.134   1.324   1.448
 4162SOL     OW13384   1.026   0.007   4.923
 4162SOL    HW113385   1.056   6.931   4.922
 4162SOL    HW213386   1.025   0.040   5.018
 4163SOL     OW13387   0.051   1.728   5.304
 4163SOL    HW113388   0.070   1.673   5.223
 4163SOL    HW213389   0.063   1.825   5.282
 4164SOL     OW13390   2.602   6.423   5.834
 4164SOL    HW113391   2.614   6.490   5.761
 4164SOL    HW213392   2.534   6.355   5.806
 4165SOL     OW13393   1.627   6.281   1.615
 4165SOL    HW113394   1.689   6.343   1.664
 4165SOL    HW213395   1.585   6.330   1.538
 4166SOL     OW13396   6.073   2.279   2.400
 4166SOL    HW113397   6.130   2.248   2.325
 4166SOL    HW213398   6.120   2.265   2.487
 4167SOL     OW13399   1.456   2.581   1.203
 4167SOL    HW113400   1.540   2.554   1.156
 4167SOL    HW213401   1.393   2.622   1.138
 4168SOL     OW13402   2.518   6.114   1.108
 4168SOL    HW113403   2.592   6.160   1.059
 4168SOL    HW213404   2.439   6.104   1.047
 4169SOL     OW13405   6.435   3.679   6.597
 4169SOL    HW113406   6.470   3.674   6.691
 4169SOL    HW213407   6.444   3.773   6.563
 4170SOL     OW13408   3.139   0.982   5.737
 4170SOL    HW113409   3.124   0.948   5.830
 4170SOL    HW213410   3.171   0.907   5.679
 4171SOL     OW13411   6.351   3.057   1.581
 4171SOL    HW113412   6.407   3.015   1.652
 4171SOL    HW213413   6.410   3.106   1.516
 4172SOL     OW13414   3.183   0.613   1.260
 4172SOL    HW113415   3.223   0.609   1.168
 4172SOL    HW213416   3.248   0.654   1.323
 4173SOL     OW13417   4.384   3.940   5.719
 4173SOL    HW113418   4.414   3.945   5.624
 4173SOL    HW213419   4.306   4.001   5.732
 4174SOL     OW13420   5.061   0.854   3.572
 4174SOL    HW113421   5.012   0.769   3.553
 4174SOL    HW213422   4.996   0.927   3.591
 4175SOL     OW13423   2.553   1.374   2.537
 4175SOL    HW113424   2.644   1.381   2.576
 4175SOL    HW213425   2.494   1.444   2.575
 4176SOL     OW13426   6.008   4.549   3.025
 4176SOL    HW113427   5.944   4.473   3.013
 4176SOL    HW213428   5.957   4.631   3.051
 4177SOL     OW13429   0.178   5.939   2.712
 4177SOL    HW113430   0.265   5.903   2.680
 4177SOL    HW213431   0.128   5.979   2.635
 4178SOL     OW13432   4.267   2.708   5.369
 4178SOL    HW113433   4.364   2.727   5.355
 4178SOL    HW213434   4.230   2.661   5.288
 4179SOL     OW13435   6.981   1.617   0.161
 4179SOL    HW113436   6.884   1.639   0.150
 4179SOL    HW213437   6.990   1.521   0.187
 4180SOL     OW13438   5.574   4.057   1.622
 4180SOL    HW113439   5.649   3.997   1.595
 4180SOL    HW213440   5.583   4.082   1.718
 4181SOL     OW13441   6.181   1.350   0.320
 4181SOL    HW113442   6.167   1.358   0.222
 4181SOL    HW213443   6.205   1.440   0.358
 4182SOL     OW13444   5.899   0.864   3.651
 4182SOL    HW113445   5.889   0.852   3.552
 4182SOL    HW213446   5.866   0.954   3.678
 4183SOL     OW13447   1.035   0.594   2.011
 4183SOL    HW113448   1.062   0.642   2.095
 4183SOL    HW213449   1.108   0.533   1.982
 4184SOL     OW13450   4.477   4.766   6.344
 4184SOL    HW113451   4.421   4.693   6.383
 4184SOL    HW213452   4.549   4.725   6.287
 4185SOL     OW13453   0.102   0.423   4.383
 4185SOL    HW113454   0.029   0.480   4.421
 4185SOL    HW213455   0.115   0.342   4.440
 4186SOL     OW13456   3.421   4.024   1.516
 4186SOL    HW113457   3.347   4.027   1.449
 4186SOL    HW213458   3.491   4.091   1.490
 4187SOL     OW13459   4.347   5.078   5.553
 4187SOL    HW113460   4.379   5.168   5.523
 4187SOL    HW213461   4.247   5.077   5.554
 4188SOL     OW13462   5.350   5.772   2.643
 4188SOL    HW113463   5.363   5.673   2.647
 4188SOL    HW213464   5.438   5.817   2.658
 4189SOL     OW13465   1.237   3.265   3.162
 4189SOL    HW113466   1.213   3.301   3.072
 4189SOL    HW213467   1.284   3.177   3.152
 4190SOL     OW13468   2.532   6.614   1.682
 4190SOL    HW113469   2.495   6.701   1.713
 4190SOL    HW213470   2.609   6.629   1.621
 4191SOL     OW13471   0.268   2.179   3.722
 4191SOL    HW113472   0.201   2.218   3.785
 4191SOL    HW213473   0.298   2.248   3.657
 4192SOL     OW13474   5.741   6.367   3.992
 4192SOL    HW113475   5.697   6.278   4.006
 4192SOL    HW213476   5.776   6.372   3.898
 4193SOL     OW13477   1.335   6.815   3.855
 4193SOL    HW113478   1.342   6.797   3.953
 4193SOL    HW213479   1.400   6.888   3.830
 4194SOL     OW13480   4.848   0.177   3.234
 4194SOL    HW113481   4.938   0.215   3.260
 4194SOL    HW213482   4.784   0.253   3.220
 4195SOL     OW13483   4.522   0.330   3.398
 4195SOL    HW113484   4.571   0.382   3.327
 4195SOL    HW213485   4.570   0.243   3.414
 4196SOL     OW13486   4.929   2.300   2.926
 4196SOL    HW113487   4.845   2.248   2.909
 4196SOL    HW213488   4.934   2.378   2.864
 4197SOL     OW13489   5.202   4.292   4.495
 4197SOL    HW113490   5.283   4.343   4.526
 4197SOL    HW213491   5.199   4.203   4.541
 4198SOL     OW13492   6.188   3.608   5.965
 4198SOL    HW113493   6.208   3.705   5.974
 4198SOL    HW213494   6.206   3.579   5.870
 4199SOL     OW13495   3.235   4.171   5.749
 4199SOL    HW113496   3.226   4.223   5.665
 4199SOL    HW213497   3.185   4.216   5.822
 4200SOL     OW13498   3.082   0.543   5.923
 4200SOL    HW113499   3.104   0.450   5.897
 4200SOL    HW213500   3.010   0.543   5.992
 4201SOL     OW13501   6.392   0.090   4.986
 4201SOL    HW113502   6.461   0.096   5.058
 4201SOL    HW213503   6.435   0.106   4.897
 4202SOL     OW13504   5.914   3.145   5.200
 4202SOL    HW113505   6.010   3.160   5.178
 4202SOL    HW213506   5.905   3.120   5.297
 4203SOL     OW13507   3.740   5.647   4.819
 4203SOL    HW113508   3.743   5.547   4.818
 4203SOL    HW213509   3.684   5.680   4.743
 4204SOL     OW13510   1.468   4.324   0.389
 4204SOL    HW113511   1.482   4.419   0.419
 4204SOL    HW213512   1.479   4.319   0.290
 4205SOL     OW13513   2.410   6.561   3.473
 4205SOL    HW113514   2.417   6.624   3.550
 4205SOL    HW213515   2.330   6.586   3.417
 4206SOL     OW13516   4.908   6.749   3.717
 4206SOL    HW113517   4.963   6.817   3.765
 4206SOL    HW213518   4.964   6.667   3.700
 4207SOL     OW13519   1.604   6.277   0.017
 4207SOL    HW113520   1.525   6.235   6.992
 4207SOL    HW213521   1.674   6.207   0.031
 4208SOL     OW13522   0.803   2.131   1.477
 4208SOL    HW113523   0.820   2.036   1.451
 4208SOL    HW213524   0.769   2.135   1.571
 4209SOL     OW13525   2.594   0.117   5.750
 4209SOL    HW113526   2.587   0.094   5.653
 4209SOL    HW213527   2.510   0.164   5.780
 4210SOL     OW13528   3.407   3.501   0.322
 4210SOL    HW113529   3.433   3.495   0.418
 4210SOL    HW213530   3.466   3.442   0.267
 4211SOL     OW13531   6.227   3.274   3.927
 4211SOL    HW113532   6.297   3.203   3.934
 4211SOL    HW213533   6.139   3.232   3.905
 4212SOL     OW13534   6.024   0.154   2.251
 4212SOL    HW113535   6.035   0.056   2.263
 4212SOL    HW213536   6.055   0.202   2.333
 4213SOL     OW13537   0.717   6.866   0.902
 4213SOL    HW113538   0.772   6.855   0.820
 4213SOL    HW213539   0.620   6.865   0.877
 4214SOL     OW13540   2.811   5.388   3.339
 4214SOL    HW113541   2.735   5.393   3.275
 4214SOL    HW213542   2.784   5.429   3.427
 4215SOL     OW13543   1.637   5.934   6.555
 4215SOL    HW113544   1.664   5.841   6.580
 4215SOL    HW213545   1.714   5.980   6.512
 4216SOL     OW13546   2.515   2.745   5.331
 4216SOL    HW113547   2.513   2.843   5.309
 4216SOL    HW213548   2.583   2.729   5.403
 4217SOL     OW13549   6.419   0.624   4.876
 4217SOL    HW113550   6.331   0.631   4.828
 4217SOL    HW213551   6.477   0.700   4.848
 4218SOL     OW13552   3.284   5.317   2.898
 4218SOL    HW113553   3.314   5.278   2.811
 4218SOL    HW213554   3.237   5.246   2.951
 4219SOL     OW13555   4.938   0.187   2.718
 4219SOL    HW113556   4.917   0.238   2.634
 4219SOL    HW213557   4.966   0.251   2.789
 4220SOL     OW13558   0.266   4.456   3.043
 4220SOL    HW113559   0.260   4.511   2.960
 4220SOL    HW213560   0.186   4.473   3.100
 4221SOL     OW13561   5.329   6.226   5.824
 4221SOL    HW113562   5.420   6.256   5.796
 4221SOL    HW213563   5.313   6.251   5.919
 4222SOL     OW13564   2.412   2.996   0.235
 4222SOL    HW113565   2.413   3.096   0.237
 4222SOL    HW213566   2.393   2.962   0.327
 4223SOL     OW13567   3.883   3.981   2.801
 4223SOL    HW113568   3.968   3.929   2.801
 4223SOL    HW213569   3.858   4.003   2.896
 4224SOL     OW13570   3.631   2.254   5.435
 4224SOL    HW113571   3.601   2.193   5.509
 4224SOL    HW213572   3.731   2.254   5.430
 4225SOL     OW13573   4.963   6.805   4.610
 4225SOL    HW113574   5.034   6.740   4.638
 4225SOL    HW213575   4.911   6.768   4.533
 4226SOL     OW13576   2.457   1.887   2.018
 4226SOL    HW113577   2.481   1.972   2.065
 4226SOL    HW213578   2.540   1.843   1.984
 4227SOL     OW13579   5.436   3.915   0.508
 4227SOL    HW113580   5.408   3.973   0.432
 4227SOL    HW213581   5.526   3.876   0.488
 4228SOL     OW13582   4.392   5.171   3.315
 4228SOL    HW113583   4.393   5.268   3.337
 4228SOL    HW213584   4.450   5.154   3.236
 4229SOL     OW13585   4.044   4.882   4.784
 4229SOL    HW113586   4.024   4.828   4.866
 4229SOL    HW213587   4.118   4.838   4.732
 4230SOL     OW13588   1.953   1.522   5.689
 4230SOL    HW113589   2.032   1.546   5.746
 4230SOL    HW213590   1.983   1.514   5.594
 4231SOL     OW13591   3.857   6.695   6.343
 4231SOL    HW113592   3.855   6.635   6.263
 4231SOL    HW213593   3.917   6.656   6.413
 4232SOL     OW13594   1.226   4.158   1.553
 4232SOL    HW113595   1.199   4.080   1.610
 4232SOL    HW213596   1.319   4.185   1.575
 4233SOL     OW13597   5.144   5.381   1.136
 4233SOL    HW113598   5.127   5.376   1.234
 4233SOL    HW213599   5.239   5.356   1.117
 4234SOL     OW13600   3.890   3.697   6.049
 4234SOL    HW113601   3.926   3.631   6.115
 4234SOL    HW213602   3.903   3.790   6.084
 4235SOL     OW13603   0.567   4.057   4.782
 4235SOL    HW113604   0.547   4.004   4.864
 4235SOL    HW213605   0.664   4.081   4.781
 4236SOL     OW13606   1.067   3.483   4.515
 4236SOL    HW113607   1.073   3.454   4.420
 4236SOL    HW213608   0.984   3.446   4.556
 4237SOL     OW13609   5.144   3.434   5.402
 4237SOL    HW113610   5.086   3.443   5.321
 4237SOL    HW213611   5.194   3.348   5.398
 4238SOL     OW13612   4.805   4.609   5.071
 4238SOL    HW113613   4.851   4.679   5.125
 4238SOL    HW213614   4.711   4.598   5.103
 4239SOL     OW13615   5.211   5.011   5.198
 4239SOL    HW113616   5.299   4.966   5.190
 4239SOL    HW213617   5.221   5.096   5.248
 4240SOL     OW13618   2.414   4.323   6.180
 4240SOL    HW113619   2.400   4.420   6.160
 4240SOL    HW213620   2.503   4.310   6.223
 4241SOL     OW13621   3.005   2.197   0.658
 4241SOL    HW113622   3.004   2.136   0.579
 4241SOL    HW213623   3.062   2.158   0.731
 4242SOL     OW13624   2.762   0.677   1.792
 4242SOL    HW113625   2.838   0.612   1.791
 4242SOL    HW213626   2.768   0.732   1.876
 4243SOL     OW13627   1.685   1.842   1.966
 4243SOL    HW113628   1.766   1.797   2.003
 4243SOL    HW213629   1.603   1.792   1.995
 4244SOL     OW13630   2.824   6.998   1.048
 4244SOL    HW113631   2.773   6.923   1.007
 4244SOL    HW213632   2.816   0.060   0.991
 4245SOL     OW13633   0.428   1.645   1.316
 4245SOL    HW113634   0.505   1.697   1.351
 4245SOL    HW213635   0.386   1.593   1.390
 4246SOL     OW13636   3.736   2.112   3.627
 4246SOL    HW113637   3.825   2.112   3.582
 4246SOL    HW213638   3.748   2.125   3.726
 4247SOL     OW13639   2.529   5.373   6.838
 4247SOL    HW113640   2.528   5.381   6.938
 4247SOL    HW213641   2.621   5.387   6.804
 4248SOL     OW13642   2.799   0.022   2.287
 4248SOL    HW113643   2.827   6.958   2.238
 4248SOL    HW213644   2.792   0.002   2.384
 4249SOL     OW13645   6.490   1.137   5.295
 4249SOL    HW113646   6.471   1.044   5.326
 4249SOL    HW213647   6.526   1.135   5.202
 4250SOL     OW13648   0.623   5.395   4.713
 4250SOL    HW113649   0.567   5.476   4.731
 4250SOL    HW213650   0.597   5.357   4.624
 4251SOL     OW13651   4.688   1.957   5.173
 4251SOL    HW113652   4.720   1.934   5.265
 4251SOL    HW213653   4.727   2.045   5.144
 4252SOL     OW13654   0.757   6.913   6.401
 4252SOL    HW113655   0.759   6.985   6.331
 4252SOL    HW213656   0.849   6.876   6.413
 4253SOL     OW13657   3.960   0.046   2.730
 4253SOL    HW113658   3.920   0.072   2.818
 4253SOL    HW213659   4.019   0.119   2.697
 4254SOL     OW13660   0.896   0.802   5.089
 4254SOL    HW113661   0.893   0.823   4.991
 4254SOL    HW213662   0.947   0.717   5.103
 4255SOL     OW13663   1.607   3.159   4.348
 4255SOL    HW113664   1.681   3.188   4.410
 4255SOL    HW213665   1.527   3.132   4.402
 4256SOL     OW13666   6.109   6.058   1.143
 4256SOL    HW113667   6.127   6.086   1.048
 4256SOL    HW213668   6.193   6.064   1.196
 4257SOL     OW13669   0.351   1.432   2.382
 4257SOL    HW113670   0.267   1.436   2.329
 4257SOL    HW213671   0.340   1.483   2.467
 4258SOL     OW13672   2.429   6.384   0.931
 4258SOL    HW113673   2.499   6.346   0.871
 4258SOL    HW213674   2.371   6.310   0.964
 4259SOL     OW13675   0.976   0.106   0.168
 4259SOL    HW113676   0.905   0.066   0.227
 4259SOL    HW213677   1.066   0.087   0.208
 4260SOL     OW13678   0.349   0.688   5.333
 4260SOL    HW113679   0.373   0.688   5.236
 4260SOL    HW213680   0.407   0.623   5.382
 4261SOL     OW13681   2.148   6.676   3.410
 4261SOL    HW113682   2.192   6.748   3.356
 4261SOL    HW213683   2.096   6.717   3.484
 4262SOL     OW13684   1.399   3.918   4.809
 4262SOL    HW113685   1.343   3.946   4.731
 4262SOL    HW213686   1.356   3.949   4.894
 4263SOL     OW13687   3.285   0.712   2.339
 4263SOL    HW113688   3.215   0.677   2.277
 4263SOL    HW213689   3.367   0.655   2.332
 4264SOL     OW13690   4.107   2.103   6.443
 4264SOL    HW113691   4.048   2.080   6.365
 4264SOL    HW213692   4.050   2.121   6.523
 4265SOL     OW13693   3.214   6.437   6.633
 4265SOL    HW113694   3.125   6.394   6.644
 4265SOL    HW213695   3.224   6.511   6.699
 4266SOL     OW13696   1.360   4.080   2.978
 4266SOL    HW113697   1.304   4.157   2.947
 4266SOL    HW213698   1.457   4.105   2.971
 4267SOL     OW13699   1.599   3.714   3.609
 4267SOL    HW113700   1.567   3.643   3.546
 4267SOL    HW213701   1.576   3.804   3.572
 4268SOL     OW13702   1.285   4.134   5.524
 4268SOL    HW113703   1.350   4.185   5.469
 4268SOL    HW213704   1.283   4.039   5.495
 4269SOL     OW13705   1.736   1.823   4.267
 4269SOL    HW113706   1.642   1.796   4.248
 4269SOL    HW213707   1.780   1.851   4.182
 4270SOL     OW13708   4.035   4.231   1.230
 4270SOL    HW113709   4.094   4.172   1.286
 4270SOL    HW213710   3.941   4.197   1.234
 4271SOL     OW13711   6.054   0.260   0.092
 4271SOL    HW113712   6.044   0.199   0.014
 4271SOL    HW213713   6.032   0.211   0.177
 4272SOL     OW13714   6.404   1.882   5.797
 4272SOL    HW113715   6.416   1.981   5.795
 4272SOL    HW213716   6.354   1.853   5.715
 4273SOL     OW13717   3.478   6.239   3.735
 4273SOL    HW113718   3.492   6.169   3.665
 4273SOL    HW213719   3.417   6.204   3.805
 4274SOL     OW13720   6.711   0.464   1.909
 4274SOL    HW113721   6.783   0.468   1.978
 4274SOL    HW213722   6.623   0.485   1.952
 4275SOL     OW13723   5.747   1.458   4.452
 4275SOL    HW113724   5.741   1.418   4.544
 4275SOL    HW213725   5.721   1.554   4.456
 4276SOL     OW13726   2.068   0.963   2.915
 4276SOL    HW113727   2.068   1.060   2.890
 4276SOL    HW213728   2.097   0.954   3.010
 4277SOL     OW13729   6.357   4.706   3.068
 4277SOL    HW113730   6.365   4.626   3.128
 4277SOL    HW213731   6.340   4.676   2.974
 4278SOL     OW13732   0.523   6.767   1.909
 4278SOL    HW113733   0.512   6.832   1.834
 4278SOL    HW213734   0.524   6.674   1.873
 4279SOL     OW13735   1.295   4.004   3.233
 4279SOL    HW113736   1.338   4.056   3.160
 4279SOL    HW213737   1.224   3.944   3.195
 4280SOL     OW13738   2.608   6.648   6.247
 4280SOL    HW113739   2.605   6.560   6.200
 4280SOL    HW213740   2.515   6.679   6.266
 4281SOL     OW13741   6.697   6.613   2.647
 4281SOL    HW113742   6.735   6.672   2.718
 4281SOL    HW213743   6.643   6.540   2.691
 4282SOL     OW13744   5.020   4.734   2.241
 4282SOL    HW113745   5.120   4.738   2.240
 4282SOL    HW213746   4.990   4.654   2.189
 4283SOL     OW13747   6.767   1.546   5.210
 4283SOL    HW113748   6.827   1.566   5.288
 4283SOL    HW213749   6.781   1.614   5.139
 4284SOL     OW13750   4.807   6.163   0.086
 4284SOL    HW113751   4.868   6.196   0.014
 4284SOL    HW213752   4.803   6.063   0.083
 4285SOL     OW13753   3.040   1.757   6.158
 4285SOL    HW113754   3.114   1.779   6.221
 4285SOL    HW213755   3.049   1.813   6.075
 4286SOL     OW13756   5.388   6.299   6.685
 4286SOL    HW113757   5.297   6.258   6.686
 4286SOL    HW213758   5.388   6.382   6.741
 4287SOL     OW13759   4.490   0.108   0.797
 4287SOL    HW113760   4.394   0.098   0.823
 4287SOL    HW213761   4.496   0.128   0.699
 4288SOL     OW13762   6.513   6.747   2.239
 4288SOL    HW113763   6.438   6.682   2.226
 4288SOL    HW213764   6.550   6.738   2.331
 4289SOL     OW13765   0.213   4.239   6.160
 4289SOL    HW113766   0.279   4.238   6.235
 4289SOL    HW213767   0.156   4.157   6.164
 4290SOL     OW13768   0.045   1.034   3.021
 4290SOL    HW113769   0.123   1.006   3.077
 4290SOL    HW213770   6.980   1.022   3.074
 4291SOL     OW13771   4.721   4.925   5.681
 4291SOL    HW113772   4.797   4.869   5.714
 4291SOL    HW213773   4.753   4.986   5.609
 4292SOL     OW13774   6.120   6.954   0.448
 4292SOL    HW113775   6.082   6.950   0.541
 4292SOL    HW213776   6.098   0.023   0.407
 4293SOL     OW13777   4.134   2.315   5.755
 4293SOL    HW113778   4.165   2.380   5.826
 4293SOL    HW213779   4.102   2.366   5.675
 4294SOL     OW13780   3.228   2.039   6.950
 4294SOL    HW113781   3.299   2.020   7.018
 4294SOL    HW213782   3.240   2.132   6.915
 4295SOL     OW13783   4.103   6.645   2.573
 4295SOL    HW113784   4.183   6.699   2.548
 4295SOL    HW213785   4.086   6.576   2.503
 4296SOL     OW13786   2.198   5.381   2.014
 4296SOL    HW113787   2.269   5.412   1.951
 4296SOL    HW213788   2.230   5.392   2.108
 4297SOL     OW13789   5.117   4.484   0.148
 4297SOL    HW113790   5.021   4.483   0.118
 4297SOL    HW213791   5.122   4.517   0.242
 4298SOL     OW13792   2.024   6.366   0.515
 4298SOL    HW113793   2.105   6.407   0.557
 4298SOL    HW213794   1.946   6.377   0.577
 4299SOL     OW13795   0.072   3.317   6.833
 4299SOL    HW113796   0.145   3.280   6.890
 4299SOL    HW213797   0.024   3.242   6.787
 4300SOL     OW13798   3.833   0.481   2.199
 4300SOL    HW113799   3.871   0.541   2.128
 4300SOL    HW213800   3.864   0.511   2.289
 4301SOL     OW13801   1.584   6.181   4.800
 4301SOL    HW113802   1.566   6.083   4.799
 4301SOL    HW213803   1.620   6.207   4.889
 4302SOL     OW13804   3.832   5.181   0.272
 4302SOL    HW113805   3.847   5.179   0.173
 4302SOL    HW213806   3.905   5.231   0.316
 4303SOL     OW13807   4.804   4.875   3.097
 4303SOL    HW113808   4.737   4.800   3.097
 4303SOL    HW213809   4.894   4.839   3.119
 4304SOL     OW13810   2.886   4.410   1.407
 4304SOL    HW113811   2.942   4.378   1.330
 4304SOL    HW213812   2.912   4.505   1.428
 4305SOL     OW13813   1.233   6.840   5.650
 4305SOL    HW113814   1.176   6.838   5.567
 4305SOL    HW213815   1.255   6.747   5.678
 4306SOL     OW13816   6.481   3.947   5.200
 4306SOL    HW113817   6.517   3.989   5.117
 4306SOL    HW213818   6.382   3.955   5.201
 4307SOL     OW13819   6.762   1.895   4.340
 4307SOL    HW113820   6.696   1.829   4.376
 4307SOL    HW213821   6.819   1.850   4.271
 4308SOL     OW13822   4.702   5.335   5.614
 4308SOL    HW113823   4.637   5.332   5.539
 4308SOL    HW213824   4.674   5.405   5.680
 4309SOL     OW13825   2.585   1.998   0.833
 4309SOL    HW113826   2.600   2.021   0.737
 4309SOL    HW213827   2.528   2.069   0.875
 4310SOL     OW13828   6.428   1.091   4.713
 4310SOL    HW113829   6.450   1.187   4.727
 4310SOL    HW213830   6.460   1.062   4.623
 4311SOL     OW13831   0.826   6.639   1.281
 4311SOL    HW113832   0.823   6.544   1.251
 4311SOL    HW213833   0.784   6.648   1.371
 4312SOL     OW13834   0.693   2.982   2.372
 4312SOL    HW113835   0.784   3.019   2.391
 4312SOL    HW213836   0.646   2.964   2.458
 4313SOL     OW13837   0.513   3.306   0.584
 4313SOL    HW113838   0.454   3.226   0.589
 4313SOL    HW213839   0.537   3.324   0.489
 4314SOL     OW13840   2.375   2.196   5.602
 4314SOL    HW113841   2.289   2.209   5.652
 4314SOL    HW213842   2.416   2.285   5.582
 4315SOL     OW13843   2.733   2.518   5.276
 4315SOL    HW113844   2.673   2.493   5.200
 4315SOL    HW213845   2.808   2.452   5.283
 4316SOL     OW13846   4.551   4.105   1.334
 4316SOL    HW113847   4.611   4.041   1.383
 4316SOL    HW213848   4.606   4.159   1.270
 4317SOL     OW13849   4.838   0.597   3.731
 4317SOL    HW113850   4.795   0.674   3.778
 4317SOL    HW213851   4.930   0.582   3.768
 4318SOL     OW13852   2.110   5.516   4.206
 4318SOL    HW113853   2.133   5.432   4.157
 4318SOL    HW213854   2.169   5.590   4.176
 4319SOL     OW13855   2.148   4.881   1.474
 4319SOL    HW113856   2.157   4.874   1.574
 4319SOL    HW213857   2.132   4.977   1.449
 4320SOL     OW13858   4.368   1.071   1.926
 4320SOL    HW113859   4.373   1.129   2.008
 4320SOL    HW213860   4.323   1.121   1.853
 4321SOL     OW13861   6.734   6.060   3.273
 4321SOL    HW113862   6.641   6.061   3.236
 4321SOL    HW213863   6.731   6.037   3.371
 4322SOL     OW13864   2.666   2.155   4.267
 4322SOL    HW113865   2.641   2.104   4.349
 4322SOL    HW213866   2.765   2.149   4.253
 4323SOL     OW13867   5.774   3.960   2.033
 4323SOL    HW113868   5.688   3.944   2.082
 4323SOL    HW213869   5.850   3.931   2.091
 4324SOL     OW13870   6.545   4.037   5.472
 4324SOL    HW113871   6.461   4.071   5.515
 4324SOL    HW213872   6.522   3.987   5.389
 4325SOL     OW13873   1.586   0.753   1.018
 4325SOL    HW113874   1.557   0.755   1.113
 4325SOL    HW213875   1.671   0.700   1.009
 4326SOL     OW13876   5.356   2.913   2.091
 4326SOL    HW113877   5.268   2.925   2.137
 4326SOL    HW213878   5.429   2.954   2.146
 4327SOL     OW13879   3.191   6.543   3.921
 4327SOL    HW113880   3.149   6.570   3.834
 4327SOL    HW213881   3.222   6.449   3.916
 4328SOL     OW13882   5.682   0.192   2.264
 4328SOL    HW113883   5.651   0.233   2.179
 4328SOL    HW213884   5.754   0.125   2.245
 4329SOL     OW13885   6.168   3.921   0.395
 4329SOL    HW113886   6.175   4.002   0.453
 4329SOL    HW213887   6.238   3.855   0.421
 4330SOL     OW13888   2.776   5.934   5.373
 4330SOL    HW113889   2.871   5.948   5.347
 4330SOL    HW213890   2.723   6.016   5.350
 4331SOL     OW13891   6.037   1.357   2.827
 4331SOL    HW113892   6.116   1.320   2.778
 4331SOL    HW213893   6.002   1.437   2.779
 4332SOL     OW13894   6.723   6.036   1.174
 4332SOL    HW113895   6.790   6.030   1.100
 4332SOL    HW213896   6.689   6.130   1.181
 4333SOL     OW13897   3.697   3.211   5.651
 4333SOL    HW113898   3.780   3.184   5.602
 4333SOL    HW213899   3.620   3.215   5.588
 4334SOL     OW13900   0.700   1.771   3.605
 4334SOL    HW113901   0.614   1.811   3.573
 4334SOL    HW213902   0.775   1.837   3.590
 4335SOL     OW13903   2.126   2.635   1.640
 4335SOL    HW113904   2.130   2.535   1.642
 4335SOL    HW213905   2.218   2.672   1.636
 4336SOL     OW13906   2.302   5.904   4.795
 4336SOL    HW113907   2.253   5.901   4.883
 4336SOL    HW213908   2.330   5.811   4.770
 4337SOL     OW13909   0.236   4.939   4.316
 4337SOL    HW113910   0.184   4.855   4.328
 4337SOL    HW213911   0.311   4.923   4.252
 4338SOL     OW13912   3.528   3.206   5.438
 4338SOL    HW113913   3.436   3.235   5.412
 4338SOL    HW213914   3.568   3.152   5.364
 4339SOL     OW13915   3.526   3.702   5.403
 4339SOL    HW113916   3.620   3.736   5.408
 4339SOL    HW213917   3.517   3.640   5.325
 4340SOL     OW13918   0.132   4.598   0.300
 4340SOL    HW113919   0.133   4.514   0.246
 4340SOL    HW213920   0.106   4.577   0.394
 4341SOL     OW13921   6.256   6.260   1.605
 4341SOL    HW113922   6.291   6.333   1.546
 4341SOL    HW213923   6.287   6.171   1.570
 4342SOL     OW13924   4.907   3.397   2.302
 4342SOL    HW113925   4.918   3.477   2.243
 4342SOL    HW213926   4.869   3.321   2.249
 4343SOL     OW13927   4.943   6.893   6.245
 4343SOL    HW113928   5.022   6.955   6.245
 4343SOL    HW213929   4.951   6.828   6.320
 4344SOL     OW13930   1.572   4.244   2.149
 4344SOL    HW113931   1.578   4.325   2.090
 4344SOL    HW213932   1.618   4.262   2.236
 4345SOL     OW13933   4.136   3.418   2.281
 4345SOL    HW113934   4.115   3.340   2.339
 4345SOL    HW213935   4.212   3.394   2.220
 4346SOL     OW13936   1.178   3.191   2.164
 4346SOL    HW113937   1.247   3.257   2.134
 4346SOL    HW213938   1.190   3.105   2.115
 4347SOL     OW13939   5.864   6.188   1.121
 4347SOL    HW113940   5.938   6.128   1.152
 4347SOL    HW213941   5.902   6.265   1.070
 4348SOL     OW13942   6.286   4.075   6.194
 4348SOL    HW113943   6.374   4.029   6.188
 4348SOL    HW213944   6.301   4.173   6.210
 4349SOL     OW13945   0.571   3.882   3.811
 4349SOL    HW113946   0.578   3.836   3.722
 4349SOL    HW213947   0.619   3.828   3.880
 4350SOL     OW13948   5.059   7.016   4.468
 4350SOL    HW113949   5.012   0.085   4.474
 4350SOL    HW213950   5.015   6.949   4.527
 4351SOL     OW13951   0.281   6.426   1.126
 4351SOL    HW113952   0.293   6.524   1.138
 4351SOL    HW213953   0.275   6.404   1.029
 4352SOL     OW13954   3.846   4.514   1.380
 4352SOL    HW113955   3.922   4.451   1.364
 4352SOL    HW213956   3.844   4.540   1.476
 4353SOL     OW13957   1.989   3.756   0.281
 4353SOL    HW113958   2.004   3.674   0.225
 4353SOL    HW213959   2.077   3.793   0.311
 4354SOL     OW13960   6.146   4.802   2.614
 4354SOL    HW113961   6.064   4.746   2.618
 4354SOL    HW213962   6.139   4.867   2.538
 4355SOL     OW13963   1.932   4.814   4.098
 4355SOL    HW113964   1.884   4.750   4.037
 4355SOL    HW213965   1.950   4.899   4.050
 4356SOL     OW13966   5.963   1.737   6.066
 4356SOL    HW113967   6.057   1.713   6.042
 4356SOL    HW213968   5.910   1.654   6.084
 4357SOL     OW13969   4.938   5.786   2.756
 4357SOL    HW113970   4.893   5.777   2.667
 4357SOL    HW213971   4.897   5.863   2.805
 4358SOL     OW13972   3.378   0.488   1.034
 4358SOL    HW113973   3.325   0.435   0.968
 4358SOL    HW213974   3.405   0.429   1.110
 4359SOL     OW13975   3.146   3.485   1.742
 4359SOL    HW113976   3.168   3.446   1.832
 4359SOL    HW213977   3.085   3.423   1.693
 4360SOL     OW13978   2.463   6.422   3.899
 4360SOL    HW113979   2.559   6.400   3.886
 4360SOL    HW213980   2.410   6.391   3.820
 4361SOL     OW13981   1.860   0.889   6.611
 4361SOL    HW113982   1.768   0.868   6.579
 4361SOL    HW213983   1.913   0.929   6.536
 4362SOL     OW13984   6.163   5.353   2.323
 4362SOL    HW113985   6.233   5.343   2.394
 4362SOL    HW213986   6.208   5.362   2.234
 4363SOL     OW13987   4.193   0.185   2.650
 4363SOL    HW113988   4.262   0.158   2.717
 4363SOL    HW213989   4.185   0.284   2.648
 4364SOL     OW13990   3.160   3.728   2.690
 4364SOL    HW113991   3.113   3.668   2.755
 4364SOL    HW213992   3.108   3.812   2.680
 4365SOL     OW13993   2.213   1.592   0.673
 4365SOL    HW113994   2.245   1.687   0.678
 4365SOL    HW213995   2.234   1.545   0.760
 4366SOL     OW13996   5.068   5.364   4.933
 4366SOL    HW113997   5.066   5.463   4.926
 4366SOL    HW213998   5.054   5.323   4.843
 4367SOL     OW13999   1.771   0.093   1.803
 4367SOL    HW114000   1.673   0.111   1.812
 4367SOL    HW214001   1.801   0.039   1.882
 4368SOL     OW14002   5.069   5.504   4.425
 4368SOL    HW114003   5.108   5.588   4.462
 4368SOL    HW214004   5.003   5.526   4.353
 4369SOL     OW14005   0.223   4.008   4.611
 4369SOL    HW114006   0.287   4.083   4.628
 4369SOL    HW214007   0.131   4.036   4.637
 4370SOL     OW14008   5.379   4.281   1.107
 4370SOL    HW114009   5.442   4.219   1.154
 4370SOL    HW214010   5.326   4.332   1.174
 4371SOL     OW14011   3.290   0.420   3.561
 4371SOL    HW114012   3.270   0.342   3.620
 4371SOL    HW214013   3.242   0.409   3.474
 4372SOL     OW14014   2.029   4.106   5.567
 4372SOL    HW114015   2.017   4.026   5.508
 4372SOL    HW214016   2.064   4.183   5.514
 4373SOL     OW14017   4.712   0.296   0.104
 4373SOL    HW114018   4.739   0.325   0.012
 4373SOL    HW214019   4.644   0.360   0.140
 4374SOL     OW14020   1.966   6.391   0.236
 4374SOL    HW114021   1.977   6.375   0.334
 4374SOL    HW214022   2.056   6.393   0.192
 4375SOL     OW14023   4.760   0.460   5.514
 4375SOL    HW114024   4.798   0.440   5.605
 4375SOL    HW214025   4.697   0.387   5.487
 4376SOL     OW14026   2.855   4.900   0.315
 4376SOL    HW114027   2.925   4.869   0.379
 4376SOL    HW214028   2.801   4.822   0.284
 4377SOL     OW14029   5.534   6.263   0.485
 4377SOL    HW114030   5.483   6.177   0.482
 4377SOL    HW214031   5.630   6.244   0.509
 4378SOL     OW14032   3.234   4.999   1.754
 4378SOL    HW114033   3.257   4.904   1.772
 4378SOL    HW214034   3.319   5.052   1.743
 4379SOL     OW14035   6.238   6.338   0.712
 4379SOL    HW114036   6.254   6.291   0.625
 4379SOL    HW214037   6.311   6.404   0.728
 4380SOL     OW14038   1.745   6.303   5.023
 4380SOL    HW114039   1.796   6.241   5.083
 4380SOL    HW214040   1.698   6.371   5.079
 4381SOL     OW14041   3.245   6.087   4.446
 4381SOL    HW114042   3.178   6.018   4.416
 4381SOL    HW214043   3.313   6.043   4.504
 4382SOL     OW14044   5.994   3.682   3.728
 4382SOL    HW114045   5.971   3.762   3.673
 4382SOL    HW214046   6.072   3.703   3.786
 4383SOL     OW14047   1.546   0.242   6.664
 4383SOL    HW114048   1.546   0.163   6.603
 4383SOL    HW214049   1.615   0.308   6.633
 4384SOL     OW14050   3.771   6.591   1.743
 4384SOL    HW114051   3.720   6.506   1.743
 4384SOL    HW214052   3.818   6.602   1.655
 4385SOL     OW14053   5.942   2.109   4.122
 4385SOL    HW114054   5.939   2.192   4.179
 4385SOL    HW214055   6.001   2.125   4.043
 4386SOL     OW14056   1.844   5.471   0.171
 4386SOL    HW114057   1.934   5.472   0.127
 4386SOL    HW214058   1.832   5.386   0.221
 4387SOL     OW14059   6.106   2.379   0.950
 4387SOL    HW114060   6.119   2.386   1.049
 4387SOL    HW214061   6.115   2.470   0.909
 4388SOL     OW14062   4.438   0.704   5.915
 4388SOL    HW114063   4.457   0.629   5.851
 4388SOL    HW214064   4.508   0.705   5.987
 4389SOL     OW14065   1.109   3.019   2.564
 4389SOL    HW114066   1.074   3.111   2.549
 4389SOL    HW214067   1.033   2.954   2.572
 4390SOL     OW14068   4.922   4.078   1.097
 4390SOL    HW114069   5.016   4.054   1.073
 4390SOL    HW214070   4.863   4.069   1.017
 4391SOL     OW14071   0.448   5.572   1.272
 4391SOL    HW114072   0.404   5.600   1.187
 4391SOL    HW214073   0.412   5.483   1.301
 4392SOL     OW14074   5.201   5.136   4.603
 4392SOL    HW114075   5.250   5.222   4.584
 4392SOL    HW214076   5.128   5.124   4.536
 4393SOL     OW14077   4.631   6.816   2.461
 4393SOL    HW114078   4.608   6.787   2.368
 4393SOL    HW214079   4.720   6.861   2.460
 4394SOL     OW14080   4.652   1.086   2.493
 4394SOL    HW114081   4.605   1.061   2.408
 4394SOL    HW214082   4.669   1.004   2.547
 4395SOL     OW14083   4.901   2.864   0.672
 4395SOL    HW114084   4.916   2.855   0.770
 4395SOL    HW214085   4.931   2.781   0.625
 4396SOL     OW14086   1.526   0.909   2.216
 4396SOL    HW114087   1.465   0.973   2.169
 4396SOL    HW214088   1.519   0.922   2.314
 4397SOL     OW14089   3.818   2.032   6.849
 4397SOL    HW114090   3.823   1.963   6.777
 4397SOL    HW214091   3.910   2.059   6.876
 4398SOL     OW14092   0.819   4.506   4.830
 4398SOL    HW114093   0.797   4.450   4.750
 4398SOL    HW214094   0.737   4.521   4.884
 4399SOL     OW14095   3.038   0.454   1.753
 4399SOL    HW114096   3.005   0.365   1.784
 4399SOL    HW214097   3.136   0.460   1.770
 4400SOL     OW14098   3.448   5.070   3.054
 4400SOL    HW114099   3.348   5.068   3.047
 4400SOL    HW214100   3.483   5.153   3.013
 4401SOL     OW14101   4.720   6.481   4.539
 4401SOL    HW114102   4.783   6.413   4.576
 4401SOL    HW214103   4.750   6.508   4.448
 4402SOL     OW14104   6.907   6.426   1.507
 4402SOL    HW114105   6.965   6.371   1.447
 4402SOL    HW214106   6.955   6.509   1.533
 4403SOL     OW14107   6.501   1.567   3.652
 4403SOL    HW114108   6.498   1.488   3.590
 4403SOL    HW214109   6.564   1.636   3.615
 4404SOL     OW14110   1.520   3.830   2.838
 4404SOL    HW114111   1.452   3.758   2.827
 4404SOL    HW214112   1.475   3.916   2.860
 4405SOL     OW14113   3.189   4.338   6.273
 4405SOL    HW114114   3.276   4.292   6.292
 4405SOL    HW214115   3.114   4.277   6.297
 4406SOL     OW14116   5.979   2.659   2.766
 4406SOL    HW114117   5.919   2.735   2.792
 4406SOL    HW214118   6.064   2.695   2.729
 4407SOL     OW14119   0.869   0.640   0.465
 4407SOL    HW114120   0.869   0.628   0.564
 4407SOL    HW214121   0.952   0.601   0.427
 4408SOL     OW14122   4.615   6.111   1.541
 4408SOL    HW114123   4.588   6.203   1.510
 4408SOL    HW214124   4.558   6.043   1.496
 4409SOL     OW14125   3.520   1.827   3.061
 4409SOL    HW114126   3.541   1.797   2.968
 4409SOL    HW214127   3.547   1.923   3.072
 4410SOL     OW14128   2.273   5.954   0.783
 4410SOL    HW114129   2.284   6.033   0.723
 4410SOL    HW214130   2.190   5.965   0.838
 4411SOL     OW14131   3.660   3.099   2.507
 4411SOL    HW114132   3.569   3.062   2.488
 4411SOL    HW214133   3.722   3.023   2.529
 4412SOL     OW14134   3.864   1.138   6.247
 4412SOL    HW114135   3.901   1.214   6.193
 4412SOL    HW214136   3.936   1.101   6.305
 4413SOL     OW14137   3.765   5.660   3.768
 4413SOL    HW114138   3.757   5.561   3.763
 4413SOL    HW214139   3.821   5.686   3.847
 4414SOL     OW14140   3.306   4.732   1.803
 4414SOL    HW114141   3.404   4.711   1.811
 4414SOL    HW214142   3.268   4.680   1.726
 4415SOL     OW14143   4.616   1.122   1.578
 4415SOL    HW114144   4.680   1.059   1.622
 4415SOL    HW214145   4.635   1.216   1.608
 4416SOL     OW14146   2.874   2.241   4.618
 4416SOL    HW114147   2.809   2.302   4.663
 4416SOL    HW214148   2.832   2.151   4.604
 4417SOL     OW14149   5.586   0.071   1.633
 4417SOL    HW114150   5.666   0.131   1.635
 4417SOL    HW214151   5.513   0.115   1.580
 4418SOL     OW14152   4.314   0.013   3.234
 4418SOL    HW114153   4.390   7.017   3.171
 4418SOL    HW214154   4.227   0.006   3.184
 4419SOL     OW14155   6.707   5.599   6.513
 4419SOL    HW114156   6.653   5.608   6.429
 4419SOL    HW214157   6.770   5.676   6.521
 4420SOL     OW14158   5.496   1.139   0.759
 4420SOL    HW114159   5.533   1.118   0.669
 4420SOL    HW214160   5.560   1.200   0.807
 4421SOL     OW14161   0.563   2.159   3.146
 4421SOL    HW114162   0.572   2.077   3.202
 4421SOL    HW214163   0.635   2.159   3.076
 4422SOL     OW14164   1.532   3.783   5.630
 4422SOL    HW114165   1.526   3.727   5.713
 4422SOL    HW214166   1.441   3.789   5.588
 4423SOL     OW14167   6.837   1.856   5.802
 4423SOL    HW114168   6.857   1.778   5.743
 4423SOL    HW214169   6.751   1.838   5.851
 4424SOL     OW14170   2.053   5.385   3.532
 4424SOL    HW114171   2.050   5.390   3.433
 4424SOL    HW214172   2.138   5.426   3.565
 4425SOL     OW14173   5.173   4.016   2.199
 4425SOL    HW114174   5.221   4.096   2.234
 4425SOL    HW214175   5.139   3.961   2.276
 4426SOL     OW14176   0.595   6.455   6.573
 4426SOL    HW114177   0.685   6.448   6.530
 4426SOL    HW214178   0.606   6.448   6.673
 4427SOL     OW14179   0.438   5.223   4.000
 4427SOL    HW114180   0.457   5.178   3.913
 4427SOL    HW214181   0.364   5.290   3.988
 4428SOL     OW14182   1.330   0.102   2.470
 4428SOL    HW114183   1.348   0.119   2.567
 4428SOL    HW214184   1.355   0.008   2.447
 4429SOL     OW14185   2.873   0.213   1.657
 4429SOL    HW114186   2.831   0.298   1.627
 4429SOL    HW214187   2.812   0.136   1.636
 4430SOL     OW14188   1.862   0.273   2.236
 4430SOL    HW114189   1.851   0.174   2.250
 4430SOL    HW214190   1.789   0.322   2.285
 4431SOL     OW14191   1.792   1.869   2.687
 4431SOL    HW114192   1.838   1.781   2.670
 4431SOL    HW214193   1.814   1.932   2.612
 4432SOL     OW14194   3.662   4.157   4.545
 4432SOL    HW114195   3.697   4.234   4.598
 4432SOL    HW214196   3.712   4.074   4.570
 4433SOL     OW14197   6.521   0.100   1.687
 4433SOL    HW114198   6.571   0.018   1.660
 4433SOL    HW214199   6.585   0.177   1.697
 4434SOL     OW14200   5.714   2.081   5.932
 4434SOL    HW114201   5.627   2.103   5.889
 4434SOL    HW214202   5.742   1.988   5.906
 4435SOL     OW14203   3.549   2.916   2.021
 4435SOL    HW114204   3.483   2.972   2.073
 4435SOL    HW214205   3.502   2.871   1.945
 4436SOL     OW14206   5.798   6.704   0.396
 4436SOL    HW114207   5.709   6.695   0.442
 4436SOL    HW214208   5.833   6.797   0.409
 4437SOL     OW14209   2.947   6.684   5.597
 4437SOL    HW114210   2.876   6.693   5.666
 4437SOL    HW214211   2.944   6.762   5.535
 4438SOL     OW14212   3.630   2.749   6.708
 4438SOL    HW114213   3.550   2.690   6.695
 4438SOL    HW214214   3.703   2.721   6.646
 4439SOL     OW14215   1.484   5.029   3.238
 4439SOL    HW114216   1.548   5.009   3.312
 4439SOL    HW214217   1.480   4.951   3.175
 4440SOL     OW14218   6.425   0.969   0.226
 4440SOL    HW114219   6.499   1.035   0.212
 4440SOL    HW214220   6.342   1.017   0.252
 4441SOL     OW14221   6.222   0.875   3.920
 4441SOL    HW114222   6.274   0.867   4.005
 4441SOL    HW214223   6.241   0.963   3.877
 4442SOL     OW14224   2.147   5.921   2.403
 4442SOL    HW114225   2.190   5.859   2.336
 4442SOL    HW214226   2.048   5.911   2.398
 4443SOL     OW14227   1.852   0.966   1.414
 4443SOL    HW114228   1.836   0.880   1.366
 4443SOL    HW214229   1.945   0.967   1.451
 4444SOL     OW14230   4.866   1.785   2.956
 4444SOL    HW114231   4.854   1.705   2.897
 4444SOL    HW214232   4.918   1.855   2.907
 4445SOL     OW14233   1.061   2.206   6.242
 4445SOL    HW114234   1.040   2.303   6.227
 4445SOL    HW214235   1.147   2.183   6.197
 4446SOL     OW14236   6.898   4.854   4.446
 4446SOL    HW114237   6.881   4.926   4.379
 4446SOL    HW214238   6.813   4.806   4.466
 4447SOL     OW14239   4.932   3.667   4.810
 4447SOL    HW114240   4.903   3.626   4.897
 4447SOL    HW214241   4.859   3.659   4.743
 4448SOL     OW14242   2.801   3.579   6.641
 4448SOL    HW114243   2.819   3.521   6.562
 4448SOL    HW214244   2.702   3.583   6.657
 4449SOL     OW14245   6.874   1.602   5.682
 4449SOL    HW114246   6.785   1.568   5.714
 4449SOL    HW214247   6.931   1.525   5.656
 4450SOL     OW14248   3.907   3.262   3.215
 4450SOL    HW114249   3.820   3.293   3.177
 4450SOL    HW214250   3.979   3.271   3.145
 4451SOL     OW14251   0.673   5.166   1.350
 4451SOL    HW114252   0.678   5.245   1.410
 4451SOL    HW214253   0.721   5.185   1.264
 4452SOL     OW14254   0.741   3.826   6.763
 4452SOL    HW114255   0.687   3.844   6.681
 4452SOL    HW214256   0.836   3.810   6.737
 4453SOL     OW14257   5.652   0.523   1.048
 4453SOL    HW114258   5.687   0.570   0.967
 4453SOL    HW214259   5.722   0.460   1.082
 4454SOL     OW14260   6.156   3.365   1.837
 4454SOL    HW114261   6.131   3.419   1.918
 4454SOL    HW214262   6.187   3.427   1.765
 4455SOL     OW14263   4.744   2.793   2.404
 4455SOL    HW114264   4.695   2.726   2.348
 4455SOL    HW214265   4.706   2.793   2.496
 4456SOL     OW14266   0.069   5.861   2.453
 4456SOL    HW114267   0.007   5.921   2.403
 4456SOL    HW214268   0.157   5.856   2.405
 4457SOL     OW14269   4.981   2.351   6.235
 4457SOL    HW114270   4.999   2.449   6.226
 4457SOL    HW214271   5.039   2.300   6.170
 4458SOL     OW14272   4.689   1.802   1.251
 4458SOL    HW114273   4.619   1.849   1.197
 4458SOL    HW214274   4.647   1.760   1.331
 4459SOL     OW14275   6.151   5.396   5.959
 4459SOL    HW114276   6.240   5.438   5.976
 4459SOL    HW214277   6.102   5.449   5.889
 4460SOL     OW14278   1.898   0.533   0.437
 4460SOL    HW114279   1.965   0.461   0.455
 4460SOL    HW214280   1.837   0.541   0.516
 4461SOL     OW14281   2.009   0.619   3.149
 4461SOL    HW114282   1.925   0.580   3.185
 4461SOL    HW214283   2.063   0.546   3.105
 4462SOL     OW14284   0.180   3.220   1.168
 4462SOL    HW114285   0.200   3.317   1.181
 4462SOL    HW214286   0.127   3.187   1.247
 4463SOL     OW14287   1.005   4.147   6.711
 4463SOL    HW114288   0.934   4.217   6.722
 4463SOL    HW214289   1.023   4.104   6.800
 4464SOL     OW14290   6.651   2.838   0.291
 4464SOL    HW114291   6.630   2.794   0.203
 4464SOL    HW214292   6.586   2.913   0.306
 4465SOL     OW14293   5.731   5.180   1.135
 4465SOL    HW114294   5.830   5.164   1.134
 4465SOL    HW214295   5.706   5.240   1.059
 4466SOL     OW14296   6.523   3.197   4.080
 4466SOL    HW114297   6.608   3.176   4.032
 4466SOL    HW214298   6.520   3.147   4.167
 4467SOL     OW14299   1.179   0.475   4.294
 4467SOL    HW114300   1.091   0.506   4.257
 4467SOL    HW214301   1.162   0.416   4.373
 4468SOL     OW14302   1.084   0.907   0.495
 4468SOL    HW114303   1.052   0.903   0.400
 4468SOL    HW214304   1.178   0.874   0.499
 4469SOL     OW14305   4.695   6.597   0.279
 4469SOL    HW114306   4.783   6.608   0.324
 4469SOL    HW214307   4.704   6.617   0.182
 4470SOL     OW14308   4.803   4.405   1.353
 4470SOL    HW114309   4.835   4.486   1.403
 4470SOL    HW214310   4.712   4.423   1.317
 4471SOL     OW14311   5.945   2.422   1.806
 4471SOL    HW114312   6.032   2.386   1.771
 4471SOL    HW214313   5.963   2.480   1.885
 4472SOL     OW14314   2.337   5.602   1.500
 4472SOL    HW114315   2.285   5.591   1.416
 4472SOL    HW214316   2.362   5.512   1.537
 4473SOL     OW14317   5.702   0.736   0.394
 4473SOL    HW114318   5.616   0.698   0.362
 4473SOL    HW214319   5.691   0.770   0.487
 4474SOL     OW14320   6.447   1.272   5.534
 4474SOL    HW114321   6.469   1.368   5.515
 4474SOL    HW214322   6.454   1.219   5.449
 4475SOL     OW14323   1.643   3.442   0.341
 4475SOL    HW114324   1.587   3.428   0.260
 4475SOL    HW214325   1.587   3.432   0.423
 4476SOL     OW14326   3.926   6.833   2.574
 4476SOL    HW114327   4.017   6.792   2.575
 4476SOL    HW214328   3.931   6.927   2.606
 4477SOL     OW14329   1.887   2.078   0.970
 4477SOL    HW114330   1.830   2.070   0.887
 4477SOL    HW214331   1.836   2.043   1.048
 4478SOL     OW14332   0.894   4.711   1.177
 4478SOL    HW114333   0.863   4.642   1.242
 4478SOL    HW214334   0.940   4.666   1.100
 4479SOL     OW14335   1.389   5.692   6.154
 4479SOL    HW114336   1.464   5.695   6.088
 4479SOL    HW214337   1.315   5.751   6.123
 4480SOL     OW14338   6.713   3.518   2.873
 4480SOL    HW114339   6.717   3.420   2.854
 4480SOL    HW214340   6.649   3.535   2.948
 4481SOL     OW14341   0.911   0.539   4.176
 4481SOL    HW114342   0.842   0.549   4.248
 4481SOL    HW214343   0.866   0.529   4.088
 4482SOL     OW14344   0.223   4.419   3.426
 4482SOL    HW114345   0.255   4.504   3.467
 4482SOL    HW214346   0.302   4.366   3.395
 4483SOL     OW14347   5.944   4.211   1.176
 4483SOL    HW114348   5.913   4.249   1.088
 4483SOL    HW214349   6.020   4.266   1.211
 4484SOL     OW14350   3.074   4.112   6.382
 4484SOL    HW114351   3.035   4.123   6.473
 4484SOL    HW214352   3.003   4.082   6.318
 4485SOL     OW14353   4.559   0.112   5.680
 4485SOL    HW114354   4.465   0.140   5.697
 4485SOL    HW214355   4.620   0.190   5.691
 4486SOL     OW14356   6.056   3.257   4.320
 4486SOL    HW114357   6.040   3.356   4.323
 4486SOL    HW214358   6.143   3.236   4.364
 4487SOL     OW14359   3.369   2.664   5.991
 4487SOL    HW114360   3.465   2.654   5.962
 4487SOL    HW214361   3.358   2.749   6.042
 4488SOL     OW14362   0.128   2.233   6.686
 4488SOL    HW114363   0.124   2.332   6.704
 4488SOL    HW214364   0.220   2.199   6.707
 4489SOL     OW14365   0.132   1.520   3.435
 4489SOL    HW114366   0.147   1.446   3.370
 4489SOL    HW214367   0.109   1.604   3.385
 4490SOL     OW14368   6.948   2.516   3.826
 4490SOL    HW114369   6.928   2.530   3.730
 4490SOL    HW214370   6.972   2.603   3.869
 4491SOL     OW14371   2.127   4.757   2.361
 4491SOL    HW114372   2.101   4.684   2.298
 4491SOL    HW214373   2.147   4.840   2.310
 4492SOL     OW14374   5.555   3.626   5.619
 4492SOL    HW114375   5.458   3.650   5.624
 4492SOL    HW214376   5.582   3.618   5.523
 4493SOL     OW14377   5.888   4.894   3.384
 4493SOL    HW114378   5.915   4.855   3.472
 4493SOL    HW214379   5.803   4.850   3.353
 4494SOL     OW14380   5.260   3.041   1.873
 4494SOL    HW114381   5.164   3.045   1.899
 4494SOL    HW214382   5.315   3.015   1.953
 4495SOL     OW14383   5.632   4.946   2.479
 4495SOL    HW114384   5.704   4.914   2.416
 4495SOL    HW214385   5.578   5.017   2.434
 4496SOL     OW14386   5.812   3.375   6.224
 4496SOL    HW114387   5.859   3.432   6.156
 4496SOL    HW214388   5.818   3.420   6.314
 4497SOL     OW14389   6.599   6.748   0.875
 4497SOL    HW114390   6.647   6.671   0.833
 4497SOL    HW214391   6.551   6.716   0.957
 4498SOL     OW14392   1.211   4.305   6.116
 4498SOL    HW114393   1.257   4.244   6.052
 4498SOL    HW214394   1.118   4.322   6.085
 4499SOL     OW14395   5.837   3.993   0.632
 4499SOL    HW114396   5.814   4.082   0.592
 4499SOL    HW214397   5.788   3.921   0.583
 4500SOL     OW14398   3.362   3.999   1.882
 4500SOL    HW114399   3.312   3.916   1.858
 4500SOL    HW214400   3.308   4.053   1.947
 4501SOL     OW14401   1.592   5.499   5.004
 4501SOL    HW114402   1.579   5.584   5.055
 4501SOL    HW214403   1.505   5.451   4.995
 4502SOL     OW14404   5.692   2.668   0.352
 4502SOL    HW114405   5.595   2.684   0.333
 4502SOL    HW214406   5.742   2.662   0.266
 4503SOL     OW14407   1.081   3.742   2.719
 4503SOL    HW114408   1.130   3.671   2.769
 4503SOL    HW214409   0.984   3.717   2.713
 4504SOL     OW14410   4.069   1.839   4.220
 4504SOL    HW114411   4.039   1.842   4.125
 4504SOL    HW214412   4.064   1.930   4.260
 4505SOL     OW14413   2.299   5.511   0.223
 4505SOL    HW114414   2.299   5.548   0.316
 4505SOL    HW214415   2.394   5.494   0.194
 4506SOL     OW14416   3.478   6.487   5.997
 4506SOL    HW114417   3.467   6.427   6.077
 4506SOL    HW214418   3.483   6.432   5.914
 4507SOL     OW14419   6.165   3.801   2.694
 4507SOL    HW114420   6.231   3.772   2.625
 4507SOL    HW214421   6.074   3.769   2.668
 4508SOL     OW14422   1.803   4.167   1.448
 4508SOL    HW114423   1.841   4.254   1.479
 4508SOL    HW214424   1.841   4.093   1.502
 4509SOL     OW14425   0.903   2.955   3.851
 4509SOL    HW114426   0.883   2.971   3.948
 4509SOL    HW214427   0.868   3.032   3.797
 4510SOL     OW14428   2.765   0.058   6.367
 4510SOL    HW114429   2.699   0.047   6.293
 4510SOL    HW214430   2.831   0.129   6.342
 4511SOL     OW14431   0.646   2.698   6.916
 4511SOL    HW114432   0.598   2.730   6.997
 4511SOL    HW214433   0.717   2.633   6.942
 4512SOL     OW14434   2.267   3.791   0.377
 4512SOL    HW114435   2.322   3.856   0.324
 4512SOL    HW214436   2.255   3.706   0.324
 4513SOL     OW14437   6.256   1.572   2.536
 4513SOL    HW114438   6.159   1.593   2.545
 4513SOL    HW214439   6.288   1.602   2.446
 4514SOL     OW14440   2.000   0.535   4.556
 4514SOL    HW114441   2.042   0.448   4.532
 4514SOL    HW214442   1.969   0.581   4.473
 4515SOL     OW14443   0.112   4.860   0.526
 4515SOL    HW114444   0.090   4.898   0.616
 4515SOL    HW214445   0.204   4.888   0.499
 4516SOL     OW14446   0.485   6.997   3.728
 4516SOL    HW114447   0.556   6.959   3.669
 4516SOL    HW214448   0.395   6.981   3.688
 4517SOL     OW14449   2.861   0.736   0.301
 4517SOL    HW114450   2.781   0.723   0.243
 4517SOL    HW214451   2.874   0.834   0.319
 4518SOL     OW14452   1.141   0.776   3.613
 4518SOL    HW114453   1.222   0.804   3.664
 4518SOL    HW214454   1.136   0.676   3.610
 4519SOL     OW14455   6.771   2.157   4.238
 4519SOL    HW114456   6.804   2.068   4.267
 4519SOL    HW214457   6.839   2.202   4.180
 4520SOL     OW14458   0.099   3.673   2.808
 4520SOL    HW114459   0.093   3.619   2.892
 4520SOL    HW214460   0.011   3.716   2.790
 4521SOL     OW14461   5.414   1.534   6.266
 4521SOL    HW114462   5.487   1.571   6.210
 4521SOL    HW214463   5.370   1.607   6.318
 4522SOL     OW14464   5.387   6.714   3.625
 4522SOL    HW114465   5.457   6.716   3.696
 4522SOL    HW214466   5.373   6.807   3.589
 4523SOL     OW14467   4.783   2.084   5.588
 4523SOL    HW114468   4.742   2.054   5.675
 4523SOL    HW214469   4.770   2.013   5.519
 4524SOL     OW14470   5.812   1.700   5.603
 4524SOL    HW114471   5.718   1.668   5.617
 4524SOL    HW214472   5.876   1.624   5.620
 4525SOL     OW14473   0.015   0.995   4.062
 4525SOL    HW114474   0.029   0.951   3.973
 4525SOL    HW214475   0.033   0.928   4.135
 4526SOL     OW14476   2.565   1.651   1.172
 4526SOL    HW114477   2.598   1.558   1.160
 4526SOL    HW214478   2.585   1.705   1.090
 4527SOL     OW14479   4.538   6.835   3.315
 4527SOL    HW114480   4.543   6.762   3.247
 4527SOL    HW214481   4.569   6.800   3.403
 4528SOL     OW14482   4.575   0.442   6.390
 4528SOL    HW114483   4.665   0.449   6.434
 4528SOL    HW214484   4.513   0.510   6.429
 4529SOL     OW14485   3.192   0.196   4.293
 4529SOL    HW114486   3.205   0.208   4.391
 4529SOL    HW214487   3.161   0.103   4.274
 4530SOL     OW14488   6.401   2.532   3.952
 4530SOL    HW114489   6.487   2.484   3.974
 4530SOL    HW214490   6.327   2.494   4.008
 4531SOL     OW14491   0.145   3.894   4.037
 4531SOL    HW114492   0.223   3.944   4.000
 4531SOL    HW214493   0.146   3.901   4.137
 4532SOL     OW14494   0.472   2.420   0.495
 4532SOL    HW114495   0.415   2.452   0.571
 4532SOL    HW214496   0.422   2.432   0.409
 4533SOL     OW14497   3.639   6.245   2.229
 4533SOL    HW114498   3.665   6.296   2.147
 4533SOL    HW214499   3.631   6.309   2.306
 4534SOL     OW14500   6.766   4.133   6.209
 4534SOL    HW114501   6.734   4.076   6.284
 4534SOL    HW214502   6.699   4.206   6.191
 4535SOL     OW14503   4.780   1.881   2.642
 4535SOL    HW114504   4.843   1.941   2.692
 4535SOL    HW214505   4.700   1.934   2.612
 4536SOL     OW14506   6.846   0.081   3.627
 4536SOL    HW114507   6.891   7.012   3.645
 4536SOL    HW214508   6.781   0.100   3.701
 4537SOL     OW14509   5.214   3.092   5.642
 4537SOL    HW114510   5.192   3.045   5.556
 4537SOL    HW214511   5.134   3.146   5.671
 4538SOL     OW14512   3.685   2.105   1.673
 4538SOL    HW114513   3.673   2.169   1.749
 4538SOL    HW214514   3.746   2.145   1.605
 4539SOL     OW14515   2.523   3.616   1.196
 4539SOL    HW114516   2.614   3.656   1.212
 4539SOL    HW214517   2.524   3.567   1.109
 4540SOL     OW14518   3.384   3.066   4.427
 4540SOL    HW114519   3.481   3.045   4.441
 4540SOL    HW214520   3.357   3.138   4.492
 4541SOL     OW14521   6.176   0.721   1.690
 4541SOL    HW114522   6.224   0.634   1.683
 4541SOL    HW214523   6.120   0.722   1.773
 4542SOL     OW14524   5.330   6.648   3.370
 4542SOL    HW114525   5.355   6.683   3.460
 4542SOL    HW214526   5.396   6.679   3.302
 4543SOL     OW14527   5.114   2.293   2.617
 4543SOL    HW114528   5.182   2.340   2.673
 4543SOL    HW214529   5.135   2.195   2.614
 4544SOL     OW14530   5.582   4.794   6.880
 4544SOL    HW114531   5.610   4.719   6.819
 4544SOL    HW214532   5.591   4.765   6.975
 4545SOL     OW14533   4.520   3.333   0.419
 4545SOL    HW114534   4.564   3.270   0.483
 4545SOL    HW214535   4.421   3.318   0.420
 4546SOL     OW14536   0.796   5.776   0.507
 4546SOL    HW114537   0.749   5.863   0.526
 4546SOL    HW214538   0.893   5.785   0.531
 4547SOL     OW14539   4.593   1.498   2.460
 4547SOL    HW114540   4.502   1.463   2.483
 4547SOL    HW214541   4.584   1.570   2.391
 4548SOL     OW14542   0.894   3.127   4.779
 4548SOL    HW114543   0.844   3.041   4.786
 4548SOL    HW214544   0.929   3.152   4.869
 4549SOL     OW14545   6.038   1.295   2.474
 4549SOL    HW114546   5.976   1.223   2.442
 4549SOL    HW214547   6.097   1.260   2.546
 4550SOL     OW14548   2.120   5.296   5.269
 4550SOL    HW114549   2.195   5.327   5.210
 4550SOL    HW214550   2.159   5.254   5.351
 4551SOL     OW14551   6.294   3.645   0.698
 4551SOL    HW114552   6.200   3.645   0.663
 4551SOL    HW214553   6.322   3.552   0.721
 4552SOL     OW14554   0.121   3.546   5.108
 4552SOL    HW114555   0.155   3.636   5.139
 4552SOL    HW214556   0.174   3.516   5.030
 4553SOL     OW14557   5.286   5.171   6.923
 4553SOL    HW114558   5.382   5.184   6.949
 4553SOL    HW214559   5.280   5.159   6.824
 4554SOL     OW14560   6.654   6.318   4.395
 4554SOL    HW114561   6.676   6.221   4.390
 4554SOL    HW214562   6.564   6.334   4.353
 4555SOL     OW14563   3.793   2.854   0.348
 4555SOL    HW114564   3.886   2.821   0.336
 4555SOL    HW214565   3.794   2.951   0.371
 4556SOL     OW14566   3.993   0.257   4.916
 4556SOL    HW114567   4.092   0.265   4.904
 4556SOL    HW214568   3.956   0.341   4.954
 4557SOL     OW14569   5.245   0.996   4.003
 4557SOL    HW114570   5.199   1.079   4.035
 4557SOL    HW214571   5.215   0.975   3.910
 4558SOL     OW14572   0.428   3.292   6.726
 4558SOL    HW114573   0.340   3.247   6.735
 4558SOL    HW214574   0.453   3.335   6.812
 4559SOL     OW14575   1.676   6.622   1.377
 4559SOL    HW114576   1.589   6.606   1.423
 4559SOL    HW214577   1.751   6.594   1.437
 4560SOL     OW14578   6.053   2.480   3.504
 4560SOL    HW114579   6.023   2.387   3.479
 4560SOL    HW214580   5.990   2.547   3.464
 4561SOL     OW14581   2.687   6.093   6.561
 4561SOL    HW114582   2.640   6.177   6.531
 4561SOL    HW214583   2.709   6.038   6.480
 4562SOL     OW14584   3.307   3.892   5.701
 4562SOL    HW114585   3.300   3.924   5.607
 4562SOL    HW214586   3.281   3.965   5.764
 4563SOL     OW14587   5.627   3.115   6.614
 4563SOL    HW114588   5.541   3.108   6.665
 4563SOL    HW214589   5.682   3.032   6.631
 4564SOL     OW14590   6.725   5.137   0.223
 4564SOL    HW114591   6.627   5.133   0.241
 4564SOL    HW214592   6.775   5.092   0.297
 4565SOL     OW14593   3.489   0.880   4.298
 4565SOL    HW114594   3.518   0.793   4.337
 4565SOL    HW214595   3.407   0.913   4.347
 4566SOL     OW14596   1.944   0.423   1.052
 4566SOL    HW114597   1.859   0.401   1.100
 4566SOL    HW214598   2.019   0.371   1.094
 4567SOL     OW14599   5.578   2.549   0.706
 4567SOL    HW114600   5.527   2.566   0.622
 4567SOL    HW214601   5.514   2.522   0.778
 4568SOL     OW14602   4.544   4.383   3.922
 4568SOL    HW114603   4.494   4.329   3.990
 4568SOL    HW214604   4.479   4.439   3.870
 4569SOL     OW14605   1.868   1.856   4.023
 4569SOL    HW114606   1.962   1.844   4.053
 4569SOL    HW214607   1.858   1.943   3.976
 4570SOL     OW14608   5.505   5.638   4.923
 4570SOL    HW114609   5.437   5.654   4.995
 4570SOL    HW214610   5.459   5.625   4.835
 4571SOL     OW14611   3.645   2.857   3.776
 4571SOL    HW114612   3.698   2.902   3.705
 4571SOL    HW214613   3.597   2.778   3.738
 4572SOL     OW14614   2.685   5.565   1.229
 4572SOL    HW114615   2.603   5.513   1.208
 4572SOL    HW214616   2.694   5.640   1.163
 4573SOL     OW14617   5.147   0.040   1.338
 4573SOL    HW114618   5.160   6.962   1.360
 4573SOL    HW214619   5.050   0.057   1.319
 4574SOL     OW14620   6.829   4.963   2.009
 4574SOL    HW114621   6.914   4.932   1.965
 4574SOL    HW214622   6.848   4.989   2.104
 4575SOL     OW14623   6.692   5.797   1.592
 4575SOL    HW114624   6.691   5.716   1.534
 4575SOL    HW214625   6.669   5.772   1.686
 4576SOL     OW14626   3.311   6.311   4.107
 4576SOL    HW114627   3.348   6.401   4.084
 4576SOL    HW214628   3.291   6.307   4.205
 4577SOL     OW14629   2.453   4.426   3.566
 4577SOL    HW114630   2.441   4.363   3.643
 4577SOL    HW214631   2.492   4.512   3.599
 4578SOL     OW14632   6.061   6.319   3.427
 4578SOL    HW114633   6.041   6.417   3.435
 4578SOL    HW214634   6.000   6.278   3.359
 4579SOL     OW14635   4.352   1.753   3.261
 4579SOL    HW114636   4.331   1.848   3.286
 4579SOL    HW214637   4.332   1.739   3.164
 4580SOL     OW14638   0.481   5.092   7.006
 4580SOL    HW114639   0.561   5.106   0.045
 4580SOL    HW214640   0.497   5.015   6.944
 4581SOL     OW14641   3.530   5.689   4.640
 4581SOL    HW114642   3.477   5.616   4.596
 4581SOL    HW214643   3.494   5.778   4.612
 4582SOL     OW14644   4.776   6.507   3.219
 4582SOL    HW114645   4.830   6.485   3.138
 4582SOL    HW214646   4.691   6.553   3.190
 4583SOL     OW14647   3.600   6.814   5.419
 4583SOL    HW114648   3.574   6.780   5.329
 4583SOL    HW214649   3.541   6.890   5.445
 4584SOL     OW14650   6.769   5.263   5.846
 4584SOL    HW114651   6.673   5.243   5.826
 4584SOL    HW214652   6.809   5.188   5.898
 4585SOL     OW14653   2.924   6.723   2.311
 4585SOL    HW114654   3.003   6.661   2.312
 4585SOL    HW214655   2.919   6.771   2.398
 4586SOL     OW14656   2.255   6.173   1.592
 4586SOL    HW114657   2.254   6.073   1.594
 4586SOL    HW214658   2.249   6.205   1.497
 4587SOL     OW14659   3.122   5.126   1.043
 4587SOL    HW114660   3.101   5.141   1.139
 4587SOL    HW214661   3.217   5.097   1.034
 4588SOL     OW14662   3.453   4.080   4.871
 4588SOL    HW114663   3.426   4.101   4.777
 4588SOL    HW214664   3.552   4.090   4.881
 4589SOL     OW14665   2.164   2.068   3.262
 4589SOL    HW114666   2.096   2.078   3.335
 4589SOL    HW214667   2.254   2.095   3.296
 4590SOL     OW14668   4.167   6.247   2.863
 4590SOL    HW114669   4.176   6.155   2.901
 4590SOL    HW214670   4.247   6.302   2.889
 4591SOL     OW14671   4.418   6.220   4.762
 4591SOL    HW114672   4.362   6.259   4.836
 4591SOL    HW214673   4.410   6.120   4.764
 4592SOL     OW14674   3.408   2.126   5.564
 4592SOL    HW114675   3.453   2.183   5.632
 4592SOL    HW214676   3.374   2.183   5.489
 4593SOL     OW14677   4.455   5.690   1.735
 4593SOL    HW114678   4.396   5.762   1.698
 4593SOL    HW214679   4.400   5.627   1.790
 4594SOL     OW14680   3.776   2.088   2.255
 4594SOL    HW114681   3.704   2.038   2.303
 4594SOL    HW214682   3.735   2.142   2.181
 4595SOL     OW14683   4.415   3.313   5.769
 4595SOL    HW114684   4.401   3.411   5.754
 4595SOL    HW214685   4.499   3.299   5.822
 4596SOL     OW14686   4.937   0.822   2.550
 4596SOL    HW114687   5.016   0.873   2.517
 4596SOL    HW214688   4.894   0.774   2.473
 4597SOL     OW14689   6.891   3.687   6.509
 4597SOL    HW114690   6.890   3.704   6.410
 4597SOL    HW214691   6.814   3.628   6.533
 4598SOL     OW14692   2.726   3.991   6.669
 4598SOL    HW114693   2.656   3.941   6.722
 4598SOL    HW214694   2.683   4.031   6.588
 4599SOL     OW14695   3.267   4.808   0.395
 4599SOL    HW114696   3.229   4.810   0.302
 4599SOL    HW214697   3.366   4.793   0.390
 4600SOL     OW14698   2.476   3.767   0.775
 4600SOL    HW114699   2.377   3.766   0.787
 4600SOL    HW214700   2.517   3.829   0.842
 4601SOL     OW14701   1.993   5.327   3.228
 4601SOL    HW114702   2.052   5.250   3.253
 4601SOL    HW214703   1.897   5.297   3.227
 4602SOL     OW14704   1.494   0.084   1.748
 4602SOL    HW114705   1.409   0.053   1.704
 4602SOL    HW214706   1.501   0.184   1.740
 4603SOL     OW14707   2.990   1.739   1.662
 4603SOL    HW114708   3.006   1.645   1.631
 4603SOL    HW214709   3.044   1.757   1.744
 4604SOL     OW14710   1.483   6.981   3.195
 4604SOL    HW114711   1.477   7.001   3.293
 4604SOL    HW214712   1.456   0.043   3.143
 4605SOL     OW14713   5.335   6.583   5.618
 4605SOL    HW114714   5.239   6.611   5.612
 4605SOL    HW214715   5.340   6.483   5.616
 4606SOL     OW14716   5.824   6.299   4.552
 4606SOL    HW114717   5.900   6.297   4.488
 4606SOL    HW214718   5.757   6.230   4.527
 4607SOL     OW14719   3.136   3.171   0.812
 4607SOL    HW114720   3.048   3.175   0.859
 4607SOL    HW214721   3.179   3.082   0.829
 4608SOL     OW14722   1.500   2.967   6.077
 4608SOL    HW114723   1.545   3.001   6.159
 4608SOL    HW214724   1.534   2.876   6.055
 4609SOL     OW14725   3.196   0.250   0.512
 4609SOL    HW114726   3.198   0.243   0.412
 4609SOL    HW214727   3.270   0.310   0.542
 4610SOL     OW14728   6.676   3.761   0.521
 4610SOL    HW114729   6.742   3.821   0.475
 4610SOL    HW214730   6.659   3.681   0.465
 4611SOL     OW14731   1.639   4.963   6.552
 4611SOL    HW114732   1.734   4.993   6.541
 4611SOL    HW214733   1.634   4.897   6.627
 4612SOL     OW14734   1.464   0.675   6.377
 4612SOL    HW114735   1.521   0.731   6.439
 4612SOL    HW214736   1.372   0.668   6.415
 4613SOL     OW14737   3.861   4.913   1.691
 4613SOL    HW114738   3.764   4.894   1.704
 4613SOL    HW214739   3.875   5.012   1.685
 4614SOL     OW14740   1.977   4.592   0.527
 4614SOL    HW114741   1.887   4.607   0.567
 4614SOL    HW214742   2.028   4.526   0.582
 4615SOL     OW14743   5.775   3.327   6.500
 4615SOL    HW114744   5.841   3.368   6.562
 4615SOL    HW214745   5.745   3.239   6.537
 4616SOL     OW14746   5.320   0.732   6.542
 4616SOL    HW114747   5.266   0.654   6.510
 4616SOL    HW214748   5.265   0.815   6.539
 4617SOL     OW14749   0.611   4.287   1.500
 4617SOL    HW114750   0.700   4.255   1.466
 4617SOL    HW214751   0.550   4.209   1.512
 4618SOL     OW14752   1.294   3.119   6.178
 4618SOL    HW114753   1.303   3.085   6.271
 4618SOL    HW214754   1.336   3.054   6.114
 4619SOL     OW14755   3.887   1.099   3.931
 4619SOL    HW114756   3.910   1.004   3.954
 4619SOL    HW214757   3.890   1.110   3.831
 4620SOL     OW14758   2.066   6.028   0.227
 4620SOL    HW114759   2.087   5.940   0.184
 4620SOL    HW214760   2.086   6.023   0.325
 4621SOL     OW14761   6.583   0.878   6.805
 4621SOL    HW114762   6.508   0.864   6.870
 4621SOL    HW214763   6.633   0.792   6.793
 4622SOL     OW14764   1.572   4.607   0.451
 4622SOL    HW114765   1.603   4.622   0.357
 4622SOL    HW214766   1.616   4.674   0.511
 4623SOL     OW14767   5.810   3.282   3.641
 4623SOL    HW114768   5.741   3.259   3.709
 4623SOL    HW214769   5.768   3.287   3.550
 4624SOL     OW14770   4.318   6.448   5.529
 4624SOL    HW114771   4.318   6.546   5.545
 4624SOL    HW214772   4.338   6.400   5.615
 4625SOL     OW14773   1.067   4.255   6.343
 4625SOL    HW114774   1.152   4.260   6.290
 4625SOL    HW214775   1.042   4.159   6.356
 4626SOL     OW14776   6.716   4.375   2.179
 4626SOL    HW114777   6.694   4.353   2.274
 4626SOL    HW214778   6.642   4.430   2.140
 4627SOL     OW14779   2.070   6.932   4.491
 4627SOL    HW114780   2.153   6.939   4.435
 4627SOL    HW214781   2.057   6.837   4.519
 4628SOL     OW14782   6.478   2.418   1.855
 4628SOL    HW114783   6.532   2.384   1.932
 4628SOL    HW214784   6.526   2.399   1.770
 4629SOL     OW14785   4.536   4.985   3.738
 4629SOL    HW114786   4.544   4.951   3.831
 4629SOL    HW214787   4.441   4.981   3.709
 4630SOL     OW14788   2.672   6.223   2.758
 4630SOL    HW114789   2.611   6.152   2.722
 4630SOL    HW214790   2.682   6.211   2.857
 4631SOL     OW14791   1.769   0.779   2.543
 4631SOL    HW114792   1.846   0.762   2.604
 4631SOL    HW214793   1.783   0.728   2.458
 4632SOL     OW14794   5.819   6.447   4.257
 4632SOL    HW114795   5.875   6.369   4.285
 4632SOL    HW214796   5.786   6.433   4.164
 4633SOL     OW14797   4.818   2.981   6.387
 4633SOL    HW114798   4.855   3.001   6.478
 4633SOL    HW214799   4.884   3.010   6.317
 4634SOL     OW14800   2.688   3.879   0.625
 4634SOL    HW114801   2.604   3.852   0.671
 4634SOL    HW214802   2.666   3.932   0.543
 4635SOL     OW14803   4.842   3.342   1.692
 4635SOL    HW114804   4.840   3.245   1.716
 4635SOL    HW214805   4.901   3.355   1.612
 4636SOL     OW14806   1.138   4.942   2.213
 4636SOL    HW114807   1.082   4.977   2.138
 4636SOL    HW214808   1.084   4.940   2.297
 4637SOL     OW14809   0.665   0.828   5.606
 4637SOL    HW114810   0.755   0.860   5.635
 4637SOL    HW214811   0.673   0.734   5.572
 4638SOL     OW14812   4.456   4.748   5.814
 4638SOL    HW114813   4.463   4.705   5.724
 4638SOL    HW214814   4.419   4.682   5.880
 4639SOL     OW14815   6.528   2.141   5.416
 4639SOL    HW114816   6.561   2.118   5.325
 4639SOL    HW214817   6.495   2.235   5.417
 4640SOL     OW14818   6.953   5.426   3.038
 4640SOL    HW114819   0.019   5.474   3.062
 4640SOL    HW214820   6.938   5.351   3.103
 4641SOL     OW14821   2.478   3.737   5.312
 4641SOL    HW114822   2.408   3.666   5.322
 4641SOL    HW214823   2.440   3.813   5.259
 4642SOL     OW14824   5.877   5.587   4.691
 4642SOL    HW114825   5.857   5.630   4.603
 4642SOL    HW214826   5.801   5.529   4.719
 4643SOL     OW14827   4.662   3.810   1.330
 4643SOL    HW114828   4.718   3.853   1.401
 4643SOL    HW214829   4.572   3.787   1.368
 4644SOL     OW14830   3.434   4.880   5.436
 4644SOL    HW114831   3.468   4.889   5.530
 4644SOL    HW214832   3.334   4.879   5.438
 4645SOL     OW14833   1.778   6.312   4.589
 4645SOL    HW114834   1.714   6.256   4.642
 4645SOL    HW214835   1.777   6.282   4.493
 4646SOL     OW14836   3.580   1.337   1.107
 4646SOL    HW114837   3.676   1.311   1.118
 4646SOL    HW214838   3.575   1.433   1.080
 4647SOL     OW14839   6.349   0.570   5.436
 4647SOL    HW114840   6.308   0.633   5.502
 4647SOL    HW214841   6.447   0.586   5.431
 4648SOL     OW14842   2.337   6.273   3.428
 4648SOL    HW114843   2.348   6.224   3.341
 4648SOL    HW214844   2.365   6.368   3.417
 4649SOL     OW14845   5.829   5.408   5.588
 4649SOL    HW114846   5.849   5.463   5.507
 4649SOL    HW214847   5.825   5.311   5.563
 4650SOL     OW14848   6.238   4.872   1.436
 4650SOL    HW114849   6.251   4.882   1.535
 4650SOL    HW214850   6.249   4.961   1.392
 4651SOL     OW14851   5.829   1.816   1.757
 4651SOL    HW114852   5.792   1.758   1.684
 4651SOL    HW214853   5.782   1.794   1.843
 4652SOL     OW14854   0.216   6.345   5.702
 4652SOL    HW114855   0.155   6.421   5.724
 4652SOL    HW214856   0.217   6.330   5.603
 4653SOL     OW14857   1.706   4.903   0.174
 4653SOL    HW114858   1.695   4.810   0.206
 4653SOL    HW214859   1.691   4.906   0.075
 4654SOL     OW14860   1.877   1.849   0.706
 4654SOL    HW114861   1.894   1.781   0.636
 4654SOL    HW214862   1.923   1.822   0.791
 4655SOL     OW14863   0.640   5.213   4.438
 4655SOL    HW114864   0.540   5.215   4.430
 4655SOL    HW214865   0.680   5.273   4.369
 4656SOL     OW14866   2.803   0.641   2.774
 4656SOL    HW114867   2.771   0.550   2.799
 4656SOL    HW214868   2.815   0.696   2.857
 4657SOL     OW14869   6.777   0.735   5.832
 4657SOL    HW114870   6.761   0.667   5.903
 4657SOL    HW214871   6.751   0.697   5.743
 4658SOL     OW14872   5.461   0.124   4.068
 4658SOL    HW114873   5.554   0.116   4.103
 4658SOL    HW214874   5.434   0.221   4.066
 4659SOL     OW14875   2.105   3.229   4.065
 4659SOL    HW114876   2.078   3.167   3.991
 4659SOL    HW214877   2.133   3.175   4.145
 4660SOL     OW14878   6.382   1.156   4.973
 4660SOL    HW114879   6.469   1.206   4.980
 4660SOL    HW214880   6.376   1.114   4.882
 4661SOL     OW14881   3.303   3.216   3.710
 4661SOL    HW114882   3.297   3.254   3.802
 4661SOL    HW214883   3.368   3.270   3.656
 4662SOL     OW14884   6.040   6.553   4.729
 4662SOL    HW114885   6.124   6.605   4.715
 4662SOL    HW214886   6.031   6.530   4.826
 4663SOL     OW14887   0.482   2.034   2.347
 4663SOL    HW114888   0.442   1.952   2.388
 4663SOL    HW214889   0.581   2.033   2.362
 4664SOL     OW14890   3.537   4.747   0.046
 4664SOL    HW114891   3.533   4.731   0.144
 4664SOL    HW214892   3.512   4.664   7.016
 4665SOL     OW14893   5.775   0.743   5.932
 4665SOL    HW114894   5.874   0.729   5.927
 4665SOL    HW214895   5.749   0.764   6.026
 4666SOL     OW14896   1.866   1.081   0.533
 4666SOL    HW114897   1.863   1.169   0.487
 4666SOL    HW214898   1.958   1.042   0.526
 4667SOL     OW14899   0.387   6.310   4.198
 4667SOL    HW114900   0.358   6.380   4.263
 4667SOL    HW214901   0.307   6.265   4.158
 4668SOL     OW14902   5.922   1.316   5.219
 4668SOL    HW114903   5.899   1.308   5.122
 4668SOL    HW214904   6.017   1.289   5.232
 4669SOL     OW14905   2.280   2.046   2.350
 4669SOL    HW114906   2.231   2.108   2.411
 4669SOL    HW214907   2.347   2.096   2.297
 4670SOL     OW14908   2.723   1.985   4.528
 4670SOL    HW114909   2.822   1.967   4.532
 4670SOL    HW214910   2.675   1.901   4.502
 4671SOL     OW14911   5.884   2.100   2.453
 4671SOL    HW114912   5.961   2.159   2.429
 4671SOL    HW214913   5.831   2.144   2.526
 4672SOL     OW14914   2.873   2.232   5.200
 4672SOL    HW114915   2.791   2.270   5.155
 4672SOL    HW214916   2.954   2.257   5.147
 4673SOL     OW14917   5.335   0.385   2.270
 4673SOL    HW114918   5.322   0.326   2.190
 4673SOL    HW214919   5.409   0.450   2.250
 4674SOL     OW14920   4.461   6.671   5.620
 4674SOL    HW114921   4.526   6.709   5.554
 4674SOL    HW214922   4.395   6.741   5.645
 4675SOL     OW14923   0.842   4.059   6.042
 4675SOL    HW114924   0.802   4.092   6.127
 4675SOL    HW214925   0.857   3.960   6.049
 4676SOL     OW14926   1.185   4.775   3.698
 4676SOL    HW114927   1.131   4.727   3.628
 4676SOL    HW214928   1.244   4.710   3.744
 4677SOL     OW14929   0.899   3.589   0.779
 4677SOL    HW114930   0.930   3.682   0.761
 4677SOL    HW214931   0.847   3.555   0.700
 4678SOL     OW14932   1.507   2.161   1.292
 4678SOL    HW114933   1.425   2.120   1.333
 4678SOL    HW214934   1.499   2.261   1.296
 4679SOL     OW14935   4.669   0.377   2.252
 4679SOL    HW114936   4.580   0.357   2.293
 4679SOL    HW214937   4.729   0.298   2.262
 4680SOL     OW14938   2.670   1.114   6.800
 4680SOL    HW114939   2.679   1.022   6.763
 4680SOL    HW214940   2.755   1.164   6.785
 4681SOL     OW14941   4.867   5.561   2.164
 4681SOL    HW114942   4.951   5.540   2.214
 4681SOL    HW214943   4.884   5.638   2.102
 4682SOL     OW14944   3.598   3.067   6.212
 4682SOL    HW114945   3.642   3.101   6.129
 4682SOL    HW214946   3.601   3.139   6.283
 4683SOL     OW14947   6.885   3.890   4.356
 4683SOL    HW114948   6.971   3.839   4.356
 4683SOL    HW214949   6.904   3.987   4.346
 4684SOL     OW14950   5.369   0.351   5.576
 4684SOL    HW114951   5.334   0.300   5.497
 4684SOL    HW214952   5.454   0.398   5.550
 4685SOL     OW14953   3.368   4.103   4.087
 4685SOL    HW114954   3.431   4.077   4.160
 4685SOL    HW214955   3.276   4.068   4.109
 4686SOL     OW14956   1.464   0.042   6.429
 4686SOL    HW114957   1.382   0.099   6.417
 4686SOL    HW214958   1.545   0.098   6.417
 4687SOL     OW14959   1.163   0.338   2.578
 4687SOL    HW114960   1.101   0.353   2.501
 4687SOL    HW214961   1.112   0.299   2.655
 4688SOL     OW14962   5.198   2.649   4.766
 4688SOL    HW114963   5.132   2.716   4.734
 4688SOL    HW214964   5.203   2.651   4.866
 4689SOL     OW14965   6.932   0.907   1.215
 4689SOL    HW114966   0.008   0.899   1.186
 4689SOL    HW214967   6.871   0.889   1.138
 4690SOL     OW14968   3.677   2.360   1.346
 4690SOL    HW114969   3.663   2.432   1.414
 4690SOL    HW214970   3.753   2.301   1.375
 4691SOL     OW14971   6.499   3.345   2.028
 4691SOL    HW114972   6.425   3.279   2.046
 4691SOL    HW214973   6.503   3.411   2.103
 4692SOL     OW14974   5.908   2.740   3.152
 4692SOL    HW114975   5.831   2.676   3.160
 4692SOL    HW214976   5.906   2.803   3.230
 4693SOL     OW14977   6.770   0.369   4.154
 4693SOL    HW114978   6.822   0.284   4.158
 4693SOL    HW214979   6.800   0.429   4.229
 4694SOL     OW14980   2.026   6.644   5.675
 4694SOL    HW114981   1.964   6.567   5.688
 4694SOL    HW214982   2.037   6.693   5.761
 4695SOL     OW14983   2.097   4.967   2.038
 4695SOL    HW114984   2.196   4.975   2.051
 4695SOL    HW214985   2.078   4.943   1.943
 4696SOL     OW14986   2.031   6.231   6.156
 4696SOL    HW114987   2.032   6.194   6.063
 4696SOL    HW214988   2.065   6.326   6.154
 4697SOL     OW14989   4.226   5.764   1.450
 4697SOL    HW114990   4.194   5.858   1.441
 4697SOL    HW214991   4.160   5.701   1.410
 4698SOL     OW14992   5.403   1.597   4.766
 4698SOL    HW114993   5.388   1.507   4.808
 4698SOL    HW214994   5.342   1.607   4.687
 4699SOL     OW14995   0.839   1.550   2.562
 4699SOL    HW114996   0.906   1.478   2.578
 4699SOL    HW214997   0.749   1.509   2.547
 4700SOL     OW14998   6.698   2.049   3.680
 4700SOL    HW114999   6.705   2.056   3.580
 4700SOL    HW215000   6.727   2.135   3.722
 4701SOL     OW15001   2.967   2.601   1.715
 4701SOL    HW115002   2.991   2.525   1.775
 4701SOL    HW215003   2.869   2.601   1.698
 4702SOL     OW15004   6.023   5.118   1.149
 4702SOL    HW115005   6.065   5.209   1.149
 4702SOL    HW215006   6.089   5.051   1.114
 4703SOL     OW15007   6.978   4.752   4.163
 4703SOL    HW115008   0.025   4.707   4.222
 4703SOL    HW215009   6.915   4.684   4.126
 4704SOL     OW15010   1.547   5.179   4.555
 4704SOL    HW115011   1.546   5.235   4.472
 4704SOL    HW215012   1.641   5.148   4.572
 4705SOL     OW15013   2.964   2.132   1.296
 4705SOL    HW115014   2.930   2.188   1.221
 4705SOL    HW215015   3.046   2.082   1.266
 4706SOL     OW15016   1.853   1.713   1.123
 4706SOL    HW115017   1.832   1.738   1.217
 4706SOL    HW215018   1.834   1.616   1.109
 4707SOL     OW15019   1.969   5.539   2.399
 4707SOL    HW115020   2.029   5.618   2.393
 4707SOL    HW215021   1.882   5.559   2.353
 4708SOL     OW15022   2.014   2.825   6.683
 4708SOL    HW115023   2.083   2.822   6.755
 4708SOL    HW215024   1.924   2.840   6.723
 4709SOL     OW15025   5.808   3.465   4.968
 4709SOL    HW115026   5.727   3.451   4.911
 4709SOL    HW215027   5.833   3.562   4.966
 4710SOL     OW15028   6.252   4.972   5.276
 4710SOL    HW115029   6.289   5.028   5.202
 4710SOL    HW215030   6.162   4.937   5.250
 4711SOL     OW15031   4.594   4.315   2.787
 4711SOL    HW115032   4.610   4.271   2.699
 4711SOL    HW215033   4.617   4.252   2.861
 4712SOL     OW15034   4.300   4.859   6.100
 4712SOL    HW115035   4.212   4.881   6.142
 4712SOL    HW215036   4.370   4.853   6.171
 4713SOL     OW15037   5.425   4.890   1.423
 4713SOL    HW115038   5.458   4.844   1.341
 4713SOL    HW215039   5.400   4.822   1.492
 4714SOL     OW15040   4.614   1.995   5.783
 4714SOL    HW115041   4.565   1.909   5.768
 4714SOL    HW215042   4.578   2.041   5.864
 4715SOL     OW15043   0.049   1.209   1.821
 4715SOL    HW115044   6.974   1.242   1.830
 4715SOL    HW215045   0.078   1.169   1.907
 4716SOL     OW15046   3.956   4.367   5.533
 4716SOL    HW115047   3.897   4.436   5.576
 4716SOL    HW215048   3.919   4.343   5.443
 4717SOL     OW15049   1.885   4.821   6.171
 4717SOL    HW115050   1.940   4.800   6.090
 4717SOL    HW215051   1.919   4.906   6.213
 4718SOL     OW15052   4.923   3.491   2.708
 4718SOL    HW115053   4.897   3.562   2.643
 4718SOL    HW215054   4.877   3.405   2.683
 4719SOL     OW15055   6.089   3.970   4.143
 4719SOL    HW115056   5.997   3.962   4.105
 4719SOL    HW215057   6.157   3.961   4.070
 4720SOL     OW15058   0.886   2.020   6.144
 4720SOL    HW115059   0.945   2.095   6.173
 4720SOL    HW215060   0.841   1.980   6.224
 4721SOL     OW15061   0.573   2.980   2.606
 4721SOL    HW115062   0.490   2.925   2.616
 4721SOL    HW215063   0.635   2.960   2.681
 4722SOL     OW15064   1.875   5.288   5.821
 4722SOL    HW115065   1.922   5.376   5.825
 4722SOL    HW215066   1.942   5.214   5.831
 4723SOL     OW15067   3.187   4.287   5.994
 4723SOL    HW115068   3.228   4.378   5.996
 4723SOL    HW215069   3.239   4.226   6.055
 4724SOL     OW15070   0.302   0.627   4.323
 4724SOL    HW115071   0.366   0.656   4.394
 4724SOL    HW215072   0.248   0.550   4.355
 4725SOL     OW15073   5.746   5.506   1.426
 4725SOL    HW115074   5.716   5.440   1.357
 4725SOL    HW215075   5.680   5.581   1.431
 4726SOL     OW15076   1.902   2.962   6.080
 4726SOL    HW115077   1.831   2.900   6.047
 4726SOL    HW215078   1.991   2.934   6.043
 4727SOL     OW15079   5.897   5.518   1.828
 4727SOL    HW115080   5.912   5.473   1.739
 4727SOL    HW215081   5.983   5.524   1.877
 4728SOL     OW15082   4.174   0.870   3.483
 4728SOL    HW115083   4.186   0.969   3.472
 4728SOL    HW215084   4.233   0.837   3.556
 4729SOL     OW15085   0.385   1.454   2.884
 4729SOL    HW115086   0.467   1.397   2.894
 4729SOL    HW215087   0.303   1.397   2.888
 4730SOL     OW15088   2.794   0.684   3.407
 4730SOL    HW115089   2.836   0.771   3.430
 4730SOL    HW215090   2.825   0.614   3.472
 4731SOL     OW15091   3.437   6.911   2.355
 4731SOL    HW115092   3.423   6.818   2.389
 4731SOL    HW215093   3.512   6.912   2.289
 4732SOL     OW15094   0.333   4.779   4.633
 4732SOL    HW115095   0.393   4.733   4.569
 4732SOL    HW215096   0.260   4.717   4.662
 4733SOL     OW15097   2.187   3.866   3.210
 4733SOL    HW115098   2.210   3.769   3.215
 4733SOL    HW215099   2.162   3.899   3.301
 4734SOL     OW15100   4.653   4.533   6.467
 4734SOL    HW115101   4.614   4.482   6.390
 4734SOL    HW215102   4.691   4.619   6.434
 4735SOL     OW15103   0.306   1.144   5.436
 4735SOL    HW115104   0.346   1.108   5.520
 4735SOL    HW215105   0.350   1.100   5.357
 4736SOL     OW15106   6.222   0.439   5.078
 4736SOL    HW115107   6.278   0.396   5.149
 4736SOL    HW215108   6.252   0.406   4.988
 4737SOL     OW15109   2.098   5.207   0.188
 4737SOL    HW115110   2.099   5.296   0.142
 4737SOL    HW215111   2.178   5.200   0.248
 4738SOL     OW15112   0.096   5.990   3.483
 4738SOL    HW115113   0.161   6.058   3.516
 4738SOL    HW215114   0.065   6.014   3.391
 4739SOL     OW15115   5.794   3.547   2.939
 4739SOL    HW115116   5.876   3.521   2.889
 4739SOL    HW215117   5.798   3.509   3.032
 4740SOL     OW15118   1.862   6.372   0.761
 4740SOL    HW115119   1.778   6.345   0.809
 4740SOL    HW215120   1.876   6.470   0.772
 4741SOL     OW15121   5.967   4.538   2.111
 4741SOL    HW115122   5.938   4.459   2.165
 4741SOL    HW215123   5.976   4.618   2.171
 4742SOL     OW15124   2.211   5.667   2.273
 4742SOL    HW115125   2.134   5.663   2.210
 4742SOL    HW215126   2.247   5.575   2.289
 4743SOL     OW15127   2.863   3.506   0.333
 4743SOL    HW115128   2.797   3.444   0.290
 4743SOL    HW215129   2.876   3.479   0.428
 4744SOL     OW15130   3.275   1.578   6.010
 4744SOL    HW115131   3.290   1.480   5.999
 4744SOL    HW215132   3.189   1.592   6.060
 4745SOL     OW15133   4.259   5.947   4.273
 4745SOL    HW115134   4.282   5.852   4.295
 4745SOL    HW215135   4.311   5.976   4.193
 4746SOL     OW15136   5.853   1.574   1.124
 4746SOL    HW115137   5.893   1.574   1.033
 4746SOL    HW215138   5.753   1.568   1.117
 4747SOL     OW15139   1.078   2.677   2.270
 4747SOL    HW115140   1.107   2.770   2.292
 4747SOL    HW215141   0.978   2.675   2.260
 4748SOL     OW15142   2.326   6.234   0.341
 4748SOL    HW115143   2.295   6.306   0.279
 4748SOL    HW215144   2.292   6.145   0.309
 4749SOL     OW15145   3.768   1.212   6.957
 4749SOL    HW115146   3.723   1.278   7.016
 4749SOL    HW215147   3.729   1.121   6.972
 4750SOL     OW15148   0.783   1.742   4.943
 4750SOL    HW115149   0.736   1.767   5.028
 4750SOL    HW215150   0.867   1.796   4.934
 4751SOL     OW15151   1.187   3.958   6.654
 4751SOL    HW115152   1.266   3.973   6.594
 4751SOL    HW215153   1.122   4.033   6.643
 4752SOL     OW15154   1.626   6.199   1.205
 4752SOL    HW115155   1.665   6.290   1.216
 4752SOL    HW215156   1.528   6.206   1.185
 4753SOL     OW15157   0.246   0.814   6.273
 4753SOL    HW115158   0.218   0.783   6.182
 4753SOL    HW215159   0.235   0.740   6.339
 4754SOL     OW15160   1.433   1.041   6.710
 4754SOL    HW115161   1.394   1.080   6.626
 4754SOL    HW215162   1.359   1.020   6.774
 4755SOL     OW15163   2.877   6.952   3.141
 4755SOL    HW115164   2.969   6.991   3.140
 4755SOL    HW215165   2.862   6.907   3.230
 4756SOL     OW15166   5.625   2.434   1.049
 4756SOL    HW115167   5.674   2.347   1.040
 4756SOL    HW215168   5.686   2.509   1.022
 4757SOL     OW15169   2.594   2.991   0.672
 4757SOL    HW115170   2.639   2.961   0.756
 4757SOL    HW215171   2.581   3.090   0.676
 4758SOL     OW15172   6.271   3.910   6.447
 4758SOL    HW115173   6.178   3.947   6.456
 4758SOL    HW215174   6.309   3.934   6.358
 4759SOL     OW15175   0.021   3.997   6.869
 4759SOL    HW115176   0.106   3.970   6.912
 4759SOL    HW215177   0.003   4.094   6.887
 4760SOL     OW15178   0.981   2.691   0.205
 4760SOL    HW115179   0.952   2.769   0.261
 4760SOL    HW215180   1.065   2.652   0.243
 4761SOL     OW15181   2.988   6.262   6.597
 4761SOL    HW115182   2.964   6.293   6.505
 4761SOL    HW215183   2.911   6.277   6.659
 4762SOL     OW15184   3.507   0.349   2.807
 4762SOL    HW115185   3.416   0.310   2.820
 4762SOL    HW215186   3.504   0.417   2.734
 4763SOL     OW15187   4.926   4.870   4.863
 4763SOL    HW115188   5.003   4.870   4.800
 4763SOL    HW215189   4.933   4.948   4.925
 4764SOL     OW15190   3.322   3.616   3.966
 4764SOL    HW115191   3.385   3.682   3.925
 4764SOL    HW215192   3.353   3.523   3.944
 4765SOL     OW15193   5.948   5.780   6.254
 4765SOL    HW115194   5.993   5.826   6.331
 4765SOL    HW215195   5.984   5.687   6.245
 4766SOL     OW15196   2.936   1.624   3.456
 4766SOL    HW115197   2.857   1.665   3.411
 4766SOL    HW215198   3.018   1.643   3.402
 4767SOL     OW15199   4.623   0.761   6.768
 4767SOL    HW115200   4.566   0.703   6.826
 4767SOL    HW215201   4.601   0.857   6.785
 4768SOL     OW15202   1.942   0.593   5.662
 4768SOL    HW115203   1.859   0.582   5.717
 4768SOL    HW215204   1.971   0.503   5.628
 4769SOL     OW15205   4.758   0.508   1.881
 4769SOL    HW115206   4.659   0.506   1.893
 4769SOL    HW215207   4.797   0.586   1.930
 4770SOL     OW15208   2.695   1.324   3.791
 4770SOL    HW115209   2.680   1.283   3.881
 4770SOL    HW215210   2.793   1.333   3.774
 4771SOL     OW15211   4.156   4.525   6.399
 4771SOL    HW115212   4.233   4.512   6.337
 4771SOL    HW215213   4.177   4.598   6.465
 4772SOL     OW15214   3.522   2.842   6.955
 4772SOL    HW115215   3.509   2.747   6.929
 4772SOL    HW215216   3.586   2.885   6.891
 4773SOL     OW15217   0.010   4.942   4.950
 4773SOL    HW115218   6.950   4.939   5.012
 4773SOL    HW215219   7.004   4.992   4.867
 4774SOL     OW15220   2.047   4.311   0.012
 4774SOL    HW115221   1.982   4.235   0.022
 4774SOL    HW215222   2.136   4.283   0.047
 4775SOL     OW15223   1.892   2.891   2.553
 4775SOL    HW115224   1.985   2.915   2.578
 4775SOL    HW215225   1.882   2.893   2.453
 4776SOL     OW15226   4.243   5.199   1.654
 4776SOL    HW115227   4.253   5.286   1.605
 4776SOL    HW215228   4.321   5.187   1.716
 4777SOL     OW15229   1.667   4.158   1.202
 4777SOL    HW115230   1.731   4.161   1.126
 4777SOL    HW215231   1.713   4.187   1.286
 4778SOL     OW15232   5.359   3.051   2.905
 4778SOL    HW115233   5.361   3.062   3.004
 4778SOL    HW215234   5.446   3.081   2.866
 4779SOL     OW15235   5.649   1.222   2.709
 4779SOL    HW115236   5.575   1.158   2.688
 4779SOL    HW215237   5.612   1.314   2.718
 4780SOL     OW15238   1.756   1.774   5.357
 4780SOL    HW115239   1.801   1.757   5.269
 4780SOL    HW215240   1.687   1.845   5.345
 4781SOL     OW15241   2.600   5.505   2.693
 4781SOL    HW115242   2.546   5.495   2.777
 4781SOL    HW215243   2.641   5.416   2.670
 4782SOL     OW15244   6.117   6.182   6.974
 4782SOL    HW115245   6.093   6.139   0.042
 4782SOL    HW215246   6.205   6.147   6.943
 4783SOL     OW15247   5.735   4.261   3.312
 4783SOL    HW115248   5.646   4.289   3.276
 4783SOL    HW215249   5.768   4.330   3.377
 4784SOL     OW15250   4.973   4.536   4.446
 4784SOL    HW115251   5.040   4.462   4.442
 4784SOL    HW215252   4.890   4.508   4.399
 4785SOL     OW15253   5.682   6.040   0.716
 4785SOL    HW115254   5.710   6.034   0.620
 4785SOL    HW215255   5.582   6.033   0.722
 4786SOL     OW15256   1.680   4.387   2.988
 4786SOL    HW115257   1.693   4.455   2.916
 4786SOL    HW215258   1.763   4.332   2.997
 4787SOL     OW15259   3.912   2.088   2.623
 4787SOL    HW115260   3.948   2.008   2.670
 4787SOL    HW215261   3.949   2.171   2.664
 4788SOL     OW15262   2.635   0.395   4.697
 4788SOL    HW115263   2.537   0.388   4.717
 4788SOL    HW215264   2.686   0.397   4.783
 4789SOL     OW15265   5.155   5.809   0.004
 4789SOL    HW115266   5.164   5.810   0.104
 4789SOL    HW215267   5.083   5.744   6.997
 4790SOL     OW15268   5.477   0.030   6.760
 4790SOL    HW115269   5.449   0.073   6.674
 4790SOL    HW215270   5.550   6.983   6.743
 4791SOL     OW15271   4.284   2.330   3.210
 4791SOL    HW115272   4.188   2.318   3.184
 4791SOL    HW215273   4.332   2.383   3.139
 4792SOL     OW15274   3.496   3.084   0.762
 4792SOL    HW115275   3.415   3.047   0.807
 4792SOL    HW215276   3.481   3.088   0.663
 4793SOL     OW15277   0.520   0.778   0.279
 4793SOL    HW115278   0.474   0.827   0.205
 4793SOL    HW215279   0.609   0.820   0.296
 4794SOL     OW15280   5.578   0.892   1.937
 4794SOL    HW115281   5.546   0.798   1.949
 4794SOL    HW215282   5.645   0.895   1.863
 4795SOL     OW15283   5.976   2.468   4.069
 4795SOL    HW115284   6.027   2.499   4.150
 4795SOL    HW215285   5.883   2.441   4.097
 4796SOL     OW15286   4.816   3.822   0.329
 4796SOL    HW115287   4.825   3.838   0.230
 4796SOL    HW215288   4.751   3.748   0.344
 4797SOL     OW15289   1.319   5.722   4.848
 4797SOL    HW115290   1.406   5.765   4.821
 4797SOL    HW215291   1.334   5.664   4.927
 4798SOL     OW15292   0.179   5.601   6.116
 4798SOL    HW115293   0.208   5.588   6.022
 4798SOL    HW215294   0.173   5.699   6.136
 4799SOL     OW15295   5.212   1.676   3.924
 4799SOL    HW115296   5.156   1.744   3.877
 4799SOL    HW215297   5.157   1.627   3.992
 4800SOL     OW15298   1.281   3.085   3.926
 4800SOL    HW115299   1.349   3.143   3.970
 4800SOL    HW215300   1.202   3.141   3.899
 4801SOL     OW15301   0.006   1.624   0.641
 4801SOL    HW115302   0.050   1.627   0.551
 4801SOL    HW215303   0.027   1.708   0.691
 4802SOL     OW15304   2.010   0.299   1.764
 4802SOL    HW115305   1.943   0.225   1.758
 4802SOL    HW215306   1.969   0.379   1.807
 4803SOL     OW15307   0.917   6.701   1.024
 4803SOL    HW115308   0.835   6.751   0.995
 4803SOL    HW215309   0.906   6.671   1.119
 4804SOL     OW15310   4.292   5.193   0.782
 4804SOL    HW115311   4.357   5.217   0.855
 4804SOL    HW215312   4.236   5.273   0.759
 4805SOL     OW15313   0.069   6.702   1.978
 4805SOL    HW115314   0.024   6.758   2.048
 4805SOL    HW215315   0.150   6.750   1.944
 4806SOL     OW15316   6.982   2.242   3.724
 4806SOL    HW115317   6.949   2.327   3.765
 4806SOL    HW215318   6.958   2.241   3.627
 4807SOL     OW15319   0.856   0.390   2.979
 4807SOL    HW115320   0.760   0.407   2.957
 4807SOL    HW215321   0.862   0.328   3.057
 4808SOL     OW15322   6.979   1.957   0.523
 4808SOL    HW115323   6.880   1.959   0.537
 4808SOL    HW215324   0.004   1.932   0.609
 4809SOL     OW15325   4.962   6.711   0.339
 4809SOL    HW115326   5.037   6.774   0.357
 4809SOL    HW215327   4.985   6.653   0.260
 4810SOL     OW15328   2.159   6.544   6.625
 4810SOL    HW115329   2.090   6.476   6.600
 4810SOL    HW215330   2.115   6.617   6.678
 4811SOL     OW15331   5.335   3.965   4.168
 4811SOL    HW115332   5.408   3.955   4.100
 4811SOL    HW215333   5.313   4.062   4.180
 4812SOL     OW15334   6.682   5.110   3.694
 4812SOL    HW115335   6.722   5.033   3.644
 4812SOL    HW215336   6.627   5.165   3.631
 4813SOL     OW15337   5.483   3.516   2.577
 4813SOL    HW115338   5.397   3.469   2.599
 4813SOL    HW215339   5.463   3.597   2.522
 4814SOL     OW15340   0.248   3.041   1.606
 4814SOL    HW115341   0.311   3.092   1.548
 4814SOL    HW215342   0.281   2.947   1.615
 4815SOL     OW15343   4.790   0.688   3.464
 4815SOL    HW115344   4.712   0.748   3.483
 4815SOL    HW215345   4.820   0.644   3.548
 4816SOL     OW15346   5.947   4.547   4.584
 4816SOL    HW115347   6.017   4.488   4.625
 4816SOL    HW215348   5.899   4.496   4.513
 4817SOL     OW15349   6.230   1.735   6.662
 4817SOL    HW115350   6.163   1.742   6.589
 4817SOL    HW215351   6.247   1.825   6.702
 4818SOL     OW15352   0.058   6.328   3.714
 4818SOL    HW115353   0.048   6.282   3.802
 4818SOL    HW215354   6.996   6.385   3.697
 4819SOL     OW15355   1.331   3.235   0.888
 4819SOL    HW115356   1.399   3.176   0.845
 4819SOL    HW215357   1.356   3.250   0.984
 4820SOL     OW15358   6.454   3.475   2.259
 4820SOL    HW115359   6.527   3.451   2.323
 4820SOL    HW215360   6.429   3.571   2.270
 4821SOL     OW15361   0.522   5.679   3.981
 4821SOL    HW115362   0.510   5.769   4.024
 4821SOL    HW215363   0.620   5.659   3.973
 4822SOL     OW15364   2.741   5.008   4.327
 4822SOL    HW115365   2.776   5.009   4.421
 4822SOL    HW215366   2.770   4.924   4.281
 4823SOL     OW15367   1.371   2.046   0.480
 4823SOL    HW115368   1.436   2.122   0.477
 4823SOL    HW215369   1.289   2.073   0.532
 4824SOL     OW15370   6.820   2.451   6.917
 4824SOL    HW115371   6.767   2.485   6.996
 4824SOL    HW215372   6.857   2.361   6.939
 4825SOL     OW15373   1.399   5.984   3.548
 4825SOL    HW115374   1.366   5.890   3.536
 4825SOL    HW215375   1.342   6.030   3.616
 4826SOL     OW15376   4.514   6.821   0.246
 4826SOL    HW115377   4.580   6.762   0.292
 4826SOL    HW215378   4.537   6.917   0.265
 4827SOL     OW15379   5.886   1.140   1.977
 4827SOL    HW115380   5.834   1.201   1.917
 4827SOL    HW215381   5.962   1.100   1.927
 4828SOL     OW15382   5.075   1.009   6.181
 4828SOL    HW115383   5.074   1.109   6.174
 4828SOL    HW215384   5.089   0.982   6.276
 4829SOL     OW15385   4.605   5.573   4.938
 4829SOL    HW115386   4.586   5.496   4.998
 4829SOL    HW215387   4.630   5.653   4.993
 4830SOL     OW15388   1.835   6.481   3.534
 4830SOL    HW115389   1.789   6.399   3.568
 4830SOL    HW215390   1.815   6.492   3.436
 4831SOL     OW15391   3.185   4.550   5.344
 4831SOL    HW115392   3.139   4.472   5.300
 4831SOL    HW215393   3.136   4.634   5.323
 4832SOL     OW15394   3.632   3.210   3.865
 4832SOL    HW115395   3.610   3.192   3.770
 4832SOL    HW215396   3.686   3.134   3.902
 4833SOL     OW15397   6.121   2.180   5.175
 4833SOL    HW115398   6.147   2.140   5.087
 4833SOL    HW215399   6.061   2.116   5.224
 4834SOL     OW15400   0.854   5.171   1.111
 4834SOL    HW115401   0.896   5.084   1.137
 4834SOL    HW215402   0.804   5.160   1.026
 4835SOL     OW15403   0.039   3.199   6.297
 4835SOL    HW115404   0.085   3.287   6.283
 4835SOL    HW215405   6.969   3.215   6.340
 4836SOL     OW15406   4.282   1.036   5.645
 4836SOL    HW115407   4.255   0.964   5.708
 4836SOL    HW215408   4.369   1.075   5.674
 4837SOL     OW15409   1.571   3.698   4.854
 4837SOL    HW115410   1.499   3.768   4.846
 4837SOL    HW215411   1.580   3.670   4.950
 4838SOL     OW15412   2.395   4.166   5.871
 4838SOL    HW115413   2.306   4.189   5.912
 4838SOL    HW215414   2.380   4.135   5.777
 4839SOL     OW15415   2.510   0.746   1.706
 4839SOL    HW115416   2.498   0.846   1.708
 4839SOL    HW215417   2.607   0.724   1.712
 4840SOL     OW15418   4.874   2.414   3.272
 4840SOL    HW115419   4.822   2.372   3.347
 4840SOL    HW215420   4.831   2.391   3.185
 4841SOL     OW15421   2.715   5.138   3.084
 4841SOL    HW115422   2.632   5.182   3.051
 4841SOL    HW215423   2.692   5.069   3.152
 4842SOL     OW15424   4.463   4.796   3.407
 4842SOL    HW115425   4.488   4.869   3.343
 4842SOL    HW215426   4.376   4.818   3.451
 4843SOL     OW15427   5.774   2.737   0.075
 4843SOL    HW115428   5.866   2.727   0.113
 4843SOL    HW215429   5.767   2.825   0.028
 4844SOL     OW15430   0.741   4.805   6.642
 4844SOL    HW115431   0.752   4.862   6.561
 4844SOL    HW215432   0.829   4.796   6.689
 4845SOL     OW15433   5.583   4.215   4.616
 4845SOL    HW115434   5.527   4.190   4.695
 4845SOL    HW215435   5.654   4.280   4.644
 4846SOL     OW15436   6.714   3.737   4.498
 4846SOL    HW115437   6.727   3.745   4.597
 4846SOL    HW215438   6.788   3.785   4.451
 4847SOL     OW15439   2.802   6.939   6.819
 4847SOL    HW115440   2.815   6.920   6.722
 4847SOL    HW215441   2.886   6.919   6.869
 4848SOL     OW15442   4.491   1.386   3.479
 4848SOL    HW115443   4.568   1.411   3.536
 4848SOL    HW215444   4.451   1.300   3.511
 4849SOL     OW15445   1.453   5.512   1.929
 4849SOL    HW115446   1.411   5.556   1.850
 4849SOL    HW215447   1.390   5.444   1.966
 4850SOL     OW15448   3.466   0.363   2.188
 4850SOL    HW115449   3.497   0.458   2.198
 4850SOL    HW215450   3.511   0.306   2.257
 4851SOL     OW15451   4.641   4.823   6.632
 4851SOL    HW115452   4.664   4.823   6.534
 4851SOL    HW215453   4.567   4.758   6.648
 4852SOL     OW15454   4.602   3.959   5.510
 4852SOL    HW115455   4.633   3.947   5.604
 4852SOL    HW215456   4.621   3.876   5.457
 4853SOL     OW15457   4.180   0.784   2.886
 4853SOL    HW115458   4.141   0.785   2.978
 4853SOL    HW215459   4.204   0.877   2.858
 4854SOL     OW15460   4.025   6.781   2.231
 4854SOL    HW115461   4.018   6.756   2.135
 4854SOL    HW215462   3.943   6.751   2.280
 4855SOL     OW15463   4.444   4.799   5.374
 4855SOL    HW115464   4.417   4.871   5.438
 4855SOL    HW215465   4.363   4.759   5.332
 4856SOL     OW15466   0.952   2.331   2.199
 4856SOL    HW115467   0.873   2.324   2.260
 4856SOL    HW215468   1.019   2.394   2.239
 4857SOL     OW15469   2.923   1.741   5.668
 4857SOL    HW115470   2.875   1.816   5.713
 4857SOL    HW215471   3.008   1.774   5.627
 4858SOL     OW15472   2.321   5.341   5.109
 4858SOL    HW115473   2.363   5.252   5.127
 4858SOL    HW215474   2.373   5.389   5.039
 4859SOL     OW15475   6.657   5.390   3.256
 4859SOL    HW115476   6.579   5.383   3.194
 4859SOL    HW215477   6.696   5.482   3.250
 4860SOL     OW15478   3.901   5.196   1.207
 4860SOL    HW115479   3.955   5.154   1.280
 4860SOL    HW215480   3.941   5.171   1.118
 4861SOL     OW15481   5.520   4.767   4.570
 4861SOL    HW115482   5.484   4.768   4.477
 4861SOL    HW215483   5.481   4.843   4.622
 4862SOL     OW15484   1.604   5.305   4.324
 4862SOL    HW115485   1.587   5.298   4.226
 4862SOL    HW215486   1.690   5.354   4.339
 4863SOL     OW15487   5.891   1.394   1.549
 4863SOL    HW115488   5.982   1.365   1.578
 4863SOL    HW215489   5.888   1.398   1.449
 4864SOL     OW15490   2.683   2.854   1.713
 4864SOL    HW115491   2.588   2.882   1.730
 4864SOL    HW215492   2.697   2.763   1.752
 4865SOL     OW15493   3.967   0.110   4.673
 4865SOL    HW115494   4.045   0.048   4.658
 4865SOL    HW215495   3.969   0.143   4.767
 4866SOL     OW15496   0.700   4.925   1.941
 4866SOL    HW115497   0.605   4.947   1.921
 4866SOL    HW215498   0.718   4.830   1.918
 4867SOL     OW15499   5.727   4.612   5.818
 4867SOL    HW115500   5.763   4.639   5.907
 4867SOL    HW215501   5.801   4.614   5.750
 4868SOL     OW15502   2.265   5.879   1.616
 4868SOL    HW115503   2.295   5.793   1.575
 4868SOL    HW215504   2.258   5.868   1.715
 4869SOL     OW15505   0.478   2.077   1.642
 4869SOL    HW115506   0.388   2.061   1.683
 4869SOL    HW215507   0.481   2.032   1.552
 4870SOL     OW15508   5.828   1.074   1.132
 4870SOL    HW115509   5.862   1.104   1.043
 4870SOL    HW215510   5.847   1.144   1.201
 4871SOL     OW15511   1.579   2.586   5.322
 4871SOL    HW115512   1.616   2.502   5.281
 4871SOL    HW215513   1.585   2.579   5.422
 4872SOL     OW15514   2.324   2.729   2.429
 4872SOL    HW115515   2.381   2.749   2.350
 4872SOL    HW215516   2.372   2.665   2.490
 4873SOL     OW15517   1.200   6.544   5.733
 4873SOL    HW115518   1.178   6.545   5.831
 4873SOL    HW215519   1.115   6.547   5.680
 4874SOL     OW15520   5.693   1.684   4.048
 4874SOL    HW115521   5.760   1.758   4.034
 4874SOL    HW215522   5.607   1.708   4.004
 4875SOL     OW15523   6.862   3.087   0.698
 4875SOL    HW115524   6.945   3.036   0.676
 4875SOL    HW215525   6.782   3.029   0.681
 4876SOL     OW15526   6.702   1.350   6.710
 4876SOL    HW115527   6.678   1.349   6.613
 4876SOL    HW215528   6.794   1.387   6.721
 4877SOL     OW15529   4.334   1.992   1.834
 4877SOL    HW115530   4.245   1.993   1.880
 4877SOL    HW215531   4.362   1.897   1.817
 4878SOL     OW15532   1.288   2.916   2.368
 4878SOL    HW115533   1.228   2.975   2.423
 4878SOL    HW215534   1.371   2.966   2.345
 4879SOL     OW15535   3.736   6.399   3.265
 4879SOL    HW115536   3.814   6.435   3.213
 4879SOL    HW215537   3.709   6.465   3.335
 4880SOL     OW15538   6.705   2.219   5.985
 4880SOL    HW115539   6.802   2.207   5.964
 4880SOL    HW215540   6.685   2.173   6.072
 4881SOL     OW15541   3.161   6.482   6.029
 4881SOL    HW115542   3.121   6.546   5.964
 4881SOL    HW215543   3.150   6.518   6.122
 4882SOL     OW15544   5.496   5.940   6.602
 4882SOL    HW115545   5.580   5.893   6.576
 4882SOL    HW215546   5.461   5.992   6.524
 4883SOL     OW15547   6.072   5.987   0.181
 4883SOL    HW115548   6.073   5.954   0.087
 4883SOL    HW215549   6.040   5.914   0.242
 4884SOL     OW15550   4.619   6.116   1.820
 4884SOL    HW115551   4.671   6.194   1.857
 4884SOL    HW215552   4.658   6.088   1.732
 4885SOL     OW15553   1.398   0.622   2.319
 4885SOL    HW115554   1.346   0.628   2.404
 4885SOL    HW215555   1.392   0.710   2.271
 4886SOL     OW15556   6.286   1.292   6.002
 4886SOL    HW115557   6.309   1.278   5.905
 4886SOL    HW215558   6.213   1.360   6.009
 4887SOL     OW15559   0.075   2.538   5.503
 4887SOL    HW115560   0.023   2.509   5.583
 4887SOL    HW215561   0.151   2.474   5.488
 4888SOL     OW15562   4.175   6.005   1.106
 4888SOL    HW115563   4.237   5.941   1.060
 4888SOL    HW215564   4.158   6.083   1.046
 4889SOL     OW15565   1.418   3.372   6.245
 4889SOL    HW115566   1.367   3.288   6.226
 4889SOL    HW215567   1.507   3.368   6.200
 4890SOL     OW15568   6.871   0.539   4.475
 4890SOL    HW115569   6.806   0.549   4.550
 4890SOL    HW215570   6.869   0.621   4.418
 4891SOL     OW15571   1.182   5.021   0.835
 4891SOL    HW115572   1.141   4.963   0.765
 4891SOL    HW215573   1.190   4.969   0.920
 4892SOL     OW15574   2.045   5.704   2.057
 4892SOL    HW115575   2.005   5.796   2.052
 4892SOL    HW215576   1.993   5.642   2.000
 4893SOL     OW15577   6.793   4.544   6.250
 4893SOL    HW115578   6.814   4.523   6.345
 4893SOL    HW215579   6.759   4.638   6.243
 4894SOL     OW15580   0.210   6.850   3.628
 4894SOL    HW115581   0.258   6.765   3.607
 4894SOL    HW215582   0.214   6.911   3.548
 4895SOL     OW15583   6.671   4.015   6.422
 4895SOL    HW115584   6.738   3.978   6.487
 4895SOL    HW215585   6.607   4.074   6.471
 4896SOL     OW15586   4.656   0.842   4.884
 4896SOL    HW115587   4.704   0.882   4.806
 4896SOL    HW215588   4.567   0.807   4.855
 4897SOL     OW15589   2.659   5.656   6.993
 4897SOL    HW115590   2.652   5.746   0.017
 4897SOL    HW215591   2.609   5.589   0.028
 4898SOL     OW15592   4.930   2.507   4.448
 4898SOL    HW115593   4.975   2.571   4.386
 4898SOL    HW215594   4.974   2.417   4.441
 4899SOL     OW15595   0.090   3.278   4.373
 4899SOL    HW115596   0.157   3.348   4.400
 4899SOL    HW215597   0.012   3.323   4.327
 4900SOL     OW15598   0.659   6.820   6.059
 4900SOL    HW115599   0.695   6.912   6.048
 4900SOL    HW215600   0.559   6.824   6.071
 4901SOL     OW15601   6.161   6.459   2.992
 4901SOL    HW115602   6.066   6.477   2.969
 4901SOL    HW215603   6.181   6.362   2.983
 4902SOL     OW15604   3.187   5.543   0.487
 4902SOL    HW115605   3.120   5.484   0.532
 4902SOL    HW215606   3.278   5.523   0.522
 4903SOL     OW15607   5.726   4.597   6.670
 4903SOL    HW115608   5.815   4.600   6.624
 4903SOL    HW215609   5.655   4.622   6.604
 4904SOL     OW15610   2.936   0.772   3.724
 4904SOL    HW115611   2.953   0.704   3.795
 4904SOL    HW215612   2.934   0.863   3.765
 4905SOL     OW15613   5.903   3.856   3.226
 4905SOL    HW115614   5.991   3.902   3.214
 4905SOL    HW215615   5.852   3.901   3.299
 4906SOL     OW15616   4.483   0.099   1.717
 4906SOL    HW115617   4.531   0.153   1.786
 4906SOL    HW215618   4.413   0.043   1.760
 4907SOL     OW15619   2.739   2.712   1.163
 4907SOL    HW115620   2.729   2.789   1.226
 4907SOL    HW215621   2.822   2.661   1.186
 4908SOL     OW15622   5.439   4.441   6.116
 4908SOL    HW115623   5.401   4.351   6.135
 4908SOL    HW215624   5.457   4.450   6.018
 4909SOL     OW15625   6.586   6.939   5.591
 4909SOL    HW115626   6.612   6.905   5.501
 4909SOL    HW215627   6.517   7.011   5.581
 4910SOL     OW15628   5.724   6.925   5.569
 4910SOL    HW115629   5.775   6.841   5.553
 4910SOL    HW215630   5.651   6.934   5.501
 4911SOL     OW15631   0.357   4.272   6.700
 4911SOL    HW115632   0.387   4.178   6.686
 4911SOL    HW215633   0.283   4.294   6.636
 4912SOL     OW15634   2.111   3.163   1.965
 4912SOL    HW115635   2.072   3.237   2.019
 4912SOL    HW215636   2.129   3.084   2.023
 4913SOL     OW15637   2.886   3.117   1.840
 4913SOL    HW115638   2.792   3.114   1.874
 4913SOL    HW215639   2.897   3.198   1.783
 4914SOL     OW15640   1.092   7.011   2.827
 4914SOL    HW115641   1.154   6.959   2.769
 4914SOL    HW215642   1.059   6.953   2.901
 4915SOL     OW15643   3.834   6.316   3.776
 4915SOL    HW115644   3.768   6.260   3.826
 4915SOL    HW215645   3.786   6.370   3.707
 4916SOL     OW15646   1.307   1.707   1.963
 4916SOL    HW115647   1.234   1.772   1.986
 4916SOL    HW215648   1.332   1.654   2.044
 4917SOL     OW15649   0.999   5.454   6.259
 4917SOL    HW115650   1.007   5.542   6.212
 4917SOL    HW215651   1.069   5.392   6.225
 4918SOL     OW15652   2.155   6.619   4.264
 4918SOL    HW115653   2.252   6.630   4.240
 4918SOL    HW215654   2.099   6.677   4.205
 4919SOL     OW15655   2.289   3.045   1.119
 4919SOL    HW115656   2.198   3.075   1.093
 4919SOL    HW215657   2.283   2.957   1.167
 4920SOL     OW15658   3.153   2.078   6.640
 4920SOL    HW115659   3.216   2.105   6.567
 4920SOL    HW215660   3.184   2.116   6.727
 4921SOL     OW15661   6.557   4.584   2.058
 4921SOL    HW115662   6.638   4.634   2.091
 4921SOL    HW215663   6.494   4.648   2.015
 4922SOL     OW15664   1.112   3.435   5.886
 4922SOL    HW115665   1.138   3.522   5.929
 4922SOL    HW215666   1.194   3.387   5.857
 4923SOL     OW15667   3.285   2.488   0.010
 4923SOL    HW115668   3.215   2.559   0.007
 4923SOL    HW215669   3.372   2.525   6.995
 4924SOL     OW15670   0.303   3.136   4.278
 4924SOL    HW115671   0.358   3.184   4.209
 4924SOL    HW215672   0.221   3.191   4.299
 4925SOL     OW15673   4.737   5.153   4.943
 4925SOL    HW115674   4.687   5.211   5.007
 4925SOL    HW215675   4.831   5.140   4.976
 4926SOL     OW15676   4.201   3.315   0.535
 4926SOL    HW115677   4.109   3.317   0.573
 4926SOL    HW215678   4.196   3.301   0.436
 4927SOL     OW15679   2.933   3.629   2.145
 4927SOL    HW115680   3.029   3.658   2.143
 4927SOL    HW215681   2.903   3.620   2.240
 4928SOL     OW15682   0.040   1.558   6.277
 4928SOL    HW115683   6.989   1.548   6.206
 4928SOL    HW215684   0.036   1.479   6.338
 4929SOL     OW15685   1.323   4.513   4.525
 4929SOL    HW115686   1.383   4.581   4.566
 4929SOL    HW215687   1.283   4.457   4.598
 4930SOL     OW15688   0.213   3.639   0.175
 4930SOL    HW115689   0.219   3.615   0.079
 4930SOL    HW215690   0.231   3.558   0.231
 4931SOL     OW15691   5.342   6.614   0.988
 4931SOL    HW115692   5.402   6.535   0.976
 4931SOL    HW215693   5.397   6.693   1.016
 4932SOL     OW15694   3.455   1.602   0.774
 4932SOL    HW115695   3.357   1.623   0.786
 4932SOL    HW215696   3.495   1.584   0.864
 4933SOL     OW15697   2.415   7.013   5.137
 4933SOL    HW115698   2.460   0.081   5.117
 4933SOL    HW215699   2.479   6.953   5.185
 4934SOL     OW15700   2.094   6.240   5.425
 4934SOL    HW115701   2.056   6.151   5.402
 4934SOL    HW215702   2.191   6.242   5.402
 4935SOL     OW15703   1.857   2.521   0.676
 4935SOL    HW115704   1.888   2.616   0.667
 4935SOL    HW215705   1.775   2.518   0.734
 4936SOL     OW15706   6.847   4.348   1.358
 4936SOL    HW115707   6.756   4.306   1.366
 4936SOL    HW215708   6.844   4.441   1.396
 4937SOL     OW15709   0.538   4.034   5.415
 4937SOL    HW115710   0.625   4.060   5.458
 4937SOL    HW215711   0.491   4.116   5.382
 4938SOL     OW15712   3.103   4.162   0.909
 4938SOL    HW115713   3.100   4.067   0.877
 4938SOL    HW215714   3.045   4.172   0.990
 4939SOL     OW15715   0.848   1.659   1.510
 4939SOL    HW115716   0.895   1.712   1.581
 4939SOL    HW215717   0.916   1.611   1.455
 4940SOL     OW15718   1.905   1.569   4.909
 4940SOL    HW115719   1.905   1.563   4.809
 4940SOL    HW215720   1.927   1.480   4.947
 4941SOL     OW15721   3.365   2.109   6.103
 4941SOL    HW115722   3.378   2.182   6.170
 4941SOL    HW215723   3.272   2.113   6.067
 4942SOL     OW15724   0.185   1.158   2.548
 4942SOL    HW115725   0.245   1.094   2.500
 4942SOL    HW215726   0.233   1.195   2.628
 4943SOL     OW15727   4.768   2.504   6.890
 4943SOL    HW115728   4.701   2.467   6.954
 4943SOL    HW215729   4.860   2.494   6.927
 4944SOL     OW15730   0.632   4.939   0.764
 4944SOL    HW115731   0.652   4.884   0.845
 4944SOL    HW215732   0.534   4.956   0.758
 4945SOL     OW15733   2.408   0.607   6.496
 4945SOL    HW115734   2.409   0.699   6.536
 4945SOL    HW215735   2.420   0.539   6.568
 4946SOL     OW15736   2.459   6.043   7.002
 4946SOL    HW115737   2.425   5.995   0.064
 4946SOL    HW215738   2.464   5.978   6.926
 4947SOL     OW15739   1.122   0.423   1.585
 4947SOL    HW115740   1.164   0.512   1.602
 4947SOL    HW215741   1.183   0.368   1.527
 4948SOL     OW15742   1.591   3.416   2.242
 4948SOL    HW115743   1.499   3.397   2.210
 4948SOL    HW215744   1.657   3.393   2.171
 4949SOL     OW15745   6.239   5.231   6.812
 4949SOL    HW115746   6.338   5.249   6.805
 4949SOL    HW215747   6.190   5.318   6.817
 4950SOL     OW15748   3.929   3.739   5.744
 4950SOL    HW115749   3.936   3.695   5.834
 4950SOL    HW215750   4.020   3.770   5.715
 4951SOL     OW15751   4.664   5.121   3.499
 4951SOL    HW115752   4.612   5.058   3.556
 4951SOL    HW215753   4.647   5.101   3.402
 4952SOL     OW15754   0.866   0.918   6.857
 4952SOL    HW115755   0.959   0.884   6.868
 4952SOL    HW215756   0.803   0.841   6.847
 4953SOL     OW15757   1.080   1.024   6.106
 4953SOL    HW115758   1.022   0.961   6.055
 4953SOL    HW215759   1.173   1.020   6.070
 4954SOL     OW15760   3.561   3.916   5.988
 4954SOL    HW115761   3.538   3.820   6.006
 4954SOL    HW215762   3.629   3.921   5.916
 4955SOL     OW15763   3.618   5.986   0.047
 4955SOL    HW115764   3.658   5.895   0.055
 4955SOL    HW215765   3.672   6.042   7.003
 4956SOL     OW15766   2.238   0.252   3.884
 4956SOL    HW115767   2.226   0.175   3.822
 4956SOL    HW215768   2.283   0.221   3.968
 4957SOL     OW15769   5.935   5.530   0.097
 4957SOL    HW115770   5.837   5.515   0.101
 4957SOL    HW215771   5.969   5.504   0.007
 4958SOL     OW15772   3.335   5.036   0.536
 4958SOL    HW115773   3.324   4.962   0.470
 4958SOL    HW215774   3.274   5.022   0.614
 4959SOL     OW15775   1.762   1.460   3.067
 4959SOL    HW115776   1.749   1.461   2.968
 4959SOL    HW215777   1.842   1.515   3.090
 4960SOL     OW15778   5.346   3.631   4.622
 4960SOL    HW115779   5.419   3.662   4.561
 4960SOL    HW215780   5.300   3.710   4.662
 4961SOL     OW15781   3.720   2.865   2.236
 4961SOL    HW115782   3.732   2.766   2.243
 4961SOL    HW215783   3.697   2.889   2.142
 4962SOL     OW15784   1.894   2.251   0.595
 4962SOL    HW115785   1.883   2.344   0.629
 4962SOL    HW215786   1.845   2.242   0.508
 4963SOL     OW15787   0.477   3.742   6.790
 4963SOL    HW115788   0.576   3.755   6.780
 4963SOL    HW215789   0.432   3.756   6.702
 4964SOL     OW15790   1.155   5.269   3.868
 4964SOL    HW115791   1.113   5.215   3.795
 4964SOL    HW215792   1.105   5.254   3.954
 4965SOL     OW15793   2.687   0.407   2.834
 4965SOL    HW115794   2.606   0.407   2.775
 4965SOL    HW215795   2.668   0.352   2.916
 4966SOL     OW15796   4.172   0.131   5.436
 4966SOL    HW115797   4.161   0.229   5.420
 4966SOL    HW215798   4.180   0.084   5.348
 4967SOL     OW15799   5.057   4.436   3.118
 4967SOL    HW115800   4.970   4.440   3.069
 4967SOL    HW215801   5.040   4.449   3.216
 4968SOL     OW15802   6.392   2.923   3.446
 4968SOL    HW115803   6.325   2.967   3.387
 4968SOL    HW215804   6.395   2.825   3.426
 4969SOL     OW15805   1.097   5.690   4.439
 4969SOL    HW115806   1.006   5.725   4.461
 4969SOL    HW215807   1.088   5.606   4.386
 4970SOL     OW15808   2.320   0.889   1.309
 4970SOL    HW115809   2.287   0.838   1.230
 4970SOL    HW215810   2.280   0.981   1.309
 4971SOL     OW15811   0.109   6.080   1.922
 4971SOL    HW115812   0.180   6.029   1.873
 4971SOL    HW215813   0.149   6.121   2.004
 4972SOL     OW15814   0.372   3.549   0.762
 4972SOL    HW115815   0.334   3.635   0.727
 4972SOL    HW215816   0.464   3.565   0.797
 4973SOL     OW15817   5.434   2.405   0.262
 4973SOL    HW115818   5.377   2.347   0.204
 4973SOL    HW215819   5.486   2.469   0.205
 4974SOL     OW15820   3.216   0.635   5.289
 4974SOL    HW115821   3.125   0.626   5.330
 4974SOL    HW215822   3.210   0.690   5.205
 4975SOL     OW15823   5.803   4.285   0.954
 4975SOL    HW115824   5.837   4.311   0.863
 4975SOL    HW215825   5.735   4.352   0.984
 4976SOL     OW15826   0.915   0.057   3.742
 4976SOL    HW115827   0.883   0.078   3.649
 4976SOL    HW215828   0.844   0.083   3.808
 4977SOL     OW15829   1.074   3.313   5.016
 4977SOL    HW115830   0.984   3.345   5.045
 4977SOL    HW215831   1.137   3.391   5.012
 4978SOL     OW15832   6.174   5.340   4.495
 4978SOL    HW115833   6.076   5.317   4.494
 4978SOL    HW215834   6.210   5.336   4.402
 4979SOL     OW15835   3.736   6.358   6.327
 4979SOL    HW115836   3.812   6.348   6.390
 4979SOL    HW215837   3.680   6.437   6.353
 4980SOL     OW15838   5.364   3.125   3.797
 4980SOL    HW115839   5.462   3.146   3.794
 4980SOL    HW215840   5.330   3.136   3.891
 4981SOL     OW15841   3.210   6.451   2.983
 4981SOL    HW115842   3.181   6.359   2.956
 4981SOL    HW215843   3.276   6.487   2.917
 4982SOL     OW15844   3.637   1.703   4.598
 4982SOL    HW115845   3.590   1.786   4.627
 4982SOL    HW215846   3.691   1.722   4.516
 4983SOL     OW15847   5.267   3.603   3.042
 4983SOL    HW115848   5.300   3.638   2.954
 4983SOL    HW215849   5.344   3.591   3.104
 4984SOL     OW15850   5.019   3.546   5.168
 4984SOL    HW115851   5.095   3.518   5.111
 4984SOL    HW215852   4.933   3.538   5.117
 4985SOL     OW15853   4.886   6.941   2.503
 4985SOL    HW115854   4.941   6.935   2.586
 4985SOL    HW215855   4.945   6.933   2.423
 4986SOL     OW15856   1.308   5.591   1.055
 4986SOL    HW115857   1.361   5.523   1.106
 4986SOL    HW215858   1.245   5.638   1.116
 4987SOL     OW15859   2.314   3.888   1.647
 4987SOL    HW115860   2.271   3.816   1.702
 4987SOL    HW215861   2.248   3.962   1.633
 4988SOL     OW15862   6.456   5.007   3.947
 4988SOL    HW115863   6.502   4.931   3.902
 4988SOL    HW215864   6.494   5.093   3.915
 4989SOL     OW15865   6.830   0.027   4.110
 4989SOL    HW115866   6.909   7.001   4.151
 4989SOL    HW215867   6.850   0.051   4.015
 4990SOL     OW15868   4.878   1.905   5.999
 4990SOL    HW115869   4.891   2.004   6.003
 4990SOL    HW215870   4.780   1.885   6.003
 4991SOL     OW15871   2.366   5.663   5.274
 4991SOL    HW115872   2.431   5.733   5.242
 4991SOL    HW215873   2.386   5.577   5.227
 4992SOL     OW15874   2.692   2.661   5.514
 4992SOL    HW115875   2.780   2.660   5.562
 4992SOL    HW215876   2.691   2.589   5.444
 4993SOL     OW15877   2.142   5.117   3.577
 4993SOL    HW115878   2.115   5.213   3.570
 4993SOL    HW215879   2.223   5.109   3.634
 4994SOL     OW15880   2.789   4.948   5.493
 4994SOL    HW115881   2.767   4.999   5.410
 4994SOL    HW215882   2.858   4.997   5.545
 4995SOL     OW15883   0.306   2.018   5.799
 4995SOL    HW115884   0.317   1.967   5.884
 4995SOL    HW215885   0.235   2.087   5.810
 4996SOL     OW15886   0.155   0.732   4.819
 4996SOL    HW115887   0.190   0.768   4.733
 4996SOL    HW215888   0.170   0.799   4.892
 4997SOL     OW15889   3.913   1.650   0.662
 4997SOL    HW115890   3.853   1.607   0.594
 4997SOL    HW215891   3.885   1.624   0.754
 4998SOL     OW15892   0.905   4.073   3.638
 4998SOL    HW115893   0.866   4.123   3.715
 4998SOL    HW215894   0.986   4.122   3.604
 4999SOL     OW15895   6.792   2.684   3.328
 4999SOL    HW115896   6.875   2.691   3.274
 4999SOL    HW215897   6.759   2.589   3.327
 5000SOL     OW15898   3.043   6.665   3.103
 5000SOL    HW115899   3.085   6.583   3.064
 5000SOL    HW215900   3.078   6.746   3.056
 5001SOL     OW15901   0.008   6.086   3.248
 5001SOL    HW115902   0.012   6.173   3.198
 5001SOL    HW215903   6.932   6.065   3.270
 5002SOL     OW15904   1.016   5.295   4.097
 5002SOL    HW115905   1.037   5.327   4.190
 5002SOL    HW215906   0.969   5.368   4.047
 5003SOL     OW15907   3.836   1.545   0.903
 5003SOL    HW115908   3.820   1.461   0.851
 5003SOL    HW215909   3.761   1.558   0.969
 5004SOL     OW15910   4.223   6.463   0.357
 5004SOL    HW115911   4.179   6.407   0.427
 5004SOL    HW215912   4.322   6.454   0.363
 5005SOL     OW15913   4.247   3.090   0.925
 5005SOL    HW115914   4.335   3.071   0.880
 5005SOL    HW215915   4.232   3.026   0.999
 5006SOL     OW15916   4.633   0.846   2.639
 5006SOL    HW115917   4.730   0.825   2.633
 5006SOL    HW215918   4.606   0.852   2.735
 5007SOL     OW15919   6.614   5.168   2.878
 5007SOL    HW115920   6.610   5.261   2.915
 5007SOL    HW215921   6.605   5.171   2.778
 5008SOL     OW15922   4.503   6.929   3.683
 5008SOL    HW115923   4.475   6.985   3.762
 5008SOL    HW215924   4.422   6.895   3.636
 5009SOL     OW15925   0.877   1.548   6.577
 5009SOL    HW115926   0.962   1.503   6.604
 5009SOL    HW215927   0.853   1.522   6.483
 5010SOL     OW15928   5.057   4.360   1.162
 5010SOL    HW115929   4.971   4.355   1.213
 5010SOL    HW215930   5.114   4.281   1.185
 5011SOL     OW15931   1.738   1.984   5.778
 5011SOL    HW115932   1.726   1.908   5.714
 5011SOL    HW215933   1.828   1.977   5.821
 5012SOL     OW15934   5.973   2.912   5.379
 5012SOL    HW115935   6.049   2.959   5.425
 5012SOL    HW215936   5.995   2.814   5.371
 5013SOL     OW15937   5.535   6.065   5.196
 5013SOL    HW115938   5.469   6.089   5.123
 5013SOL    HW215939   5.485   6.048   5.281
 5014SOL     OW15940   6.355   3.397   0.766
 5014SOL    HW115941   6.427   3.330   0.783
 5014SOL    HW215942   6.271   3.367   0.811
 5015SOL     OW15943   6.213   5.042   4.076
 5015SOL    HW115944   6.308   5.034   4.044
 5015SOL    HW215945   6.152   4.997   4.010
 5016SOL     OW15946   1.068   1.762   6.422
 5016SOL    HW115947   1.147   1.703   6.404
 5016SOL    HW215948   1.083   1.813   6.506
 5017SOL     OW15949   1.279   2.946   1.938
 5017SOL    HW115950   1.311   2.860   1.977
 5017SOL    HW215951   1.188   2.932   1.898
 5018SOL     OW15952   0.667   0.533   0.333
 5018SOL    HW115953   0.600   0.606   0.322
 5018SOL    HW215954   0.754   0.572   0.363
 5019SOL     OW15955   2.089   4.367   3.700
 5019SOL    HW115956   2.031   4.411   3.632
 5019SOL    HW215957   2.065   4.270   3.706
 5020SOL     OW15958   1.806   6.757   3.329
 5020SOL    HW115959   1.857   6.741   3.413
 5020SOL    HW215960   1.769   6.671   3.295
 5021SOL     OW15961   2.704   0.413   1.594
 5021SOL    HW115962   2.685   0.487   1.659
 5021SOL    HW215963   2.711   0.451   1.502
 5022SOL     OW15964   0.177   3.359   1.404
 5022SOL    HW115965   0.222   3.402   1.482
 5022SOL    HW215966   0.171   3.425   1.329
 5023SOL     OW15967   0.944   2.422   2.597
 5023SOL    HW115968   0.962   2.520   2.591
 5023SOL    HW215969   0.988   2.384   2.679
 5024SOL     OW15970   4.400   4.065   6.964
 5024SOL    HW115971   4.411   4.165   6.968
 5024SOL    HW215972   4.490   4.022   6.969
 5025SOL     OW15973   5.385   2.325   5.065
 5025SOL    HW115974   5.346   2.325   4.973
 5025SOL    HW215975   5.311   2.314   5.131
 5026SOL     OW15976   5.083   5.658   4.906
 5026SOL    HW115977   4.985   5.655   4.887
 5026SOL    HW215978   5.102   5.726   4.977
 5027SOL     OW15979   5.320   6.281   0.963
 5027SOL    HW115980   5.403   6.315   1.009
 5027SOL    HW215981   5.344   6.203   0.906
 5028SOL     OW15982   6.580   1.776   2.167
 5028SOL    HW115983   6.575   1.876   2.178
 5028SOL    HW215984   6.664   1.742   2.208
 5029SOL     OW15985   5.655   2.605   3.150
 5029SOL    HW115986   5.616   2.537   3.212
 5029SOL    HW215987   5.616   2.593   3.058
 5030SOL     OW15988   0.595   2.948   1.141
 5030SOL    HW115989   0.667   2.884   1.169
 5030SOL    HW215990   0.629   3.042   1.152
 5031SOL     OW15991   6.479   0.199   6.066
 5031SOL    HW115992   6.539   0.171   5.992
 5031SOL    HW215993   6.484   0.298   6.078
 5032SOL     OW15994   2.559   4.706   5.924
 5032SOL    HW115995   2.624   4.631   5.935
 5032SOL    HW215996   2.607   4.788   5.894
 5033SOL     OW15997   2.017   6.735   4.069
 5033SOL    HW115998   1.933   6.758   4.020
 5033SOL    HW215999   2.091   6.794   4.039
 5034SOL     OW16000   4.268   5.753   3.800
 5034SOL    HW116001   4.299   5.678   3.859
 5034SOL    HW216002   4.170   5.744   3.783
 5035SOL     OW16003   1.484   3.527   3.790
 5035SOL    HW116004   1.541   3.562   3.716
 5035SOL    HW216005   1.505   3.576   3.874
 5036SOL     OW16006   1.524   3.228   4.841
 5036SOL    HW116007   1.516   3.196   4.935
 5036SOL    HW216008   1.435   3.222   4.795
 5037SOL     OW16009   5.620   4.489   1.082
 5037SOL    HW116010   5.526   4.496   1.049
 5037SOL    HW216011   5.624   4.427   1.160
 5038SOL     OW16012   3.047   3.956   4.539
 5038SOL    HW116013   3.101   3.891   4.592
 5038SOL    HW216014   3.026   4.036   4.595
 5039SOL     OW16015   0.632   3.122   6.672
 5039SOL    HW116016   0.703   3.193   6.674
 5039SOL    HW216017   0.544   3.162   6.700
 5040SOL     OW16018   0.610   1.830   5.152
 5040SOL    HW116019   0.661   1.804   5.234
 5040SOL    HW216020   0.518   1.861   5.178
 5041SOL     OW16021   6.647   2.721   0.915
 5041SOL    HW116022   6.569   2.721   0.979
 5041SOL    HW216023   6.728   2.757   0.961
 5042SOL     OW16024   1.019   1.508   5.609
 5042SOL    HW116025   1.007   1.417   5.568
 5042SOL    HW216026   1.004   1.578   5.538
 5043SOL     OW16027   3.468   0.035   2.071
 5043SOL    HW116028   3.376   7.019   2.090
 5043SOL    HW216029   3.462   0.133   2.052
 5044SOL     OW16030   0.511   6.175   1.003
 5044SOL    HW116031   0.416   6.146   0.994
 5044SOL    HW216032   0.569   6.094   1.018
 5045SOL     OW16033   6.058   3.112   1.769
 5045SOL    HW116034   6.093   3.202   1.794
 5045SOL    HW216035   6.130   3.044   1.780
 5046SOL     OW16036   4.003   3.133   2.046
 5046SOL    HW116037   4.079   3.197   2.039
 5046SOL    HW216038   3.944   3.160   2.122
 5047SOL     OW16039   2.227   4.086   3.807
 5047SOL    HW116040   2.307   4.145   3.800
 5047SOL    HW216041   2.222   4.048   3.900
 5048SOL     OW16042   2.150   0.093   5.668
 5048SOL    HW116043   2.216   0.158   5.706
 5048SOL    HW216044   2.185   0.057   5.581
 5049SOL     OW16045   3.863   1.835   6.687
 5049SOL    HW116046   3.957   1.807   6.667
 5049SOL    HW216047   3.802   1.757   6.678
 5050SOL     OW16048   1.160   0.349   1.253
 5050SOL    HW116049   1.069   0.375   1.285
 5050SOL    HW216050   1.200   0.426   1.203
 5051SOL     OW16051   4.186   4.218   1.011
 5051SOL    HW116052   4.115   4.218   1.082
 5051SOL    HW216053   4.274   4.191   1.052
 5052SOL     OW16054   1.864   3.561   4.356
 5052SOL    HW116055   1.941   3.503   4.330
 5052SOL    HW216056   1.820   3.524   4.437
 5053SOL     OW16057   6.412   0.823   0.876
 5053SOL    HW116058   6.424   0.739   0.930
 5053SOL    HW216059   6.371   0.894   0.934
 5054SOL     OW16060   4.219   5.011   3.082
 5054SOL    HW116061   4.168   5.060   3.012
 5054SOL    HW216062   4.232   5.070   3.162
 5055SOL     OW16063   6.914   4.388   5.444
 5055SOL    HW116064   6.931   4.483   5.415
 5055SOL    HW216065   6.819   4.379   5.474
 5056SOL     OW16066   6.609   4.739   3.257
 5056SOL    HW116067   6.610   4.836   3.279
 5056SOL    HW216068   6.548   4.723   3.180
 5057SOL     OW16069   6.655   6.312   2.227
 5057SOL    HW116070   6.665   6.220   2.189
 5057SOL    HW216071   6.740   6.363   2.212
 5058SOL     OW16072   2.930   5.330   5.687
 5058SOL    HW116073   2.959   5.409   5.741
 5058SOL    HW216074   2.864   5.359   5.617
 5059SOL     OW16075   6.928   0.090   1.868
 5059SOL    HW116076   6.869   0.083   1.948
 5059SOL    HW216077   6.907   0.174   1.818
 5060SOL     OW16078   0.122   2.812   6.677
 5060SOL    HW116079   0.214   2.847   6.691
 5060SOL    HW216080   0.124   2.740   6.607
 5061SOL     OW16081   5.822   3.536   0.688
 5061SOL    HW116082   5.729   3.541   0.653
 5061SOL    HW216083   5.823   3.486   0.775
 5062SOL     OW16084   6.490   0.251   0.137
 5062SOL    HW116085   6.414   0.295   0.185
 5062SOL    HW216086   6.462   0.228   0.044
 5063SOL     OW16087   1.011   6.452   2.918
 5063SOL    HW116088   1.023   6.438   2.820
 5063SOL    HW216089   0.914   6.446   2.941
 5064SOL     OW16090   5.598   3.958   0.118
 5064SOL    HW116091   5.563   3.999   0.034
 5064SOL    HW216092   5.678   4.009   0.149
 5065SOL     OW16093   2.688   6.814   6.050
 5065SOL    HW116094   2.683   6.775   6.142
 5065SOL    HW216095   2.598   6.809   6.006
 5066SOL     OW16096   5.041   4.771   0.454
 5066SOL    HW116097   5.044   4.864   0.416
 5066SOL    HW216098   5.068   4.774   0.550
 5067SOL     OW16099   5.411   1.097   6.419
 5067SOL    HW116100   5.401   1.111   6.320
 5067SOL    HW216101   5.326   1.059   6.455
 5068SOL     OW16102   3.075   5.237   1.296
 5068SOL    HW116103   2.992   5.240   1.350
 5068SOL    HW216104   3.149   5.196   1.350
 5069SOL     OW16105   6.859   5.387   3.492
 5069SOL    HW116106   6.884   5.471   3.445
 5069SOL    HW216107   6.799   5.332   3.434
 5070SOL     OW16108   5.269   2.338   3.553
 5070SOL    HW116109   5.192   2.282   3.524
 5070SOL    HW216110   5.262   2.429   3.510
 5071SOL     OW16111   5.130   0.779   1.243
 5071SOL    HW116112   5.214   0.831   1.230
 5071SOL    HW216113   5.143   0.685   1.210
 5072SOL     OW16114   0.467   4.530   2.079
 5072SOL    HW116115   0.416   4.452   2.116
 5072SOL    HW216116   0.521   4.501   2.000
 5073SOL     OW16117   3.924   2.128   3.304
 5073SOL    HW116118   3.863   2.059   3.263
 5073SOL    HW216119   3.979   2.170   3.233
 5074SOL     OW16120   4.121   4.152   5.271
 5074SOL    HW116121   4.066   4.084   5.319
 5074SOL    HW216122   4.214   4.153   5.308
 5075SOL     OW16123   6.855   0.267   4.516
 5075SOL    HW116124   6.860   0.364   4.491
 5075SOL    HW216125   6.764   0.232   4.494
 5076SOL     OW16126   5.404   0.444   0.997
 5076SOL    HW116127   5.404   0.388   0.914
 5076SOL    HW216128   5.498   0.467   1.021
 5077SOL     OW16129   6.994   1.578   2.443
 5077SOL    HW116130   6.965   1.513   2.513
 5077SOL    HW216131   0.026   1.530   2.372
 5078SOL     OW16132   0.111   1.792   4.595
 5078SOL    HW116133   0.202   1.831   4.609
 5078SOL    HW216134   0.119   1.695   4.573
 5079SOL     OW16135   4.740   4.997   4.676
 5079SOL    HW116136   4.716   5.092   4.696
 5079SOL    HW216137   4.820   4.971   4.730
 5080SOL     OW16138   5.547   0.370   5.939
 5080SOL    HW116139   5.588   0.338   5.854
 5080SOL    HW216140   5.494   0.296   5.981
 5081SOL     OW16141   3.165   3.441   3.308
 5081SOL    HW116142   3.144   3.344   3.324
 5081SOL    HW216143   3.080   3.491   3.293
 5082SOL     OW16144   0.810   2.077   5.243
 5082SOL    HW116145   0.854   2.017   5.177
 5082SOL    HW216146   0.716   2.095   5.214
 5083SOL     OW16147   0.976   3.880   2.174
 5083SOL    HW116148   1.013   3.865   2.266
 5083SOL    HW216149   0.879   3.901   2.180
 5084SOL     OW16150   1.307   5.770   2.279
 5084SOL    HW116151   1.347   5.830   2.210
 5084SOL    HW216152   1.378   5.745   2.346
 5085SOL     OW16153   6.409   3.765   0.481
 5085SOL    HW116154   6.372   3.715   0.560
 5085SOL    HW216155   6.507   3.777   0.492
 5086SOL     OW16156   6.333   5.465   4.779
 5086SOL    HW116157   6.426   5.491   4.757
 5086SOL    HW216158   6.270   5.506   4.713
 5087SOL     OW16159   5.142   5.209   5.671
 5087SOL    HW116160   5.122   5.112   5.680
 5087SOL    HW216161   5.061   5.257   5.638
 5088SOL     OW16162   5.851   0.969   6.602
 5088SOL    HW116163   5.881   1.024   6.524
 5088SOL    HW216164   5.912   0.890   6.613
 5089SOL     OW16165   5.288   2.834   3.917
 5089SOL    HW116166   5.254   2.851   4.009
 5089SOL    HW216167   5.339   2.913   3.884
 5090SOL     OW16168   0.971   4.898   0.193
 5090SOL    HW116169   1.059   4.910   0.239
 5090SOL    HW216170   0.940   4.803   0.203
 5091SOL     OW16171   0.859   5.902   3.805
 5091SOL    HW116172   0.763   5.874   3.794
 5091SOL    HW216173   0.881   5.971   3.736
 5092SOL     OW16174   3.267   2.939   0.846
 5092SOL    HW116175   3.251   2.847   0.810
 5092SOL    HW216176   3.229   2.945   0.939
 5093SOL     OW16177   0.559   1.169   2.739
 5093SOL    HW116178   0.602   1.113   2.809
 5093SOL    HW216179   0.459   1.163   2.748
 5094SOL     OW16180   1.242   0.242   6.402
 5094SOL    HW116181   1.272   0.304   6.329
 5094SOL    HW216182   1.177   0.290   6.461
 5095SOL     OW16183   3.182   6.834   5.498
 5095SOL    HW116184   3.196   6.735   5.492
 5095SOL    HW216185   3.096   6.858   5.453
 5096SOL     OW16186   3.535   6.451   2.426
 5096SOL    HW116187   3.456   6.413   2.379
 5096SOL    HW216188   3.517   6.545   2.453
 5097SOL     OW16189   1.049   2.384   6.888
 5097SOL    HW116190   1.147   2.407   6.884
 5097SOL    HW216191   1.037   2.300   6.940
 5098SOL     OW16192   1.228   2.474   2.843
 5098SOL    HW116193   1.322   2.441   2.834
 5098SOL    HW216194   1.209   2.541   2.771
 5099SOL     OW16195   0.570   1.265   3.837
 5099SOL    HW116196   0.551   1.284   3.741
 5099SOL    HW216197   0.534   1.174   3.861
 5100SOL     OW16198   5.125   4.727   5.423
 5100SOL    HW116199   5.092   4.767   5.338
 5100SOL    HW216200   5.215   4.687   5.408
 5101SOL     OW16201   5.383   6.019   0.518
 5101SOL    HW116202   5.287   6.031   0.542
 5101SOL    HW216203   5.390   5.964   0.435
 5102SOL     OW16204   3.545   6.184   4.120
 5102SOL    HW116205   3.465   6.244   4.129
 5102SOL    HW216206   3.628   6.238   4.130
 5103SOL     OW16207   1.131   2.301   3.367
 5103SOL    HW116208   1.166   2.287   3.460
 5103SOL    HW216209   1.207   2.316   3.304
 5104SOL     OW16210   0.740   0.401   0.860
 5104SOL    HW116211   0.798   0.328   0.826
 5104SOL    HW216212   0.647   0.390   0.824
 5105SOL     OW16213   1.750   3.000   0.153
 5105SOL    HW116214   1.703   3.041   0.075
 5105SOL    HW216215   1.806   2.923   0.121
 5106SOL     OW16216   2.170   0.014   2.025
 5106SOL    HW116217   2.164   0.050   2.118
 5106SOL    HW216218   2.244   0.060   1.977
 5107SOL     OW16219   1.774   0.077   6.006
 5107SOL    HW116220   1.714   0.022   6.063
 5107SOL    HW216221   1.728   0.162   5.981
 5108SOL     OW16222   3.676   3.743   4.665
 5108SOL    HW116223   3.723   3.817   4.617
 5108SOL    HW216224   3.604   3.706   4.607
 5109SOL     OW16225   0.306   2.086   2.147
 5109SOL    HW116226   0.265   2.176   2.161
 5109SOL    HW216227   0.356   2.059   2.229
 5110SOL     OW16228   1.963   5.553   5.780
 5110SOL    HW116229   2.031   5.536   5.710
 5110SOL    HW216230   1.872   5.561   5.738
 5111SOL     OW16231   1.122   0.633   6.312
 5111SOL    HW116232   1.183   0.557   6.334
 5111SOL    HW216233   1.070   0.611   6.230
 5112SOL     OW16234   0.265   0.014   3.413
 5112SOL    HW116235   0.356   0.018   3.371
 5112SOL    HW216236   0.197   0.050   3.349
 5113SOL     OW16237   0.708   1.018   6.640
 5113SOL    HW116238   0.757   1.087   6.587
 5113SOL    HW216239   0.767   0.984   6.713
 5114SOL     OW16240   4.823   5.413   6.497
 5114SOL    HW116241   4.802   5.461   6.412
 5114SOL    HW216242   4.741   5.407   6.554
 5115SOL     OW16243   2.621   3.988   5.324
 5115SOL    HW116244   2.640   3.899   5.363
 5115SOL    HW216245   2.545   3.981   5.259
 5116SOL     OW16246   6.670   3.701   1.230
 5116SOL    HW116247   6.590   3.746   1.268
 5116SOL    HW216248   6.651   3.603   1.217
 5117SOL     OW16249   2.433   5.416   2.941
 5117SOL    HW116250   2.338   5.419   2.972
 5117SOL    HW216251   2.470   5.324   2.957
 5118SOL     OW16252   4.030   0.133   1.022
 5118SOL    HW116253   4.074   0.131   1.112
 5118SOL    HW216254   3.943   0.083   1.027
 5119SOL     OW16255   6.054   0.457   2.591
 5119SOL    HW116256   6.011   0.373   2.558
 5119SOL    HW216257   6.021   0.477   2.683
 5120SOL     OW16258   3.825   1.304   0.752
 5120SOL    HW116259   3.919   1.273   0.737
 5120SOL    HW216260   3.773   1.230   0.796
 5121SOL     OW16261   0.736   4.159   4.373
 5121SOL    HW116262   0.756   4.061   4.373
 5121SOL    HW216263   0.641   4.174   4.347
 5122SOL     OW16264   2.671   5.776   2.577
 5122SOL    HW116265   2.766   5.799   2.597
 5122SOL    HW216266   2.650   5.685   2.613
 5123SOL     OW16267   6.247   3.007   2.523
 5123SOL    HW116268   6.270   2.928   2.465
 5123SOL    HW216269   6.196   2.975   2.603
 5124SOL     OW16270   3.601   6.666   0.249
 5124SOL    HW116271   3.588   6.605   0.171
 5124SOL    HW216272   3.696   6.661   0.280
 5125SOL     OW16273   0.775   1.844   6.329
 5125SOL    HW116274   0.733   1.922   6.374
 5125SOL    HW216275   0.861   1.821   6.376
 5126SOL     OW16276   4.501   1.531   0.258
 5126SOL    HW116277   4.485   1.550   0.161
 5126SOL    HW216278   4.539   1.439   0.268
 5127SOL     OW16279   4.987   3.610   5.967
 5127SOL    HW116280   5.065   3.558   5.932
 5127SOL    HW216281   4.902   3.576   5.926
 5128SOL     OW16282   6.928   0.500   7.001
 5128SOL    HW116283   6.853   0.448   0.023
 5128SOL    HW216284   7.014   0.474   0.026
 5129SOL     OW16285   4.538   2.496   3.860
 5129SOL    HW116286   4.468   2.436   3.898
 5129SOL    HW216287   4.622   2.443   3.843
 5130SOL     OW16288   2.215   6.924   4.992
 5130SOL    HW116289   2.262   6.854   4.939
 5130SOL    HW216290   2.282   6.990   5.027
 5131SOL     OW16291   2.906   5.058   2.882
 5131SOL    HW116292   2.851   5.072   2.964
 5131SOL    HW216293   2.901   4.962   2.854
 5132SOL     OW16294   3.282   1.850   6.252
 5132SOL    HW116295   3.221   1.917   6.296
 5132SOL    HW216296   3.325   1.892   6.172
 5133SOL     OW16297   4.098   4.325   6.564
 5133SOL    HW116298   4.114   4.403   6.503
 5133SOL    HW216299   4.025   4.348   6.629
 5134SOL     OW16300   6.168   5.944   0.842
 5134SOL    HW116301   6.131   6.037   0.849
 5134SOL    HW216302   6.101   5.879   0.877
 5135SOL     OW16303   0.807   2.705   2.261
 5135SOL    HW116304   0.813   2.804   2.243
 5135SOL    HW216305   0.759   2.661   2.186
 5136SOL     OW16306   6.872   0.200   4.825
 5136SOL    HW116307   6.847   0.104   4.815
 5136SOL    HW216308   6.867   0.245   4.736
 5137SOL     OW16309   5.244   0.790   3.373
 5137SOL    HW116310   5.268   0.878   3.333
 5137SOL    HW216311   5.169   0.802   3.438
 5138SOL     OW16312   3.472   3.624   2.776
 5138SOL    HW116313   3.384   3.672   2.770
 5138SOL    HW216314   3.456   3.532   2.811
 5139SOL     OW16315   5.367   1.086   4.639
 5139SOL    HW116316   5.281   1.136   4.646
 5139SOL    HW216317   5.351   0.989   4.659
 5140SOL     OW16318   2.820   3.787   5.717
 5140SOL    HW116319   2.859   3.735   5.641
 5140SOL    HW216320   2.723   3.805   5.700
 5141SOL     OW16321   0.819   2.982   1.553
 5141SOL    HW116322   0.896   2.933   1.511
 5141SOL    HW216323   0.842   3.079   1.560
 5142SOL     OW16324   6.870   6.658   2.863
 5142SOL    HW116325   6.920   6.592   2.919
 5142SOL    HW216326   6.910   6.749   2.876
 5143SOL     OW16327   6.295   6.227   2.500
 5143SOL    HW116328   6.265   6.179   2.418
 5143SOL    HW216329   6.216   6.262   2.550
 5144SOL     OW16330   1.549   2.837   5.187
 5144SOL    HW116331   1.612   2.907   5.220
 5144SOL    HW216332   1.570   2.750   5.231
 5145SOL     OW16333   1.493   4.829   6.347
 5145SOL    HW116334   1.394   4.846   6.343
 5145SOL    HW216335   1.528   4.856   6.436
 5146SOL     OW16336   5.344   5.807   6.789
 5146SOL    HW116337   5.403   5.883   6.759
 5146SOL    HW216338   5.258   5.844   6.826
 5147SOL     OW16339   4.430   1.346   2.804
 5147SOL    HW116340   4.436   1.322   2.707
 5147SOL    HW216341   4.451   1.265   2.859
 5148SOL     OW16342   5.943   1.563   0.685
 5148SOL    HW116343   5.910   1.655   0.708
 5148SOL    HW216344   6.010   1.534   0.753
 5149SOL     OW16345   3.091   6.580   3.686
 5149SOL    HW116346   3.091   6.531   3.598
 5149SOL    HW216347   3.061   6.674   3.671
 5150SOL     OW16348   6.738   0.716   4.290
 5150SOL    HW116349   6.640   0.705   4.272
 5150SOL    HW216350   6.782   0.758   4.210
 5151SOL     OW16351   5.207   4.393   2.074
 5151SOL    HW116352   5.152   4.438   2.004
 5151SOL    HW216353   5.147   4.360   2.147
 5152SOL     OW16354   2.453   1.213   0.484
 5152SOL    HW116355   2.410   1.169   0.563
 5152SOL    HW216356   2.398   1.195   0.403
 5153SOL     OW16357   2.069   2.173   0.194
 5153SOL    HW116358   2.060   2.266   0.229
 5153SOL    HW216359   2.049   2.172   0.096
 5154SOL     OW16360   0.731   2.889   6.531
 5154SOL    HW116361   0.820   2.885   6.577
 5154SOL    HW216362   0.683   2.972   6.557
 5155SOL     OW16363   1.405   0.574   0.238
 5155SOL    HW116364   1.357   0.602   0.155
 5155SOL    HW216365   1.486   0.520   0.213
 5156SOL     OW16366   5.142   3.859   5.884
 5156SOL    HW116367   5.046   3.853   5.911
 5156SOL    HW216368   5.151   3.834   5.787
 5157SOL     OW16369   3.792   1.208   1.793
 5157SOL    HW116370   3.768   1.204   1.889
 5157SOL    HW216371   3.712   1.188   1.737
 5158SOL     OW16372   1.792   3.134   2.677
 5158SOL    HW116373   1.734   3.205   2.636
 5158SOL    HW216374   1.822   3.070   2.606
 5159SOL     OW16375   6.648   2.926   5.893
 5159SOL    HW116376   6.705   2.862   5.843
 5159SOL    HW216377   6.703   2.972   5.964
 5160SOL     OW16378   6.449   0.570   3.089
 5160SOL    HW116379   6.486   0.479   3.071
 5160SOL    HW216380   6.524   0.631   3.116
 5161SOL     OW16381   1.389   1.997   6.453
 5161SOL    HW116382   1.464   1.967   6.394
 5161SOL    HW216383   1.344   2.077   6.411
 5162SOL     OW16384   0.327   0.211   5.814
 5162SOL    HW116385   0.418   0.250   5.802
 5162SOL    HW216386   0.295   0.227   5.907
 5163SOL     OW16387   3.319   0.770   1.479
 5163SOL    HW116388   3.392   0.803   1.419
 5163SOL    HW216389   3.250   0.842   1.490
 5164SOL     OW16390   2.790   3.025   0.183
 5164SOL    HW116391   2.823   3.056   0.272
 5164SOL    HW216392   2.771   2.927   0.187
 5165SOL     OW16393   1.041   5.161   5.664
 5165SOL    HW116394   1.116   5.136   5.725
 5165SOL    HW216395   1.062   5.130   5.571
 5166SOL     OW16396   6.571   6.321   5.501
 5166SOL    HW116397   6.653   6.278   5.539
 5166SOL    HW216398   6.503   6.333   5.573
 5167SOL     OW16399   6.466   3.452   6.010
 5167SOL    HW116400   6.400   3.491   6.074
 5167SOL    HW216401   6.554   3.496   6.021
 5168SOL     OW16402   5.125   1.360   3.463
 5168SOL    HW116403   5.162   1.423   3.531
 5168SOL    HW216404   5.026   1.360   3.468
 5169SOL     OW16405   5.308   5.974   4.608
 5169SOL    HW116406   5.329   6.012   4.519
 5169SOL    HW216407   5.264   5.885   4.597
 5170SOL     OW16408   2.604   3.602   6.313
 5170SOL    HW116409   2.593   3.563   6.222
 5170SOL    HW216410   2.690   3.571   6.353
 5171SOL     OW16411   1.855   6.466   5.763
 5171SOL    HW116412   1.853   6.432   5.857
 5171SOL    HW216413   1.781   6.425   5.710
 5172SOL     OW16414   4.818   5.092   5.471
 5172SOL    HW116415   4.897   5.154   5.473
 5172SOL    HW216416   4.840   5.012   5.416
 5173SOL     OW16417   4.397   6.190   4.033
 5173SOL    HW116418   4.346   6.259   3.983
 5173SOL    HW216419   4.492   6.219   4.043
 5174SOL     OW16420   0.540   5.910   3.287
 5174SOL    HW116421   0.584   5.921   3.376
 5174SOL    HW216422   0.594   5.957   3.217
 5175SOL     OW16423   2.891   2.204   5.925
 5175SOL    HW116424   2.950   2.247   5.993
 5175SOL    HW216425   2.796   2.230   5.942
 5176SOL     OW16426   5.548   6.380   6.477
 5176SOL    HW116427   5.634   6.414   6.514
 5176SOL    HW216428   5.490   6.346   6.552
 5177SOL     OW16429   5.450   5.344   1.156
 5177SOL    HW116430   5.476   5.263   1.209
 5177SOL    HW216431   5.521   5.365   1.090
 5178SOL     OW16432   0.824   3.991   0.710
 5178SOL    HW116433   0.878   4.057   0.762
 5178SOL    HW216434   0.758   4.039   0.653
 5179SOL     OW16435   4.077   5.306   2.490
 5179SOL    HW116436   4.050   5.245   2.415
 5179SOL    HW216437   4.011   5.299   2.564
 5180SOL     OW16438   2.966   5.304   2.056
 5180SOL    HW116439   2.956   5.286   1.958
 5180SOL    HW216440   3.062   5.318   2.078
 5181SOL     OW16441   6.480   1.539   5.560
 5181SOL    HW116442   6.546   1.565   5.631
 5181SOL    HW216443   6.416   1.615   5.546
 5182SOL     OW16444   2.244   6.160   2.382
 5182SOL    HW116445   2.198   6.072   2.384
 5182SOL    HW216446   2.337   6.149   2.347
 5183SOL     OW16447   5.525   1.889   3.660
 5183SOL    HW116448   5.473   1.816   3.615
 5183SOL    HW216449   5.605   1.911   3.605
 5184SOL     OW16450   3.029   1.477   1.927
 5184SOL    HW116451   2.938   1.445   1.954
 5184SOL    HW216452   3.066   1.536   1.998
 5185SOL     OW16453   6.391   0.557   1.410
 5185SOL    HW116454   6.347   0.628   1.354
 5185SOL    HW216455   6.335   0.475   1.410
 5186SOL     OW16456   5.796   2.431   6.297
 5186SOL    HW116457   5.867   2.427   6.227
 5186SOL    HW216458   5.808   2.357   6.363
 5187SOL     OW16459   1.341   4.860   5.036
 5187SOL    HW116460   1.348   4.781   4.976
 5187SOL    HW216461   1.247   4.895   5.036
 5188SOL     OW16462   0.231   0.489   2.035
 5188SOL    HW116463   0.184   0.569   2.072
 5188SOL    HW216464   0.306   0.463   2.095
 5189SOL     OW16465   5.155   6.125   6.383
 5189SOL    HW116466   5.126   6.031   6.400
 5189SOL    HW216467   5.254   6.128   6.368
 5190SOL     OW16468   1.418   5.445   0.675
 5190SOL    HW116469   1.415   5.397   0.763
 5190SOL    HW216470   1.349   5.408   0.613
 5191SOL     OW16471   3.168   4.025   1.367
 5191SOL    HW116472   3.149   4.123   1.363
 5191SOL    HW216473   3.178   3.989   1.274
 5192SOL     OW16474   0.693   4.460   2.820
 5192SOL    HW116475   0.789   4.486   2.813
 5192SOL    HW216476   0.674   4.384   2.757
 5193SOL     OW16477   3.728   0.163   4.497
 5193SOL    HW116478   3.697   0.220   4.421
 5193SOL    HW216479   3.678   0.188   4.580
 5194SOL     OW16480   4.323   1.319   5.478
 5194SOL    HW116481   4.240   1.309   5.532
 5194SOL    HW216482   4.320   1.256   5.401
 5195SOL     OW16483   1.821   1.266   5.073
 5195SOL    HW116484   1.845   1.294   5.166
 5195SOL    HW216485   1.738   1.211   5.074
 5196SOL     OW16486   5.966   6.098   2.813
 5196SOL    HW116487   5.957   6.092   2.713
 5196SOL    HW216488   5.876   6.105   2.855
 5197SOL     OW16489   2.208   3.833   5.702
 5197SOL    HW116490   2.231   3.885   5.620
 5197SOL    HW216491   2.112   3.806   5.699
 5198SOL     OW16492   6.461   5.777   4.233
 5198SOL    HW116493   6.522   5.713   4.279
 5198SOL    HW216494   6.371   5.735   4.222
 5199SOL     OW16495   0.849   5.758   1.390
 5199SOL    HW116496   0.789   5.828   1.427
 5199SOL    HW216497   0.819   5.734   1.297
 5200SOL     OW16498   6.873   3.878   5.204
 5200SOL    HW116499   6.829   3.797   5.244
 5200SOL    HW216500   6.968   3.855   5.181
 5201SOL     OW16501   0.860   5.785   4.507
 5201SOL    HW116502   0.773   5.747   4.478
 5201SOL    HW216503   0.853   5.819   4.600
 5202SOL     OW16504   0.344   5.032   1.647
 5202SOL    HW116505   0.355   5.129   1.625
 5202SOL    HW216506   0.255   5.001   1.615
 5203SOL     OW16507   6.569   3.239   6.665
 5203SOL    HW116508   6.503   3.172   6.633
 5203SOL    HW216509   6.650   3.192   6.701
 5204SOL     OW16510   5.684   5.225   6.135
 5204SOL    HW116511   5.605   5.177   6.097
 5204SOL    HW216512   5.726   5.281   6.063
 5205SOL     OW16513   2.451   5.978   0.451
 5205SOL    HW116514   2.467   5.914   0.527
 5205SOL    HW216515   2.515   6.054   0.458
 5206SOL     OW16516   0.339   4.377   4.910
 5206SOL    HW116517   0.302   4.454   4.962
 5206SOL    HW216518   0.382   4.312   4.972
 5207SOL     OW16519   1.600   6.450   2.793
 5207SOL    HW116520   1.517   6.482   2.747
 5207SOL    HW216521   1.652   6.391   2.732
 5208SOL     OW16522   4.668   2.248   0.300
 5208SOL    HW116523   4.670   2.276   0.204
 5208SOL    HW216524   4.574   2.232   0.329
 5209SOL     OW16525   6.236   5.433   3.383
 5209SOL    HW116526   6.269   5.371   3.312
 5209SOL    HW216527   6.314   5.482   3.424
 5210SOL     OW16528   5.030   3.354   3.328
 5210SOL    HW116529   4.959   3.394   3.270
 5210SOL    HW216530   5.102   3.421   3.343
 5211SOL     OW16531   3.001   4.070   1.772
 5211SOL    HW116532   3.027   4.074   1.869
 5211SOL    HW216533   2.954   4.155   1.746
 5212SOL     OW16534   1.115   7.015   6.544
 5212SOL    HW116535   1.103   6.948   6.471
 5212SOL    HW216536   1.198   0.048   6.528
 5213SOL     OW16537   4.840   1.612   6.533
 5213SOL    HW116538   4.921   1.671   6.533
 5213SOL    HW216539   4.768   1.655   6.478
 5214SOL     OW16540   4.904   2.255   0.040
 5214SOL    HW116541   4.957   2.252   0.125
 5214SOL    HW216542   4.953   2.310   6.992
 5215SOL     OW16543   5.998   5.494   4.221
 5215SOL    HW116544   5.899   5.486   4.210
 5215SOL    HW216545   6.044   5.421   4.170
 5216SOL     OW16546   3.674   5.996   1.018
 5216SOL    HW116547   3.770   5.968   1.028
 5216SOL    HW216548   3.619   5.953   1.089
 5217SOL     OW16549   2.915   5.494   3.751
 5217SOL    HW116550   2.899   5.573   3.809
 5217SOL    HW216551   2.917   5.411   3.807
 5218SOL     OW16552   0.950   0.636   3.231
 5218SOL    HW116553   0.996   0.719   3.260
 5218SOL    HW216554   0.856   0.635   3.265
 5219SOL     OW16555   3.217   0.041   0.920
 5219SOL    HW116556   3.215   0.012   0.824
 5219SOL    HW216557   3.202   0.140   0.925
 5220SOL     OW16558   0.635   6.177   2.480
 5220SOL    HW116559   0.543   6.183   2.519
 5220SOL    HW216560   0.630   6.189   2.381
 5221SOL     OW16561   4.675   0.606   0.455
 5221SOL    HW116562   4.612   0.542   0.411
 5221SOL    HW216563   4.764   0.563   0.467
 5222SOL     OW16564   6.893   6.063   2.334
 5222SOL    HW116565   6.821   6.026   2.276
 5222SOL    HW216566   6.966   6.101   2.276
 5223SOL     OW16567   4.564   6.659   1.542
 5223SOL    HW116568   4.515   6.686   1.460
 5223SOL    HW216569   4.646   6.714   1.553
 5224SOL     OW16570   5.580   0.798   3.759
 5224SOL    HW116571   5.665   0.746   3.763
 5224SOL    HW216572   5.584   0.862   3.682
 5225SOL     OW16573   0.201   6.697   5.715
 5225SOL    HW116574   0.200   6.794   5.741
 5225SOL    HW216575   0.117   6.676   5.664
 5226SOL     OW16576   2.315   0.979   3.701
 5226SOL    HW116577   2.400   0.992   3.752
 5226SOL    HW216578   2.244   1.039   3.739
 5227SOL     OW16579   5.792   3.570   4.584
 5227SOL    HW116580   5.744   3.584   4.671
 5227SOL    HW216581   5.890   3.564   4.601
 5228SOL     OW16582   4.741   7.015   1.887
 5228SOL    HW116583   4.699   6.998   1.976
 5228SOL    HW216584   4.735   0.094   1.867
 5229SOL     OW16585   0.556   4.300   4.067
 5229SOL    HW116586   0.521   4.277   3.976
 5229SOL    HW216587   0.649   4.336   4.059
 5230SOL     OW16588   0.601   1.392   6.732
 5230SOL    HW116589   0.654   1.339   6.798
 5230SOL    HW216590   0.530   1.334   6.692
 5231SOL     OW16591   2.898   3.791   3.364
 5231SOL    HW116592   2.848   3.845   3.433
 5231SOL    HW216593   2.962   3.851   3.316
 5232SOL     OW16594   5.276   2.931   4.592
 5232SOL    HW116595   5.236   3.022   4.580
 5232SOL    HW216596   5.362   2.939   4.642
 5233SOL     OW16597   0.697   6.887   2.792
 5233SOL    HW116598   0.793   6.862   2.805
 5233SOL    HW216599   0.684   6.984   2.816
 5234SOL     OW16600   3.577   4.237   1.363
 5234SOL    HW116601   3.513   4.311   1.344
 5234SOL    HW216602   3.631   4.259   1.444
 5235SOL     OW16603   0.871   1.977   1.800
 5235SOL    HW116604   0.907   2.064   1.833
 5235SOL    HW216605   0.899   1.904   1.862
 5236SOL     OW16606   6.050   3.212   0.443
 5236SOL    HW116607   6.097   3.180   0.525
 5236SOL    HW216608   5.994   3.292   0.466
 5237SOL     OW16609   1.787   2.053   2.475
 5237SOL    HW116610   1.759   2.149   2.477
 5237SOL    HW216611   1.835   2.034   2.390
 5238SOL     OW16612   1.951   3.456   1.424
 5238SOL    HW116613   1.936   3.412   1.336
 5238SOL    HW216614   1.872   3.440   1.484
 5239SOL     OW16615   3.029   3.134   5.413
 5239SOL    HW116616   2.934   3.167   5.415
 5239SOL    HW216617   3.035   3.053   5.355
 5240SOL     OW16618   3.747   1.779   4.097
 5240SOL    HW116619   3.665   1.760   4.043
 5240SOL    HW216620   3.819   1.715   4.071
 5241SOL     OW16621   4.444   5.641   5.590
 5241SOL    HW116622   4.481   5.587   5.665
 5241SOL    HW216623   4.365   5.594   5.551
 5242SOL     OW16624   3.442   0.628   5.943
 5242SOL    HW116625   3.541   0.627   5.926
 5242SOL    HW216626   3.417   0.715   5.986
 5243SOL     OW16627   1.601   4.085   0.439
 5243SOL    HW116628   1.611   4.099   0.537
 5243SOL    HW216629   1.556   4.165   0.399
 5244SOL     OW16630   6.098   3.292   6.708
 5244SOL    HW116631   6.117   3.266   6.802
 5244SOL    HW216632   6.126   3.387   6.693
 5245SOL     OW16633   4.823   4.459   5.954
 5245SOL    HW116634   4.769   4.396   5.898
 5245SOL    HW216635   4.906   4.413   5.987
 5246SOL     OW16636   1.224   3.701   3.520
 5246SOL    HW116637   1.223   3.761   3.440
 5246SOL    HW216638   1.182   3.613   3.497
 5247SOL     OW16639   0.633   4.538   0.125
 5247SOL    HW116640   0.556   4.599   0.143
 5247SOL    HW216641   0.620   4.453   0.177
 5248SOL     OW16642   5.097   1.288   0.311
 5248SOL    HW116643   5.068   1.212   0.369
 5248SOL    HW216644   5.016   1.339   0.280
 5249SOL     OW16645   0.722   5.229   0.053
 5249SOL    HW116646   0.710   5.318   0.098
 5249SOL    HW216647   0.815   5.197   0.069
 5250SOL     OW16648   1.323   1.508   5.678
 5250SOL    HW116649   1.228   1.489   5.702
 5250SOL    HW216650   1.334   1.502   5.579
 5251SOL     OW16651   0.683   2.518   1.666
 5251SOL    HW116652   0.671   2.612   1.695
 5251SOL    HW216653   0.605   2.489   1.610
 5252SOL     OW16654   5.268   5.747   1.133
 5252SOL    HW116655   5.181   5.726   1.176
 5252SOL    HW216656   5.325   5.800   1.195
 5253SOL     OW16657   5.990   3.105   3.856
 5253SOL    HW116658   5.985   3.142   3.764
 5253SOL    HW216659   5.908   3.050   3.875
 5254SOL     OW16660   5.104   0.665   4.357
 5254SOL    HW116661   5.122   0.571   4.327
 5254SOL    HW216662   5.171   0.690   4.427
 5255SOL     OW16663   2.501   5.996   2.778
 5255SOL    HW116664   2.460   5.929   2.717
 5255SOL    HW216665   2.465   5.984   2.871
 5256SOL     OW16666   4.675   6.118   2.270
 5256SOL    HW116667   4.756   6.087   2.319
 5256SOL    HW216668   4.702   6.174   2.192
 5257SOL     OW16669   2.708   1.438   2.849
 5257SOL    HW116670   2.694   1.533   2.821
 5257SOL    HW216671   2.698   1.430   2.948
 5258SOL     OW16672   5.532   2.016   1.597
 5258SOL    HW116673   5.510   2.031   1.500
 5258SOL    HW216674   5.627   1.987   1.606
 5259SOL     OW16675   5.878   5.119   1.516
 5259SOL    HW116676   5.888   5.080   1.424
 5259SOL    HW216677   5.905   5.052   1.585
 5260SOL     OW16678   5.011   3.004   1.936
 5260SOL    HW116679   5.033   2.967   2.026
 5260SOL    HW216680   4.923   3.051   1.939
 5261SOL     OW16681   2.393   2.695   5.055
 5261SOL    HW116682   2.396   2.785   5.012
 5261SOL    HW216683   2.456   2.692   5.132
 5262SOL     OW16684   0.900   0.349   1.702
 5262SOL    HW116685   0.849   0.429   1.732
 5262SOL    HW216686   0.981   0.377   1.650
 5263SOL     OW16687   1.475   6.872   6.701
 5263SOL    HW116688   1.458   6.881   6.603
 5263SOL    HW216689   1.392   6.893   6.751
 5264SOL     OW16690   1.154   0.466   0.761
 5264SOL    HW116691   1.155   0.375   0.802
 5264SOL    HW216692   1.060   0.494   0.744
 5265SOL     OW16693   5.365   4.941   3.728
 5265SOL    HW116694   5.361   4.972   3.823
 5265SOL    HW216695   5.461   4.935   3.699
 5266SOL     OW16696   1.349   6.588   1.213
 5266SOL    HW116697   1.374   6.638   1.130
 5266SOL    HW216698   1.270   6.632   1.256
 5267SOL     OW16699   3.873   3.735   5.033
 5267SOL    HW116700   3.935   3.757   5.108
 5267SOL    HW216701   3.782   3.771   5.053
 5268SOL     OW16702   5.524   5.069   5.763
 5268SOL    HW116703   5.490   5.065   5.857
 5268SOL    HW216704   5.541   5.164   5.738
 5269SOL     OW16705   2.676   5.693   5.536
 5269SOL    HW116706   2.704   5.773   5.483
 5269SOL    HW216707   2.681   5.714   5.634
 5270SOL     OW16708   6.867   1.809   2.893
 5270SOL    HW116709   6.878   1.754   2.976
 5270SOL    HW216710   6.771   1.810   2.867
 5271SOL     OW16711   5.283   3.730   4.987
 5271SOL    HW116712   5.301   3.633   4.998
 5271SOL    HW216713   5.315   3.780   5.068
 5272SOL     OW16714   2.340   2.107   3.665
 5272SOL    HW116715   2.358   2.011   3.686
 5272SOL    HW216716   2.251   2.133   3.703
 5273SOL     OW16717   0.064   1.158   5.727
 5273SOL    HW116718   0.052   1.114   5.639
 5273SOL    HW216719   0.093   1.253   5.713
 5274SOL     OW16720   0.665   5.021   4.891
 5274SOL    HW116721   0.609   4.939   4.901
 5274SOL    HW216722   0.694   5.031   4.796
 5275SOL     OW16723   2.236   6.400   0.155
 5275SOL    HW116724   2.245   6.500   0.164
 5275SOL    HW216725   2.291   6.368   0.078
 5276SOL     OW16726   0.086   0.755   0.233
 5276SOL    HW116727   0.054   0.838   0.277
 5276SOL    HW216728   0.149   0.706   0.294
 5277SOL     OW16729   0.727   1.103   1.472
 5277SOL    HW116730   0.737   1.004   1.475
 5277SOL    HW216731   0.802   1.143   1.420
 5278SOL     OW16732   6.739   4.810   6.257
 5278SOL    HW116733   6.777   4.836   6.346
 5278SOL    HW216734   6.803   4.837   6.184
 5279SOL     OW16735   2.680   6.224   0.125
 5279SOL    HW116736   2.590   6.203   0.088
 5279SOL    HW216737   2.683   6.201   0.223
 5280SOL     OW16738   4.886   6.081   5.879
 5280SOL    HW116739   4.843   6.166   5.910
 5280SOL    HW216740   4.849   6.055   5.790
 5281SOL     OW16741   2.271   6.629   4.887
 5281SOL    HW116742   2.298   6.533   4.878
 5281SOL    HW216743   2.177   6.641   4.856
 5282SOL     OW16744   6.586   5.852   0.726
 5282SOL    HW116745   6.565   5.761   0.761
 5282SOL    HW216746   6.626   5.844   0.634
 5283SOL     OW16747   1.622   0.439   4.092
 5283SOL    HW116748   1.543   0.493   4.120
 5283SOL    HW216749   1.594   0.374   4.022
 5284SOL     OW16750   4.876   3.026   2.249
 5284SOL    HW116751   4.813   2.959   2.287
 5284SOL    HW216752   4.836   3.067   2.167
 5285SOL     OW16753   2.136   1.604   3.924
 5285SOL    HW116754   2.148   1.704   3.928
 5285SOL    HW216755   2.090   1.579   3.839
 5286SOL     OW16756   0.520   3.123   1.500
 5286SOL    HW116757   0.602   3.158   1.456
 5286SOL    HW216758   0.526   3.139   1.599
 5287SOL     OW16759   0.553   5.196   2.474
 5287SOL    HW116760   0.539   5.272   2.537
 5287SOL    HW216761   0.645   5.158   2.488
 5288SOL     OW16762   4.558   0.732   1.603
 5288SOL    HW116763   4.476   0.770   1.646
 5288SOL    HW216764   4.558   0.633   1.612
 5289SOL     OW16765   1.865   5.091   6.471
 5289SOL    HW116766   1.849   5.106   6.373
 5289SOL    HW216767   1.963   5.081   6.488
 5290SOL     OW16768   1.822   2.786   5.325
 5290SOL    HW116769   1.828   2.726   5.246
 5290SOL    HW216770   1.852   2.736   5.407
 5291SOL     OW16771   3.112   6.163   4.766
 5291SOL    HW116772   3.192   6.102   4.766
 5291SOL    HW216773   3.032   6.111   4.795
 5292SOL     OW16774   0.830   4.099   4.753
 5292SOL    HW116775   0.863   4.037   4.824
 5292SOL    HW216776   0.905   4.119   4.689
 5293SOL     OW16777   2.541   0.417   3.500
 5293SOL    HW116778   2.512   0.414   3.595
 5293SOL    HW216779   2.482   0.478   3.449
 5294SOL     OW16780   4.998   0.131   4.195
 5294SOL    HW116781   5.067   0.180   4.249
 5294SOL    HW216782   4.970   0.048   4.243
 5295SOL     OW16783   2.150   0.257   1.184
 5295SOL    HW116784   2.091   0.229   1.259
 5295SOL    HW216785   2.182   0.351   1.199
 5296SOL     OW16786   4.558   5.083   2.226
 5296SOL    HW116787   4.563   4.992   2.185
 5296SOL    HW216788   4.631   5.141   2.190
 5297SOL     OW16789   3.579   4.872   5.675
 5297SOL    HW116790   3.665   4.915   5.703
 5297SOL    HW216791   3.511   4.886   5.747
 5298SOL     OW16792   3.531   1.354   0.070
 5298SOL    HW116793   3.456   1.288   0.069
 5298SOL    HW216794   3.532   1.404   7.003
 5299SOL     OW16795   1.478   0.414   1.266
 5299SOL    HW116796   1.426   0.359   1.331
 5299SOL    HW216797   1.481   0.368   1.178
 5300SOL     OW16798   2.893   4.896   0.033
 5300SOL    HW116799   2.834   4.833   0.084
 5300SOL    HW216800   2.878   4.990   0.065
 5301SOL     OW16801   6.707   6.852   6.091
 5301SOL    HW116802   6.743   6.778   6.147
 5301SOL    HW216803   6.782   6.912   6.062
 5302SOL     OW16804   5.112   5.171   3.402
 5302SOL    HW116805   5.188   5.211   3.453
 5302SOL    HW216806   5.110   5.072   3.416
 5303SOL     OW16807   1.567   6.480   5.140
 5303SOL    HW116808   1.484   6.441   5.179
 5303SOL    HW216809   1.624   6.518   5.213
 5304SOL     OW16810   0.045   0.248   3.546
 5304SOL    HW116811   6.988   0.189   3.574
 5304SOL    HW216812   0.130   0.214   3.586
 5305SOL     OW16813   6.516   5.260   4.566
 5305SOL    HW116814   6.543   5.256   4.469
 5305SOL    HW216815   6.441   5.195   4.582
 5306SOL     OW16816   1.116   1.887   6.679
 5306SOL    HW116817   1.025   1.920   6.704
 5306SOL    HW216818   1.172   1.963   6.646
 5307SOL     OW16819   0.840   1.316   1.645
 5307SOL    HW116820   0.803   1.409   1.640
 5307SOL    HW216821   0.786   1.256   1.587
 5308SOL     OW16822   1.945   4.426   2.556
 5308SOL    HW116823   1.948   4.329   2.581
 5308SOL    HW216824   2.032   4.469   2.577
 5309SOL     OW16825   5.441   6.356   3.319
 5309SOL    HW116826   5.348   6.357   3.282
 5309SOL    HW216827   5.438   6.336   3.416
 5310SOL     OW16828   6.269   1.715   3.012
 5310SOL    HW116829   6.264   1.759   2.922
 5310SOL    HW216830   6.248   1.782   3.083
 5311SOL     OW16831   5.852   6.961   0.182
 5311SOL    HW116832   5.765   6.911   0.193
 5311SOL    HW216833   5.926   6.895   0.170
 5312SOL     OW16834   5.739   6.640   1.045
 5312SOL    HW116835   5.718   6.617   0.950
 5312SOL    HW216836   5.667   6.698   1.081
 5313SOL     OW16837   1.568   6.482   5.935
 5313SOL    HW116838   1.570   6.390   5.974
 5313SOL    HW216839   1.503   6.485   5.860
 5314SOL     OW16840   5.658   2.028   1.993
 5314SOL    HW116841   5.626   1.950   1.939
 5314SOL    HW216842   5.717   1.996   2.067
 5315SOL     OW16843   4.008   2.169   3.556
 5315SOL    HW116844   4.094   2.218   3.541
 5315SOL    HW216845   3.975   2.133   3.469
 5316SOL     OW16846   0.157   2.887   4.973
 5316SOL    HW116847   0.256   2.869   4.974
 5316SOL    HW216848   0.121   2.864   4.883
 5317SOL     OW16849   5.570   3.173   1.099
 5317SOL    HW116850   5.504   3.136   1.034
 5317SOL    HW216851   5.526   3.187   1.188
 5318SOL     OW16852   6.774   4.159   5.915
 5318SOL    HW116853   6.700   4.220   5.887
 5318SOL    HW216854   6.792   4.171   6.013
 5319SOL     OW16855   4.017   6.104   2.409
 5319SOL    HW116856   3.981   6.073   2.497
 5319SOL    HW216857   4.097   6.050   2.384
 5320SOL     OW16858   4.514   5.762   0.479
 5320SOL    HW116859   4.450   5.694   0.445
 5320SOL    HW216860   4.575   5.720   0.546
 5321SOL     OW16861   1.433   4.191   5.902
 5321SOL    HW116862   1.498   4.127   5.861
 5321SOL    HW216863   1.343   4.178   5.860
 5322SOL     OW16864   4.131   6.220   1.860
 5322SOL    HW116865   4.124   6.156   1.936
 5322SOL    HW216866   4.063   6.196   1.790
 5323SOL     OW16867   4.094   0.384   6.400
 5323SOL    HW116868   4.144   0.465   6.430
 5323SOL    HW216869   4.047   0.404   6.313
 5324SOL     OW16870   1.087   1.415   2.008
 5324SOL    HW116871   1.067   1.487   2.074
 5324SOL    HW216872   1.125   1.455   1.925
 5325SOL     OW16873   2.262   2.952   4.547
 5325SOL    HW116874   2.299   2.859   4.551
 5325SOL    HW216875   2.264   2.993   4.639
 5326SOL     OW16876   6.060   6.880   1.578
 5326SOL    HW116877   6.158   6.898   1.569
 5326SOL    HW216878   6.040   6.785   1.553
 5327SOL     OW16879   0.597   2.551   5.590
 5327SOL    HW116880   0.522   2.485   5.583
 5327SOL    HW216881   0.603   2.604   5.504
 5328SOL     OW16882   3.873   5.390   0.722
 5328SOL    HW116883   3.806   5.369   0.650
 5328SOL    HW216884   3.854   5.481   0.760
 5329SOL     OW16885   2.828   5.968   6.155
 5329SOL    HW116886   2.772   5.911   6.215
 5329SOL    HW216887   2.909   5.999   6.204
 5330SOL     OW16888   2.832   5.473   1.433
 5330SOL    HW116889   2.812   5.537   1.508
 5330SOL    HW216890   2.776   5.497   1.354
 5331SOL     OW16891   6.324   1.642   6.332
 5331SOL    HW116892   6.262   1.705   6.378
 5331SOL    HW216893   6.317   1.551   6.374
 5332SOL     OW16894   0.835   4.524   2.142
 5332SOL    HW116895   0.926   4.561   2.126
 5332SOL    HW216896   0.767   4.596   2.133
 5333SOL     OW16897   0.954   6.496   4.602
 5333SOL    HW116898   1.045   6.456   4.599
 5333SOL    HW216899   0.958   6.590   4.567
 5334SOL     OW16900   3.395   7.010   5.456
 5334SOL    HW116901   3.428   0.036   5.539
 5334SOL    HW216902   3.317   6.951   5.478
 5335SOL     OW16903   6.644   6.290   0.700
 5335SOL    HW116904   6.566   6.349   0.719
 5335SOL    HW216905   6.683   6.258   0.786
 5336SOL     OW16906   0.877   3.973   1.104
 5336SOL    HW116907   0.873   3.895   1.042
 5336SOL    HW216908   0.925   3.946   1.188
 5337SOL     OW16909   5.405   4.739   1.665
 5337SOL    HW116910   5.420   4.640   1.676
 5337SOL    HW216911   5.492   4.787   1.680
 5338SOL     OW16912   5.411   3.006   0.915
 5338SOL    HW116913   5.497   2.988   0.868
 5338SOL    HW216914   5.386   2.926   0.971
 5339SOL     OW16915   6.735   0.139   2.049
 5339SOL    HW116916   6.636   0.128   2.058
 5339SOL    HW216917   6.764   0.221   2.097
 5340SOL     OW16918   5.059   2.667   6.978
 5340SOL    HW116919   5.009   2.736   0.010
 5340SOL    HW216920   5.142   2.642   0.009
 5341SOL     OW16921   4.867   0.365   0.786
 5341SOL    HW116922   4.849   0.406   0.697
 5341SOL    HW216923   4.783   0.367   0.841
 5342SOL     OW16924   2.397   0.525   5.714
 5342SOL    HW116925   2.351   0.552   5.799
 5342SOL    HW216926   2.480   0.580   5.703
 5343SOL     OW16927   3.103   4.280   1.229
 5343SOL    HW116928   3.172   4.302   1.160
 5343SOL    HW216929   3.022   4.242   1.184
 5344SOL     OW16930   2.004   2.517   2.649
 5344SOL    HW116931   2.020   2.557   2.559
 5344SOL    HW216932   1.952   2.582   2.705
 5345SOL     OW16933   4.669   0.117   3.456
 5345SOL    HW116934   4.628   0.026   3.448
 5345SOL    HW216935   4.742   0.126   3.389
 5346SOL     OW16936   2.956   0.540   3.892
 5346SOL    HW116937   2.912   0.540   3.981
 5346SOL    HW216938   2.931   0.457   3.842
 5347SOL     OW16939   6.672   1.078   1.760
 5347SOL    HW116940   6.591   1.123   1.798
 5347SOL    HW216941   6.709   1.135   1.687
 5348SOL     OW16942   6.482   1.652   0.036
 5348SOL    HW116943   6.425   1.646   0.118
 5348SOL    HW216944   6.468   1.570   6.999
 5349SOL     OW16945   5.846   0.309   1.100
 5349SOL    HW116946   5.919   0.374   1.080
 5349SOL    HW216947   5.883   0.230   1.149
 5350SOL     OW16948   2.664   0.852   6.689
 5350SOL    HW116949   2.738   0.813   6.743
 5350SOL    HW216950   2.690   0.854   6.593
 5351SOL     OW16951   4.642   1.246   2.261
 5351SOL    HW116952   4.645   1.241   2.361
 5351SOL    HW216953   4.619   1.156   2.224
 5352SOL     OW16954   3.470   0.613   2.956
 5352SOL    HW116955   3.443   0.553   3.031
 5352SOL    HW216956   3.536   0.681   2.990
 5353SOL     OW16957   6.191   0.232   6.102
 5353SOL    HW116958   6.185   0.329   6.075
 5353SOL    HW216959   6.285   0.201   6.091
 5354SOL     OW16960   1.269   3.377   1.135
 5354SOL    HW116961   1.206   3.439   1.089
 5354SOL    HW216962   1.217   3.303   1.179
 5355SOL     OW16963   4.692   1.392   5.767
 5355SOL    HW116964   4.741   1.311   5.734
 5355SOL    HW216965   4.702   1.398   5.867
 5356SOL     OW16966   6.539   3.190   1.430
 5356SOL    HW116967   6.626   3.145   1.413
 5356SOL    HW216968   6.523   3.259   1.360
 5357SOL     OW16969   3.936   5.857   0.352
 5357SOL    HW116970   3.954   5.941   0.300
 5357SOL    HW216971   3.842   5.827   0.336
 5358SOL     OW16972   5.355   4.226   1.880
 5358SOL    HW116973   5.285   4.159   1.857
 5358SOL    HW216974   5.315   4.297   1.939
 5359SOL     OW16975   3.235   0.819   5.497
 5359SOL    HW116976   3.227   0.756   5.420
 5359SOL    HW216977   3.253   0.767   5.580
 5360SOL     OW16978   4.380   2.127   0.327
 5360SOL    HW116979   4.348   2.073   0.405
 5360SOL    HW216980   4.361   2.078   0.242
 5361SOL     OW16981   1.077   1.094   6.374
 5361SOL    HW116982   1.170   1.102   6.408
 5361SOL    HW216983   1.078   1.064   6.279
 5362SOL     OW16984   4.020   5.716   3.656
 5362SOL    HW116985   4.026   5.775   3.576
 5362SOL    HW216986   3.925   5.691   3.673
 5363SOL     OW16987   0.837   5.847   4.781
 5363SOL    HW116988   0.782   5.859   4.864
 5363SOL    HW216989   0.907   5.778   4.797
 5364SOL     OW16990   1.470   5.992   6.755
 5364SOL    HW116991   1.543   5.976   6.689
 5364SOL    HW216992   1.415   6.070   6.725
 5365SOL     OW16993   3.964   2.496   5.907
 5365SOL    HW116994   3.928   2.431   5.974
 5365SOL    HW216995   4.026   2.560   5.952
 5366SOL     OW16996   3.611   3.655   6.079
 5366SOL    HW116997   3.705   3.690   6.084
 5366SOL    HW216998   3.613   3.562   6.042
 5367SOL     OW16999   0.316   4.847   0.822
 5367SOL    HW117000   0.335   4.869   0.918
 5367SOL    HW217001   0.330   4.749   0.808
 5368SOL     OW17002   0.800   0.169   3.498
 5368SOL    HW117003   0.847   0.256   3.480
 5368SOL    HW217004   0.702   0.185   3.504
 5369SOL     OW17005   2.064   3.629   2.625
 5369SOL    HW117006   1.973   3.608   2.661
 5369SOL    HW217007   2.082   3.727   2.637
 5370SOL     OW17008   3.608   2.851   1.587
 5370SOL    HW117009   3.677   2.922   1.605
 5370SOL    HW217010   3.518   2.884   1.616
 5371SOL     OW17011   2.063   4.093   5.123
 5371SOL    HW117012   2.080   4.142   5.208
 5371SOL    HW217013   2.138   4.029   5.106
 5372SOL     OW17014   3.254   6.318   2.613
 5372SOL    HW117015   3.176   6.327   2.675
 5372SOL    HW217016   3.249   6.231   2.565
 5373SOL     OW17017   2.346   5.053   3.756
 5373SOL    HW117018   2.294   5.106   3.823
 5373SOL    HW217019   2.440   5.043   3.787
 5374SOL     OW17020   2.965   2.522   0.651
 5374SOL    HW117021   2.924   2.535   0.561
 5374SOL    HW217022   2.942   2.431   0.686
 5375SOL     OW17023   1.345   4.057   5.043
 5375SOL    HW117024   1.432   4.090   5.080
 5375SOL    HW217025   1.296   4.132   5.000
 5376SOL     OW17026   2.818   4.604   5.922
 5376SOL    HW117027   2.839   4.525   5.866
 5376SOL    HW217028   2.859   4.686   5.882
 5377SOL     OW17029   0.710   2.210   1.720
 5377SOL    HW117030   0.612   2.188   1.719
 5377SOL    HW217031   0.723   2.303   1.687
 5378SOL     OW17032   4.791   0.487   6.553
 5378SOL    HW117033   4.814   0.584   6.563
 5378SOL    HW217034   4.828   0.436   6.631
 5379SOL     OW17035   0.004   7.012   0.330
 5379SOL    HW117036   0.031   0.050   0.408
 5379SOL    HW217037   0.086   6.980   0.282
 5380SOL     OW17038   2.072   1.652   5.188
 5380SOL    HW117039   1.992   1.706   5.165
 5380SOL    HW217040   2.113   1.616   5.104
 5381SOL     OW17041   5.934   4.021   1.828
 5381SOL    HW117042   5.863   4.002   1.896
 5381SOL    HW217043   5.900   3.997   1.737
 5382SOL     OW17044   1.716   6.693   1.136
 5382SOL    HW117045   1.644   6.734   1.080
 5382SOL    HW217046   1.683   6.684   1.230
 5383SOL     OW17047   2.148   2.332   4.953
 5383SOL    HW117048   2.111   2.410   5.004
 5383SOL    HW217049   2.086   2.307   4.880
 5384SOL     OW17050   5.188   6.531   4.790
 5384SOL    HW117051   5.101   6.560   4.830
 5384SOL    HW217052   5.239   6.612   4.759
 5385SOL     OW17053   3.380   4.106   2.555
 5385SOL    HW117054   3.398   4.162   2.474
 5385SOL    HW217055   3.464   4.095   2.608
 5386SOL     OW17056   5.842   6.588   5.938
 5386SOL    HW117057   5.904   6.665   5.925
 5386SOL    HW217058   5.892   6.511   5.978
 5387SOL     OW17059   3.601   4.619   0.708
 5387SOL    HW117060   3.657   4.600   0.789
 5387SOL    HW217061   3.642   4.696   0.658
 5388SOL     OW17062   5.978   6.201   3.225
 5388SOL    HW117063   6.010   6.203   3.130
 5388SOL    HW217064   5.944   6.110   3.246
 5389SOL     OW17065   5.836   3.376   1.528
 5389SOL    HW117066   5.806   3.421   1.444
 5389SOL    HW217067   5.816   3.278   1.522
 5390SOL     OW17068   6.396   5.147   6.357
 5390SOL    HW117069   6.337   5.212   6.404
 5390SOL    HW217070   6.489   5.153   6.394
 5391SOL     OW17071   3.632   4.504   0.197
 5391SOL    HW117072   3.672   4.451   0.122
 5391SOL    HW217073   3.575   4.445   0.254
 5392SOL     OW17074   0.376   2.588   3.313
 5392SOL    HW117075   0.461   2.638   3.329
 5392SOL    HW217076   0.301   2.654   3.302
 5393SOL     OW17077   6.646   6.880   6.404
 5393SOL    HW117078   6.587   6.803   6.381
 5393SOL    HW217079   6.608   6.964   6.367
 5394SOL     OW17080   2.075   3.632   5.996
 5394SOL    HW117081   2.170   3.641   5.966
 5394SOL    HW217082   2.036   3.547   5.959
 5395SOL     OW17083   4.780   0.441   1.211
 5395SOL    HW117084   4.816   0.518   1.263
 5395SOL    HW217085   4.685   0.460   1.185
 5396SOL     OW17086   4.912   2.151   1.214
 5396SOL    HW117087   4.959   2.226   1.262
 5396SOL    HW217088   4.832   2.124   1.267
 5397SOL     OW17089   1.364   2.635   1.703
 5397SOL    HW117090   1.280   2.644   1.756
 5397SOL    HW217091   1.376   2.540   1.676
 5398SOL     OW17092   3.296   3.833   2.434
 5398SOL    HW117093   3.284   3.770   2.511
 5398SOL    HW217094   3.271   3.925   2.463
 5399SOL     OW17095   0.562   5.237   0.292
 5399SOL    HW117096   0.598   5.325   0.259
 5399SOL    HW217097   0.604   5.163   0.241
 5400SOL     OW17098   2.524   3.571   6.703
 5400SOL    HW117099   2.484   3.603   6.617
 5400SOL    HW217100   2.452   3.558   6.771
 5401SOL     OW17101   6.351   1.723   0.565
 5401SOL    HW117102   6.417   1.647   0.569
 5401SOL    HW217103   6.400   1.808   0.547
 5402SOL     OW17104   1.126   5.993   2.321
 5402SOL    HW117105   1.190   5.917   2.311
 5402SOL    HW217106   1.067   5.997   2.241
 5403SOL     OW17107   6.417   2.641   6.501
 5403SOL    HW117108   6.462   2.619   6.414
 5403SOL    HW217109   6.428   2.739   6.520
 5404SOL     OW17110   0.767   2.642   2.925
 5404SOL    HW117111   0.685   2.585   2.916
 5404SOL    HW217112   0.844   2.586   2.956
 5405SOL     OW17113   6.537   4.434   5.284
 5405SOL    HW117114   6.448   4.395   5.260
 5405SOL    HW217115   6.580   4.378   5.355
 5406SOL     OW17116   1.659   0.031   2.979
 5406SOL    HW117117   1.623   7.009   2.895
 5406SOL    HW217118   1.623   7.002   3.059
 5407SOL     OW17119   4.027   3.509   6.320
 5407SOL    HW117120   4.103   3.447   6.343
 5407SOL    HW217121   4.032   3.590   6.377
 5408SOL     OW17122   4.018   0.656   6.552
 5408SOL    HW117123   3.925   0.683   6.580
 5408SOL    HW217124   4.068   0.622   6.632
 5409SOL     OW17125   4.867   0.664   1.333
 5409SOL    HW117126   4.869   0.676   1.433
 5409SOL    HW217127   4.954   0.693   1.294
 5410SOL     OW17128   1.414   2.854   2.907
 5410SOL    HW117129   1.446   2.809   2.990
 5410SOL    HW217130   1.479   2.837   2.833
 5411SOL     OW17131   2.401   4.510   4.908
 5411SOL    HW117132   2.464   4.552   4.974
 5411SOL    HW217133   2.362   4.427   4.948
 5412SOL     OW17134   6.103   1.814   2.345
 5412SOL    HW117135   6.177   1.762   2.303
 5412SOL    HW217136   6.134   1.851   2.433
 5413SOL     OW17137   1.637   6.668   2.530
 5413SOL    HW117138   1.594   6.578   2.542
 5413SOL    HW217139   1.735   6.656   2.514
 5414SOL     OW17140   4.133   0.112   6.050
 5414SOL    HW117141   4.228   0.088   6.070
 5414SOL    HW217142   4.074   0.079   6.124
 5415SOL     OW17143   6.346   3.343   2.947
 5415SOL    HW117144   6.408   3.416   2.918
 5415SOL    HW217145   6.354   3.266   2.883
 5416SOL     OW17146   4.098   4.918   4.375
 5416SOL    HW117147   4.180   4.906   4.432
 5416SOL    HW217148   4.017   4.921   4.434
 5417SOL     OW17149   2.583   6.650   5.630
 5417SOL    HW117150   2.649   6.709   5.677
 5417SOL    HW217151   2.490   6.680   5.652
 5418SOL     OW17152   3.628   1.422   3.616
 5418SOL    HW117153   3.553   1.415   3.683
 5418SOL    HW217154   3.641   1.334   3.571
 5419SOL     OW17155   3.316   4.277   0.017
 5419SOL    HW117156   3.283   4.361   0.060
 5419SOL    HW217157   3.275   4.267   6.946
 5420SOL     OW17158   1.078   2.683   2.667
 5420SOL    HW117159   1.093   2.763   2.726
 5420SOL    HW217160   1.159   2.668   2.611
 5421SOL     OW17161   2.428   2.558   0.714
 5421SOL    HW117162   2.476   2.537   0.629
 5421SOL    HW217163   2.473   2.510   0.790
 5422SOL     OW17164   0.862   2.947   0.339
 5422SOL    HW117165   0.813   2.874   0.387
 5422SOL    HW217166   0.958   2.945   0.367
 5423SOL     OW17167   3.946   3.188   6.188
 5423SOL    HW117168   3.890   3.271   6.186
 5423SOL    HW217169   3.909   3.125   6.256
 5424SOL     OW17170   5.518   3.308   5.598
 5424SOL    HW117171   5.495   3.396   5.637
 5424SOL    HW217172   5.537   3.242   5.671
 5425SOL     OW17173   5.352   1.338   4.865
 5425SOL    HW117174   5.393   1.321   4.955
 5425SOL    HW217175   5.267   1.286   4.857
 5426SOL     OW17176   0.600   6.934   4.797
 5426SOL    HW117177   0.633   0.000   4.838
 5426SOL    HW217178   0.500   6.937   4.790
 5427SOL     OW17179   3.861   6.936   0.257
 5427SOL    HW117180   3.935   6.962   0.320
 5427SOL    HW217181   3.815   6.855   0.293
 5428SOL     OW17182   2.356   0.807   0.334
 5428SOL    HW117183   2.441   0.756   0.317
 5428SOL    HW217184   2.278   0.751   0.310
 5429SOL     OW17185   1.386   2.509   6.172
 5429SOL    HW117186   1.363   2.454   6.092
 5429SOL    HW217187   1.334   2.595   6.169
 5430SOL     OW17188   2.228   2.641   5.321
 5430SOL    HW117189   2.219   2.735   5.288
 5430SOL    HW217190   2.315   2.603   5.292
 5431SOL     OW17191   3.346   5.526   4.291
 5431SOL    HW117192   3.434   5.573   4.288
 5431SOL    HW217193   3.299   5.537   4.204
 5432SOL     OW17194   5.889   4.570   1.347
 5432SOL    HW117195   5.796   4.593   1.376
 5432SOL    HW217196   5.954   4.601   1.417
 5433SOL     OW17197   1.369   1.823   3.695
 5433SOL    HW117198   1.315   1.835   3.612
 5433SOL    HW217199   1.342   1.738   3.740
 5434SOL     OW17200   2.201   6.018   5.069
 5434SOL    HW117201   2.185   6.116   5.063
 5434SOL    HW217202   2.115   5.972   5.094
 5435SOL     OW17203   4.615   0.772   2.363
 5435SOL    HW117204   4.582   0.725   2.445
 5435SOL    HW217205   4.673   0.709   2.310
 5436SOL     OW17206   5.214   4.177   2.768
 5436SOL    HW117207   5.212   4.189   2.868
 5436SOL    HW217208   5.131   4.130   2.738
 5437SOL     OW17209   3.831   4.747   6.192
 5437SOL    HW117210   3.830   4.648   6.206
 5437SOL    HW217211   3.806   4.767   6.097
 5438SOL     OW17212   6.646   0.814   0.705
 5438SOL    HW117213   6.606   0.817   0.797
 5438SOL    HW217214   6.593   0.751   0.648
 5439SOL     OW17215   1.482   2.550   0.565
 5439SOL    HW117216   1.447   2.642   0.586
 5439SOL    HW217217   1.551   2.557   0.492
 5440SOL     OW17218   2.213   0.508   1.288
 5440SOL    HW117219   2.153   0.584   1.260
 5440SOL    HW217220   2.293   0.545   1.335
 5441SOL     OW17221   3.937   1.891   4.630
 5441SOL    HW117222   3.982   1.838   4.702
 5441SOL    HW217223   3.912   1.830   4.555
 5442SOL     OW17224   3.536   1.169   1.664
 5442SOL    HW117225   3.479   1.162   1.582
 5442SOL    HW217226   3.541   1.264   1.694
 5443SOL     OW17227   1.448   6.615   5.692
 5443SOL    HW117228   1.375   6.583   5.752
 5443SOL    HW217229   1.412   6.625   5.599
 5444SOL     OW17230   0.291   0.662   3.844
 5444SOL    HW117231   0.349   0.687   3.766
 5444SOL    HW217232   0.236   0.582   3.820
 5445SOL     OW17233   6.108   3.501   2.056
 5445SOL    HW117234   6.039   3.572   2.044
 5445SOL    HW217235   6.137   3.500   2.152
 5446SOL     OW17236   6.339   6.132   6.253
 5446SOL    HW117237   6.334   6.196   6.176
 5446SOL    HW217238   6.419   6.073   6.242
 5447SOL     OW17239   3.242   2.918   1.109
 5447SOL    HW117240   3.242   2.951   1.203
 5447SOL    HW217241   3.317   2.853   1.098
 5448SOL     OW17242   5.356   1.698   6.483
 5448SOL    HW117243   5.325   1.623   6.541
 5448SOL    HW217244   5.450   1.722   6.507
 5449SOL     OW17245   0.302   2.608   6.894
 5449SOL    HW117246   0.365   2.546   6.846
 5449SOL    HW217247   0.351   2.655   6.967
 5450SOL     OW17248   2.242   6.163   0.993
 5450SOL    HW117249   2.215   6.107   1.072
 5450SOL    HW217250   2.160   6.200   0.949
 5451SOL     OW17251   2.690   0.430   2.390
 5451SOL    HW117252   2.779   0.388   2.406
 5451SOL    HW217253   2.640   0.435   2.476
 5452SOL     OW17254   2.987   3.696   5.521
 5452SOL    HW117255   2.948   3.758   5.454
 5452SOL    HW217256   3.078   3.727   5.547
 5453SOL     OW17257   0.410   5.406   5.531
 5453SOL    HW117258   0.458   5.423   5.445
 5453SOL    HW217259   0.457   5.336   5.583
 5454SOL     OW17260   0.887   3.800   5.879
 5454SOL    HW117261   0.934   3.788   5.966
 5454SOL    HW217262   0.944   3.765   5.804
 5455SOL     OW17263   6.391   1.712   0.919
 5455SOL    HW117264   6.380   1.685   0.823
 5455SOL    HW217265   6.378   1.811   0.927
 5456SOL     OW17266   3.712   0.142   1.222
 5456SOL    HW117267   3.693   0.102   1.132
 5456SOL    HW217268   3.626   0.170   1.265
 5457SOL     OW17269   6.262   3.655   1.247
 5457SOL    HW117270   6.241   3.570   1.295
 5457SOL    HW217271   6.319   3.635   1.167
 5458SOL     OW17272   1.619   4.305   6.057
 5458SOL    HW117273   1.542   4.259   6.013
 5458SOL    HW217274   1.701   4.249   6.047
 5459SOL     OW17275   2.271   3.844   6.143
 5459SOL    HW117276   2.266   3.835   6.044
 5459SOL    HW217277   2.265   3.754   6.186
 5460SOL     OW17278   3.991   0.156   4.392
 5460SOL    HW117279   3.922   0.143   4.463
 5460SOL    HW217280   3.946   0.176   4.305
 5461SOL     OW17281   4.033   6.717   4.931
 5461SOL    HW117282   3.937   6.738   4.911
 5461SOL    HW217283   4.086   6.717   4.847
 5462SOL     OW17284   0.028   0.752   1.770
 5462SOL    HW117285   6.994   0.802   1.702
 5462SOL    HW217286   0.059   0.665   1.732
 5463SOL     OW17287   6.907   3.212   0.963
 5463SOL    HW117288   6.900   3.154   0.882
 5463SOL    HW217289   6.928   3.306   0.936
 5464SOL     OW17290   1.478   6.393   4.701
 5464SOL    HW117291   1.498   6.301   4.734
 5464SOL    HW217292   1.484   6.458   4.777
 5465SOL     OW17293   2.866   5.938   6.991
 5465SOL    HW117294   2.814   5.911   6.910
 5465SOL    HW217295   2.808   5.929   0.053
 5466SOL     OW17296   5.022   6.458   4.163
 5466SOL    HW117297   4.947   6.501   4.213
 5466SOL    HW217298   5.053   6.377   4.212
 5467SOL     OW17299   6.270   1.591   1.649
 5467SOL    HW117300   6.258   1.608   1.747
 5467SOL    HW217301   6.280   1.678   1.601
 5468SOL     OW17302   4.437   1.676   6.721
 5468SOL    HW117303   4.492   1.608   6.673
 5468SOL    HW217304   4.396   1.738   6.654
 5469SOL     OW17305   4.895   4.626   1.472
 5469SOL    HW117306   4.852   4.640   1.561
 5469SOL    HW217307   4.867   4.699   1.410
 5470SOL     OW17308   0.493   5.045   3.788
 5470SOL    HW117309   0.591   5.033   3.806
 5470SOL    HW217310   0.459   4.967   3.735
 5471SOL     OW17311   6.774   4.126   2.044
 5471SOL    HW117312   6.836   4.092   1.973
 5471SOL    HW217313   6.773   4.226   2.041
 5472SOL     OW17314   3.614   5.308   5.581
 5472SOL    HW117315   3.592   5.304   5.679
 5472SOL    HW217316   3.537   5.349   5.532
 5473SOL     OW17317   2.137   4.537   3.898
 5473SOL    HW117318   2.112   4.474   3.825
 5473SOL    HW217319   2.112   4.497   3.987
 5474SOL     OW17320   0.705   6.013   3.104
 5474SOL    HW117321   0.665   6.104   3.095
 5474SOL    HW217322   0.801   6.021   3.129
 5475SOL     OW17323   3.331   2.366   1.354
 5475SOL    HW117324   3.361   2.401   1.442
 5475SOL    HW217325   3.386   2.286   1.329
 5476SOL     OW17326   2.329   3.357   6.625
 5476SOL    HW117327   2.386   3.400   6.555
 5476SOL    HW217328   2.270   3.426   6.667
 5477SOL     OW17329   2.026   2.422   2.273
 5477SOL    HW117330   2.025   2.504   2.329
 5477SOL    HW217331   2.120   2.387   2.266
 5478SOL     OW17332   6.999   5.725   5.215
 5478SOL    HW117333   6.957   5.675   5.290
 5478SOL    HW217334   7.010   5.663   5.136
 5479SOL     OW17335   4.240   6.070   5.607
 5479SOL    HW117336   4.273   6.061   5.513
 5479SOL    HW217337   4.305   6.123   5.661
 5480SOL     OW17338   0.085   2.196   5.928
 5480SOL    HW117339   7.018   2.153   5.899
 5480SOL    HW217340   0.116   2.154   6.013
 5481SOL     OW17341   4.356   6.414   3.040
 5481SOL    HW117342   4.310   6.358   3.110
 5481SOL    HW217343   4.305   6.498   3.026
 5482SOL     OW17344   1.648   6.138   2.094
 5482SOL    HW117345   1.677   6.199   2.168
 5482SOL    HW217346   1.612   6.193   2.019
 5483SOL     OW17347   0.795   2.289   6.793
 5483SOL    HW117348   0.877   2.338   6.824
 5483SOL    HW217349   0.779   2.211   6.853
 5484SOL     OW17350   5.127   0.015   5.184
 5484SOL    HW117351   5.140   0.097   5.240
 5484SOL    HW217352   5.216   6.990   5.169
 5485SOL     OW17353   3.489   0.701   4.713
 5485SOL    HW117354   3.479   0.766   4.788
 5485SOL    HW217355   3.479   0.608   4.748
 5486SOL     OW17356   2.643   5.570   4.090
 5486SOL    HW117357   2.676   5.541   4.180
 5486SOL    HW217358   2.582   5.649   4.102
 5487SOL     OW17359   3.782   6.240   5.027
 5487SOL    HW117360   3.687   6.244   5.055
 5487SOL    HW217361   3.812   6.144   5.024
 5488SOL     OW17362   4.762   1.970   6.446
 5488SOL    HW117363   4.769   2.009   6.538
 5488SOL    HW217364   4.844   1.993   6.393
 5489SOL     OW17365   6.650   2.752   3.853
 5489SOL    HW117366   6.619   2.705   3.771
 5489SOL    HW217367   6.614   2.705   3.934
 5490SOL     OW17368   0.554   5.138   2.194
 5490SOL    HW117369   0.561   5.157   2.292
 5490SOL    HW217370   0.643   5.106   2.161
 5491SOL     OW17371   6.481   4.115   0.741
 5491SOL    HW117372   6.397   4.061   0.737
 5491SOL    HW217373   6.485   4.177   0.663
 5492SOL     OW17374   1.003   1.912   0.012
 5492SOL    HW117375   1.064   1.988   0.033
 5492SOL    HW217376   0.961   1.878   0.096
 5493SOL     OW17377   4.106   3.888   6.161
 5493SOL    HW117378   4.119   3.972   6.109
 5493SOL    HW217379   4.163   3.815   6.122
 5494SOL     OW17380   5.769   2.049   5.086
 5494SOL    HW117381   5.746   1.964   5.038
 5494SOL    HW217382   5.837   2.030   5.157
 5495SOL     OW17383   5.711   0.855   0.661
 5495SOL    HW117384   5.629   0.846   0.717
 5495SOL    HW217385   5.717   0.948   0.625
 5496SOL     OW17386   4.083   6.349   6.227
 5496SOL    HW117387   4.014   6.277   6.235
 5496SOL    HW217388   4.039   6.432   6.193
 5497SOL     OW17389   0.916   0.121   6.266
 5497SOL    HW117390   0.901   0.205   6.319
 5497SOL    HW217391   1.003   0.081   6.291
 5498SOL     OW17392   0.315   5.925   1.825
 5498SOL    HW117393   0.395   5.977   1.796
 5498SOL    HW217394   0.342   5.855   1.891
 5499SOL     OW17395   2.188   0.165   3.418
 5499SOL    HW117396   2.106   0.119   3.383
 5499SOL    HW217397   2.200   0.252   3.371
 5500SOL     OW17398   1.123   6.293   1.723
 5500SOL    HW117399   1.173   6.355   1.664
 5500SOL    HW217400   1.028   6.323   1.731
 5501SOL     OW17401   5.381   3.447   0.830
 5501SOL    HW117402   5.336   3.366   0.791
 5501SOL    HW217403   5.333   3.529   0.799
 5502SOL     OW17404   4.584   3.664   0.301
 5502SOL    HW117405   4.529   3.580   0.297
 5502SOL    HW217406   4.529   3.742   0.270
 5503SOL     OW17407   6.514   2.934   1.308
 5503SOL    HW117408   6.608   2.946   1.340
 5503SOL    HW217409   6.468   2.865   1.364
 5504SOL     OW17410   2.960   2.262   6.940
 5504SOL    HW117411   3.015   2.212   6.873
 5504SOL    HW217412   2.903   2.329   6.893
 5505SOL     OW17413   2.621   5.369   2.387
 5505SOL    HW117414   2.539   5.426   2.388
 5505SOL    HW217415   2.692   5.413   2.333
 5506SOL     OW17416   6.894   2.875   6.491
 5506SOL    HW117417   6.927   2.969   6.491
 5506SOL    HW217418   6.859   2.852   6.582
 5507SOL     OW17419   4.038   6.069   0.214
 5507SOL    HW117420   3.997   6.158   0.193
 5507SOL    HW217421   4.069   6.027   0.129
 5508SOL     OW17422   6.633   2.399   6.323
 5508SOL    HW117423   6.636   2.315   6.376
 5508SOL    HW217424   6.727   2.429   6.302
 5509SOL     OW17425   6.258   4.248   0.077
 5509SOL    HW117426   6.257   4.338   0.122
 5509SOL    HW217427   6.199   4.185   0.127
 5510SOL     OW17428   5.535   6.056   6.855
 5510SOL    HW117429   5.622   6.097   6.882
 5510SOL    HW217430   5.534   6.041   6.756
 5511SOL     OW17431   1.041   2.958   6.342
 5511SOL    HW117432   0.989   3.025   6.394
 5511SOL    HW217433   1.029   2.974   6.244
 5512SOL     OW17434   3.209   7.000   2.197
 5512SOL    HW117435   3.271   6.933   2.238
 5512SOL    HW217436   3.159   6.957   2.122
 5513SOL     OW17437   3.995   4.648   6.691
 5513SOL    HW117438   3.923   4.616   6.630
 5513SOL    HW217439   4.004   4.585   6.768
 5514SOL     OW17440   3.849   1.524   0.032
 5514SOL    HW117441   3.900   1.514   6.966
 5514SOL    HW217442   3.897   1.476   0.106
 5515SOL     OW17443   3.432   4.909   2.805
 5515SOL    HW117444   3.424   4.912   2.905
 5515SOL    HW217445   3.341   4.894   2.765
 5516SOL     OW17446   0.714   3.076   6.177
 5516SOL    HW117447   0.655   2.999   6.199
 5516SOL    HW217448   0.782   3.049   6.109
 5517SOL     OW17449   0.958   1.918   4.434
 5517SOL    HW117450   0.909   1.889   4.517
 5517SOL    HW217451   1.054   1.934   4.457
 5518SOL     OW17452   4.186   4.161   5.769
 5518SOL    HW117453   4.092   4.194   5.777
 5518SOL    HW217454   4.241   4.227   5.718
 5519SOL     OW17455   5.328   2.818   5.462
 5519SOL    HW117456   5.244   2.828   5.515
 5519SOL    HW217457   5.323   2.874   5.379
 5520SOL     OW17458   4.868   5.715   1.848
 5520SOL    HW117459   4.817   5.745   1.928
 5520SOL    HW217460   4.807   5.711   1.769
 5521SOL     OW17461   4.500   0.112   2.156
 5521SOL    HW117462   4.491   0.152   2.247
 5521SOL    HW217463   4.574   0.044   2.156
 5522SOL     OW17464   4.593   6.387   6.689
 5522SOL    HW117465   4.538   6.453   6.638
 5522SOL    HW217466   4.687   6.387   6.653
 5523SOL     OW17467   5.390   1.656   0.389
 5523SOL    HW117468   5.413   1.565   0.423
 5523SOL    HW217469   5.298   1.681   0.421
 5524SOL     OW17470   2.145   1.599   2.402
 5524SOL    HW117471   2.063   1.607   2.346
 5524SOL    HW217472   2.224   1.632   2.351
 5525SOL     OW17473   6.303   1.009   1.044
 5525SOL    HW117474   6.391   1.048   1.071
 5525SOL    HW217475   6.240   1.010   1.122
 5526SOL     OW17476   5.539   4.022   3.967
 5526SOL    HW117477   5.524   4.119   3.946
 5526SOL    HW217478   5.572   3.975   3.886
 5527SOL     OW17479   6.364   0.031   2.703
 5527SOL    HW117480   6.268   0.018   2.729
 5527SOL    HW217481   6.422   6.991   2.759
 5528SOL     OW17482   2.047   1.252   0.360
 5528SOL    HW117483   2.145   1.255   0.344
 5528SOL    HW217484   2.000   1.226   0.275
 5529SOL     OW17485   3.582   0.598   2.277
 5529SOL    HW117486   3.575   0.681   2.333
 5529SOL    HW217487   3.675   0.590   2.241
 5530SOL     OW17488   0.933   1.415   1.124
 5530SOL    HW117489   1.007   1.412   1.056
 5530SOL    HW217490   0.920   1.324   1.163
 5531SOL     OW17491   1.298   4.759   0.110
 5531SOL    HW117492   1.330   4.726   0.198
 5531SOL    HW217493   1.270   4.855   0.118
 5532SOL     OW17494   0.099   4.752   6.044
 5532SOL    HW117495   0.037   4.826   6.070
 5532SOL    HW217496   0.069   4.666   6.085
 5533SOL     OW17497   3.268   1.105   3.720
 5533SOL    HW117498   3.360   1.078   3.692
 5533SOL    HW217499   3.246   1.063   3.808
 5534SOL     OW17500   1.423   0.593   4.319
 5534SOL    HW117501   1.428   0.604   4.418
 5534SOL    HW217502   1.346   0.534   4.296
 5535SOL     OW17503   0.429   1.789   2.507
 5535SOL    HW117504   0.484   1.836   2.577
 5535SOL    HW217505   0.386   1.708   2.548
 5536SOL     OW17506   4.342   0.541   4.471
 5536SOL    HW117507   4.308   0.449   4.455
 5536SOL    HW217508   4.286   0.585   4.542
 5537SOL     OW17509   2.554   2.340   2.743
 5537SOL    HW117510   2.573   2.356   2.840
 5537SOL    HW217511   2.638   2.309   2.698
 5538SOL     OW17512   3.809   5.395   3.834
 5538SOL    HW117513   3.773   5.302   3.835
 5538SOL    HW217514   3.844   5.418   3.924
 5539SOL     OW17515   2.523   3.718   0.229
 5539SOL    HW117516   2.593   3.663   0.183
 5539SOL    HW217517   2.562   3.759   0.311
 5540SOL     OW17518   3.845   5.568   0.907
 5540SOL    HW117519   3.752   5.532   0.894
 5540SOL    HW217520   3.843   5.668   0.903
 5541SOL     OW17521   4.471   0.629   6.602
 5541SOL    HW117522   4.404   0.659   6.535
 5541SOL    HW217523   4.503   0.707   6.655
 5542SOL     OW17524   5.816   3.630   6.893
 5542SOL    HW117525   5.847   3.593   6.805
 5542SOL    HW217526   5.717   3.644   6.890
 5543SOL     OW17527   0.739   2.590   5.036
 5543SOL    HW117528   0.804   2.531   5.084
 5543SOL    HW217529   0.771   2.605   4.942
 5544SOL     OW17530   5.596   6.798   0.122
 5544SOL    HW117531   5.620   6.825   0.029
 5544SOL    HW217532   5.522   6.856   0.155
 5545SOL     OW17533   2.595   2.448   2.077
 5545SOL    HW117534   2.687   2.409   2.078
 5545SOL    HW217535   2.529   2.378   2.051
 5546SOL     OW17536   3.251   5.583   4.648
 5546SOL    HW117537   3.166   5.612   4.605
 5546SOL    HW217538   3.290   5.507   4.596
 5547SOL     OW17539   2.703   5.052   3.759
 5547SOL    HW117540   2.764   4.979   3.729
 5547SOL    HW217541   2.749   5.107   3.829
 5548SOL     OW17542   6.536   1.740   4.405
 5548SOL    HW117543   6.457   1.776   4.453
 5548SOL    HW217544   6.507   1.694   4.321
 5549SOL     OW17545   3.385   4.906   5.875
 5549SOL    HW117546   3.303   4.852   5.893
 5549SOL    HW217547   3.395   4.977   5.945
 5550SOL     OW17548   3.063   6.017   2.600
 5550SOL    HW117549   2.989   6.072   2.560
 5550SOL    HW217550   3.150   6.042   2.558
 5551SOL     OW17551   0.643   1.345   2.522
 5551SOL    HW117552   0.643   1.277   2.596
 5551SOL    HW217553   0.551   1.351   2.483
 5552SOL     OW17554   1.944   2.204   2.113
 5552SOL    HW117555   1.867   2.234   2.056
 5552SOL    HW217556   1.983   2.283   2.160
 5553SOL     OW17557   4.781   6.418   5.940
 5553SOL    HW117558   4.691   6.461   5.933
 5553SOL    HW217559   4.851   6.484   5.912
 5554SOL     OW17560   3.004   0.218   5.939
 5554SOL    HW117561   3.099   0.243   5.925
 5554SOL    HW217562   2.996   0.160   6.020
 5555SOL     OW17563   1.303   5.559   1.626
 5555SOL    HW117564   1.244   5.478   1.626
 5555SOL    HW217565   1.251   5.638   1.594
 5556SOL     OW17566   0.074   1.265   4.962
 5556SOL    HW117567   0.089   1.195   5.031
 5556SOL    HW217568   7.007   1.247   4.914
 5557SOL     OW17569   3.559   0.799   2.489
 5557SOL    HW117570   3.605   0.784   2.576
 5557SOL    HW217571   3.469   0.839   2.504
 5558SOL     OW17572   5.068   2.622   6.472
 5558SOL    HW117573   4.976   2.607   6.509
 5558SOL    HW217574   5.061   2.668   6.384
 5559SOL     OW17575   3.656   1.081   0.836
 5559SOL    HW117576   3.566   1.094   0.876
 5559SOL    HW217577   3.718   1.042   0.904
 5560SOL     OW17578   0.073   2.250   4.731
 5560SOL    HW117579   0.027   2.325   4.779
 5560SOL    HW217580   0.014   2.214   4.659
 5561SOL     OW17581   2.165   4.527   2.170
 5561SOL    HW117582   2.227   4.467   2.120
 5561SOL    HW217583   2.095   4.472   2.216
 5562SOL     OW17584   4.332   2.489   0.244
 5562SOL    HW117585   4.390   2.502   0.325
 5562SOL    HW217586   4.237   2.479   0.274
 5563SOL     OW17587   3.732   4.555   1.101
 5563SOL    HW117588   3.716   4.458   1.116
 5563SOL    HW217589   3.763   4.597   1.186
 5564SOL     OW17590   6.472   0.784   2.306
 5564SOL    HW117591   6.485   0.692   2.341
 5564SOL    HW217592   6.502   0.850   2.375
 5565SOL     OW17593   1.685   2.729   5.931
 5565SOL    HW117594   1.730   2.657   5.983
 5565SOL    HW217595   1.751   2.767   5.865
 5566SOL     OW17596   2.167   4.389   0.682
 5566SOL    HW117597   2.266   4.380   0.677
 5566SOL    HW217598   2.143   4.447   0.760
 5567SOL     OW17599   1.310   5.724   3.532
 5567SOL    HW117600   1.219   5.764   3.548
 5567SOL    HW217601   1.300   5.641   3.477
 5568SOL     OW17602   4.174   2.689   6.672
 5568SOL    HW117603   4.269   2.719   6.671
 5568SOL    HW217604   4.150   2.658   6.763
 5569SOL     OW17605   4.592   1.313   6.117
 5569SOL    HW117606   4.497   1.313   6.086
 5569SOL    HW217607   4.621   1.219   6.137
 5570SOL     OW17608   2.028   2.081   5.912
 5570SOL    HW117609   2.010   2.069   6.009
 5570SOL    HW217610   2.124   2.062   5.893
 5571SOL     OW17611   0.516   4.624   6.586
 5571SOL    HW117612   0.567   4.709   6.572
 5571SOL    HW217613   0.554   4.552   6.529
 5572SOL     OW17614   1.088   3.676   5.703
 5572SOL    HW117615   1.166   3.635   5.657
 5572SOL    HW217616   1.004   3.653   5.653
 5573SOL     OW17617   0.259   3.622   6.930
 5573SOL    HW117618   0.191   3.626   6.857
 5573SOL    HW217619   0.339   3.678   6.905
 5574SOL     OW17620   2.121   6.385   4.585
 5574SOL    HW117621   2.079   6.393   4.495
 5574SOL    HW217622   2.090   6.301   4.630
 5575SOL     OW17623   1.053   1.374   2.604
 5575SOL    HW117624   1.099   1.328   2.680
 5575SOL    HW217625   1.121   1.402   2.536
 5576SOL     OW17626   5.210   6.978   6.209
 5576SOL    HW117627   5.193   6.992   6.112
 5576SOL    HW217628   5.294   6.925   6.220
 5577SOL     OW17629   1.444   5.107   4.987
 5577SOL    HW117630   1.514   5.128   5.055
 5577SOL    HW217631   1.412   5.013   4.999
 5578SOL     OW17632   4.318   1.876   6.190
 5578SOL    HW117633   4.392   1.939   6.217
 5578SOL    HW217634   4.232   1.908   6.229
 5579SOL     OW17635   4.759   4.789   1.986
 5579SOL    HW117636   4.754   4.811   2.084
 5579SOL    HW217637   4.825   4.849   1.941
 5580SOL     OW17638   6.506   1.305   2.094
 5580SOL    HW117639   6.459   1.381   2.049
 5580SOL    HW217640   6.481   1.219   2.050
 5581SOL     OW17641   3.370   3.324   0.760
 5581SOL    HW117642   3.280   3.287   0.784
 5581SOL    HW217643   3.438   3.252   0.771
 5582SOL     OW17644   2.945   3.561   5.062
 5582SOL    HW117645   3.023   3.599   5.013
 5582SOL    HW217646   2.937   3.463   5.042
 5583SOL     OW17647   4.309   1.403   6.579
 5583SOL    HW117648   4.364   1.442   6.505
 5583SOL    HW217649   4.212   1.412   6.557
 5584SOL     OW17650   4.858   3.445   4.377
 5584SOL    HW117651   4.781   3.397   4.420
 5584SOL    HW217652   4.926   3.467   4.447
 5585SOL     OW17653   6.996   0.890   3.589
 5585SOL    HW117654   0.043   0.949   3.543
 5585SOL    HW217655   6.904   0.925   3.573
 5586SOL     OW17656   1.568   0.800   0.316
 5586SOL    HW117657   1.519   0.853   0.386
 5586SOL    HW217658   1.520   0.714   0.300
 5587SOL     OW17659   3.639   6.973   3.116
 5587SOL    HW117660   3.657   0.044   3.153
 5587SOL    HW217661   3.726   6.927   3.095
 5588SOL     OW17662   4.686   5.535   0.541
 5588SOL    HW117663   4.720   5.483   0.620
 5588SOL    HW217664   4.603   5.493   0.506
 5589SOL     OW17665   1.588   2.711   6.627
 5589SOL    HW117666   1.593   2.758   6.539
 5589SOL    HW217667   1.522   2.635   6.620
 5590SOL     OW17668   5.975   0.563   3.429
 5590SOL    HW117669   6.020   0.589   3.514
 5590SOL    HW217670   5.905   0.631   3.406
 5591SOL     OW17671   5.305   1.366   6.075
 5591SOL    HW117672   5.343   1.428   6.143
 5591SOL    HW217673   5.223   1.408   6.034
 5592SOL     OW17674   1.387   3.595   2.693
 5592SOL    HW117675   1.369   3.567   2.599
 5592SOL    HW217676   1.309   3.568   2.751
 5593SOL     OW17677   2.321   3.363   5.246
 5593SOL    HW117678   2.281   3.433   5.305
 5593SOL    HW217679   2.381   3.305   5.300
 5594SOL     OW17680   2.624   1.119   6.021
 5594SOL    HW117681   2.681   1.200   6.039
 5594SOL    HW217682   2.675   1.055   5.963
 5595SOL     OW17683   6.957   3.398   0.659
 5595SOL    HW117684   6.938   3.300   0.665
 5595SOL    HW217685   6.926   3.443   0.742
 5596SOL     OW17686   5.144   3.568   4.075
 5596SOL    HW117687   5.097   3.569   3.987
 5596SOL    HW217688   5.091   3.621   4.142
 5597SOL     OW17689   0.452   1.886   6.859
 5597SOL    HW117690   0.505   1.801   6.852
 5597SOL    HW217691   0.403   1.888   6.946
 5598SOL     OW17692   6.570   7.008   3.485
 5598SOL    HW117693   6.604   6.923   3.444
 5598SOL    HW217694   6.625   0.066   3.453
 5599SOL     OW17695   4.688   2.789   2.662
 5599SOL    HW117696   4.688   2.746   2.752
 5599SOL    HW217697   4.725   2.882   2.669
 5600SOL     OW17698   2.012   3.367   2.133
 5600SOL    HW117699   2.040   3.326   2.220
 5600SOL    HW217700   2.083   3.431   2.103
 5601SOL     OW17701   5.276   2.361   6.676
 5601SOL    HW117702   5.366   2.404   6.687
 5601SOL    HW217703   5.222   2.374   6.759
 5602SOL     OW17704   5.656   0.865   2.668
 5602SOL    HW117705   5.612   0.908   2.590
 5602SOL    HW217706   5.594   0.800   2.711
 5603SOL     OW17707   3.944   1.289   6.545
 5603SOL    HW117708   3.942   1.366   6.482
 5603SOL    HW217709   4.009   1.220   6.512
 5604SOL     OW17710   1.952   4.111   3.727
 5604SOL    HW117711   1.882   4.048   3.761
 5604SOL    HW217712   2.033   4.104   3.784
 5605SOL     OW17713   2.950   6.801   4.520
 5605SOL    HW117714   2.956   6.896   4.551
 5605SOL    HW217715   2.860   6.786   4.479
 5606SOL     OW17716   4.297   4.430   1.115
 5606SOL    HW117717   4.247   4.347   1.091
 5606SOL    HW217718   4.342   4.467   1.034
 5607SOL     OW17719   1.458   1.903   1.747
 5607SOL    HW117720   1.389   1.849   1.795
 5607SOL    HW217721   1.521   1.943   1.815
 5608SOL     OW17722   6.797   6.369   4.105
 5608SOL    HW117723   6.715   6.347   4.052
 5608SOL    HW217724   6.863   6.295   4.096
 5609SOL     OW17725   6.979   1.137   0.651
 5609SOL    HW117726   0.003   1.100   0.734
 5609SOL    HW217727   0.029   1.178   0.592
 5610SOL     OW17728   5.285   6.490   6.376
 5610SOL    HW117729   5.381   6.462   6.381
 5610SOL    HW217730   5.241   6.441   6.301
 5611SOL     OW17731   0.143   4.369   1.776
 5611SOL    HW117732   0.162   4.338   1.683
 5611SOL    HW217733   0.198   4.315   1.840
 5612SOL     OW17734   5.250   1.923   1.197
 5612SOL    HW117735   5.150   1.929   1.202
 5612SOL    HW217736   5.279   1.833   1.230
 5613SOL     OW17737   6.714   5.389   5.312
 5613SOL    HW117738   6.784   5.369   5.243
 5613SOL    HW217739   6.627   5.409   5.266
 5614SOL     OW17740   5.231   2.418   4.390
 5614SOL    HW117741   5.280   2.491   4.437
 5614SOL    HW217742   5.275   2.330   4.410
 5615SOL     OW17743   0.985   3.239   2.528
 5615SOL    HW117744   1.000   3.337   2.542
 5615SOL    HW217745   0.936   3.201   2.606
 5616SOL     OW17746   1.915   3.094   1.765
 5616SOL    HW117747   1.966   3.097   1.851
 5616SOL    HW217748   1.943   3.014   1.713
 5617SOL     OW17749   0.263   4.839   5.024
 5617SOL    HW117750   0.297   4.809   4.935
 5617SOL    HW217751   0.175   4.886   5.013
 5618SOL     OW17752   5.120   1.229   3.078
 5618SOL    HW117753   5.205   1.239   3.027
 5618SOL    HW217754   5.047   1.277   3.029
 5619SOL     OW17755   3.733   4.050   4.155
 5619SOL    HW117756   3.670   4.098   4.217
 5619SOL    HW217757   3.711   4.074   4.060
 5620SOL     OW17758   4.943   4.518   5.516
 5620SOL    HW117759   5.006   4.450   5.555
 5620SOL    HW217760   4.995   4.595   5.479
 5621SOL     OW17761   0.814   3.194   0.271
 5621SOL    HW117762   0.823   3.098   0.299
 5621SOL    HW217763   0.891   3.246   0.305
 5622SOL     OW17764   5.289   5.894   3.583
 5622SOL    HW117765   5.201   5.858   3.613
 5622SOL    HW217766   5.347   5.911   3.663
 5623SOL     OW17767   4.686   4.370   3.570
 5623SOL    HW117768   4.675   4.320   3.656
 5623SOL    HW217769   4.597   4.404   3.540
 5624SOL     OW17770   5.059   3.913   4.110
 5624SOL    HW117771   5.018   3.861   4.184
 5624SOL    HW217772   5.158   3.918   4.124
 5625SOL     OW17773   3.945   0.012   6.219
 5625SOL    HW117774   3.901   6.959   6.166
 5625SOL    HW217775   3.891   0.096   6.214
 5626SOL     OW17776   1.840   4.194   6.054
 5626SOL    HW117777   1.870   4.133   5.981
 5626SOL    HW217778   1.889   4.172   6.138
 5627SOL     OW17779   0.722   5.453   0.862
 5627SOL    HW117780   0.741   5.355   0.857
 5627SOL    HW217781   0.700   5.487   0.771
 5628SOL     OW17782   0.890   2.759   6.777
 5628SOL    HW117783   0.800   2.742   6.817
 5628SOL    HW217784   0.942   2.821   6.835
 5629SOL     OW17785   0.832   3.436   5.267
 5629SOL    HW117786   0.837   3.443   5.167
 5629SOL    HW217787   0.913   3.388   5.301
 5630SOL     OW17788   0.984   4.741   6.777
 5630SOL    HW117789   1.020   4.701   6.861
 5630SOL    HW217790   1.025   4.696   6.698
 5631SOL     OW17791   2.656   0.701   3.728
 5631SOL    HW117792   2.751   0.730   3.728
 5631SOL    HW217793   2.642   0.633   3.800
 5632SOL     OW17794   2.619   6.339   6.429
 5632SOL    HW117795   2.567   6.377   6.506
 5632SOL    HW217796   2.560   6.334   6.348
 5633SOL     OW17797   1.856   5.574   5.009
 5633SOL    HW117798   1.920   5.502   4.981
 5633SOL    HW217799   1.763   5.548   4.983
 5634SOL     OW17800   2.362   0.104   1.385
 5634SOL    HW117801   2.273   0.143   1.410
 5634SOL    HW217802   2.349   0.027   1.322
 5635SOL     OW17803   4.186   1.048   2.829
 5635SOL    HW117804   4.132   1.110   2.886
 5635SOL    HW217805   4.164   1.063   2.733
 5636SOL     OW17806   4.845   0.423   4.381
 5636SOL    HW117807   4.861   0.444   4.285
 5636SOL    HW217808   4.801   0.502   4.425
 5637SOL     OW17809   6.126   7.008   5.613
 5637SOL    HW117810   6.030   0.003   5.636
 5637SOL    HW217811   6.184   0.031   5.683
 5638SOL     OW17812   1.371   6.837   0.087
 5638SOL    HW117813   1.470   6.831   0.072
 5638SOL    HW217814   1.339   6.751   0.127
 5639SOL     OW17815   3.940   6.975   1.588
 5639SOL    HW117816   3.863   6.913   1.584
 5639SOL    HW217817   3.917   0.041   1.542
 5640SOL     OW17818   4.719   6.517   4.202
 5640SOL    HW117819   4.723   6.548   4.107
 5640SOL    HW217820   4.627   6.485   4.222
 5641SOL     OW17821   6.572   4.485   3.912
 5641SOL    HW117822   6.605   4.456   3.822
 5641SOL    HW217823   6.476   4.512   3.904
 5642SOL     OW17824   2.378   2.099   6.391
 5642SOL    HW117825   2.311   2.049   6.336
 5642SOL    HW217826   2.351   2.096   6.487
 5643SOL     OW17827   5.317   2.619   3.475
 5643SOL    HW117828   5.263   2.662   3.548
 5643SOL    HW217829   5.318   2.678   3.395
 5644SOL     OW17830   2.848   0.987   5.864
 5644SOL    HW117831   2.890   1.001   5.954
 5644SOL    HW217832   2.913   1.010   5.792
 5645SOL     OW17833   6.200   6.316   4.525
 5645SOL    HW117834   6.286   6.315   4.475
 5645SOL    HW217835   6.189   6.405   4.570
 5646SOL     OW17836   6.738   1.007   2.590
 5646SOL    HW117837   6.753   1.007   2.491
 5646SOL    HW217838   6.817   1.047   2.636
 5647SOL     OW17839   5.880   3.560   6.623
 5647SOL    HW117840   5.872   3.643   6.568
 5647SOL    HW217841   5.974   3.552   6.658
 5648SOL     OW17842   1.568   1.927   4.021
 5648SOL    HW117843   1.618   1.842   4.006
 5648SOL    HW217844   1.470   1.911   4.004
 5649SOL     OW17845   6.704   0.629   4.681
 5649SOL    HW117846   6.645   0.704   4.712
 5649SOL    HW217847   6.786   0.625   4.738
 5650SOL     OW17848   6.063   4.797   5.773
 5650SOL    HW117849   6.011   4.875   5.740
 5650SOL    HW217850   6.030   4.714   5.729
 5651SOL     OW17851   5.889   0.395   3.230
 5651SOL    HW117852   5.864   0.429   3.321
 5651SOL    HW217853   5.988   0.398   3.220
 5652SOL     OW17854   4.380   4.359   6.565
 5652SOL    HW117855   4.284   4.337   6.582
 5652SOL    HW217856   4.437   4.280   6.585
 5653SOL     OW17857   2.087   6.521   6.273
 5653SOL    HW117858   1.990   6.543   6.281
 5653SOL    HW217859   2.134   6.547   6.357
 5654SOL     OW17860   2.601   6.651   0.348
 5654SOL    HW117861   2.609   6.698   0.436
 5654SOL    HW217862   2.526   6.691   0.295
 5655SOL     OW17863   5.968   5.563   2.354
 5655SOL    HW117864   6.031   5.491   2.324
 5655SOL    HW217865   5.952   5.555   2.452
 5656SOL     OW17866   3.103   4.707   6.461
 5656SOL    HW117867   3.148   4.666   6.541
 5656SOL    HW217868   3.056   4.791   6.489
 5657SOL     OW17869   5.256   5.625   2.219
 5657SOL    HW117870   5.334   5.575   2.181
 5657SOL    HW217871   5.199   5.562   2.272
 5658SOL     OW17872   4.605   6.669   5.891
 5658SOL    HW117873   4.564   6.741   5.946
 5658SOL    HW217874   4.544   6.646   5.815
 5659SOL     OW17875   2.874   3.369   2.528
 5659SOL    HW117876   2.875   3.280   2.481
 5659SOL    HW217877   2.787   3.379   2.577
 5660SOL     OW17878   0.416   4.975   1.906
 5660SOL    HW117879   0.344   4.961   1.974
 5660SOL    HW217880   0.374   4.995   1.817
 5661SOL     OW17881   5.905   5.924   4.907
 5661SOL    HW117882   5.903   5.963   4.816
 5661SOL    HW217883   5.812   5.909   4.940
 5662SOL     OW17884   1.671   4.073   4.859
 5662SOL    HW117885   1.578   4.053   4.828
 5662SOL    HW217886   1.709   3.992   4.904
 5663SOL     OW17887   2.576   4.059   0.417
 5663SOL    HW117888   2.632   4.108   0.349
 5663SOL    HW217889   2.503   4.009   0.370
 5664SOL     OW17890   6.482   6.853   1.339
 5664SOL    HW117891   6.520   6.761   1.327
 5664SOL    HW217892   6.452   6.888   1.250
 5665SOL     OW17893   1.372   0.829   5.747
 5665SOL    HW117894   1.343   0.743   5.704
 5665SOL    HW217895   1.447   0.869   5.694
 5666SOL     OW17896   5.033   5.955   6.618
 5666SOL    HW117897   4.998   5.942   6.525
 5666SOL    HW217898   5.025   5.870   6.669
 5667SOL     OW17899   5.296   4.648   3.278
 5667SOL    HW117900   5.270   4.623   3.371
 5667SOL    HW217901   5.335   4.740   3.277
 5668SOL     OW17902   6.135   2.649   6.585
 5668SOL    HW117903   6.082   2.653   6.500
 5668SOL    HW217904   6.232   2.640   6.563
 5669SOL     OW17905   0.547   2.147   5.522
 5669SOL    HW117906   0.619   2.187   5.579
 5669SOL    HW217907   0.536   2.051   5.546
 5670SOL     OW17908   1.481   3.119   1.833
 5670SOL    HW117909   1.417   3.083   1.901
 5670SOL    HW217910   1.556   3.054   1.821
 5671SOL     OW17911   0.636   0.426   6.000
 5671SOL    HW117912   0.646   0.503   5.936
 5671SOL    HW217913   0.633   0.340   5.949
 5672SOL     OW17914   4.588   4.527   5.670
 5672SOL    HW117915   4.667   4.584   5.695
 5672SOL    HW217916   4.606   4.482   5.582
 5673SOL     OW17917   1.791   6.441   1.133
 5673SOL    HW117918   1.775   6.539   1.145
 5673SOL    HW217919   1.747   6.411   1.048
 5674SOL     OW17920   0.831   2.881   0.831
 5674SOL    HW117921   0.800   2.969   0.797
 5674SOL    HW217922   0.789   2.862   0.920
 5675SOL     OW17923   4.056   1.327   5.509
 5675SOL    HW117924   4.005   1.401   5.464
 5675SOL    HW217925   4.002   1.291   5.585
 5676SOL     OW17926   2.193   6.533   1.955
 5676SOL    HW117927   2.177   6.472   2.032
 5676SOL    HW217928   2.227   6.621   1.988
 5677SOL     OW17929   5.720   0.109   2.935
 5677SOL    HW117930   5.719   0.009   2.940
 5677SOL    HW217931   5.677   0.147   3.017
 5678SOL     OW17932   1.569   5.654   2.764
 5678SOL    HW117933   1.614   5.589   2.826
 5678SOL    HW217934   1.472   5.632   2.758
 5679SOL     OW17935   3.989   5.744   5.579
 5679SOL    HW117936   4.012   5.827   5.631
 5679SOL    HW217937   3.909   5.700   5.619
 5680SOL     OW17938   1.659   0.325   6.166
 5680SOL    HW117939   1.728   0.396   6.182
 5680SOL    HW217940   1.602   0.351   6.089
 5681SOL     OW17941   3.200   3.667   0.217
 5681SOL    HW117942   3.230   3.751   0.261
 5681SOL    HW217943   3.268   3.595   0.232
 5682SOL     OW17944   2.040   3.684   4.670
 5682SOL    HW117945   2.076   3.692   4.577
 5682SOL    HW217946   1.940   3.684   4.667
 5683SOL     OW17947   3.346   3.539   4.854
 5683SOL    HW117948   3.375   3.634   4.847
 5683SOL    HW217949   3.425   3.479   4.842
 5684SOL     OW17950   3.183   4.037   2.750
 5684SOL    HW117951   3.218   4.076   2.835
 5684SOL    HW217952   3.243   4.064   2.674
 5685SOL     OW17953   0.236   6.898   1.896
 5685SOL    HW117954   0.326   6.940   1.887
 5685SOL    HW217955   0.167   6.958   1.858
 5686SOL     OW17956   3.645   4.819   6.406
 5686SOL    HW117957   3.669   4.748   6.472
 5686SOL    HW217958   3.699   4.807   6.323
 5687SOL     OW17959   4.518   6.276   6.008
 5687SOL    HW117960   4.424   6.298   6.034
 5687SOL    HW217961   4.564   6.231   6.085
 5688SOL     OW17962   5.480   1.425   2.304
 5688SOL    HW117963   5.505   1.334   2.339
 5688SOL    HW217964   5.382   1.427   2.284
 5689SOL     OW17965   3.724   2.847   5.014
 5689SOL    HW117966   3.775   2.930   5.037
 5689SOL    HW217967   3.776   2.793   4.947
 5690SOL     OW17968   3.449   0.379   3.225
 5690SOL    HW117969   3.540   0.339   3.218
 5690SOL    HW217970   3.442   0.434   3.308
 5691SOL     OW17971   3.314   0.553   4.497
 5691SOL    HW117972   3.403   0.539   4.453
 5691SOL    HW217973   3.325   0.613   4.577
 5692SOL     OW17974   5.657   2.971   0.396
 5692SOL    HW117975   5.669   2.873   0.414
 5692SOL    HW217976   5.699   3.024   0.470
 5693SOL     OW17977   5.707   3.339   1.787
 5693SOL    HW117978   5.624   3.286   1.767
 5693SOL    HW217979   5.753   3.364   1.702
 5694SOL     OW17980   2.086   2.534   5.113
 5694SOL    HW117981   2.113   2.568   5.203
 5694SOL    HW217982   2.146   2.574   5.043
 5695SOL     OW17983   1.725   3.305   3.369
 5695SOL    HW117984   1.696   3.212   3.350
 5695SOL    HW217985   1.822   3.306   3.392
 5696SOL     OW17986   3.467   1.421   6.559
 5696SOL    HW117987   3.471   1.503   6.502
 5696SOL    HW217988   3.384   1.369   6.537
 5697SOL     OW17989   6.700   3.873   0.757
 5697SOL    HW117990   6.662   3.966   0.757
 5697SOL    HW217991   6.676   3.827   0.672
 5698SOL     OW17992   1.672   4.388   4.261
 5698SOL    HW117993   1.708   4.401   4.354
 5698SOL    HW217994   1.589   4.442   4.249
 5699SOL     OW17995   0.781   2.376   5.262
 5699SOL    HW117996   0.767   2.451   5.327
 5699SOL    HW217997   0.754   2.290   5.304
 5700SOL     OW17998   1.326   5.093   4.399
 5700SOL    HW117999   1.265   5.170   4.418
 5700SOL    HW218000   1.399   5.090   4.468
 5701SOL     OW18001   4.577   2.037   2.547
 5701SOL    HW118002   4.478   2.029   2.557
 5701SOL    HW218003   4.599   2.122   2.499
 5702SOL     OW18004   4.102   0.562   6.806
 5702SOL    HW118005   4.075   0.472   6.839
 5702SOL    HW218006   4.162   0.605   6.874
 5703SOL     OW18007   5.078   3.859   2.409
 5703SOL    HW118008   5.001   3.924   2.407
 5703SOL    HW218009   5.135   3.878   2.489
 5704SOL     OW18010   5.217   3.528   3.350
 5704SOL    HW118011   5.295   3.490   3.399
 5704SOL    HW218012   5.246   3.607   3.296
 5705SOL     OW18013   6.696   0.794   3.767
 5705SOL    HW118014   6.711   0.769   3.863
 5705SOL    HW218015   6.698   0.712   3.710
 5706SOL     OW18016   2.211   1.554   5.798
 5706SOL    HW118017   2.267   1.510   5.868
 5706SOL    HW218018   2.264   1.564   5.714
 5707SOL     OW18019   4.630   0.774   1.300
 5707SOL    HW118020   4.601   0.754   1.394
 5707SOL    HW218021   4.696   0.706   1.271
 5708SOL     OW18022   1.069   6.780   0.510
 5708SOL    HW118023   1.003   6.755   0.439
 5708SOL    HW218024   1.145   6.715   0.509
 5709SOL     OW18025   0.501   2.793   0.866
 5709SOL    HW118026   0.528   2.866   0.803
 5709SOL    HW218027   0.493   2.830   0.959
 5710SOL     OW18028   3.452   5.212   6.638
 5710SOL    HW118029   3.539   5.257   6.615
 5710SOL    HW218030   3.460   5.114   6.619
 5711SOL     OW18031   4.840   1.500   4.840
 5711SOL    HW118032   4.867   1.493   4.936
 5711SOL    HW218033   4.740   1.495   4.833
 5712SOL     OW18034   5.590   6.651   5.882
 5712SOL    HW118035   5.586   6.750   5.868
 5712SOL    HW218036   5.685   6.625   5.901
 5713SOL     OW18037   0.137   3.915   2.498
 5713SOL    HW118038   0.051   3.912   2.549
 5713SOL    HW218039   0.165   3.822   2.475
 5714SOL     OW18040   2.520   0.492   1.311
 5714SOL    HW118041   2.617   0.515   1.320
 5714SOL    HW218042   2.475   0.504   1.399
 5715SOL     OW18043   0.738   6.081   4.058
 5715SOL    HW118044   0.790   6.160   4.027
 5715SOL    HW218045   0.796   6.022   4.114
 5716SOL     OW18046   1.437   2.570   4.944
 5716SOL    HW118047   1.425   2.664   4.976
 5716SOL    HW218048   1.357   2.516   4.967
 5717SOL     OW18049   0.549   4.207   5.900
 5717SOL    HW118050   0.467   4.170   5.942
 5717SOL    HW218051   0.524   4.254   5.815
 5718SOL     OW18052   3.188   6.003   6.052
 5718SOL    HW118053   3.158   6.017   6.146
 5718SOL    HW218054   3.199   5.905   6.034
 5719SOL     OW18055   2.037   0.827   6.845
 5719SOL    HW118056   2.035   0.904   6.909
 5719SOL    HW218057   1.966   0.840   6.776
 5720SOL     OW18058   2.079   5.865   4.127
 5720SOL    HW118059   1.997   5.810   4.141
 5720SOL    HW218060   2.151   5.808   4.089
 5721SOL     OW18061   6.262   5.693   6.595
 5721SOL    HW118062   6.339   5.698   6.659
 5721SOL    HW218063   6.288   5.636   6.517
 5722SOL     OW18064   5.315   0.847   4.451
 5722SOL    HW118065   5.303   0.943   4.477
 5722SOL    HW218066   5.384   0.805   4.510
 5723SOL     OW18067   6.651   5.010   0.987
 5723SOL    HW118068   6.651   4.967   1.077
 5723SOL    HW218069   6.695   5.100   0.993
 5724SOL     OW18070   4.403   2.868   6.317
 5724SOL    HW118071   4.468   2.929   6.362
 5724SOL    HW218072   4.453   2.803   6.260
 5725SOL     OW18073   6.304   6.769   5.597
 5725SOL    HW118074   6.253   6.854   5.580
 5725SOL    HW218075   6.397   6.779   5.562
 5726SOL     OW18076   3.875   5.277   5.610
 5726SOL    HW118077   3.916   5.349   5.555
 5726SOL    HW218078   3.776   5.290   5.615
 5727SOL     OW18079   5.372   2.975   3.531
 5727SOL    HW118080   5.339   3.008   3.620
 5727SOL    HW218081   5.293   2.948   3.475
 5728SOL     OW18082   3.963   0.895   5.574
 5728SOL    HW118083   4.038   0.923   5.514
 5728SOL    HW218084   3.950   0.964   5.645
 5729SOL     OW18085   2.613   2.180   3.842
 5729SOL    HW118086   2.605   2.123   3.760
 5729SOL    HW218087   2.665   2.130   3.912
 5730SOL     OW18088   3.824   4.463   0.402
 5730SOL    HW118089   3.900   4.523   0.426
 5730SOL    HW218090   3.763   4.509   0.338
 5731SOL     OW18091   4.661   1.140   5.122
 5731SOL    HW118092   4.701   1.171   5.036
 5731SOL    HW218093   4.647   1.218   5.183
 5732SOL     OW18094   7.011   3.565   4.494
 5732SOL    HW118095   0.025   3.656   4.471
 5732SOL    HW218096   0.059   3.518   4.550
 5733SOL     OW18097   2.068   6.473   1.244
 5733SOL    HW118098   2.051   6.570   1.224
 5733SOL    HW218099   1.995   6.417   1.205
 5734SOL     OW18100   1.708   0.195   5.525
 5734SOL    HW118101   1.741   0.124   5.586
 5734SOL    HW218102   1.783   0.227   5.467
 5735SOL     OW18103   5.307   1.543   0.947
 5735SOL    HW118104   5.291   1.630   0.900
 5735SOL    HW218105   5.274   1.468   0.890
 5736SOL     OW18106   4.543   3.372   6.326
 5736SOL    HW118107   4.477   3.373   6.401
 5736SOL    HW218108   4.601   3.454   6.331
 5737SOL     OW18109   5.341   5.501   2.638
 5737SOL    HW118110   5.402   5.448   2.696
 5737SOL    HW218111   5.380   5.508   2.546
 5738SOL     OW18112   3.203   1.681   0.776
 5738SOL    HW118113   3.114   1.666   0.819
 5738SOL    HW218114   3.195   1.755   0.709
 5739SOL     OW18115   2.377   1.398   5.958
 5739SOL    HW118116   2.390   1.449   6.044
 5739SOL    HW218117   2.387   1.300   5.976
 5740SOL     OW18118   4.975   2.652   2.530
 5740SOL    HW118119   4.904   2.713   2.494
 5740SOL    HW218120   5.013   2.598   2.455
 5741SOL     OW18121   1.386   3.517   4.148
 5741SOL    HW118122   1.428   3.470   4.226
 5741SOL    HW218123   1.339   3.450   4.090
 5742SOL     OW18124   6.476   4.356   2.347
 5742SOL    HW118125   6.413   4.396   2.414
 5742SOL    HW218126   6.450   4.262   2.328
 5743SOL     OW18127   3.240   6.441   6.326
 5743SOL    HW118128   3.317   6.390   6.289
 5743SOL    HW218129   3.246   6.443   6.426
 5744SOL     OW18130   5.495   5.689   3.679
 5744SOL    HW118131   5.398   5.698   3.702
 5744SOL    HW218132   5.504   5.632   3.597
 5745SOL     OW18133   1.723   3.561   2.445
 5745SOL    HW118134   1.669   3.494   2.393
 5745SOL    HW218135   1.757   3.519   2.529
 5746SOL     OW18136   5.500   0.656   3.382
 5746SOL    HW118137   5.404   0.671   3.407
 5746SOL    HW218138   5.515   0.688   3.289
 5747SOL     OW18139   1.377   6.641   1.733
 5747SOL    HW118140   1.449   6.700   1.767
 5747SOL    HW218141   1.313   6.619   1.807
 5748SOL     OW18142   6.566   6.873   0.231
 5748SOL    HW118143   6.541   6.901   0.323
 5748SOL    HW218144   6.520   6.788   0.208
 5749SOL     OW18145   1.786   6.346   6.196
 5749SOL    HW118146   1.869   6.289   6.195
 5749SOL    HW218147   1.810   6.437   6.229
 5750SOL     OW18148   6.178   2.618   4.252
 5750SOL    HW118149   6.250   2.550   4.247
 5750SOL    HW218150   6.204   2.698   4.198
 5751SOL     OW18151   7.011   3.673   3.972
 5751SOL    HW118152   0.030   3.604   4.033
 5751SOL    HW218153   0.045   3.757   3.978
 5752SOL     OW18154   5.795   1.622   6.687
 5752SOL    HW118155   5.863   1.608   6.759
 5752SOL    HW218156   5.760   1.716   6.692
 5753SOL     OW18157   3.702   2.976   4.028
 5753SOL    HW118158   3.670   2.910   3.960
 5753SOL    HW218159   3.682   2.941   4.120
 5754SOL     OW18160   6.026   0.222   0.829
 5754SOL    HW118161   6.125   0.208   0.815
 5754SOL    HW218162   6.009   0.317   0.855
 5755SOL     OW18163   0.584   3.633   6.416
 5755SOL    HW118164   0.633   3.652   6.331
 5755SOL    HW218165   0.590   3.535   6.436
 5756SOL     OW18166   5.643   6.466   1.849
 5756SOL    HW118167   5.545   6.471   1.871
 5756SOL    HW218168   5.676   6.374   1.867
 5757SOL     OW18169   1.208   2.013   4.451
 5757SOL    HW118170   1.254   1.931   4.419
 5757SOL    HW218171   1.207   2.082   4.379
 5758SOL     OW18172   6.295   6.656   2.828
 5758SOL    HW118173   6.313   6.618   2.737
 5758SOL    HW218174   6.240   6.592   2.881
 5759SOL     OW18175   2.627   6.450   2.608
 5759SOL    HW118176   2.683   6.383   2.657
 5759SOL    HW218177   2.671   6.539   2.611
 5760SOL     OW18178   0.743   2.335   0.136
 5760SOL    HW118179   0.796   2.311   0.217
 5760SOL    HW218180   0.775   2.422   0.099
 5761SOL     OW18181   6.320   6.720   5.247
 5761SOL    HW118182   6.260   6.717   5.328
 5761SOL    HW218183   6.385   6.795   5.257
 5762SOL     OW18184   0.758   6.401   5.707
 5762SOL    HW118185   0.661   6.407   5.728
 5762SOL    HW218186   0.809   6.466   5.763
 5763SOL     OW18187   5.076   0.574   6.974
 5763SOL    HW118188   5.002   0.602   6.912
 5763SOL    HW218189   5.040   0.566   0.048
 5764SOL     OW18190   4.033   6.400   4.245
 5764SOL    HW118191   4.117   6.359   4.280
 5764SOL    HW218192   4.031   6.394   4.146
 5765SOL     OW18193   6.636   6.843   2.492
 5765SOL    HW118194   6.670   6.800   2.575
 5765SOL    HW218195   6.554   6.897   2.513
 5766SOL     OW18196   0.986   0.836   4.458
 5766SOL    HW118197   1.076   0.843   4.414
 5766SOL    HW218198   0.987   0.888   4.543
 5767SOL     OW18199   6.284   6.688   6.977
 5767SOL    HW118200   6.223   6.609   6.988
 5767SOL    HW218201   6.372   6.668   0.000
 5768SOL     OW18202   1.517   0.586   4.575
 5768SOL    HW118203   1.614   0.598   4.594
 5768SOL    HW218204   1.464   0.631   4.647
 5769SOL     OW18205   1.331   1.921   5.917
 5769SOL    HW118206   1.329   1.845   5.852
 5769SOL    HW218207   1.419   1.923   5.964
 5770SOL     OW18208   1.076   3.835   2.423
 5770SOL    HW118209   1.025   3.757   2.459
 5770SOL    HW218210   1.093   3.900   2.497
 5771SOL     OW18211   2.664   6.331   3.027
 5771SOL    HW118212   2.567   6.346   3.011
 5771SOL    HW218213   2.713   6.418   3.015
 5772SOL     OW18214   2.539   0.727   3.471
 5772SOL    HW118215   2.622   0.700   3.421
 5772SOL    HW218216   2.543   0.688   3.564
 5773SOL     OW18217   6.140   0.650   4.676
 5773SOL    HW118218   6.077   0.718   4.715
 5773SOL    HW218219   6.091   0.594   4.610
 5774SOL     OW18220   0.944   6.054   3.592
 5774SOL    HW118221   0.983   6.140   3.560
 5774SOL    HW218222   1.006   5.978   3.570
 5775SOL     OW18223   5.494   4.612   2.767
 5775SOL    HW118224   5.549   4.529   2.765
 5775SOL    HW218225   5.404   4.592   2.807
 5776SOL     OW18226   3.712   0.660   4.009
 5776SOL    HW118227   3.697   0.582   3.948
 5776SOL    HW218228   3.639   0.727   3.997
 5777SOL     OW18229   0.598   0.534   1.752
 5777SOL    HW118230   0.542   0.588   1.814
 5777SOL    HW218231   0.694   0.561   1.760
 5778SOL     OW18232   0.327   1.048   0.152
 5778SOL    HW118233   0.281   0.986   0.088
 5778SOL    HW218234   0.416   1.075   0.114
 5779SOL     OW18235   5.702   1.391   0.258
 5779SOL    HW118236   5.755   1.471   0.229
 5779SOL    HW218237   5.700   1.324   0.185
 5780SOL     OW18238   5.419   5.001   4.665
 5780SOL    HW118239   5.340   5.062   4.660
 5780SOL    HW218240   5.467   5.015   4.751
 5781SOL     OW18241   1.389   5.944   5.910
 5781SOL    HW118242   1.381   5.942   5.811
 5781SOL    HW218243   1.304   5.911   5.951
 5782SOL     OW18244   5.508   0.665   1.313
 5782SOL    HW118245   5.593   0.698   1.272
 5782SOL    HW218246   5.504   0.565   1.306
 5783SOL     OW18247   2.510   2.467   6.612
 5783SOL    HW118248   2.464   2.555   6.608
 5783SOL    HW218249   2.535   2.446   6.707
 5784SOL     OW18250   7.010   6.334   0.413
 5784SOL    HW118251   6.977   6.361   0.322
 5784SOL    HW218252   0.057   6.259   0.403
 5785SOL     OW18253   1.793   1.088   2.028
 5785SOL    HW118254   1.871   1.150   2.016
 5785SOL    HW218255   1.802   1.040   2.115
 5786SOL     OW18256   5.880   5.149   2.287
 5786SOL    HW118257   5.842   5.077   2.228
 5786SOL    HW218258   5.947   5.201   2.235
 5787SOL     OW18259   1.884   3.208   6.830
 5787SOL    HW118260   1.935   3.238   6.749
 5787SOL    HW218261   1.809   3.271   6.847
 5788SOL     OW18262   3.288   0.683   3.447
 5788SOL    HW118263   3.201   0.731   3.435
 5788SOL    HW218264   3.272   0.595   3.492
 5789SOL     OW18265   3.169   4.602   6.199
 5789SOL    HW118266   3.146   4.662   6.276
 5789SOL    HW218267   3.166   4.507   6.229
 5790SOL     OW18268   1.845   3.667   4.077
 5790SOL    HW118269   1.811   3.761   4.081
 5790SOL    HW218270   1.833   3.624   4.166
 5791SOL     OW18271   0.885   1.242   3.113
 5791SOL    HW118272   0.864   1.336   3.084
 5791SOL    HW218273   0.863   1.232   3.210
 5792SOL     OW18274   0.702   2.016   3.492
 5792SOL    HW118275   0.642   2.036   3.569
 5792SOL    HW218276   0.770   2.089   3.482
 5793SOL     OW18277   6.206   1.714   5.260
 5793SOL    HW118278   6.224   1.617   5.273
 5793SOL    HW218279   6.282   1.757   5.211
 5794SOL     OW18280   0.197   3.899   6.533
 5794SOL    HW118281   0.138   3.916   6.612
 5794SOL    HW218282   0.234   3.806   6.540
 5795SOL     OW18283   6.706   4.626   0.111
 5795SOL    HW118284   6.731   4.541   0.157
 5795SOL    HW218285   6.635   4.607   0.043
 5796SOL     OW18286   2.715   2.001   0.583
 5796SOL    HW118287   2.656   1.945   0.525
 5796SOL    HW218288   2.789   2.039   0.528
 5797SOL     OW18289   3.250   3.272   5.365
 5797SOL    HW118290   3.174   3.211   5.389
 5797SOL    HW218291   3.237   3.308   5.273
 5798SOL     OW18292   6.398   4.635   4.106
 5798SOL    HW118293   6.336   4.584   4.165
 5798SOL    HW218294   6.451   4.700   4.162
 5799SOL     OW18295   5.318   0.451   4.371
 5799SOL    HW118296   5.406   0.459   4.324
 5799SOL    HW218297   5.282   0.359   4.359
 5800SOL     OW18298   5.425   6.508   6.865
 5800SOL    HW118299   5.367   6.589   6.864
 5800SOL    HW218300   5.520   6.534   6.851
 5801SOL     OW18301   1.589   1.271   2.028
 5801SOL    HW118302   1.655   1.196   2.026
 5801SOL    HW218303   1.601   1.328   1.947
 5802SOL     OW18304   0.185   2.808   4.696
 5802SOL    HW118305   0.258   2.846   4.639
 5802SOL    HW218306   0.099   2.856   4.677
 5803SOL     OW18307   1.569   5.268   1.323
 5803SOL    HW118308   1.555   5.341   1.390
 5803SOL    HW218309   1.647   5.211   1.350
 5804SOL     OW18310   0.203   3.094   6.589
 5804SOL    HW118311   0.105   3.094   6.607
 5804SOL    HW218312   0.221   3.139   6.501
 5805SOL     OW18313   4.705   3.269   6.829
 5805SOL    HW118314   4.764   3.348   6.811
 5805SOL    HW218315   4.612   3.300   6.846
 5806SOL     OW18316   6.013   6.491   6.389
 5806SOL    HW118317   6.019   6.393   6.374
 5806SOL    HW218318   6.057   6.539   6.312
 5807SOL     OW18319   2.609   4.181   1.590
 5807SOL    HW118320   2.614   4.085   1.564
 5807SOL    HW218321   2.700   4.215   1.612
 5808SOL     OW18322   6.837   1.571   3.831
 5808SOL    HW118323   6.884   1.483   3.834
 5808SOL    HW218324   6.740   1.558   3.851
 5809SOL     OW18325   0.944   3.358   4.045
 5809SOL    HW118326   0.875   3.427   4.023
 5809SOL    HW218327   1.003   3.343   3.965
 5810SOL     OW18328   3.295   1.805   2.461
 5810SOL    HW118329   3.357   1.729   2.441
 5810SOL    HW218330   3.201   1.774   2.455
 5811SOL     OW18331   2.697   0.019   1.654
 5811SOL    HW118332   2.614   0.064   1.686
 5811SOL    HW218333   2.676   6.982   1.574
 5812SOL     OW18334   4.177   0.960   4.392
 5812SOL    HW118335   4.229   0.882   4.357
 5812SOL    HW218336   4.091   0.969   4.343
 5813SOL     OW18337   1.742   2.245   5.179
 5813SOL    HW118338   1.818   2.192   5.143
 5813SOL    HW218339   1.774   2.302   5.255
 5814SOL     OW18340   0.616   5.366   1.549
 5814SOL    HW118341   0.679   5.443   1.536
 5814SOL    HW218342   0.645   5.313   1.629
 5815SOL     OW18343   3.864   6.531   4.437
 5815SOL    HW118344   3.929   6.510   4.363
 5815SOL    HW218345   3.885   6.473   4.516
 5816SOL     OW18346   5.180   6.072   7.019
 5816SOL    HW118347   5.268   6.079   0.047
 5816SOL    HW218348   5.154   5.976   7.011
 5817SOL     OW18349   5.598   2.544   6.101
 5817SOL    HW118350   5.661   2.523   6.176
 5817SOL    HW218351   5.616   2.482   6.024
 5818SOL     OW18352   5.902   6.683   5.114
 5818SOL    HW118353   5.924   6.780   5.105
 5818SOL    HW218354   5.883   6.662   5.210
 5819SOL     OW18355   6.569   0.218   1.401
 5819SOL    HW118356   6.581   0.301   1.456
 5819SOL    HW218357   6.613   0.141   1.447
 5820SOL     OW18358   5.280   4.677   2.017
 5820SOL    HW118359   5.242   4.602   2.072
 5820SOL    HW218360   5.211   4.708   1.952
 5821SOL     OW18361   3.149   7.016   2.774
 5821SOL    HW118362   3.177   6.922   2.757
 5821SOL    HW218363   3.112   0.036   2.690
 5822SOL     OW18364   0.354   0.958   2.462
 5822SOL    HW118365   0.346   0.877   2.520
 5822SOL    HW218366   0.316   0.938   2.372
 5823SOL     OW18367   1.769   2.661   3.828
 5823SOL    HW118368   1.710   2.615   3.763
 5823SOL    HW218369   1.721   2.741   3.865
 5824SOL     OW18370   4.768   0.338   3.684
 5824SOL    HW118371   4.729   0.327   3.592
 5824SOL    HW218372   4.784   0.435   3.702
 5825SOL     OW18373   3.455   1.295   1.348
 5825SOL    HW118374   3.506   1.274   1.265
 5825SOL    HW218375   3.365   1.330   1.325
 5826SOL     OW18376   0.507   6.652   3.370
 5826SOL    HW118377   0.449   6.673   3.448
 5826SOL    HW218378   0.463   6.583   3.313
 5827SOL     OW18379   1.937   4.981   5.747
 5827SOL    HW118380   1.978   4.893   5.722
 5827SOL    HW218381   1.993   5.026   5.816
 5828SOL     OW18382   6.159   1.603   1.079
 5828SOL    HW118383   6.097   1.643   1.147
 5828SOL    HW218384   6.241   1.568   1.125
 5829SOL     OW18385   2.045   0.772   1.747
 5829SOL    HW118386   1.949   0.780   1.775
 5829SOL    HW218387   2.058   0.821   1.661
 5830SOL     OW18388   1.599   0.990   5.762
 5830SOL    HW118389   1.554   1.077   5.743
 5830SOL    HW218390   1.675   1.005   5.825
 5831SOL     OW18391   5.734   5.799   2.972
 5831SOL    HW118392   5.697   5.864   3.039
 5831SOL    HW218393   5.746   5.710   3.015
 5832SOL     OW18394   3.604   3.259   4.578
 5832SOL    HW118395   3.505   3.275   4.574
 5832SOL    HW218396   3.642   3.268   4.486
 5833SOL     OW18397   2.970   3.156   4.797
 5833SOL    HW118398   2.991   3.123   4.704
 5833SOL    HW218399   2.872   3.172   4.805
 5834SOL     OW18400   5.578   0.998   6.641
 5834SOL    HW118401   5.677   0.991   6.636
 5834SOL    HW218402   5.542   1.031   6.554
 5835SOL     OW18403   5.145   2.732   3.663
 5835SOL    HW118404   5.111   2.647   3.705
 5835SOL    HW218405   5.197   2.784   3.730
 5836SOL     OW18406   3.625   6.987   3.711
 5836SOL    HW118407   3.574   6.920   3.658
 5836SOL    HW218408   3.627   6.958   3.807
 5837SOL     OW18409   4.110   3.761   6.442
 5837SOL    HW118410   4.117   3.830   6.514
 5837SOL    HW218411   4.104   3.807   6.353
 5838SOL     OW18412   0.847   1.250   6.094
 5838SOL    HW118413   0.846   1.302   6.180
 5838SOL    HW218414   0.890   1.161   6.110
 5839SOL     OW18415   6.630   2.355   2.058
 5839SOL    HW118416   6.673   2.331   2.145
 5839SOL    HW218417   6.688   2.421   2.010
 5840SOL     OW18418   3.280   6.011   0.460
 5840SOL    HW118419   3.309   5.924   0.419
 5840SOL    HW218420   3.257   5.997   0.556
 5841SOL     OW18421   6.578   1.826   3.553
 5841SOL    HW118422   6.480   1.833   3.535
 5841SOL    HW218423   6.600   1.877   3.635
 5842SOL     OW18424   3.359   1.991   1.019
 5842SOL    HW118425   3.442   1.947   0.984
 5842SOL    HW218426   3.382   2.074   1.068
 5843SOL     OW18427   0.181   2.628   1.135
 5843SOL    HW118428   0.198   2.639   1.037
 5843SOL    HW218429   0.171   2.718   1.177
 5844SOL     OW18430   1.634   6.228   6.029
 5844SOL    HW118431   1.703   6.277   6.081
 5844SOL    HW218432   1.625   6.135   6.066
 5845SOL     OW18433   1.969   3.024   4.554
 5845SOL    HW118434   1.919   2.982   4.631
 5845SOL    HW218435   2.063   2.991   4.554
 5846SOL     OW18436   0.460   3.812   0.223
 5846SOL    HW118437   0.528   3.810   0.150
 5846SOL    HW218438   0.371   3.788   0.185
 5847SOL     OW18439   1.517   2.692   4.509
 5847SOL    HW118440   1.489   2.603   4.545
 5847SOL    HW218441   1.616   2.692   4.494
 5848SOL     OW18442   0.941   4.532   3.851
 5848SOL    HW118443   0.868   4.484   3.902
 5848SOL    HW218444   0.910   4.548   3.757
 5849SOL     OW18445   2.335   0.261   5.765
 5849SOL    HW118446   2.341   0.353   5.728
 5849SOL    HW218447   2.352   0.264   5.864
 5850SOL     OW18448   0.534   4.370   3.084
 5850SOL    HW118449   0.442   4.397   3.058
 5850SOL    HW218450   0.598   4.392   3.011
 5851SOL     OW18451   6.454   2.861   1.816
 5851SOL    HW118452   6.464   2.871   1.915
 5851SOL    HW218453   6.543   2.849   1.774
 5852SOL     OW18454   4.142   6.299   3.240
 5852SOL    HW118455   4.047   6.269   3.253
 5852SOL    HW218456   4.201   6.218   3.233
 5853SOL     OW18457   4.927   3.824   5.230
 5853SOL    HW118458   4.968   3.734   5.215
 5853SOL    HW218459   4.857   3.818   5.301
 5854SOL     OW18460   1.588   1.442   6.771
 5854SOL    HW118461   1.604   1.458   6.674
 5854SOL    HW218462   1.489   1.441   6.789
 5855SOL     OW18463   1.518   1.883   4.574
 5855SOL    HW118464   1.592   1.940   4.541
 5855SOL    HW218465   1.527   1.869   4.672
 5856SOL     OW18466   1.088   6.313   3.173
 5856SOL    HW118467   1.096   6.352   3.081
 5856SOL    HW218468   1.001   6.342   3.213
 5857SOL     OW18469   0.539   2.174   5.257
 5857SOL    HW118470   0.444   2.156   5.232
 5857SOL    HW218471   0.553   2.148   5.353
 5858SOL     OW18472   2.940   0.076   3.937
 5858SOL    HW118473   2.907   0.133   3.862
 5858SOL    HW218474   2.886   0.095   4.019
 5859SOL     OW18475   5.854   5.033   1.966
 5859SOL    HW118476   5.791   5.094   1.917
 5859SOL    HW218477   5.932   5.085   1.999
 5860SOL     OW18478   6.671   4.742   0.844
 5860SOL    HW118479   6.673   4.837   0.876
 5860SOL    HW218480   6.690   4.739   0.745
 5861SOL     OW18481   5.965   1.839   4.119
 5861SOL    HW118482   6.052   1.818   4.163
 5861SOL    HW218483   5.950   1.938   4.121
 5862SOL     OW18484   5.706   5.493   4.068
 5862SOL    HW118485   5.634   5.464   4.005
 5862SOL    HW218486   5.728   5.418   4.130
 5863SOL     OW18487   2.614   1.216   0.729
 5863SOL    HW118488   2.615   1.142   0.796
 5863SOL    HW218489   2.524   1.260   0.730
 5864SOL     OW18490   4.964   5.048   0.990
 5864SOL    HW118491   4.922   4.976   0.934
 5864SOL    HW218492   4.902   5.072   1.065
 5865SOL     OW18493   4.157   0.736   3.243
 5865SOL    HW118494   4.244   0.725   3.196
 5865SOL    HW218495   4.173   0.773   3.335
 5866SOL     OW18496   3.714   1.611   6.780
 5866SOL    HW118497   3.699   1.646   6.872
 5866SOL    HW218498   3.654   1.533   6.764
 5867SOL     OW18499   6.725   2.838   1.729
 5867SOL    HW118500   6.761   2.929   1.751
 5867SOL    HW218501   6.802   2.774   1.718
 5868SOL     OW18502   0.513   6.103   5.349
 5868SOL    HW118503   0.425   6.063   5.377
 5868SOL    HW218504   0.570   6.116   5.430
 5869SOL     OW18505   2.340   5.226   4.753
 5869SOL    HW118506   2.274   5.151   4.748
 5869SOL    HW218507   2.411   5.212   4.685
 5870SOL     OW18508   5.083   5.800   3.967
 5870SOL    HW118509   5.000   5.817   3.914
 5870SOL    HW218510   5.159   5.853   3.928
 5871SOL     OW18511   3.342   4.600   0.558
 5871SOL    HW118512   3.405   4.609   0.635
 5871SOL    HW218513   3.324   4.691   0.519
 5872SOL     OW18514   4.151   5.488   3.670
 5872SOL    HW118515   4.088   5.426   3.624
 5872SOL    HW218516   4.115   5.582   3.666
 5873SOL     OW18517   1.960   2.965   0.426
 5873SOL    HW118518   1.993   2.963   0.332
 5873SOL    HW218519   2.009   3.035   0.478
 5874SOL     OW18520   0.618   4.430   6.420
 5874SOL    HW118521   0.627   4.483   6.336
 5874SOL    HW218522   0.702   4.378   6.436
 5875SOL     OW18523   3.998   2.320   1.081
 5875SOL    HW118524   4.010   2.294   1.177
 5875SOL    HW218525   4.038   2.410   1.065
 5876SOL     OW18526   4.545   4.126   6.012
 5876SOL    HW118527   4.500   4.178   6.084
 5876SOL    HW218528   4.520   4.030   6.020
 5877SOL     OW18529   5.482   6.757   3.179
 5877SOL    HW118530   5.504   6.719   3.090
 5877SOL    HW218531   5.398   6.811   3.173
 5878SOL     OW18532   4.773   2.935   2.984
 5878SOL    HW118533   4.758   2.837   2.971
 5878SOL    HW218534   4.798   2.977   2.897
 5879SOL     OW18535   3.037   4.840   5.030
 5879SOL    HW118536   3.033   4.839   5.130
 5879SOL    HW218537   2.979   4.768   4.993
 5880SOL     OW18538   6.433   2.401   0.475
 5880SOL    HW118539   6.371   2.345   0.531
 5880SOL    HW218540   6.519   2.352   0.461
 5881SOL     OW18541   1.054   5.680   2.950
 5881SOL    HW118542   0.972   5.654   3.002
 5881SOL    HW218543   1.109   5.743   3.005
 5882SOL     OW18544   1.288   5.691   5.710
 5882SOL    HW118545   1.218   5.759   5.689
 5882SOL    HW218546   1.350   5.682   5.632
 5883SOL     OW18547   0.132   5.937   0.101
 5883SOL    HW118548   0.126   5.875   0.022
 5883SOL    HW218549   0.091   5.893   0.181
 5884SOL     OW18550   0.721   0.905   1.873
 5884SOL    HW118551   0.645   0.864   1.924
 5884SOL    HW218552   0.759   0.982   1.925
 5885SOL     OW18553   0.357   5.478   1.877
 5885SOL    HW118554   0.323   5.486   1.971
 5885SOL    HW218555   0.420   5.553   1.858
 5886SOL     OW18556   1.551   4.544   3.657
 5886SOL    HW118557   1.606   4.623   3.685
 5886SOL    HW218558   1.592   4.460   3.691
 5887SOL     OW18559   2.215   3.958   0.870
 5887SOL    HW118560   2.265   3.988   0.788
 5887SOL    HW218561   2.156   3.881   0.845
 5888SOL     OW18562   3.032   6.484   1.691
 5888SOL    HW118563   3.021   6.564   1.632
 5888SOL    HW218564   2.958   6.419   1.674
 5889SOL     OW18565   4.931   1.203   1.892
 5889SOL    HW118566   5.024   1.216   1.926
 5889SOL    HW218567   4.876   1.285   1.910
 5890SOL     OW18568   2.577   4.615   2.844
 5890SOL    HW118569   2.514   4.612   2.766
 5890SOL    HW218570   2.548   4.549   2.913
 5891SOL     OW18571   2.581   3.051   0.001
 5891SOL    HW118572   2.556   2.955   7.019
 5891SOL    HW218573   2.643   3.068   0.078
 5892SOL     OW18574   0.339   2.783   1.607
 5892SOL    HW118575   0.379   2.721   1.539
 5892SOL    HW218576   0.330   2.735   1.695
 5893SOL     OW18577   0.098   6.443   1.324
 5893SOL    HW118578   0.137   6.378   1.390
 5893SOL    HW218579   0.136   6.425   1.233
 5894SOL     OW18580   2.724   5.046   6.880
 5894SOL    HW118581   2.745   5.130   6.929
 5894SOL    HW218582   2.810   5.000   6.855
 5895SOL     OW18583   5.700   2.392   4.196
 5895SOL    HW118584   5.667   2.470   4.249
 5895SOL    HW218585   5.627   2.357   4.138
 5896SOL     OW18586   5.360   2.487   0.979
 5896SOL    HW118587   5.454   2.461   0.998
 5896SOL    HW218588   5.298   2.417   1.016
 5897SOL     OW18589   3.726   3.954   6.853
 5897SOL    HW118590   3.627   3.955   6.839
 5897SOL    HW218591   3.764   3.869   6.817
 5898SOL     OW18592   3.685   0.610   6.555
 5898SOL    HW118593   3.608   0.632   6.614
 5898SOL    HW218594   3.702   0.511   6.558
 5899SOL     OW18595   0.574   0.307   0.404
 5899SOL    HW118596   0.587   0.277   0.310
 5899SOL    HW218597   0.617   0.397   0.417
 5900SOL     OW18598   5.474   6.439   2.865
 5900SOL    HW118599   5.494   6.343   2.886
 5900SOL    HW218600   5.500   6.459   2.771
 5901SOL     OW18601   1.482   0.683   4.831
 5901SOL    HW118602   1.516   0.589   4.827
 5901SOL    HW218603   1.500   0.722   4.921
 5902SOL     OW18604   4.342   3.738   5.860
 5902SOL    HW118605   4.387   3.819   5.822
 5902SOL    HW218606   4.357   3.660   5.799
 5903SOL     OW18607   5.708   1.002   5.830
 5903SOL    HW118608   5.746   0.921   5.875
 5903SOL    HW218609   5.726   0.998   5.732
 5904SOL     OW18610   0.082   5.263   1.903
 5904SOL    HW118611   0.014   5.193   1.883
 5904SOL    HW218612   0.064   5.345   1.849
 5905SOL     OW18613   6.349   1.935   4.580
 5905SOL    HW118614   6.317   1.861   4.639
 5905SOL    HW218615   6.422   1.985   4.627
 5906SOL     OW18616   4.057   6.929   4.437
 5906SOL    HW118617   4.019   0.003   4.437
 5906SOL    HW218618   4.078   6.903   4.343
 5907SOL     OW18619   0.524   3.550   5.987
 5907SOL    HW118620   0.502   3.568   5.891
 5907SOL    HW218621   0.452   3.495   6.028
 5908SOL     OW18622   4.444   3.023   6.629
 5908SOL    HW118623   4.469   2.926   6.638
 5908SOL    HW218624   4.511   3.069   6.570
 5909SOL     OW18625   6.573   5.001   3.323
 5909SOL    HW118626   6.494   5.033   3.375
 5909SOL    HW218627   6.650   4.984   3.384
 5910SOL     OW18628   2.352   4.122   1.788
 5910SOL    HW118629   2.396   4.082   1.707
 5910SOL    HW218630   2.422   4.160   1.848
 5911SOL     OW18631   6.617   1.148   5.740
 5911SOL    HW118632   6.618   1.049   5.753
 5911SOL    HW218633   6.544   1.173   5.677
 5912SOL     OW18634   0.460   3.791   6.136
 5912SOL    HW118635   0.481   3.888   6.146
 5912SOL    HW218636   0.520   3.750   6.068
 5913SOL     OW18637   1.834   2.876   4.722
 5913SOL    HW118638   1.864   2.821   4.800
 5913SOL    HW218639   1.795   2.816   4.652
 5914SOL     OW18640   1.131   5.561   0.192
 5914SOL    HW118641   1.046   5.601   0.228
 5914SOL    HW218642   1.118   5.536   0.096
 5915SOL     OW18643   5.701   4.074   4.411
 5915SOL    HW118644   5.638   4.136   4.459
 5915SOL    HW218645   5.681   3.980   4.437
 5916SOL     OW18646   3.392   0.876   6.508
 5916SOL    HW118647   3.336   0.959   6.513
 5916SOL    HW218648   3.414   0.858   6.412
 5917SOL     OW18649   3.711   3.929   1.842
 5917SOL    HW118650   3.647   3.875   1.789
 5917SOL    HW218651   3.665   3.965   1.924
 5918SOL     OW18652   3.056   1.789   4.162
 5918SOL    HW118653   3.114   1.713   4.135
 5918SOL    HW218654   3.025   1.839   4.081
 5919SOL     OW18655   1.691   2.225   6.280
 5919SOL    HW118656   1.695   2.263   6.188
 5919SOL    HW218657   1.597   2.230   6.314
 5920SOL     OW18658   2.477   4.107   6.978
 5920SOL    HW118659   2.421   4.159   0.024
 5920SOL    HW218660   2.509   4.169   6.905
 5921SOL     OW18661   3.602   6.574   4.676
 5921SOL    HW118662   3.558   6.484   4.675
 5921SOL    HW218663   3.701   6.562   4.686
 5922SOL     OW18664   6.887   5.615   2.269
 5922SOL    HW118665   6.912   5.636   2.363
 5922SOL    HW218666   6.928   5.527   2.243
 5923SOL     OW18667   0.593   0.743   3.040
 5923SOL    HW118668   0.621   0.762   3.135
 5923SOL    HW218669   0.674   0.741   2.982
 5924SOL     OW18670   5.499   1.828   4.602
 5924SOL    HW118671   5.471   1.919   4.631
 5924SOL    HW218672   5.465   1.760   4.668
 5925SOL     OW18673   6.746   6.223   0.462
 5925SOL    HW118674   6.820   6.159   0.481
 5925SOL    HW218675   6.697   6.245   0.546
 5926SOL     OW18676   3.026   6.800   2.026
 5926SOL    HW118677   2.955   6.777   2.092
 5926SOL    HW218678   2.987   6.857   1.953
 5927SOL     OW18679   2.066   5.304   1.257
 5927SOL    HW118680   1.979   5.290   1.209
 5927SOL    HW218681   2.138   5.250   1.214
 5928SOL     OW18682   6.758   6.241   0.958
 5928SOL    HW118683   6.800   6.291   1.034
 5928SOL    HW218684   6.780   6.144   0.965
 5929SOL     OW18685   0.382   6.855   6.090
 5929SOL    HW118686   0.327   6.793   6.146
 5929SOL    HW218687   0.403   6.937   6.142
 5930SOL     OW18688   6.423   1.488   4.864
 5930SOL    HW118689   6.453   1.517   4.955
 5930SOL    HW218690   6.376   1.400   4.870
 5931SOL     OW18691   5.710   4.484   0.372
 5931SOL    HW118692   5.626   4.454   0.327
 5931SOL    HW218693   5.700   4.475   0.471
 5932SOL     OW18694   2.517   0.289   0.452
 5932SOL    HW118695   2.436   0.319   0.402
 5932SOL    HW218696   2.596   0.344   0.423
 5933SOL     OW18697   5.578   2.146   3.102
 5933SOL    HW118698   5.654   2.082   3.113
 5933SOL    HW218699   5.536   2.163   3.191
 5934SOL     OW18700   4.265   3.282   1.597
 5934SOL    HW118701   4.349   3.299   1.545
 5934SOL    HW218702   4.244   3.184   1.595
 5935SOL     OW18703   3.817   3.316   2.580
 5935SOL    HW118704   3.771   3.235   2.543
 5935SOL    HW218705   3.770   3.398   2.548
 5936SOL     OW18706   6.388   6.114   6.925
 5936SOL    HW118707   6.443   6.078   6.850
 5936SOL    HW218708   6.449   6.158   6.992
 5937SOL     OW18709   0.604   4.051   0.510
 5937SOL    HW118710   0.668   4.123   0.485
 5937SOL    HW218711   0.518   4.063   0.460
 5938SOL     OW18712   2.668   5.332   1.047
 5938SOL    HW118713   2.677   5.244   1.001
 5938SOL    HW218714   2.615   5.321   1.131
 5939SOL     OW18715   0.811   0.160   2.463
 5939SOL    HW118716   0.816   0.247   2.415
 5939SOL    HW218717   0.899   0.112   2.455
 5940SOL     OW18718   4.344   4.615   3.189
 5940SOL    HW118719   4.269   4.634   3.253
 5940SOL    HW218720   4.312   4.628   3.095
 5941SOL     OW18721   5.833   2.543   3.852
 5941SOL    HW118722   5.749   2.583   3.890
 5941SOL    HW218723   5.897   2.526   3.926
 5942SOL     OW18724   6.864   1.366   4.591
 5942SOL    HW118725   6.916   1.359   4.505
 5942SOL    HW218726   6.882   1.456   4.632
 5943SOL     OW18727   1.919   5.802   1.000
 5943SOL    HW118728   1.874   5.889   0.981
 5943SOL    HW218729   1.910   5.780   1.097
 5944SOL     OW18730   5.298   2.710   3.184
 5944SOL    HW118731   5.365   2.675   3.118
 5944SOL    HW218732   5.212   2.659   3.173
 5945SOL     OW18733   6.476   5.943   6.086
 5945SOL    HW118734   6.419   5.889   6.148
 5945SOL    HW218735   6.452   5.923   5.992
 5946SOL     OW18736   4.001   2.510   5.363
 5946SOL    HW118737   3.946   2.594   5.356
 5946SOL    HW218738   4.072   2.511   5.292
 5947SOL     OW18739   5.680   3.651   2.682
 5947SOL    HW118740   5.732   3.625   2.764
 5947SOL    HW218741   5.606   3.586   2.668
 5948SOL     OW18742   3.036   5.726   3.137
 5948SOL    HW118743   2.941   5.758   3.133
 5948SOL    HW218744   3.038   5.631   3.168
 5949SOL     OW18745   4.805   4.007   2.933
 5949SOL    HW118746   4.826   3.934   2.999
 5949SOL    HW218747   4.756   4.080   2.980
 5950SOL     OW18748   6.952   1.639   4.747
 5950SOL    HW118749   6.857   1.660   4.725
 5950SOL    HW218750   7.013   1.694   4.690
 5951SOL     OW18751   2.229   0.440   3.316
 5951SOL    HW118752   2.211   0.528   3.359
 5951SOL    HW218753   2.300   0.451   3.246
 5952SOL     OW18754   0.247   6.560   4.441
 5952SOL    HW118755   0.177   6.603   4.498
 5952SOL    HW218756   0.269   6.470   4.478
 5953SOL     OW18757   0.949   3.486   6.124
 5953SOL    HW118758   0.984   3.405   6.172
 5953SOL    HW218759   0.981   3.484   6.029
 5954SOL     OW18760   1.706   4.655   6.297
 5954SOL    HW118761   1.772   4.703   6.239
 5954SOL    HW218762   1.628   4.714   6.315
 5955SOL     OW18763   3.638   5.197   2.356
 5955SOL    HW118764   3.644   5.165   2.262
 5955SOL    HW218765   3.633   5.297   2.357
 5956SOL     OW18766   0.431   1.666   0.455
 5956SOL    HW118767   0.336   1.689   0.431
 5956SOL    HW218768   0.493   1.725   0.403
 5957SOL     OW18769   4.265   6.377   6.018
 5957SOL    HW118770   4.209   6.363   6.099
 5957SOL    HW218771   4.280   6.475   6.003
 5958SOL     OW18772   1.152   5.665   2.475
 5958SOL    HW118773   1.159   5.761   2.503
 5958SOL    HW218774   1.210   5.650   2.395
 5959SOL     OW18775   1.791   0.652   5.905
 5959SOL    HW118776   1.856   0.724   5.931
 5959SOL    HW218777   1.701   0.675   5.939
 5960SOL     OW18778   3.534   5.989   5.202
 5960SOL    HW118779   3.518   5.894   5.174
 5960SOL    HW218780   3.612   5.993   5.264
 5961SOL     OW18781   2.765   1.299   5.453
 5961SOL    HW118782   2.774   1.385   5.503
 5961SOL    HW218783   2.790   1.223   5.512
 5962SOL     OW18784   5.415   4.264   2.613
 5962SOL    HW118785   5.337   4.255   2.676
 5962SOL    HW218786   5.491   4.308   2.661
 5963SOL     OW18787   4.281   4.355   1.687
 5963SOL    HW118788   4.226   4.280   1.648
 5963SOL    HW218789   4.340   4.319   1.759
 5964SOL     OW18790   1.316   3.348   5.193
 5964SOL    HW118791   1.296   3.426   5.133
 5964SOL    HW218792   1.235   3.326   5.248
 5965SOL     OW18793   2.025   2.364   4.576
 5965SOL    HW118794   2.124   2.378   4.575
 5965SOL    HW218795   2.002   2.294   4.644
 5966SOL     OW18796   1.405   6.251   4.328
 5966SOL    HW118797   1.396   6.172   4.389
 5966SOL    HW218798   1.422   6.333   4.382
 5967SOL     OW18799   4.744   5.496   1.204
 5967SOL    HW118800   4.773   5.418   1.148
 5967SOL    HW218801   4.751   5.472   1.300
 5968SOL     OW18802   1.469   2.206   4.053
 5968SOL    HW118803   1.415   2.240   4.130
 5968SOL    HW218804   1.506   2.115   4.076
 5969SOL     OW18805   0.972   2.181   2.804
 5969SOL    HW118806   1.030   2.196   2.884
 5969SOL    HW218807   1.007   2.103   2.752
 5970SOL     OW18808   2.303   4.122   3.150
 5970SOL    HW118809   2.335   4.166   3.233
 5970SOL    HW218810   2.286   4.025   3.168
 5971SOL     OW18811   2.963   5.724   3.873
 5971SOL    HW118812   2.923   5.816   3.876
 5971SOL    HW218813   3.057   5.729   3.838
 5972SOL     OW18814   5.949   0.076   1.904
 5972SOL    HW118815   5.884   0.013   1.862
 5972SOL    HW218816   6.017   0.024   1.956
 5973SOL     OW18817   2.408   4.823   3.336
 5973SOL    HW118818   2.323   4.818   3.284
 5973SOL    HW218819   2.388   4.827   3.434
 5974SOL     OW18820   1.018   4.542   6.300
 5974SOL    HW118821   1.039   4.445   6.313
 5974SOL    HW218822   1.039   4.568   6.206
 5975SOL     OW18823   2.174   2.337   6.489
 5975SOL    HW118824   2.197   2.391   6.408
 5975SOL    HW218825   2.171   2.397   6.569
 5976SOL     OW18826   3.440   3.716   4.499
 5976SOL    HW118827   3.347   3.686   4.522
 5976SOL    HW218828   3.435   3.787   4.429
 5977SOL     OW18829   0.424   3.886   2.661
 5977SOL    HW118830   0.345   3.947   2.661
 5977SOL    HW218831   0.405   3.807   2.719
 5978SOL     OW18832   5.097   5.447   1.401
 5978SOL    HW118833   5.174   5.510   1.387
 5978SOL    HW218834   5.129   5.363   1.445
 5979SOL     OW18835   0.648   1.471   1.561
 5979SOL    HW118836   0.696   1.541   1.509
 5979SOL    HW218837   0.588   1.514   1.628
 5980SOL     OW18838   6.026   2.657   5.314
 5980SOL    HW118839   6.097   2.689   5.252
 5980SOL    HW218840   6.057   2.575   5.361
 5981SOL     OW18841   3.476   2.221   0.500
 5981SOL    HW118842   3.382   2.252   0.491
 5981SOL    HW218843   3.511   2.243   0.591
 5982SOL     OW18844   6.198   2.986   6.909
 5982SOL    HW118845   6.139   2.941   6.842
 5982SOL    HW218846   6.166   3.079   6.923
 5983SOL     OW18847   0.691   0.618   4.380
 5983SOL    HW118848   0.602   0.627   4.425
 5983SOL    HW218849   0.744   0.546   4.425
 5984SOL     OW18850   0.747   0.053   6.016
 5984SOL    HW118851   0.766   0.115   5.939
 5984SOL    HW218852   0.773   0.097   6.102
 5985SOL     OW18853   5.795   3.117   4.165
 5985SOL    HW118854   5.887   3.095   4.135
 5985SOL    HW218855   5.728   3.079   4.101
 5986SOL     OW18856   3.201   3.512   2.323
 5986SOL    HW118857   3.213   3.566   2.239
 5986SOL    HW218858   3.122   3.548   2.373
 5987SOL     OW18859   3.907   0.056   5.354
 5987SOL    HW118860   3.932   0.135   5.409
 5987SOL    HW218861   3.822   0.074   5.305
 5988SOL     OW18862   3.775   6.691   5.916
 5988SOL    HW118863   3.715   6.712   5.839
 5988SOL    HW218864   3.722   6.685   6.000
 5989SOL     OW18865   2.956   1.864   6.573
 5989SOL    HW118866   2.901   1.879   6.491
 5989SOL    HW218867   3.001   1.949   6.599
 5990SOL     OW18868   3.069   6.115   3.579
 5990SOL    HW118869   3.074   6.061   3.663
 5990SOL    HW218870   3.155   6.107   3.529
 5991SOL     OW18871   3.560   4.956   3.284
 5991SOL    HW118872   3.526   5.001   3.202
 5991SOL    HW218873   3.483   4.933   3.344
 5992SOL     OW18874   4.054   1.584   4.391
 5992SOL    HW118875   4.093   1.529   4.317
 5992SOL    HW218876   4.057   1.681   4.365
 5993SOL     OW18877   3.025   5.330   4.434
 5993SOL    HW118878   3.081   5.306   4.354
 5993SOL    HW218879   3.039   5.263   4.506
 5994SOL     OW18880   6.516   2.130   0.224
 5994SOL    HW118881   6.454   2.205   0.199
 5994SOL    HW218882   6.570   2.103   0.144
 5995SOL     OW18883   0.369   3.751   1.836
 5995SOL    HW118884   0.441   3.683   1.821
 5995SOL    HW218885   0.346   3.755   1.933
 5996SOL     OW18886   1.551   5.974   6.130
 5996SOL    HW118887   1.488   5.985   6.053
 5996SOL    HW218888   1.566   5.877   6.147
 5997SOL     OW18889   0.680   0.398   1.462
 5997SOL    HW118890   0.749   0.380   1.533
 5997SOL    HW218891   0.593   0.419   1.505
 5998SOL     OW18892   5.234   3.157   3.220
 5998SOL    HW118893   5.244   3.215   3.140
 5998SOL    HW218894   5.142   3.167   3.258
 5999SOL     OW18895   1.987   2.869   2.968
 5999SOL    HW118896   1.955   2.783   3.008
 5999SOL    HW218897   1.913   2.936   2.969
 6000SOL     OW18898   5.392   1.255   3.432
 6000SOL    HW118899   5.305   1.285   3.472
 6000SOL    HW218900   5.456   1.332   3.429
 6001SOL     OW18901   5.663   1.197   0.073
 6001SOL    HW118902   5.617   1.216   7.006
 6001SOL    HW218903   5.728   1.122   0.061
 6002SOL     OW18904   2.525   0.173   2.502
 6002SOL    HW118905   2.621   0.201   2.516
 6002SOL    HW218906   2.470   0.254   2.482
 6003SOL     OW18907   5.106   4.353   4.033
 6003SOL    HW118908   5.060   4.441   4.035
 6003SOL    HW218909   5.139   4.335   3.940
 6004SOL     OW18910   0.568   3.549   1.811
 6004SOL    HW118911   0.656   3.557   1.763
 6004SOL    HW218912   0.583   3.501   1.898
 6005SOL     OW18913   2.541   6.483   2.342
 6005SOL    HW118914   2.578   6.457   2.431
 6005SOL    HW218915   2.582   6.425   2.271
 6006SOL     OW18916   2.045   6.086   6.734
 6006SOL    HW118917   2.141   6.095   6.710
 6006SOL    HW218918   2.036   6.071   6.832
 6007SOL     OW18919   5.605   3.922   4.805
 6007SOL    HW118920   5.619   4.006   4.857
 6007SOL    HW218921   5.521   3.930   4.752
 6008SOL     OW18922   4.797   3.969   1.919
 6008SOL    HW118923   4.742   4.051   1.908
 6008SOL    HW218924   4.748   3.891   1.879
 6009SOL     OW18925   3.717   1.286   4.624
 6009SOL    HW118926   3.631   1.235   4.617
 6009SOL    HW218927   3.740   1.326   4.535
 6010SOL     OW18928   1.950   4.900   3.644
 6010SOL    HW118929   2.002   4.822   3.681
 6010SOL    HW218930   2.014   4.974   3.622
 6011SOL     OW18931   6.190   2.238   2.181
 6011SOL    HW118932   6.118   2.198   2.123
 6011SOL    HW218933   6.224   2.321   2.139
 6012SOL     OW18934   0.968   2.619   1.345
 6012SOL    HW118935   1.055   2.585   1.381
 6012SOL    HW218936   0.905   2.543   1.330
 6013SOL     OW18937   5.475   0.459   2.525
 6013SOL    HW118938   5.418   0.411   2.459
 6013SOL    HW218939   5.467   0.558   2.511
 6014SOL     OW18940   6.378   1.195   0.457
 6014SOL    HW118941   6.360   1.104   0.493
 6014SOL    HW218942   6.292   1.245   0.447
 6015SOL     OW18943   6.300   7.011   4.610
 6015SOL    HW118944   6.306   0.091   4.599
 6015SOL    HW218945   6.290   6.988   4.706
 6016SOL     OW18946   1.450   0.197   5.504
 6016SOL    HW118947   1.550   0.197   5.497
 6016SOL    HW218948   1.415   0.289   5.490
 6017SOL     OW18949   0.221   3.792   2.089
 6017SOL    HW118950   0.202   3.723   2.159
 6017SOL    HW218951   0.211   3.883   2.129
 6018SOL     OW18952   3.569   5.369   1.525
 6018SOL    HW118953   3.663   5.401   1.538
 6018SOL    HW218954   3.551   5.361   1.427
 6019SOL     OW18955   6.533   6.680   3.626
 6019SOL    HW118956   6.621   6.648   3.591
 6019SOL    HW218957   6.507   6.627   3.706
 6020SOL     OW18958   2.380   6.334   2.586
 6020SOL    HW118959   2.480   6.339   2.584
 6020SOL    HW218960   2.347   6.298   2.499
 6021SOL     OW18961   3.141   0.291   3.352
 6021SOL    HW118962   3.048   0.273   3.321
 6021SOL    HW218963   3.206   0.249   3.289
 6022SOL     OW18964   3.645   1.806   5.770
 6022SOL    HW118965   3.726   1.766   5.727
 6022SOL    HW218966   3.614   1.747   5.844
 6023SOL     OW18967   0.226   1.977   1.734
 6023SOL    HW118968   0.203   1.880   1.729
 6023SOL    HW218969   0.146   2.032   1.712
 6024SOL     OW18970   6.082   5.389   2.625
 6024SOL    HW118971   6.171   5.345   2.635
 6024SOL    HW218972   6.033   5.347   2.548
 6025SOL     OW18973   4.303   2.035   2.539
 6025SOL    HW118974   4.259   1.985   2.464
 6025SOL    HW218975   4.300   2.133   2.519
 6026SOL     OW18976   0.898   4.153   5.766
 6026SOL    HW118977   0.868   4.091   5.838
 6026SOL    HW218978   0.842   4.236   5.768
 6027SOL     OW18979   4.325   4.350   0.387
 6027SOL    HW118980   4.365   4.441   0.399
 6027SOL    HW218981   4.397   4.282   0.377
 6028SOL     OW18982   0.745   4.056   6.345
 6028SOL    HW118983   0.702   3.987   6.403
 6028SOL    HW218984   0.844   4.039   6.342
 6029SOL     OW18985   1.277   5.065   1.856
 6029SOL    HW118986   1.354   5.008   1.883
 6029SOL    HW218987   1.300   5.117   1.774
 6030SOL     OW18988   1.790   6.504   1.662
 6030SOL    HW118989   1.884   6.528   1.637
 6030SOL    HW218990   1.782   6.499   1.762
 6031SOL     OW18991   4.545   0.706   4.326
 6031SOL    HW118992   4.602   0.655   4.390
 6031SOL    HW218993   4.456   0.661   4.316
 6032SOL     OW18994   1.362   2.346   1.970
 6032SOL    HW118995   1.440   2.395   2.010
 6032SOL    HW218996   1.335   2.272   2.032
 6033SOL     OW18997   0.070   6.816   4.725
 6033SOL    HW118998   0.016   6.873   4.663
 6033SOL    HW218999   0.044   6.720   4.713
 6034SOL     OW19000   2.447   4.569   4.548
 6034SOL    HW119001   2.502   4.615   4.617
 6034SOL    HW219002   2.359   4.542   4.588
 6035SOL     OW19003   4.651   0.458   3.986
 6035SOL    HW119004   4.656   0.523   3.910
 6035SOL    HW219005   4.615   0.371   3.952
 6036SOL     OW19006   5.765   0.489   5.188
 6036SOL    HW119007   5.854   0.472   5.231
 6036SOL    HW219008   5.734   0.581   5.214
 6037SOL     OW19009   0.555   5.934   4.865
 6037SOL    HW119010   0.523   5.951   4.772
 6037SOL    HW219011   0.588   5.840   4.873
 6038SOL     OW19012   0.640   3.869   6.512
 6038SOL    HW119013   0.572   3.941   6.522
 6038SOL    HW219014   0.597   3.786   6.476
 6039SOL     OW19015   3.378   3.322   3.952
 6039SOL    HW119016   3.468   3.280   3.939
 6039SOL    HW219017   3.337   3.287   4.037
 6040SOL     OW19018   1.341   0.883   0.598
 6040SOL    HW119019   1.374   0.790   0.583
 6040SOL    HW219020   1.417   0.941   0.627
 6041SOL     OW19021   0.767   3.285   0.021
 6041SOL    HW119022   0.729   3.377   0.033
 6041SOL    HW219023   0.781   3.242   0.110
 6042SOL     OW19024   5.286   5.619   4.747
 6042SOL    HW119025   5.219   5.641   4.818
 6042SOL    HW219026   5.249   5.644   4.658
 6043SOL     OW19027   0.098   4.807   3.652
 6043SOL    HW119028   0.072   4.838   3.743
 6043SOL    HW219029   0.196   4.793   3.648
 6044SOL     OW19030   1.661   0.599   0.604
 6044SOL    HW119031   1.657   0.524   0.670
 6044SOL    HW219032   1.580   0.597   0.546
 6045SOL     OW19033   6.459   4.135   6.572
 6045SOL    HW119034   6.516   4.137   6.654
 6045SOL    HW219035   6.374   4.085   6.592
 6046SOL     OW19036   1.181   3.536   6.892
 6046SOL    HW119037   1.217   3.608   6.834
 6046SOL    HW219038   1.255   3.474   6.919
 6047SOL     OW19039   1.382   5.981   5.110
 6047SOL    HW119040   1.416   6.016   5.198
 6047SOL    HW219041   1.364   6.058   5.048
 6048SOL     OW19042   4.639   6.022   3.880
 6048SOL    HW119043   4.547   5.991   3.900
 6048SOL    HW219044   4.644   6.122   3.892
 6049SOL     OW19045   6.691   5.634   0.034
 6049SOL    HW119046   6.717   5.585   0.117
 6049SOL    HW219047   6.759   5.616   6.982
 6050SOL     OW19048   5.909   4.362   5.269
 6050SOL    HW119049   5.955   4.446   5.237
 6050SOL    HW219050   5.948   4.283   5.221
 6051SOL     OW19051   3.096   1.873   3.584
 6051SOL    HW119052   3.077   1.903   3.490
 6051SOL    HW219053   3.012   1.837   3.625
 6052SOL     OW19054   0.520   1.596   6.918
 6052SOL    HW119055   0.552   1.542   6.841
 6052SOL    HW219056   0.581   1.581   6.996
 6053SOL     OW19057   0.898   0.329   6.447
 6053SOL    HW119058   0.833   0.382   6.393
 6053SOL    HW219059   0.879   0.343   6.545
 6054SOL     OW19060   0.679   4.373   6.054
 6054SOL    HW119061   0.648   4.293   6.002
 6054SOL    HW219062   0.610   4.445   6.049
 6055SOL     OW19063   5.540   6.698   2.927
 6055SOL    HW119064   5.528   6.763   2.851
 6055SOL    HW219065   5.512   6.607   2.897
 6056SOL     OW19066   4.939   3.066   6.146
 6056SOL    HW119067   4.991   3.134   6.096
 6056SOL    HW219068   4.849   3.055   6.103
 6057SOL     OW19069   4.522   1.017   6.821
 6057SOL    HW119070   4.496   1.084   6.750
 6057SOL    HW219071   4.549   1.065   6.904
 6058SOL     OW19072   5.244   2.276   5.487
 6058SOL    HW119073   5.302   2.198   5.508
 6058SOL    HW219074   5.299   2.360   5.491
 6059SOL     OW19075   0.211   6.329   6.696
 6059SOL    HW119076   0.115   6.315   6.672
 6059SOL    HW219077   0.269   6.311   6.616
 6060SOL     OW19078   2.859   5.198   6.497
 6060SOL    HW119079   2.889   5.279   6.548
 6060SOL    HW219080   2.759   5.196   6.493
 6061SOL     OW19081   2.307   1.219   0.256
 6061SOL    HW119082   2.301   1.298   0.194
 6061SOL    HW219083   2.291   1.135   0.204
 6062SOL     OW19084   1.368   0.583   3.493
 6062SOL    HW119085   1.351   0.681   3.503
 6062SOL    HW219086   1.456   0.568   3.448
 6063SOL     OW19087   5.964   5.827   6.834
 6063SOL    HW119088   6.042   5.848   6.894
 6063SOL    HW219089   5.986   5.747   6.778
 6064SOL     OW19090   1.125   5.431   2.616
 6064SOL    HW119091   1.140   5.523   2.580
 6064SOL    HW219092   1.067   5.437   2.697
 6065SOL     OW19093   5.475   0.140   1.172
 6065SOL    HW119094   5.393   0.180   1.133
 6065SOL    HW219095   5.545   0.132   1.102
 6066SOL     OW19096   4.454   2.407   5.627
 6066SOL    HW119097   4.455   2.349   5.708
 6066SOL    HW219098   4.366   2.453   5.619
 6067SOL     OW19099   4.830   1.842   6.982
 6067SOL    HW119100   4.821   1.806   0.055
 6067SOL    HW219101   4.906   1.796   6.935
 6068SOL     OW19102   5.040   0.855   5.474
 6068SOL    HW119103   5.011   0.788   5.543
 6068SOL    HW219104   5.118   0.819   5.423
 6069SOL     OW19105   6.683   5.596   3.642
 6069SOL    HW119106   6.712   5.686   3.677
 6069SOL    HW219107   6.761   5.552   3.597
 6070SOL     OW19108   5.058   3.369   1.201
 6070SOL    HW119109   4.990   3.380   1.274
 6070SOL    HW219110   5.020   3.402   1.115
 6071SOL     OW19111   4.814   0.394   5.137
 6071SOL    HW119112   4.764   0.454   5.199
 6071SOL    HW219113   4.762   0.310   5.121
 6072SOL     OW19114   6.154   1.325   1.635
 6072SOL    HW119115   6.211   1.406   1.648
 6072SOL    HW219116   6.160   1.266   1.715
 6073SOL     OW19117   5.943   1.176   0.889
 6073SOL    HW119118   5.991   1.100   0.846
 6073SOL    HW219119   5.997   1.260   0.877
 6074SOL     OW19120   0.468   0.571   5.745
 6074SOL    HW119121   0.500   0.665   5.740
 6074SOL    HW219122   0.379   0.564   5.699
 6075SOL     OW19123   5.295   3.592   5.595
 6075SOL    HW119124   5.242   3.535   5.531
 6075SOL    HW219125   5.242   3.674   5.617
 6076SOL     OW19126   2.599   0.495   3.923
 6076SOL    HW119127   2.633   0.427   3.987
 6076SOL    HW219128   2.538   0.451   3.856
 6077SOL     OW19129   5.018   4.903   3.437
 6077SOL    HW119130   5.016   4.875   3.341
 6077SOL    HW219131   4.925   4.924   3.467
 6078SOL     OW19132   1.835   4.662   4.639
 6078SOL    HW119133   1.926   4.642   4.675
 6078SOL    HW219134   1.790   4.729   4.698
 6079SOL     OW19135   2.981   2.041   0.444
 6079SOL    HW119136   3.050   1.971   0.463
 6079SOL    HW219137   2.993   2.075   0.351
 6080SOL     OW19138   5.885   3.648   3.385
 6080SOL    HW119139   5.954   3.577   3.395
 6080SOL    HW219140   5.917   3.718   3.321
 6081SOL     OW19141   0.830   4.432   1.708
 6081SOL    HW119142   0.888   4.362   1.749
 6081SOL    HW219143   0.857   4.448   1.613
 6082SOL     OW19144   4.714   1.715   5.045
 6082SOL    HW119145   4.715   1.803   5.092
 6082SOL    HW219146   4.686   1.727   4.950
 6083SOL     OW19147   2.039   6.892   6.538
 6083SOL    HW119148   2.018   6.794   6.544
 6083SOL    HW219149   2.083   6.922   6.623
 6084SOL     OW19150   0.162   5.861   6.255
 6084SOL    HW119151   0.079   5.902   6.218
 6084SOL    HW219152   0.230   5.933   6.271
 6085SOL     OW19153   5.290   5.073   1.727
 6085SOL    HW119154   5.205   5.079   1.674
 6085SOL    HW219155   5.368   5.067   1.664
 6086SOL     OW19156   3.103   1.958   2.193
 6086SOL    HW119157   3.068   2.002   2.110
 6086SOL    HW219158   3.197   1.929   2.179
 6087SOL     OW19159   3.961   0.896   0.701
 6087SOL    HW119160   3.883   0.859   0.650
 6087SOL    HW219161   3.935   0.908   0.797
 6088SOL     OW19162   0.727   1.032   5.006
 6088SOL    HW119163   0.673   1.009   5.087
 6088SOL    HW219164   0.757   1.127   5.012
 6089SOL     OW19165   6.646   3.914   1.040
 6089SOL    HW119166   6.666   3.901   0.943
 6089SOL    HW219167   6.644   3.824   1.085
 6090SOL     OW19168   6.891   6.062   4.143
 6090SOL    HW119169   6.942   6.010   4.211
 6090SOL    HW219170   6.812   6.009   4.112
 6091SOL     OW19171   6.729   1.788   1.802
 6091SOL    HW119172   6.811   1.734   1.821
 6091SOL    HW219173   6.651   1.748   1.850
 6092SOL     OW19174   0.797   3.439   1.019
 6092SOL    HW119175   0.778   3.499   0.941
 6092SOL    HW219176   0.712   3.421   1.068
 6093SOL     OW19177   0.652   4.594   0.496
 6093SOL    HW119178   0.612   4.676   0.456
 6093SOL    HW219179   0.666   4.608   0.594
 6094SOL     OW19180   0.471   1.246   0.935
 6094SOL    HW119181   0.550   1.242   0.873
 6094SOL    HW219182   0.498   1.211   1.025
 6095SOL     OW19183   0.138   3.842   5.184
 6095SOL    HW119184   0.171   3.897   5.108
 6095SOL    HW219185   0.167   3.884   5.271
 6096SOL     OW19186   5.636   1.832   2.535
 6096SOL    HW119187   5.557   1.893   2.526
 6096SOL    HW219188   5.707   1.861   2.471
 6097SOL     OW19189   3.823   1.487   2.459
 6097SOL    HW119190   3.781   1.574   2.432
 6097SOL    HW219191   3.812   1.475   2.558
 6098SOL     OW19192   0.513   0.612   6.640
 6098SOL    HW119193   0.505   0.676   6.564
 6098SOL    HW219194   0.434   0.622   6.700
 6099SOL     OW19195   6.133   3.992   4.673
 6099SOL    HW119196   6.081   4.010   4.589
 6099SOL    HW219197   6.144   3.893   4.684
 6100SOL     OW19198   6.967   2.951   1.270
 6100SOL    HW119199   0.033   2.909   1.303
 6100SOL    HW219200   6.961   3.044   1.305
 6101SOL     OW19201   6.178   6.407   3.729
 6101SOL    HW119202   6.144   6.315   3.710
 6101SOL    HW219203   6.139   6.440   3.815
 6102SOL     OW19204   3.404   6.266   4.936
 6102SOL    HW119205   3.326   6.328   4.926
 6102SOL    HW219206   3.436   6.269   5.031
 6103SOL     OW19207   5.632   1.714   5.282
 6103SOL    HW119208   5.653   1.751   5.191
 6103SOL    HW219209   5.638   1.787   5.350
 6104SOL     OW19210   2.296   3.136   1.510
 6104SOL    HW119211   2.368   3.132   1.441
 6104SOL    HW219212   2.329   3.188   1.589
 6105SOL     OW19213   3.512   4.955   4.590
 6105SOL    HW119214   3.578   4.971   4.664
 6105SOL    HW219215   3.448   4.883   4.617
 6106SOL     OW19216   2.151   5.049   4.453
 6106SOL    HW119217   2.082   5.099   4.505
 6106SOL    HW219218   2.156   4.954   4.486
 6107SOL     OW19219   2.163   4.962   6.266
 6107SOL    HW119220   2.179   5.002   6.357
 6107SOL    HW219221   2.228   5.001   6.201
 6108SOL     OW19222   5.506   2.120   5.205
 6108SOL    HW119223   5.465   2.189   5.145
 6108SOL    HW219224   5.605   2.121   5.194
 6109SOL     OW19225   0.031   4.824   1.671
 6109SOL    HW119226   0.094   4.768   1.725
 6109SOL    HW219227   7.012   4.896   1.729
 6110SOL     OW19228   3.453   1.937   4.057
 6110SOL    HW119229   3.439   1.991   4.140
 6110SOL    HW219230   3.404   1.980   3.981
 6111SOL     OW19231   0.336   4.659   3.500
 6111SOL    HW119232   0.395   4.691   3.427
 6111SOL    HW219233   0.392   4.630   3.578
 6112SOL     OW19234   1.256   0.781   1.189
 6112SOL    HW119235   1.240   0.866   1.137
 6112SOL    HW219236   1.311   0.802   1.270
 6113SOL     OW19237   1.368   4.431   5.678
 6113SOL    HW119238   1.395   4.394   5.590
 6113SOL    HW219239   1.414   4.380   5.751
 6114SOL     OW19240   3.552   4.277   1.069
 6114SOL    HW119241   3.601   4.272   1.156
 6114SOL    HW219242   3.461   4.316   1.085
 6115SOL     OW19243   0.110   4.456   2.426
 6115SOL    HW119244   0.156   4.543   2.443
 6115SOL    HW219245   0.091   4.410   2.513
 6116SOL     OW19246   4.095   2.612   0.962
 6116SOL    HW119247   4.000   2.583   0.952
 6116SOL    HW219248   4.098   2.706   0.997
 6117SOL     OW19249   5.328   5.666   4.026
 6117SOL    HW119250   5.243   5.718   4.031
 6117SOL    HW219251   5.388   5.706   3.957
 6118SOL     OW19252   6.308   0.142   3.880
 6118SOL    HW119253   6.317   0.044   3.865
 6118SOL    HW219254   6.354   0.168   3.965
 6119SOL     OW19255   5.682   5.417   4.721
 6119SOL    HW119256   5.720   5.385   4.807
 6119SOL    HW219257   5.582   5.418   4.727
 6120SOL     OW19258   2.409   1.897   2.977
 6120SOL    HW119259   2.366   1.986   2.986
 6120SOL    HW219260   2.504   1.908   2.947
 6121SOL     OW19261   6.733   2.143   3.123
 6121SOL    HW119262   6.831   2.124   3.127
 6121SOL    HW219263   6.682   2.060   3.148
 6122SOL     OW19264   3.949   5.347   4.088
 6122SOL    HW119265   3.949   5.247   4.094
 6122SOL    HW219266   4.040   5.382   4.111
 6123SOL     OW19267   6.083   1.891   2.644
 6123SOL    HW119268   6.087   1.985   2.612
 6123SOL    HW219269   5.995   1.874   2.689
 6124SOL     OW19270   2.808   0.430   5.216
 6124SOL    HW119271   2.758   0.384   5.290
 6124SOL    HW219272   2.885   0.373   5.189
 6125SOL     OW19273   1.206   4.058   2.612
 6125SOL    HW119274   1.106   4.050   2.623
 6125SOL    HW219275   1.231   4.155   2.614
 6126SOL     OW19276   3.598   6.788   3.325
 6126SOL    HW119277   3.511   6.755   3.287
 6126SOL    HW219278   3.648   6.838   3.255
 6127SOL     OW19279   1.896   5.738   1.279
 6127SOL    HW119280   1.932   5.814   1.333
 6127SOL    HW219281   1.804   5.714   1.312
 6128SOL     OW19282   5.601   4.114   1.877
 6128SOL    HW119283   5.649   4.065   1.950
 6128SOL    HW219284   5.523   4.163   1.916
 6129SOL     OW19285   6.610   3.651   3.567
 6129SOL    HW119286   6.652   3.672   3.656
 6129SOL    HW219287   6.591   3.736   3.519
 6130SOL     OW19288   5.311   3.321   2.729
 6130SOL    HW119289   5.367   3.262   2.787
 6130SOL    HW219290   5.273   3.267   2.654
 6131SOL     OW19291   0.115   1.319   5.379
 6131SOL    HW119292   0.191   1.264   5.412
 6131SOL    HW219293   0.030   1.289   5.424
 6132SOL     OW19294   0.206   2.527   0.476
 6132SOL    HW119295   0.162   2.459   0.418
 6132SOL    HW219296   0.269   2.582   0.421
 6133SOL     OW19297   1.593   5.003   0.449
 6133SOL    HW119298   1.646   4.936   0.499
 6133SOL    HW219299   1.606   4.991   0.350
 6134SOL     OW19300   4.713   3.846   6.429
 6134SOL    HW119301   4.647   3.835   6.503
 6134SOL    HW219302   4.729   3.758   6.384
 6135SOL     OW19303   5.900   6.886   2.161
 6135SOL    HW119304   5.944   6.857   2.076
 6135SOL    HW219305   5.812   6.927   2.141
 6136SOL     OW19306   1.354   2.057   2.552
 6136SOL    HW119307   1.374   2.155   2.563
 6136SOL    HW219308   1.425   2.003   2.598
 6137SOL     OW19309   3.398   0.108   6.130
 6137SOL    HW119310   3.378   0.022   6.084
 6137SOL    HW219311   3.397   0.094   6.229
 6138SOL     OW19312   4.665   0.875   2.960
 6138SOL    HW119313   4.753   0.920   2.978
 6138SOL    HW219314   4.664   0.786   3.006
 6139SOL     OW19315   2.318   6.264   3.707
 6139SOL    HW119316   2.271   6.178   3.727
 6139SOL    HW219317   2.337   6.270   3.609
 6140SOL     OW19318   2.187   6.016   1.250
 6140SOL    HW119319   2.104   5.985   1.295
 6140SOL    HW219320   2.209   6.109   1.278
 6141SOL     OW19321   0.713   6.359   5.086
 6141SOL    HW119322   0.776   6.287   5.115
 6141SOL    HW219323   0.746   6.400   5.000
 6142SOL     OW19324   6.895   3.158   4.045
 6142SOL    HW119325   6.864   3.063   4.044
 6142SOL    HW219326   6.847   3.207   4.118
 6143SOL     OW19327   6.324   5.791   6.252
 6143SOL    HW119328   6.264   5.846   6.309
 6143SOL    HW219329   6.327   5.698   6.287
 6144SOL     OW19330   0.469   5.976   4.611
 6144SOL    HW119331   0.460   6.033   4.529
 6144SOL    HW219332   0.379   5.949   4.644
 6145SOL     OW19333   6.085   5.025   3.781
 6145SOL    HW119334   6.022   5.073   3.720
 6145SOL    HW219335   6.035   4.953   3.830
 6146SOL     OW19336   6.039   1.980   3.432
 6146SOL    HW119337   6.044   2.079   3.428
 6146SOL    HW219338   6.010   1.944   3.343
 6147SOL     OW19339   1.021   3.853   3.803
 6147SOL    HW119340   1.000   3.930   3.742
 6147SOL    HW219341   1.118   3.831   3.796
 6148SOL     OW19342   6.141   6.767   3.148
 6148SOL    HW119343   6.109   6.784   3.241
 6148SOL    HW219344   6.235   6.799   3.138
 6149SOL     OW19345   1.241   5.866   4.626
 6149SOL    HW119346   1.212   5.793   4.564
 6149SOL    HW219347   1.277   5.827   4.710
 6150SOL     OW19348   4.699   6.560   6.351
 6150SOL    HW119349   4.724   6.556   6.448
 6150SOL    HW219350   4.698   6.655   6.321
 6151SOL     OW19351   3.873   0.413   4.654
 6151SOL    HW119352   3.847   0.319   4.675
 6151SOL    HW219353   3.883   0.464   4.739
 6152SOL     OW19354   6.506   3.906   6.207
 6152SOL    HW119355   6.553   3.921   6.294
 6152SOL    HW219356   6.569   3.864   6.142
 6153SOL     OW19357   3.746   5.611   5.623
 6153SOL    HW119358   3.744   5.580   5.528
 6153SOL    HW219359   3.662   5.661   5.644
 6154SOL     OW19360   5.162   2.876   3.369
 6154SOL    HW119361   5.076   2.919   3.343
 6154SOL    HW219362   5.204   2.833   3.290
 6155SOL     OW19363   2.854   4.837   4.752
 6155SOL    HW119364   2.947   4.801   4.744
 6155SOL    HW219365   2.839   4.867   4.847
 6156SOL     OW19366   5.742   0.605   4.635
 6156SOL    HW119367   5.823   0.634   4.583
 6156SOL    HW219368   5.734   0.506   4.631
 6157SOL     OW19369   1.606   1.083   4.675
 6157SOL    HW119370   1.692   1.075   4.625
 6157SOL    HW219371   1.551   1.157   4.635
 6158SOL     OW19372   4.912   6.476   6.866
 6158SOL    HW119373   4.986   6.543   6.863
 6158SOL    HW219374   4.946   6.390   6.906
 6159SOL     OW19375   5.110   3.610   6.203
 6159SOL    HW119376   5.069   3.607   6.111
 6159SOL    HW219377   5.063   3.680   6.258
 6160SOL     OW19378   6.331   5.345   0.159
 6160SOL    HW119379   6.241   5.301   0.164
 6160SOL    HW219380   6.321   5.442   0.182
 6161SOL     OW19381   5.739   0.079   6.176
 6161SOL    HW119382   5.685   0.125   6.247
 6161SOL    HW219383   5.677   0.038   6.108
 6162SOL     OW19384   6.020   5.672   3.708
 6162SOL    HW119385   6.113   5.699   3.730
 6162SOL    HW219386   6.016   5.643   3.612
 6163SOL     OW19387   0.059   3.899   3.039
 6163SOL    HW119388   6.994   3.951   3.025
 6163SOL    HW219389   0.039   3.818   3.095
 6164SOL     OW19390   4.700   3.235   1.172
 6164SOL    HW119391   4.621   3.295   1.155
 6164SOL    HW219392   4.720   3.182   1.090
 6165SOL     OW19393   3.930   6.830   0.677
 6165SOL    HW119394   3.891   6.855   0.765
 6165SOL    HW219395   3.971   6.739   0.683
 6166SOL     OW19396   3.270   0.661   0.307
 6166SOL    HW119397   3.283   0.562   0.296
 6166SOL    HW219398   3.262   0.704   0.217
 6167SOL     OW19399   0.010   5.217   3.623
 6167SOL    HW119400   0.009   5.131   3.571
 6167SOL    HW219401   6.958   5.278   3.588
 6168SOL     OW19402   0.001   2.682   1.775
 6168SOL    HW119403   0.071   2.610   1.766
 6168SOL    HW219404   0.036   2.755   1.832
 6169SOL     OW19405   1.255   4.020   1.142
 6169SOL    HW119406   1.266   3.921   1.149
 6169SOL    HW219407   1.309   4.055   1.065
 6170SOL     OW19408   6.424   2.211   3.478
 6170SOL    HW119409   6.398   2.263   3.559
 6170SOL    HW219410   6.399   2.115   3.490
 6171SOL     OW19411   5.648   2.204   6.163
 6171SOL    HW119412   5.673   2.116   6.122
 6171SOL    HW219413   5.581   2.250   6.104
 6172SOL     OW19414   0.352   4.765   3.783
 6172SOL    HW119415   0.440   4.719   3.775
 6172SOL    HW219416   0.297   4.720   3.854
 6173SOL     OW19417   5.299   6.393   3.070
 6173SOL    HW119418   5.240   6.327   3.024
 6173SOL    HW219419   5.361   6.434   3.004
 6174SOL     OW19420   0.547   2.370   3.337
 6174SOL    HW119421   0.478   2.442   3.327
 6174SOL    HW219422   0.515   2.286   3.294
 6175SOL     OW19423   4.306   2.490   6.336
 6175SOL    HW119424   4.215   2.526   6.319
 6175SOL    HW219425   4.370   2.528   6.269
 6176SOL     OW19426   2.980   5.064   5.653
 6176SOL    HW119427   2.976   5.162   5.634
 6176SOL    HW219428   2.962   5.048   5.750
 6177SOL     OW19429   5.727   5.370   2.019
 6177SOL    HW119430   5.768   5.454   1.982
 6177SOL    HW219431   5.753   5.360   2.115
 6178SOL     OW19432   4.376   4.587   1.891
 6178SOL    HW119433   4.469   4.568   1.858
 6178SOL    HW219434   4.326   4.501   1.900
 6179SOL     OW19435   4.707   5.268   4.702
 6179SOL    HW119436   4.801   5.291   4.678
 6179SOL    HW219437   4.705   5.227   4.793
 6180SOL     OW19438   1.988   3.811   6.719
 6180SOL    HW119439   2.055   3.742   6.746
 6180SOL    HW219440   2.025   3.902   6.737
 6181SOL     OW19441   0.206   6.570   0.050
 6181SOL    HW119442   0.275   6.520   7.017
 6181SOL    HW219443   0.236   6.579   0.145
 6182SOL     OW19444   2.692   2.675   6.081
 6182SOL    HW119445   2.669   2.754   6.024
 6182SOL    HW219446   2.791   2.664   6.085
 6183SOL     OW19447   0.352   0.575   0.639
 6183SOL    HW119448   0.369   0.539   0.731
 6183SOL    HW219449   0.403   0.659   0.626
 6184SOL     OW19450   3.523   6.347   5.432
 6184SOL    HW119451   3.426   6.344   5.455
 6184SOL    HW219452   3.567   6.420   5.484
 6185SOL     OW19453   3.071   3.040   3.751
 6185SOL    HW119454   3.159   3.088   3.747
 6185SOL    HW219455   3.085   2.942   3.734
 6186SOL     OW19456   1.093   1.770   2.092
 6186SOL    HW119457   0.997   1.797   2.084
 6186SOL    HW219458   1.114   1.749   2.187
 6187SOL     OW19459   3.613   2.246   5.757
 6187SOL    HW119460   3.683   2.301   5.712
 6187SOL    HW219461   3.645   2.219   5.848
 6188SOL     OW19462   1.332   1.224   5.996
 6188SOL    HW119463   1.431   1.229   6.010
 6188SOL    HW219464   1.288   1.298   6.046
 6189SOL     OW19465   6.994   5.546   0.853
 6189SOL    HW119466   0.038   5.508   0.785
 6189SOL    HW219467   6.910   5.575   0.807
 6190SOL     OW19468   0.833   3.057   4.097
 6190SOL    HW119469   0.868   3.148   4.118
 6190SOL    HW219470   0.792   3.017   4.179
 6191SOL     OW19471   3.266   4.506   0.164
 6191SOL    HW119472   3.329   4.508   0.242
 6191SOL    HW219473   3.299   4.569   0.094
 6192SOL     OW19474   2.601   1.900   1.414
 6192SOL    HW119475   2.523   1.874   1.470
 6192SOL    HW219476   2.590   1.861   1.322
 6193SOL     OW19477   4.432   5.336   0.016
 6193SOL    HW119478   4.449   5.346   6.937
 6193SOL    HW219479   4.457   5.244   0.046
 6194SOL     OW19480   5.982   6.847   5.904
 6194SOL    HW119481   6.005   6.888   5.992
 6194SOL    HW219482   5.937   6.915   5.846
 6195SOL     OW19483   4.940   5.335   5.554
 6195SOL    HW119484   4.936   5.434   5.554
 6195SOL    HW219485   4.852   5.298   5.582
 6196SOL     OW19486   6.754   3.494   3.204
 6196SOL    HW119487   6.680   3.428   3.196
 6196SOL    HW219488   6.827   3.456   3.261
 6197SOL     OW19489   0.677   5.505   0.600
 6197SOL    HW119490   0.759   5.467   0.558
 6197SOL    HW219491   0.678   5.605   0.593
 6198SOL     OW19492   6.606   1.789   5.942
 6198SOL    HW119493   6.534   1.823   5.881
 6198SOL    HW219494   6.584   1.815   6.036
 6199SOL     OW19495   2.355   0.141   6.114
 6199SOL    HW119496   2.310   0.087   6.043
 6199SOL    HW219497   2.286   0.178   6.176
 6200SOL     OW19498   1.978   0.080   6.397
 6200SOL    HW119499   1.985   0.158   6.459
 6200SOL    HW219500   1.999   7.015   6.446
 6201SOL     OW19501   0.657   4.760   3.885
 6201SOL    HW119502   0.595   4.797   3.955
 6201SOL    HW219503   0.708   4.835   3.843
 6202SOL     OW19504   5.366   0.899   1.303
 6202SOL    HW119505   5.414   0.813   1.284
 6202SOL    HW219506   5.410   0.973   1.253
 6203SOL     OW19507   0.336   1.180   2.254
 6203SOL    HW119508   0.340   1.237   2.336
 6203SOL    HW219509   0.365   1.234   2.175
 6204SOL     OW19510   1.155   6.125   4.681
 6204SOL    HW119511   1.056   6.128   4.692
 6204SOL    HW219512   1.182   6.032   4.652
 6205SOL     OW19513   0.118   4.337   3.754
 6205SOL    HW119514   0.103   4.425   3.709
 6205SOL    HW219515   0.031   4.287   3.757
 6206SOL     OW19516   5.043   2.169   3.448
 6206SOL    HW119517   4.996   2.084   3.474
 6206SOL    HW219518   5.022   2.190   3.352
 6207SOL     OW19519   1.906   5.796   3.451
 6207SOL    HW119520   1.823   5.837   3.413
 6207SOL    HW219521   1.912   5.817   3.548
 6208SOL     OW19522   3.651   4.407   5.829
 6208SOL    HW119523   3.655   4.492   5.882
 6208SOL    HW219524   3.594   4.340   5.877
 6209SOL     OW19525   3.248   0.910   2.529
 6209SOL    HW119526   3.283   0.995   2.488
 6209SOL    HW219527   3.261   0.834   2.465
 6210SOL     OW19528   5.289   0.362   3.968
 6210SOL    HW119529   5.259   0.439   4.024
 6210SOL    HW219530   5.219   0.341   3.900
 6211SOL     OW19531   5.424   2.888   5.215
 6211SOL    HW119532   5.369   2.820   5.166
 6211SOL    HW219533   5.494   2.841   5.269
 6212SOL     OW19534   4.811   4.011   4.400
 6212SOL    HW119535   4.838   3.919   4.373
 6212SOL    HW219536   4.833   4.026   4.496
 6213SOL     OW19537   5.399   6.046   0.809
 6213SOL    HW119538   5.426   5.968   0.865
 6213SOL    HW219539   5.412   6.024   0.712
 6214SOL     OW19540   6.651   6.218   6.338
 6214SOL    HW119541   6.568   6.235   6.392
 6214SOL    HW219542   6.714   6.295   6.350
 6215SOL     OW19543   5.802   2.495   5.090
 6215SOL    HW119544   5.895   2.531   5.076
 6215SOL    HW219545   5.736   2.568   5.072
 6216SOL     OW19546   5.120   2.865   6.103
 6216SOL    HW119547   5.216   2.886   6.122
 6216SOL    HW219548   5.062   2.933   6.149
 6217SOL     OW19549   0.255   4.324   2.218
 6217SOL    HW119550   0.204   4.305   2.134
 6217SOL    HW219551   0.194   4.364   2.286
 6218SOL     OW19552   5.218   6.793   1.423
 6218SOL    HW119553   5.300   6.737   1.439
 6218SOL    HW219554   5.174   6.813   1.511
 6219SOL     OW19555   2.590   0.667   0.532
 6219SOL    HW119556   2.687   0.646   0.539
 6219SOL    HW219557   2.560   0.657   0.437
 6220SOL     OW19558   2.903   0.321   2.687
 6220SOL    HW119559   2.961   0.395   2.654
 6220SOL    HW219560   2.830   0.358   2.744
 6221SOL     OW19561   4.507   4.941   5.125
 6221SOL    HW119562   4.454   4.882   5.185
 6221SOL    HW219563   4.538   5.021   5.176
 6222SOL     OW19564   0.494   0.981   2.068
 6222SOL    HW119565   0.471   1.045   1.995
 6222SOL    HW219566   0.525   1.032   2.148
 6223SOL     OW19567   6.533   5.288   3.879
 6223SOL    HW119568   6.576   5.348   3.946
 6223SOL    HW219569   6.603   5.248   3.819
 6224SOL     OW19570   3.822   6.949   6.999
 6224SOL    HW119571   3.820   6.865   6.945
 6224SOL    HW219572   3.813   6.927   0.077
 6225SOL     OW19573   5.628   5.314   6.507
 6225SOL    HW119574   5.708   5.298   6.449
 6225SOL    HW219575   5.603   5.228   6.553
 6226SOL     OW19576   1.144   1.065   4.013
 6226SOL    HW119577   1.187   1.079   3.924
 6226SOL    HW219578   1.175   0.977   4.051
 6227SOL     OW19579   2.407   4.044   6.273
 6227SOL    HW119580   2.363   4.128   6.242
 6227SOL    HW219581   2.382   3.969   6.212
 6228SOL     OW19582   0.520   2.743   4.161
 6228SOL    HW119583   0.448   2.680   4.192
 6228SOL    HW219584   0.500   2.773   4.068
 6229SOL     OW19585   0.199   4.551   4.690
 6229SOL    HW119586   0.126   4.568   4.756
 6229SOL    HW219587   0.268   4.491   4.733
 6230SOL     OW19588   0.802   0.557   1.064
 6230SOL    HW119589   0.768   0.496   0.993
 6230SOL    HW219590   0.842   0.502   1.138
 6231SOL     OW19591   2.130   5.435   5.559
 6231SOL    HW119592   2.215   5.413   5.512
 6231SOL    HW219593   2.064   5.362   5.544
 6232SOL     OW19594   4.072   1.064   6.403
 6232SOL    HW119595   4.116   1.020   6.481
 6232SOL    HW219596   4.134   1.065   6.325
 6233SOL     OW19597   0.016   4.413   1.053
 6233SOL    HW119598   7.010   4.373   1.141
 6233SOL    HW219599   7.001   4.507   1.048
 6234SOL     OW19600   4.899   5.243   2.870
 6234SOL    HW119601   4.843   5.312   2.825
 6234SOL    HW219602   4.945   5.284   2.949
 6235SOL     OW19603   0.940   0.877   1.701
 6235SOL    HW119604   0.896   0.865   1.612
 6235SOL    HW219605   0.870   0.898   1.770
 6236SOL     OW19606   6.119   5.787   1.533
 6236SOL    HW119607   6.187   5.860   1.544
 6236SOL    HW219608   6.066   5.803   1.449
 6237SOL     OW19609   4.502   1.094   2.864
 6237SOL    HW119610   4.547   1.009   2.891
 6237SOL    HW219611   4.405   1.077   2.845
 6238SOL     OW19612   2.132   6.780   3.742
 6238SOL    HW119613   2.108   6.825   3.827
 6238SOL    HW219614   2.229   6.756   3.743
 6239SOL     OW19615   3.817   1.443   4.418
 6239SOL    HW119616   3.860   1.404   4.336
 6239SOL    HW219617   3.865   1.527   4.443
 6240SOL     OW19618   3.758   3.162   4.360
 6240SOL    HW119619   3.737   3.082   4.415
 6240SOL    HW219620   3.826   3.219   4.407
 6241SOL     OW19621   3.989   0.134   3.397
 6241SOL    HW119622   3.915   0.124   3.464
 6241SOL    HW219623   4.076   0.136   3.445
 6242SOL     OW19624   3.350   2.149   4.695
 6242SOL    HW119625   3.292   2.196   4.762
 6242SOL    HW219626   3.309   2.160   4.604
 6243SOL     OW19627   2.999   0.873   0.033
 6243SOL    HW119628   2.994   0.971   0.016
 6243SOL    HW219629   2.964   0.853   0.124
 6244SOL     OW19630   5.085   2.591   1.646
 6244SOL    HW119631   5.168   2.647   1.637
 6244SOL    HW219632   5.059   2.557   1.555
 6245SOL     OW19633   6.876   5.061   1.688
 6245SOL    HW119634   6.778   5.079   1.681
 6245SOL    HW219635   6.927   5.142   1.658
 6246SOL     OW19636   0.980   5.822   5.348
 6246SOL    HW119637   0.933   5.909   5.362
 6246SOL    HW219638   1.008   5.813   5.253
 6247SOL     OW19639   5.798   5.498   2.679
 6247SOL    HW119640   5.802   5.415   2.623
 6247SOL    HW219641   5.882   5.506   2.732
 6248SOL     OW19642   4.484   2.475   6.131
 6248SOL    HW119643   4.519   2.547   6.071
 6248SOL    HW219644   4.561   2.428   6.174
 6249SOL     OW19645   5.319   2.399   2.759
 6249SOL    HW119646   5.347   2.493   2.778
 6249SOL    HW219647   5.365   2.336   2.821
 6250SOL     OW19648   4.917   6.861   5.135
 6250SOL    HW119649   4.904   6.881   5.038
 6250SOL    HW219650   4.996   6.912   5.168
 6251SOL     OW19651   2.902   0.979   3.863
 6251SOL    HW119652   2.854   1.038   3.928
 6251SOL    HW219653   2.929   1.033   3.783
 6252SOL     OW19654   2.355   4.814   0.427
 6252SOL    HW119655   2.424   4.786   0.494
 6252SOL    HW219656   2.370   4.765   0.341
 6253SOL     OW19657   4.753   6.079   3.522
 6253SOL    HW119658   4.673   6.138   3.533
 6253SOL    HW219659   4.774   6.070   3.425
 6254SOL     OW19660   6.957   6.902   1.724
 6254SOL    HW119661   6.954   6.962   1.804
 6254SOL    HW219662   6.923   6.811   1.749
 6255SOL     OW19663   2.545   0.651   1.098
 6255SOL    HW119664   2.534   0.605   1.185
 6255SOL    HW219665   2.627   0.618   1.052
 6256SOL     OW19666   0.163   4.646   2.133
 6256SOL    HW119667   0.097   4.571   2.124
 6256SOL    HW219668   0.206   4.641   2.223
 6257SOL     OW19669   4.195   4.090   0.568
 6257SOL    HW119670   4.269   4.037   0.526
 6257SOL    HW219671   4.124   4.107   0.499
 6258SOL     OW19672   4.301   5.039   3.570
 6258SOL    HW119673   4.348   5.080   3.492
 6258SOL    HW219674   4.280   5.110   3.638
 6259SOL     OW19675   5.036   0.317   4.769
 6259SOL    HW119676   5.075   0.356   4.853
 6259SOL    HW219677   5.029   0.218   4.778
 6260SOL     OW19678   3.510   2.533   6.919
 6260SOL    HW119679   3.515   2.522   6.820
 6260SOL    HW219680   3.586   2.485   6.962
 6261SOL     OW19681   4.822   6.515   1.379
 6261SOL    HW119682   4.804   6.576   1.456
 6261SOL    HW219683   4.833   6.421   1.413
 6262SOL     OW19684   6.245   1.301   3.593
 6262SOL    HW119685   6.215   1.349   3.675
 6262SOL    HW219686   6.304   1.361   3.539
 6263SOL     OW19687   6.130   6.440   5.981
 6263SOL    HW119688   6.115   6.425   5.883
 6263SOL    HW219689   6.131   6.538   5.999
 6264SOL     OW19690   1.134   6.697   1.361
 6264SOL    HW119691   1.177   6.777   1.403
 6264SOL    HW219692   1.034   6.704   1.370
 6265SOL     OW19693   3.837   6.478   6.694
 6265SOL    HW119694   3.925   6.431   6.683
 6265SOL    HW219695   3.772   6.416   6.738
 6266SOL     OW19696   2.699   5.016   3.472
 6266SOL    HW119697   2.768   5.047   3.406
 6266SOL    HW219698   2.699   5.077   3.551
 6267SOL     OW19699   0.838   6.386   4.181
 6267SOL    HW119700   0.899   6.465   4.172
 6267SOL    HW219701   0.805   6.382   4.276
 6268SOL     OW19702   3.119   1.958   1.158
 6268SOL    HW119703   3.053   1.935   1.086
 6268SOL    HW219704   3.209   1.971   1.117
 6269SOL     OW19705   0.175   6.144   0.413
 6269SOL    HW119706   0.270   6.140   0.443
 6269SOL    HW219707   0.132   6.055   0.426
 6270SOL     OW19708   1.304   6.120   0.829
 6270SOL    HW119709   1.366   6.106   0.751
 6270SOL    HW219710   1.265   6.032   0.856
 6271SOL     OW19711   6.769   3.531   6.066
 6271SOL    HW119712   6.801   3.553   5.974
 6271SOL    HW219713   6.835   3.566   6.133
 6272SOL     OW19714   6.742   0.853   1.010
 6272SOL    HW119715   6.658   0.812   1.044
 6272SOL    HW219716   6.726   0.950   0.990
 6273SOL     OW19717   0.161   6.647   2.806
 6273SOL    HW119718   0.139   6.730   2.755
 6273SOL    HW219719   0.243   6.663   2.861
 6274SOL     OW19720   3.506   5.836   3.944
 6274SOL    HW119721   3.445   5.774   3.993
 6274SOL    HW219722   3.562   5.785   3.879
 6275SOL     OW19723   3.137   5.665   1.485
 6275SOL    HW119724   3.211   5.605   1.514
 6275SOL    HW219725   3.102   5.715   1.564
 6276SOL     OW19726   1.313   4.311   2.554
 6276SOL    HW119727   1.401   4.309   2.601
 6276SOL    HW219728   1.327   4.331   2.457
 6277SOL     OW19729   5.425   2.145   1.208
 6277SOL    HW119730   5.523   2.126   1.218
 6277SOL    HW219731   5.372   2.070   1.246
 6278SOL     OW19732   3.923   3.169   0.147
 6278SOL    HW119733   3.986   3.112   0.095
 6278SOL    HW219734   3.893   3.246   0.090
 6279SOL     OW19735   0.956   6.441   2.054
 6279SOL    HW119736   1.031   6.387   2.091
 6279SOL    HW219737   0.988   6.533   2.031
 6280SOL     OW19738   4.900   1.188   6.866
 6280SOL    HW119739   4.836   1.257   6.899
 6280SOL    HW219740   4.937   1.137   6.944
 6281SOL     OW19741   5.707   3.799   6.355
 6281SOL    HW119742   5.658   3.868   6.409
 6281SOL    HW219743   5.803   3.796   6.383
 6282SOL     OW19744   0.317   4.477   6.042
 6282SOL    HW119745   0.312   4.465   5.942
 6282SOL    HW219746   0.275   4.398   6.087
 6283SOL     OW19747   2.776   6.602   4.363
 6283SOL    HW119748   2.724   6.610   4.278
 6283SOL    HW219749   2.872   6.586   4.342
 6284SOL     OW19750   2.056   4.022   6.252
 6284SOL    HW119751   2.128   3.989   6.191
 6284SOL    HW219752   2.092   4.097   6.308
 6285SOL     OW19753   1.836   4.393   3.886
 6285SOL    HW119754   1.928   4.368   3.856
 6285SOL    HW219755   1.769   4.350   3.826
 6286SOL     OW19756   1.293   3.333   0.010
 6286SOL    HW119757   1.369   3.280   0.047
 6286SOL    HW219758   1.212   3.319   0.067
 6287SOL     OW19759   4.123   5.458   5.163
 6287SOL    HW119760   4.118   5.545   5.114
 6287SOL    HW219761   4.194   5.401   5.122
 6288SOL     OW19762   3.226   3.843   6.197
 6288SOL    HW119763   3.200   3.779   6.125
 6288SOL    HW219764   3.143   3.883   6.237
 6289SOL     OW19765   2.652   5.258   5.842
 6289SOL    HW119766   2.724   5.267   5.911
 6289SOL    HW219767   2.680   5.303   5.757
 6290SOL     OW19768   6.172   0.598   3.046
 6290SOL    HW119769   6.271   0.586   3.051
 6290SOL    HW219770   6.151   0.687   3.005
 6291SOL     OW19771   3.100   3.161   1.991
 6291SOL    HW119772   3.012   3.137   1.950
 6291SOL    HW219773   3.155   3.078   2.000
 6292SOL     OW19774   0.768   4.243   5.040
 6292SOL    HW119775   0.835   4.249   5.114
 6292SOL    HW219776   0.811   4.269   4.954
 6293SOL     OW19777   2.750   1.469   0.406
 6293SOL    HW119778   2.652   1.475   0.384
 6293SOL    HW219779   2.775   1.373   0.418
 6294SOL     OW19780   1.162   0.232   2.288
 6294SOL    HW119781   1.190   0.320   2.249
 6294SOL    HW219782   1.234   0.199   2.350
 6295SOL     OW19783   4.657   2.617   5.626
 6295SOL    HW119784   4.587   2.545   5.633
 6295SOL    HW219785   4.701   2.612   5.536
 6296SOL     OW19786   7.014   2.102   0.257
 6296SOL    HW119787   0.001   2.028   0.190
 6296SOL    HW219788   7.012   2.063   0.349
 6297SOL     OW19789   0.330   1.141   4.625
 6297SOL    HW119790   0.237   1.167   4.598
 6297SOL    HW219791   0.396   1.182   4.561
 6298SOL     OW19792   6.805   0.792   6.541
 6298SOL    HW119793   6.795   0.868   6.604
 6298SOL    HW219794   6.877   0.813   6.474
 6299SOL     OW19795   2.826   1.773   3.709
 6299SOL    HW119796   2.858   1.678   3.706
 6299SOL    HW219797   2.859   1.817   3.792
 6300SOL     OW19798   2.706   2.343   1.128
 6300SOL    HW119799   2.757   2.372   1.209
 6300SOL    HW219800   2.769   2.297   1.065
 6301SOL     OW19801   4.020   6.388   0.991
 6301SOL    HW119802   3.937   6.400   0.937
 6301SOL    HW219803   4.070   6.308   0.959
 6302SOL     OW19804   1.534   3.780   0.682
 6302SOL    HW119805   1.611   3.844   0.672
 6302SOL    HW219806   1.541   3.709   0.612
 6303SOL     OW19807   6.484   4.595   4.924
 6303SOL    HW119808   6.487   4.495   4.916
 6303SOL    HW219809   6.467   4.619   5.020
 6304SOL     OW19810   1.893   2.585   4.796
 6304SOL    HW119811   1.860   2.505   4.845
 6304SOL    HW219812   1.978   2.563   4.749
 6305SOL     OW19813   1.080   5.882   5.114
 6305SOL    HW119814   1.055   5.830   5.032
 6305SOL    HW219815   1.176   5.910   5.108
 6306SOL     OW19816   1.197   4.378   3.820
 6306SOL    HW119817   1.110   4.416   3.849
 6306SOL    HW219818   1.196   4.279   3.833
 6307SOL     OW19819   3.458   3.339   2.878
 6307SOL    HW119820   3.543   3.290   2.857
 6307SOL    HW219821   3.383   3.273   2.884
 6308SOL     OW19822   1.043   0.684   1.350
 6308SOL    HW119823   1.108   0.686   1.274
 6308SOL    HW219824   1.077   0.739   1.426
 6309SOL     OW19825   1.663   5.941   5.071
 6309SOL    HW119826   1.689   5.974   5.162
 6309SOL    HW219827   1.566   5.915   5.072
 6310SOL     OW19828   0.962   6.777   2.910
 6310SOL    HW119829   1.035   6.750   2.848
 6310SOL    HW219830   0.914   6.696   2.943
 6311SOL     OW19831   5.567   1.466   6.002
 6311SOL    HW119832   5.654   1.514   6.017
 6311SOL    HW219833   5.582   1.367   6.012
 6312SOL     OW19834   3.930   5.182   1.695
 6312SOL    HW119835   3.891   5.273   1.680
 6312SOL    HW219836   4.029   5.185   1.686
 6313SOL     OW19837   5.349   4.922   3.058
 6313SOL    HW119838   5.292   4.884   2.985
 6313SOL    HW219839   5.357   5.021   3.045
 6314SOL     OW19840   2.219   6.142   2.787
 6314SOL    HW119841   2.300   6.194   2.759
 6314SOL    HW219842   2.232   6.046   2.764
 6315SOL     OW19843   2.179   2.351   2.802
 6315SOL    HW119844   2.122   2.389   2.729
 6315SOL    HW219845   2.274   2.375   2.786
 6316SOL     OW19846   5.015   0.761   5.047
 6316SOL    HW119847   5.013   0.813   4.962
 6316SOL    HW219848   5.094   0.789   5.101
 6317SOL     OW19849   4.864   3.542   3.915
 6317SOL    HW119850   4.868   3.443   3.904
 6317SOL    HW219851   4.787   3.566   3.975
 6318SOL     OW19852   5.646   6.263   0.208
 6318SOL    HW119853   5.672   6.245   0.303
 6318SOL    HW219854   5.613   6.357   0.199
 6319SOL     OW19855   4.765   2.333   3.870
 6319SOL    HW119856   4.815   2.352   3.954
 6319SOL    HW219857   4.800   2.392   3.797
 6320SOL     OW19858   5.885   2.248   6.476
 6320SOL    HW119859   5.866   2.176   6.542
 6320SOL    HW219860   5.982   2.270   6.477
 6321SOL     OW19861   1.090   3.646   0.439
 6321SOL    HW119862   1.032   3.665   0.359
 6321SOL    HW219863   1.086   3.723   0.502
 6322SOL     OW19864   1.840   1.133   2.920
 6322SOL    HW119865   1.765   1.177   2.870
 6322SOL    HW219866   1.856   1.042   2.883
 6323SOL     OW19867   2.024   6.208   0.858
 6323SOL    HW119868   1.976   6.293   0.835
 6323SOL    HW219869   1.957   6.137   0.879
 6324SOL     OW19870   5.316   4.016   1.531
 6324SOL    HW119871   5.287   3.942   1.592
 6324SOL    HW219872   5.410   4.042   1.551
 6325SOL     OW19873   0.769   3.531   3.948
 6325SOL    HW119874   0.829   3.546   3.869
 6325SOL    HW219875   0.696   3.467   3.923
 6326SOL     OW19876   5.370   5.364   4.668
 6326SOL    HW119877   5.334   5.458   4.672
 6326SOL    HW219878   5.343   5.314   4.750
 6327SOL     OW19879   1.050   1.012   2.757
 6327SOL    HW119880   1.122   1.003   2.827
 6327SOL    HW219881   0.968   0.965   2.788
 6328SOL     OW19882   4.133   3.551   4.740
 6328SOL    HW119883   4.231   3.571   4.741
 6328SOL    HW219884   4.105   3.516   4.829
 6329SOL     OW19885   0.368   3.136   4.726
 6329SOL    HW119886   0.393   3.047   4.687
 6329SOL    HW219887   0.435   3.163   4.795
 6330SOL     OW19888   4.417   1.464   3.045
 6330SOL    HW119889   4.422   1.422   2.954
 6330SOL    HW219890   4.361   1.548   3.040
 6331SOL     OW19891   1.631   3.295   3.792
 6331SOL    HW119892   1.721   3.301   3.834
 6331SOL    HW219893   1.584   3.383   3.804
 6332SOL     OW19894   4.069   2.125   6.882
 6332SOL    HW119895   4.062   2.183   6.801
 6332SOL    HW219896   4.129   2.048   6.862
 6333SOL     OW19897   5.893   1.616   6.929
 6333SOL    HW119898   5.990   1.625   6.948
 6333SOL    HW219899   5.841   1.640   7.011
 6334SOL     OW19900   2.511   1.073   1.952
 6334SOL    HW119901   2.567   1.044   1.875
 6334SOL    HW219902   2.485   1.169   1.941
 6335SOL     OW19903   5.826   2.391   5.351
 6335SOL    HW119904   5.876   2.465   5.397
 6335SOL    HW219905   5.814   2.414   5.254
 6336SOL     OW19906   1.124   5.858   6.030
 6336SOL    HW119907   1.120   5.818   6.122
 6336SOL    HW219908   1.039   5.906   6.011
 6337SOL     OW19909   6.297   0.104   5.799
 6337SOL    HW119910   6.316   0.183   5.857
 6337SOL    HW219911   6.356   0.028   5.825
 6338SOL     OW19912   0.942   0.679   2.496
 6338SOL    HW119913   0.867   0.735   2.532
 6338SOL    HW219914   0.922   0.582   2.511
 6339SOL     OW19915   0.055   4.084   3.475
 6339SOL    HW119916   0.105   4.118   3.554
 6339SOL    HW219917   0.110   4.095   3.393
 6340SOL     OW19918   2.336   5.224   6.724
 6340SOL    HW119919   2.316   5.255   6.631
 6340SOL    HW219920   2.410   5.278   6.763
 6341SOL     OW19921   1.058   4.383   3.070
 6341SOL    HW119922   1.052   4.310   3.002
 6341SOL    HW219923   1.095   4.348   3.155
 6342SOL     OW19924   2.361   6.831   1.493
 6342SOL    HW119925   2.439   6.885   1.460
 6342SOL    HW219926   2.334   6.765   1.423
 6343SOL     OW19927   1.458   4.146   6.849
 6343SOL    HW119928   1.369   4.190   6.859
 6343SOL    HW219929   1.505   4.183   6.769
 6344SOL     OW19930   1.761   1.396   3.925
 6344SOL    HW119931   1.827   1.445   3.867
 6344SOL    HW219932   1.768   1.298   3.908
 6345SOL     OW19933   0.236   3.177   3.611
 6345SOL    HW119934   0.139   3.172   3.585
 6345SOL    HW219935   0.261   3.095   3.662
 6346SOL     OW19936   0.548   4.845   4.120
 6346SOL    HW119937   0.558   4.750   4.148
 6346SOL    HW219938   0.612   4.902   4.171
 6347SOL     OW19939   1.906   1.586   2.285
 6347SOL    HW119940   1.909   1.486   2.281
 6347SOL    HW219941   1.835   1.616   2.349
 6348SOL     OW19942   0.795   2.452   0.487
 6348SOL    HW119943   0.827   2.426   0.578
 6348SOL    HW219944   0.696   2.465   0.489
 6349SOL     OW19945   6.072   1.440   0.897
 6349SOL    HW119946   6.141   1.368   0.900
 6349SOL    HW219947   6.107   1.522   0.941
 6350SOL     OW19948   0.559   6.944   1.712
 6350SOL    HW119949   0.549   6.947   1.613
 6350SOL    HW219950   0.573   0.017   1.747
 6351SOL     OW19951   6.335   2.519   2.102
 6351SOL    HW119952   6.293   2.610   2.103
 6351SOL    HW219953   6.369   2.499   2.010
 6352SOL     OW19954   4.041   0.668   5.161
 6352SOL    HW119955   4.075   0.759   5.138
 6352SOL    HW219956   4.112   0.618   5.211
 6353SOL     OW19957   3.700   5.949   5.827
 6353SOL    HW119958   3.699   6.026   5.891
 6353SOL    HW219959   3.739   5.979   5.740
 6354SOL     OW19960   5.902   4.758   2.801
 6354SOL    HW119961   5.817   4.803   2.774
 6354SOL    HW219962   5.923   4.781   2.896
 6355SOL     OW19963   4.838   6.425   6.595
 6355SOL    HW119964   4.862   6.408   6.691
 6355SOL    HW219965   4.864   6.346   6.540
 6356SOL     OW19966   0.679   6.670   6.310
 6356SOL    HW119967   0.700   6.685   6.214
 6356SOL    HW219968   0.695   6.754   6.362
 6357SOL     OW19969   5.029   1.646   3.143
 6357SOL    HW119970   5.003   1.637   3.047
 6357SOL    HW219971   5.086   1.568   3.169
 6358SOL     OW19972   1.525   1.521   4.638
 6358SOL    HW119973   1.593   1.519   4.566
 6358SOL    HW219974   1.569   1.500   4.726
 6359SOL     OW19975   6.834   4.317   0.882
 6359SOL    HW119976   6.737   4.307   0.903
 6359SOL    HW219977   6.876   4.378   0.949
 6360SOL     OW19978   2.886   3.025   0.901
 6360SOL    HW119979   2.796   3.015   0.944
 6360SOL    HW219980   2.928   2.935   0.890
 6361SOL     OW19981   6.931   2.062   2.878
 6361SOL    HW119982   6.979   2.087   2.962
 6361SOL    HW219983   6.906   1.965   2.881
 6362SOL     OW19984   1.911   5.611   0.401
 6362SOL    HW119985   1.831   5.564   0.439
 6362SOL    HW219986   1.907   5.608   0.301
 6363SOL     OW19987   0.570   2.193   1.342
 6363SOL    HW119988   0.651   2.166   1.393
 6363SOL    HW219989   0.597   2.225   1.251
 6364SOL     OW19990   2.702   2.025   3.624
 6364SOL    HW119991   2.720   2.095   3.556
 6364SOL    HW219992   2.770   1.952   3.615
 6365SOL     OW19993   6.154   6.471   1.913
 6365SOL    HW119994   6.088   6.517   1.854
 6365SOL    HW219995   6.241   6.521   1.912
 6366SOL     OW19996   6.261   1.442   5.273
 6366SOL    HW119997   6.202   1.396   5.207
 6366SOL    HW219998   6.350   1.462   5.230
 6367SOL     OW19999   1.853   3.452   4.718
 6367SOL    HW120000   1.822   3.533   4.669
 6367SOL    HW220001   1.852   3.373   4.657
 6368SOL     OW20002   5.240   3.308   4.759
 6368SOL    HW120003   5.152   3.318   4.805
 6368SOL    HW220004   5.225   3.279   4.664
 6369SOL     OW20005   3.151   4.399   0.751
 6369SOL    HW120006   3.121   4.329   0.814
 6369SOL    HW220007   3.198   4.357   0.673
 6370SOL     OW20008   6.560   3.225   4.717
 6370SOL    HW120009   6.486   3.290   4.700
 6370SOL    HW220010   6.542   3.141   4.667
 6371SOL     OW20011   5.854   4.658   1.043
 6371SOL    HW120012   5.932   4.617   1.090
 6371SOL    HW220013   5.772   4.603   1.059
 6372SOL     OW20014   5.774   1.328   1.776
 6372SOL    HW120015   5.814   1.351   1.687
 6372SOL    HW220016   5.720   1.405   1.809
 6373SOL     OW20017   5.583   1.504   1.054
 6373SOL    HW120018   5.500   1.532   1.006
 6373SOL    HW220019   5.560   1.468   1.144
 6374SOL     OW20020   3.574   3.345   6.215
 6374SOL    HW120021   3.533   3.315   6.301
 6374SOL    HW220022   3.502   3.369   6.150
 6375SOL     OW20023   5.263   1.029   1.718
 6375SOL    HW120024   5.202   1.022   1.640
 6375SOL    HW220025   5.352   1.063   1.688
 6376SOL     OW20026   3.055   6.887   6.951
 6376SOL    HW120027   3.048   6.789   6.971
 6376SOL    HW220028   3.032   6.939   0.014
 6377SOL     OW20029   7.019   1.364   0.233
 6377SOL    HW120030   6.975   1.287   0.187
 6377SOL    HW220031   0.097   1.345   0.245
 6378SOL     OW20032   6.039   3.571   2.581
 6378SOL    HW120033   5.940   3.556   2.575
 6378SOL    HW220034   6.082   3.494   2.628
 6379SOL     OW20035   2.226   4.607   6.811
 6379SOL    HW120036   2.259   4.536   6.749
 6379SOL    HW220037   2.202   4.689   6.759
 6380SOL     OW20038   1.796   2.693   4.492
 6380SOL    HW120039   1.797   2.779   4.441
 6380SOL    HW220040   1.888   2.652   4.489
 6381SOL     OW20041   3.620   4.864   0.876
 6381SOL    HW120042   3.698   4.859   0.939
 6381SOL    HW220043   3.596   4.772   0.845
 6382SOL     OW20044   1.962   1.079   1.119
 6382SOL    HW120045   1.952   1.176   1.097
 6382SOL    HW220046   1.926   1.023   1.044
 6383SOL     OW20047   2.763   1.879   2.107
 6383SOL    HW120048   2.815   1.883   2.192
 6383SOL    HW220049   2.773   1.965   2.057
 6384SOL     OW20050   0.284   1.719   2.235
 6384SOL    HW120051   0.345   1.698   2.311
 6384SOL    HW220052   0.202   1.662   2.242
 6385SOL     OW20053   0.232   4.191   1.952
 6385SOL    HW120054   0.254   4.158   2.043
 6385SOL    HW220055   0.264   4.125   1.883
 6386SOL     OW20056   2.773   4.859   0.809
 6386SOL    HW120057   2.782   4.810   0.896
 6386SOL    HW220058   2.819   4.948   0.816
 6387SOL     OW20059   6.264   1.214   5.760
 6387SOL    HW120060   6.166   1.229   5.746
 6387SOL    HW220061   6.314   1.247   5.680
 6388SOL     OW20062   6.542   5.026   2.173
 6388SOL    HW120063   6.529   5.024   2.074
 6388SOL    HW220064   6.639   5.040   2.194
 6389SOL     OW20065   6.481   6.833   0.652
 6389SOL    HW120066   6.506   6.757   0.592
 6389SOL    HW220067   6.514   6.816   0.744
 6390SOL     OW20068   4.474   6.143   0.451
 6390SOL    HW120069   4.467   6.240   0.428
 6390SOL    HW220070   4.395   6.094   0.415
 6391SOL     OW20071   0.751   2.031   4.889
 6391SOL    HW120072   0.665   2.017   4.938
 6391SOL    HW220073   0.763   2.129   4.870
 6392SOL     OW20074   4.556   6.239   3.190
 6392SOL    HW120075   4.504   6.226   3.275
 6392SOL    HW220076   4.507   6.302   3.131
 6393SOL     OW20077   2.201   4.470   0.341
 6393SOL    HW120078   2.183   4.567   0.329
 6393SOL    HW220079   2.197   4.447   0.438
 6394SOL     OW20080   1.798   5.175   1.900
 6394SOL    HW120081   1.884   5.179   1.951
 6394SOL    HW220082   1.747   5.093   1.927
 6395SOL     OW20083   1.183   3.834   5.131
 6395SOL    HW120084   1.258   3.898   5.112
 6395SOL    HW220085   1.105   3.884   5.169
 6396SOL     OW20086   0.949   3.816   4.172
 6396SOL    HW120087   0.957   3.774   4.082
 6396SOL    HW220088   1.030   3.871   4.191
 6397SOL     OW20089   0.869   3.365   4.646
 6397SOL    HW120090   0.774   3.393   4.660
 6397SOL    HW220091   0.882   3.272   4.683
 6398SOL     OW20092   0.418   0.006   2.571
 6398SOL    HW120093   0.461   0.071   2.634
 6398SOL    HW220094   0.485   6.991   2.506
 6399SOL     OW20095   2.585   0.195   6.568
 6399SOL    HW120096   2.633   0.282   6.582
 6399SOL    HW220097   2.623   0.149   6.488
 6400SOL     OW20098   0.964   6.066   3.112
 6400SOL    HW120099   1.032   5.994   3.102
 6400SOL    HW220100   1.009   6.154   3.127
 6401SOL     OW20101   3.980   4.752   1.315
 6401SOL    HW120102   3.937   4.680   1.368
 6401SOL    HW220103   4.017   4.714   1.230
 6402SOL     OW20104   3.390   3.313   5.960
 6402SOL    HW120105   3.362   3.223   5.929
 6402SOL    HW220106   3.320   3.350   6.021
 6403SOL     OW20107   3.551   5.265   5.845
 6403SOL    HW120108   3.604   5.181   5.853
 6403SOL    HW220109   3.460   5.252   5.884
 6404SOL     OW20110   5.261   5.864   6.059
 6404SOL    HW120111   5.294   5.816   6.141
 6404SOL    HW220112   5.337   5.913   6.017
 6405SOL     OW20113   4.630   0.909   3.273
 6405SOL    HW120114   4.545   0.956   3.249
 6405SOL    HW220115   4.616   0.851   3.352
 6406SOL     OW20116   0.406   3.454   2.334
 6406SOL    HW120117   0.327   3.394   2.321
 6406SOL    HW220118   0.472   3.409   2.395
 6407SOL     OW20119   0.327   0.017   2.874
 6407SOL    HW120120   0.265   0.008   2.953
 6407SOL    HW220121   0.353   6.945   2.842
 6408SOL     OW20122   0.133   1.111   2.059
 6408SOL    HW120123   0.179   1.143   2.141
 6408SOL    HW220124   0.177   1.027   2.027
 6409SOL     OW20125   6.584   4.094   4.253
 6409SOL    HW120126   6.603   4.071   4.349
 6409SOL    HW220127   6.606   4.015   4.195
 6410SOL     OW20128   1.584   0.655   6.845
 6410SOL    HW120129   1.552   0.658   6.939
 6410SOL    HW220130   1.513   0.691   6.784
 6411SOL     OW20131   1.092   2.503   4.430
 6411SOL    HW120132   1.084   2.404   4.440
 6411SOL    HW220133   1.186   2.527   4.407
 6412SOL     OW20134   4.310   0.168   0.297
 6412SOL    HW120135   4.332   0.136   0.205
 6412SOL    HW220136   4.232   0.231   0.293
 6413SOL     OW20137   4.589   5.647   3.398
 6413SOL    HW120138   4.601   5.688   3.308
 6413SOL    HW220139   4.493   5.627   3.413
 6414SOL     OW20140   3.568   0.255   6.825
 6414SOL    HW120141   3.497   0.323   6.810
 6414SOL    HW220142   3.536   0.188   6.893
 6415SOL     OW20143   6.926   2.086   3.395
 6415SOL    HW120144   6.960   1.992   3.407
 6415SOL    HW220145   6.827   2.086   3.401
 6416SOL     OW20146   2.748   4.342   0.605
 6416SOL    HW120147   2.776   4.417   0.545
 6416SOL    HW220148   2.814   4.334   0.680
 6417SOL     OW20149   4.777   3.508   5.811
 6417SOL    HW120150   4.789   3.469   5.720
 6417SOL    HW220151   4.730   3.442   5.870
 6418SOL     OW20152   4.796   5.313   0.397
 6418SOL    HW120153   4.772   5.410   0.389
 6418SOL    HW220154   4.835   5.281   0.311
 6419SOL     OW20155   1.685   0.183   6.400
 6419SOL    HW120156   1.777   0.144   6.396
 6419SOL    HW220157   1.666   0.234   6.316
 6420SOL     OW20158   2.121   5.093   3.300
 6420SOL    HW120159   2.074   5.007   3.276
 6420SOL    HW220160   2.151   5.088   3.396
 6421SOL     OW20161   4.855   6.653   1.628
 6421SOL    HW120162   4.926   6.628   1.694
 6421SOL    HW220163   4.815   6.741   1.654
 6422SOL     OW20164   1.103   0.756   5.483
 6422SOL    HW120165   1.179   0.692   5.495
 6422SOL    HW220166   1.116   0.808   5.398
 6423SOL     OW20167   1.137   3.767   4.451
 6423SOL    HW120168   1.233   3.761   4.424
 6423SOL    HW220169   1.097   3.675   4.451
 6424SOL     OW20170   6.283   4.181   5.460
 6424SOL    HW120171   6.217   4.254   5.443
 6424SOL    HW220172   6.332   4.200   5.545
 6425SOL     OW20173   0.923   0.165   4.592
 6425SOL    HW120174   0.877   0.201   4.673
 6425SOL    HW220175   0.895   0.070   4.577
 6426SOL     OW20176   2.877   5.243   3.892
 6426SOL    HW120177   2.877   5.170   3.960
 6426SOL    HW220178   2.946   5.224   3.822
 6427SOL     OW20179   3.353   3.530   3.141
 6427SOL    HW120180   3.349   3.486   3.051
 6427SOL    HW220181   3.282   3.492   3.200
 6428SOL     OW20182   6.306   3.152   6.557
 6428SOL    HW120183   6.227   3.183   6.611
 6428SOL    HW220184   6.307   3.200   6.469
 6429SOL     OW20185   2.617   1.736   4.444
 6429SOL    HW120186   2.663   1.717   4.357
 6429SOL    HW220187   2.566   1.655   4.473
 6430SOL     OW20188   6.563   1.181   3.997
 6430SOL    HW120189   6.658   1.152   4.000
 6430SOL    HW220190   6.517   1.156   4.082
 6431SOL     OW20191   3.400   5.036   3.548
 6431SOL    HW120192   3.396   5.032   3.647
 6431SOL    HW220193   3.452   5.117   3.520
 6432SOL     OW20194   4.333   3.663   6.912
 6432SOL    HW120195   4.261   3.721   6.948
 6432SOL    HW220196   4.421   3.709   6.922
 6433SOL     OW20197   3.980   5.412   6.231
 6433SOL    HW120198   4.002   5.508   6.212
 6433SOL    HW220199   3.943   5.403   6.323
 6434SOL     OW20200   6.405   4.805   6.492
 6434SOL    HW120201   6.404   4.765   6.401
 6434SOL    HW220202   6.381   4.902   6.487
 6435SOL     OW20203   4.422   1.194   0.668
 6435SOL    HW120204   4.507   1.145   0.644
 6435SOL    HW220205   4.349   1.127   0.684
 6436SOL     OW20206   0.782   1.739   3.945
 6436SOL    HW120207   0.694   1.738   3.897
 6436SOL    HW220208   0.798   1.649   3.985
 6437SOL     OW20209   1.152   3.080   6.636
 6437SOL    HW120210   1.194   2.992   6.659
 6437SOL    HW220211   1.069   3.092   6.690
 6438SOL     OW20212   0.854   5.561   1.610
 6438SOL    HW120213   0.947   5.532   1.634
 6438SOL    HW220214   0.852   5.595   1.516
 6439SOL     OW20215   4.307   6.000   2.902
 6439SOL    HW120216   4.330   5.944   2.823
 6439SOL    HW220217   4.365   5.974   2.979
 6440SOL     OW20218   2.118   2.241   5.666
 6440SOL    HW120219   2.075   2.237   5.756
 6440SOL    HW220220   2.074   2.176   5.605
 6441SOL     OW20221   1.403   1.431   1.600
 6441SOL    HW120222   1.391   1.333   1.586
 6441SOL    HW220223   1.477   1.465   1.542
 6442SOL     OW20224   2.918   2.280   4.154
 6442SOL    HW120225   2.937   2.374   4.123
 6442SOL    HW220226   2.951   2.215   4.085
 6443SOL     OW20227   2.236   2.318   6.019
 6443SOL    HW120228   2.267   2.231   5.981
 6443SOL    HW220229   2.286   2.393   5.976
 6444SOL     OW20230   6.935   4.437   5.824
 6444SOL    HW120231   6.842   4.409   5.802
 6444SOL    HW220232   6.955   4.414   5.920
 6445SOL     OW20233   3.304   3.011   3.519
 6445SOL    HW120234   3.391   2.968   3.492
 6445SOL    HW220235   3.320   3.075   3.594
 6446SOL     OW20236   0.827   0.084   2.014
 6446SOL    HW120237   0.807   7.006   2.002
 6446SOL    HW220238   0.786   0.136   1.940
 6447SOL     OW20239   0.073   3.846   1.597
 6447SOL    HW120240   0.161   3.867   1.553
 6447SOL    HW220241   0.087   3.777   1.668
 6448SOL     OW20242   4.136   4.138   1.617
 6448SOL    HW120243   4.177   4.048   1.630
 6448SOL    HW220244   4.045   4.140   1.658
 6449SOL     OW20245   4.418   5.994   0.055
 6449SOL    HW120246   4.432   6.088   0.087
 6449SOL    HW220247   4.450   5.930   0.125
 6450SOL     OW20248   4.276   3.558   1.015
 6450SOL    HW120249   4.257   3.480   0.955
 6450SOL    HW220250   4.215   3.555   1.094
 6451SOL     OW20251   4.101   3.483   1.673
 6451SOL    HW120252   4.163   3.414   1.636
 6451SOL    HW220253   4.154   3.555   1.717
 6452SOL     OW20254   4.389   1.806   4.242
 6452SOL    HW120255   4.291   1.822   4.231
 6452SOL    HW220256   4.441   1.881   4.200
 6453SOL     OW20257   3.260   1.085   2.888
 6453SOL    HW120258   3.236   1.175   2.850
 6453SOL    HW220259   3.186   1.053   2.947
 6454SOL     OW20260   4.862   3.498   5.545
 6454SOL    HW120261   4.914   3.582   5.531
 6454SOL    HW220262   4.865   3.444   5.461
 6455SOL     OW20263   0.013   3.047   5.520
 6455SOL    HW120264   6.935   3.053   5.541
 6455SOL    HW220265   0.060   3.129   5.553
 6456SOL     OW20266   6.317   1.912   3.207
 6456SOL    HW120267   6.304   1.877   3.299
 6456SOL    HW220268   6.243   1.977   3.185
 6457SOL     OW20269   1.550   6.283   3.371
 6457SOL    HW120270   1.585   6.256   3.460
 6457SOL    HW220271   1.450   6.277   3.371
 6458SOL     OW20272   1.096   0.298   4.910
 6458SOL    HW120273   1.077   0.200   4.900
 6458SOL    HW220274   1.053   0.348   4.835
 6459SOL     OW20275   0.421   3.229   3.094
 6459SOL    HW120276   0.374   3.189   3.016
 6459SOL    HW220277   0.372   3.206   3.178
 6460SOL     OW20278   1.665   5.255   5.651
 6460SOL    HW120279   1.750   5.270   5.701
 6460SOL    HW220280   1.673   5.172   5.596
 6461SOL     OW20281   6.952   6.908   2.113
 6461SOL    HW120282   6.875   6.932   2.172
 6461SOL    HW220283   0.018   6.938   2.156
 6462SOL     OW20284   2.913   4.072   5.652
 6462SOL    HW120285   2.841   4.004   5.670
 6462SOL    HW220286   2.937   4.118   5.737
 6463SOL     OW20287   4.881   3.312   2.002
 6463SOL    HW120288   4.849   3.220   2.020
 6463SOL    HW220289   4.838   3.347   1.919
 6464SOL     OW20290   0.870   3.444   3.248
 6464SOL    HW120291   0.934   3.485   3.182
 6464SOL    HW220292   0.779   3.484   3.235
 6465SOL     OW20293   2.111   1.228   2.766
 6465SOL    HW120294   2.084   1.291   2.838
 6465SOL    HW220295   2.210   1.225   2.758
 6466SOL     OW20296   6.584   5.357   6.633
 6466SOL    HW120297   6.571   5.356   6.732
 6466SOL    HW220298   6.623   5.445   6.605
 6467SOL     OW20299   2.812   3.274   5.812
 6467SOL    HW120300   2.812   3.372   5.828
 6467SOL    HW220301   2.905   3.239   5.822
 6468SOL     OW20302   0.992   0.898   0.204
 6468SOL    HW120303   1.090   0.904   0.187
 6468SOL    HW220304   0.946   0.977   0.163
 6469SOL     OW20305   3.120   0.781   0.925
 6469SOL    HW120306   3.075   0.748   1.008
 6469SOL    HW220307   3.080   0.869   0.898
 6470SOL     OW20308   6.147   0.544   6.335
 6470SOL    HW120309   6.151   0.446   6.354
 6470SOL    HW220310   6.057   0.580   6.362
 6471SOL     OW20311   0.888   6.525   5.299
 6471SOL    HW120312   0.853   6.619   5.305
 6471SOL    HW220313   0.823   6.463   5.343
 6472SOL     OW20314   0.919   6.191   1.020
 6472SOL    HW120315   0.986   6.138   1.072
 6472SOL    HW220316   0.966   6.264   0.971
 6473SOL     OW20317   3.010   1.473   3.697
 6473SOL    HW120318   3.085   1.454   3.760
 6473SOL    HW220319   3.044   1.525   3.619
 6474SOL     OW20320   4.227   0.707   4.267
 6474SOL    HW120321   4.130   0.718   4.290
 6474SOL    HW220322   4.269   0.641   4.329
 6475SOL     OW20323   5.333   5.941   3.928
 6475SOL    HW120324   5.297   6.003   3.859
 6475SOL    HW220325   5.419   5.977   3.964
 6476SOL     OW20326   5.252   4.020   4.582
 6476SOL    HW120327   5.227   3.977   4.669
 6476SOL    HW220328   5.316   3.962   4.533
 6477SOL     OW20329   1.473   6.970   0.763
 6477SOL    HW120330   1.520   6.882   0.747
 6477SOL    HW220331   1.410   6.988   0.688
 6478SOL     OW20332   1.962   6.375   6.678
 6478SOL    HW120333   1.963   6.281   6.711
 6478SOL    HW220334   1.875   6.417   6.699
 6479SOL     OW20335   4.548   5.300   4.475
 6479SOL    HW120336   4.598   5.272   4.557
 6479SOL    HW220337   4.482   5.228   4.450
 6480SOL     OW20338   2.854   0.869   5.248
 6480SOL    HW120339   2.911   0.951   5.251
 6480SOL    HW220340   2.776   0.880   5.311
 6481SOL     OW20341   4.138   3.881   1.632
 6481SOL    HW120342   4.080   3.836   1.564
 6481SOL    HW220343   4.102   3.862   1.724
 6482SOL     OW20344   5.142   3.246   3.660
 6482SOL    HW120345   5.077   3.276   3.731
 6482SOL    HW220346   5.218   3.197   3.703
 6483SOL     OW20347   1.792   6.261   5.401
 6483SOL    HW120348   1.883   6.271   5.441
 6483SOL    HW220349   1.724   6.309   5.457
 6484SOL     OW20350   3.659   0.462   3.423
 6484SOL    HW120351   3.755   0.434   3.417
 6484SOL    HW220352   3.639   0.490   3.517
 6485SOL     OW20353   2.178   4.568   5.163
 6485SOL    HW120354   2.211   4.488   5.112
 6485SOL    HW220355   2.102   4.610   5.115
 6486SOL     OW20356   6.944   4.006   2.220
 6486SOL    HW120357   6.873   4.047   2.163
 6486SOL    HW220358   6.945   4.051   2.309
 6487SOL     OW20359   6.178   5.598   4.578
 6487SOL    HW120360   6.200   5.507   4.543
 6487SOL    HW220361   6.080   5.603   4.598
 6488SOL     OW20362   3.112   4.947   3.643
 6488SOL    HW120363   3.188   4.912   3.697
 6488SOL    HW220364   3.145   4.978   3.554
 6489SOL     OW20365   6.233   3.526   5.449
 6489SOL    HW120366   6.154   3.569   5.406
 6489SOL    HW220367   6.317   3.561   5.407
 6490SOL     OW20368   1.421   3.667   6.535
 6490SOL    HW120369   1.381   3.587   6.490
 6490SOL    HW220370   1.384   3.675   6.627
 6491SOL     OW20371   1.038   0.005   2.446
 6491SOL    HW120372   1.083   6.935   2.443
 6491SOL    HW220373   1.104   0.076   2.421
 6492SOL     OW20374   4.119   3.344   3.058
 6492SOL    HW120375   4.143   3.380   3.148
 6492SOL    HW220376   4.155   3.404   2.987
 6493SOL     OW20377   1.505   4.767   3.990
 6493SOL    HW120378   1.473   4.813   3.908
 6493SOL    HW220379   1.528   4.835   4.060
 6494SOL     OW20380   6.906   0.923   1.608
 6494SOL    HW120381   6.923   1.021   1.616
 6494SOL    HW220382   6.838   0.907   1.537
 6495SOL     OW20383   6.062   6.340   2.616
 6495SOL    HW120384   6.008   6.264   2.581
 6495SOL    HW220385   6.018   6.376   2.699
 6496SOL     OW20386   2.672   2.892   1.345
 6496SOL    HW120387   2.600   2.957   1.320
 6496SOL    HW220388   2.729   2.931   1.417
 6497SOL     OW20389   6.994   2.655   0.522
 6497SOL    HW120390   6.931   2.620   0.453
 6497SOL    HW220391   0.061   2.605   0.517
 6498SOL     OW20392   2.541   4.915   4.517
 6498SOL    HW120393   2.545   4.837   4.580
 6498SOL    HW220394   2.557   4.883   4.424
 6499SOL     OW20395   5.669   2.232   2.641
 6499SOL    HW120396   5.721   2.317   2.639
 6499SOL    HW220397   5.578   2.249   2.602
 6500SOL     OW20398   1.844   3.730   3.005
 6500SOL    HW120399   1.819   3.651   3.062
 6500SOL    HW220400   1.940   3.754   3.022
 6501SOL     OW20401   6.619   1.328   2.442
 6501SOL    HW120402   6.656   1.351   2.352
 6501SOL    HW220403   6.542   1.265   2.431
 6502SOL     OW20404   0.896   2.819   2.507
 6502SOL    HW120405   0.970   2.766   2.550
 6502SOL    HW220406   0.844   2.760   2.446
 6503SOL     OW20407   0.356   2.938   5.740
 6503SOL    HW120408   0.380   2.986   5.656
 6503SOL    HW220409   0.424   2.867   5.758
 6504SOL     OW20410   4.035   6.036   6.019
 6504SOL    HW120411   4.118   6.034   6.075
 6504SOL    HW220412   3.956   6.060   6.077
 6505SOL     OW20413   0.880   6.986   6.963
 6505SOL    HW120414   0.888   0.006   0.036
 6505SOL    HW220415   0.924   0.028   6.897
 6506SOL     OW20416   0.490   4.761   2.216
 6506SOL    HW120417   0.578   4.806   2.206
 6506SOL    HW220418   0.489   4.676   2.163
 6507SOL     OW20419   5.552   5.175   0.764
 6507SOL    HW120420   5.583   5.195   0.671
 6507SOL    HW220421   5.500   5.090   0.765
 6508SOL     OW20422   0.270   0.876   4.604
 6508SOL    HW120423   0.188   0.879   4.547
 6508SOL    HW220424   0.303   0.969   4.620
 6509SOL     OW20425   2.201   1.614   6.708
 6509SOL    HW120426   2.278   1.678   6.710
 6509SOL    HW220427   2.214   1.550   6.633
 6510SOL     OW20428   3.933   4.827   3.804
 6510SOL    HW120429   4.000   4.790   3.869
 6510SOL    HW220430   3.950   4.925   3.792
 6511SOL     OW20431   3.704   3.386   0.039
 6511SOL    HW120432   3.617   3.346   0.069
 6511SOL    HW220433   3.687   3.473   7.012
 6512SOL     OW20434   5.231   1.680   2.083
 6512SOL    HW120435   5.292   1.740   2.135
 6512SOL    HW220436   5.233   1.588   2.123
 6513SOL     OW20437   3.473   5.020   1.959
 6513SOL    HW120438   3.497   4.923   1.953
 6513SOL    HW220439   3.458   5.055   1.867
 6514SOL     OW20440   5.038   5.610   5.606
 6514SOL    HW120441   5.029   5.641   5.701
 6514SOL    HW220442   4.965   5.652   5.551
 6515SOL     OW20443   1.025   5.123   2.460
 6515SOL    HW120444   1.080   5.198   2.425
 6515SOL    HW220445   1.034   5.118   2.560
 6516SOL     OW20446   5.597   1.434   3.432
 6516SOL    HW120447   5.690   1.398   3.420
 6516SOL    HW220448   5.583   1.460   3.527
 6517SOL     OW20449   6.830   4.182   0.651
 6517SOL    HW120450   6.830   4.224   0.742
 6517SOL    HW220451   6.924   4.163   0.623
 6518SOL     OW20452   1.011   2.118   2.032
 6518SOL    HW120453   0.990   2.038   2.090
 6518SOL    HW220454   0.985   2.201   2.081
 6519SOL     OW20455   1.460   2.411   3.445
 6519SOL    HW120456   1.453   2.479   3.519
 6519SOL    HW220457   1.556   2.386   3.432
 6520SOL     OW20458   5.939   6.838   6.831
 6520SOL    HW120459   5.975   6.790   6.751
 6520SOL    HW220460   6.004   6.907   6.861
 6521SOL     OW20461   1.524   4.649   4.641
 6521SOL    HW120462   1.592   4.621   4.573
 6521SOL    HW220463   1.570   4.691   4.719
 6522SOL     OW20464   2.239   2.897   5.245
 6522SOL    HW120465   2.194   2.983   5.268
 6522SOL    HW220466   2.301   2.911   5.168
 6523SOL     OW20467   4.891   6.507   0.528
 6523SOL    HW120468   4.931   6.581   0.475
 6523SOL    HW220469   4.912   6.419   0.484
 6524SOL     OW20470   3.600   1.936   0.909
 6524SOL    HW120471   3.662   1.998   0.958
 6524SOL    HW220472   3.625   1.935   0.812
 6525SOL     OW20473   2.870   4.818   3.709
 6525SOL    HW120474   2.946   4.880   3.687
 6525SOL    HW220475   2.840   4.772   3.626
 6526SOL     OW20476   6.141   6.608   0.629
 6526SOL    HW120477   6.172   6.582   0.538
 6526SOL    HW220478   6.185   6.549   0.697
 6527SOL     OW20479   5.406   2.590   0.488
 6527SOL    HW120480   5.322   2.621   0.533
 6527SOL    HW220481   5.383   2.531   0.410
 6528SOL     OW20482   4.668   6.849   0.499
 6528SOL    HW120483   4.730   6.788   0.449
 6528SOL    HW220484   4.659   6.935   0.448
 6529SOL     OW20485   3.859   6.637   1.478
 6529SOL    HW120486   3.836   6.583   1.397
 6529SOL    HW220487   3.954   6.619   1.505
 6530SOL     OW20488   0.176   2.881   4.224
 6530SOL    HW120489   0.218   2.967   4.254
 6530SOL    HW220490   0.246   2.809   4.219
 6531SOL     OW20491   2.921   3.714   4.119
 6531SOL    HW120492   2.990   3.643   4.127
 6531SOL    HW220493   2.831   3.673   4.107
 6532SOL     OW20494   1.160   5.830   6.832
 6532SOL    HW120495   1.258   5.820   6.851
 6532SOL    HW220496   1.109   5.822   6.918
 6533SOL     OW20497   5.498   4.732   1.192
 6533SOL    HW120498   5.570   4.763   1.130
 6533SOL    HW220499   5.419   4.701   1.139
 6534SOL     OW20500   6.605   2.980   4.564
 6534SOL    HW120501   6.588   2.881   4.560
 6534SOL    HW220502   6.594   3.019   4.472
 6535SOL     OW20503   5.550   3.422   6.851
 6535SOL    HW120504   5.502   3.387   6.770
 6535SOL    HW220505   5.558   3.521   6.845
 6536SOL     OW20506   6.829   5.963   5.356
 6536SOL    HW120507   6.912   5.975   5.301
 6536SOL    HW220508   6.766   5.902   5.307
 6537SOL     OW20509   6.586   5.218   4.307
 6537SOL    HW120510   6.603   5.127   4.269
 6537SOL    HW220511   6.665   5.277   4.289
 6538SOL     OW20512   1.057   3.804   3.218
 6538SOL    HW120513   0.980   3.861   3.247
 6538SOL    HW220514   1.033   3.755   3.135
 6539SOL     OW20515   5.810   6.365   5.333
 6539SOL    HW120516   5.731   6.342   5.390
 6539SOL    HW220517   5.837   6.460   5.351
 6540SOL     OW20518   1.129   2.462   5.391
 6540SOL    HW120519   1.093   2.369   5.380
 6540SOL    HW220520   1.121   2.490   5.486
 6541SOL     OW20521   3.806   1.854   5.382
 6541SOL    HW120522   3.715   1.873   5.344
 6541SOL    HW220523   3.800   1.777   5.445
 6542SOL     OW20524   1.869   4.709   2.059
 6542SOL    HW120525   1.952   4.682   2.011
 6542SOL    HW220526   1.861   4.808   2.060
 6543SOL     OW20527   3.791   1.808   4.381
 6543SOL    HW120528   3.745   1.895   4.399
 6543SOL    HW220529   3.774   1.780   4.287
 6544SOL     OW20530   1.252   0.650   1.653
 6544SOL    HW120531   1.223   0.736   1.611
 6544SOL    HW220532   1.234   0.653   1.751
 6545SOL     OW20533   6.272   4.677   0.821
 6545SOL    HW120534   6.283   4.771   0.790
 6545SOL    HW220535   6.357   4.645   0.864
 6546SOL     OW20536   4.202   5.147   3.845
 6546SOL    HW120537   4.108   5.152   3.809
 6546SOL    HW220538   4.199   5.135   3.944
 6547SOL     OW20539   0.490   6.588   5.334
 6547SOL    HW120540   0.553   6.533   5.388
 6547SOL    HW220541   0.523   6.594   5.240
 6548SOL     OW20542   1.251   1.365   5.041
 6548SOL    HW120543   1.262   1.464   5.035
 6548SOL    HW220544   1.213   1.341   5.130
 6549SOL     OW20545   2.418   1.579   2.610
 6549SOL    HW120546   2.369   1.616   2.689
 6549SOL    HW220547   2.433   1.651   2.543
 6550SOL     OW20548   5.665   6.722   1.927
 6550SOL    HW120549   5.639   6.632   1.892
 6550SOL    HW220550   5.682   6.784   1.851
 6551SOL     OW20551   2.275   5.789   1.141
 6551SOL    HW120552   2.235   5.707   1.182
 6551SOL    HW220553   2.240   5.870   1.188
 6552SOL     OW20554   2.662   3.584   0.051
 6552SOL    HW120555   2.729   3.511   0.064
 6552SOL    HW220556   2.705   3.659   7.019
 6553SOL     OW20557   7.001   1.824   3.443
 6553SOL    HW120558   0.015   1.814   3.349
 6553SOL    HW220559   0.059   1.824   3.506
 6554SOL     OW20560   2.125   1.915   4.083
 6554SOL    HW120561   2.119   1.988   4.150
 6554SOL    HW220562   2.207   1.926   4.027
 6555SOL     OW20563   2.193   3.723   1.804
 6555SOL    HW120564   2.096   3.736   1.823
 6555SOL    HW220565   2.225   3.640   1.850
 6556SOL     OW20566   4.911   2.997   3.320
 6556SOL    HW120567   4.923   3.055   3.240
 6556SOL    HW220568   4.897   3.054   3.401
 6557SOL     OW20569   1.893   6.628   2.065
 6557SOL    HW120570   1.915   6.715   2.021
 6557SOL    HW220571   1.936   6.625   2.155
 6558SOL     OW20572   4.950   5.359   0.931
 6558SOL    HW120573   4.986   5.300   0.859
 6558SOL    HW220574   5.024   5.381   0.996
 6559SOL     OW20575   0.197   1.796   6.285
 6559SOL    HW120576   0.264   1.809   6.358
 6559SOL    HW220577   0.141   1.716   6.306
 6560SOL     OW20578   6.456   4.752   6.237
 6560SOL    HW120579   6.411   4.770   6.149
 6560SOL    HW220580   6.552   4.779   6.231
 6561SOL     OW20581   2.558   5.435   0.114
 6561SOL    HW120582   2.505   5.354   0.137
 6561SOL    HW220583   2.644   5.434   0.165
 6562SOL     OW20584   4.565   2.691   1.093
 6562SOL    HW120585   4.602   2.714   1.183
 6562SOL    HW220586   4.484   2.634   1.104
 6563SOL     OW20587   5.951   4.566   5.641
 6563SOL    HW120588   5.961   4.603   5.549
 6563SOL    HW220589   5.937   4.467   5.636
 6564SOL     OW20590   6.165   3.928   1.992
 6564SOL    HW120591   6.216   3.843   1.981
 6564SOL    HW220592   6.134   3.960   1.903
 6565SOL     OW20593   5.229   5.389   1.767
 6565SOL    HW120594   5.289   5.362   1.843
 6565SOL    HW220595   5.196   5.307   1.720
 6566SOL     OW20596   5.337   5.388   4.066
 6566SOL    HW120597   5.315   5.359   4.160
 6566SOL    HW220598   5.343   5.488   4.063
 6567SOL     OW20599   2.562   0.725   2.624
 6567SOL    HW120600   2.650   0.756   2.588
 6567SOL    HW220601   2.556   0.746   2.721
 6568SOL     OW20602   5.430   1.761   0.118
 6568SOL    HW120603   5.424   1.689   0.049
 6568SOL    HW220604   5.393   1.727   0.204
 6569SOL     OW20605   1.888   4.066   3.213
 6569SOL    HW120606   1.960   4.028   3.155
 6569SOL    HW220607   1.809   4.005   3.213
 6570SOL     OW20608   4.408   0.105   2.822
 6570SOL    HW120609   4.446   0.092   2.913
 6570SOL    HW220610   4.480   0.095   2.754
 6571SOL     OW20611   2.562   6.804   2.887
 6571SOL    HW120612   2.517   6.746   2.818
 6571SOL    HW220613   2.568   6.897   2.852
 6572SOL     OW20614   1.028   6.296   3.527
 6572SOL    HW120615   0.980   6.346   3.454
 6572SOL    HW220616   1.067   6.361   3.591
 6573SOL     OW20617   1.102   2.789   3.897
 6573SOL    HW120618   1.014   2.837   3.887
 6573SOL    HW220619   1.176   2.848   3.864
 6574SOL     OW20620   1.225   4.755   1.881
 6574SOL    HW120621   1.278   4.703   1.814
 6574SOL    HW220622   1.155   4.809   1.834
 6575SOL     OW20623   6.828   1.163   4.017
 6575SOL    HW120624   6.856   1.251   4.056
 6575SOL    HW220625   6.898   1.095   4.034
 6576SOL     OW20626   4.222   0.441   2.549
 6576SOL    HW120627   4.154   0.502   2.508
 6576SOL    HW220628   4.299   0.494   2.583
 6577SOL     OW20629   3.049   1.153   5.509
 6577SOL    HW120630   3.066   1.249   5.534
 6577SOL    HW220631   3.075   1.094   5.586
 6578SOL     OW20632   0.788   6.000   0.207
 6578SOL    HW120633   0.703   6.044   0.178
 6578SOL    HW220634   0.814   6.034   0.298
 6579SOL     OW20635   1.787   1.824   2.944
 6579SOL    HW120636   1.710   1.759   2.944
 6579SOL    HW220637   1.801   1.859   2.852
 6580SOL     OW20638   3.080   2.716   6.752
 6580SOL    HW120639   3.005   2.758   6.701
 6580SOL    HW220640   3.073   2.617   6.746
 6581SOL     OW20641   0.945   2.469   1.658
 6581SOL    HW120642   0.849   2.495   1.655
 6581SOL    HW220643   0.980   2.460   1.565
 6582SOL     OW20644   3.983   6.506   3.179
 6582SOL    HW120645   4.067   6.457   3.203
 6582SOL    HW220646   3.977   6.590   3.233
 6583SOL     OW20647   2.444   4.521   1.228
 6583SOL    HW120648   2.446   4.436   1.282
 6583SOL    HW220649   2.378   4.584   1.268
 6584SOL     OW20650   4.341   3.558   5.648
 6584SOL    HW120651   4.377   3.596   5.563
 6584SOL    HW220652   4.250   3.519   5.631
 6585SOL     OW20653   4.992   6.916   1.885
 6585SOL    HW120654   4.905   6.964   1.893
 6585SOL    HW220655   5.063   6.969   1.932
 6586SOL     OW20656   6.861   1.749   6.782
 6586SOL    HW120657   6.784   1.746   6.845
 6586SOL    HW220658   6.827   1.755   6.688
 6587SOL     OW20659   2.573   4.763   5.509
 6587SOL    HW120660   2.617   4.694   5.451
 6587SOL    HW220661   2.632   4.844   5.515
 6588SOL     OW20662   1.198   2.370   0.726
 6588SOL    HW120663   1.170   2.452   0.676
 6588SOL    HW220664   1.242   2.396   0.812
 6589SOL     OW20665   5.804   0.160   0.661
 6589SOL    HW120666   5.879   0.178   0.724
 6589SOL    HW220667   5.758   0.245   0.638
 6590SOL     OW20668   0.936   6.106   4.425
 6590SOL    HW120669   0.952   6.097   4.523
 6590SOL    HW220670   0.862   6.172   4.409
 6591SOL     OW20671   6.491   3.425   3.347
 6591SOL    HW120672   6.460   3.520   3.351
 6591SOL    HW220673   6.426   3.372   3.292
 6592SOL     OW20674   0.154   0.138   4.601
 6592SOL    HW120675   0.213   0.083   4.541
 6592SOL    HW220676   0.062   0.098   4.603
 6593SOL     OW20677   1.111   0.486   3.067
 6593SOL    HW120678   1.099   0.504   3.165
 6593SOL    HW220679   1.022   0.463   3.027
 6594SOL     OW20680   5.403   0.038   6.485
 6594SOL    HW120681   5.307   0.066   6.491
 6594SOL    HW220682   5.418   7.008   6.399
 6595SOL     OW20683   0.679   0.142   4.958
 6595SOL    HW120684   0.748   0.150   5.030
 6595SOL    HW220685   0.692   0.215   4.891
 6596SOL     OW20686   4.964   0.596   3.093
 6596SOL    HW120687   4.986   0.665   3.162
 6596SOL    HW220688   4.982   0.633   3.001
 6597SOL     OW20689   1.150   5.365   1.535
 6597SOL    HW120690   1.076   5.332   1.593
 6597SOL    HW220691   1.138   5.330   1.442
 6598SOL     OW20692   1.631   5.331   1.753
 6598SOL    HW120693   1.699   5.288   1.813
 6598SOL    HW220694   1.543   5.333   1.799
 6599SOL     OW20695   0.640   6.071   6.593
 6599SOL    HW120696   0.555   6.023   6.574
 6599SOL    HW220697   0.673   6.045   6.684
 6600SOL     OW20698   4.989   0.241   4.487
 6600SOL    HW120699   4.949   0.295   4.413
 6600SOL    HW220700   4.979   0.291   4.573
 6601SOL     OW20701   0.619   2.675   3.389
 6601SOL    HW120702   0.611   2.747   3.458
 6601SOL    HW220703   0.659   2.594   3.431
 6602SOL     OW20704   6.393   6.162   0.502
 6602SOL    HW120705   6.382   6.130   0.596
 6602SOL    HW220706   6.419   6.086   0.443
 6603SOL     OW20707   6.639   4.683   2.359
 6603SOL    HW120708   6.572   4.610   2.352
 6603SOL    HW220709   6.719   4.661   2.303
 6604SOL     OW20710   2.474   4.818   2.276
 6604SOL    HW120711   2.504   4.912   2.289
 6604SOL    HW220712   2.461   4.800   2.178
 6605SOL     OW20713   0.024   5.801   0.958
 6605SOL    HW120714   0.025   5.711   0.915
 6605SOL    HW220715   0.096   5.858   0.918
 6606SOL     OW20716   1.557   5.290   3.106
 6606SOL    HW120717   1.540   5.192   3.120
 6606SOL    HW220718   1.473   5.341   3.119
 6607SOL     OW20719   6.917   2.800   4.278
 6607SOL    HW120720   6.888   2.801   4.374
 6607SOL    HW220721   7.012   2.832   4.272
 6608SOL     OW20722   1.873   0.513   5.223
 6608SOL    HW120723   1.817   0.512   5.140
 6608SOL    HW220724   1.962   0.554   5.203
 6609SOL     OW20725   2.539   1.808   0.196
 6609SOL    HW120726   2.546   1.908   0.191
 6609SOL    HW220727   2.486   1.783   0.277
 6610SOL     OW20728   3.274   5.861   0.727
 6610SOL    HW120729   3.210   5.820   0.791
 6610SOL    HW220730   3.366   5.824   0.742
 6611SOL     OW20731   2.810   1.460   5.002
 6611SOL    HW120732   2.870   1.517   5.059
 6611SOL    HW220733   2.742   1.519   4.957
 6612SOL     OW20734   6.157   0.482   7.000
 6612SOL    HW120735   6.193   0.463   6.909
 6612SOL    HW220736   6.103   0.404   0.013
 6613SOL     OW20737   5.007   6.951   0.958
 6613SOL    HW120738   5.073   6.899   1.012
 6613SOL    HW220739   4.980   6.898   0.878
 6614SOL     OW20740   4.540   4.979   0.928
 6614SOL    HW120741   4.451   4.934   0.922
 6614SOL    HW220742   4.538   5.047   1.001
 6615SOL     OW20743   3.646   5.678   6.104
 6615SOL    HW120744   3.583   5.636   6.039
 6615SOL    HW220745   3.735   5.692   6.059
 6616SOL     OW20746   3.822   2.317   6.428
 6616SOL    HW120747   3.867   2.352   6.346
 6616SOL    HW220748   3.809   2.391   6.493
 6617SOL     OW20749   3.554   1.498   4.342
 6617SOL    HW120750   3.644   1.477   4.380
 6617SOL    HW220751   3.562   1.514   4.244
 6618SOL     OW20752   6.235   2.743   3.837
 6618SOL    HW120753   6.188   2.765   3.751
 6618SOL    HW220754   6.272   2.650   3.832
 6619SOL     OW20755   4.469   4.521   3.522
 6619SOL    HW120756   4.464   4.605   3.468
 6619SOL    HW220757   4.407   4.528   3.601
 6620SOL     OW20758   0.820   3.188   3.733
 6620SOL    HW120759   0.838   3.228   3.643
 6620SOL    HW220760   0.725   3.206   3.760
 6621SOL     OW20761   3.750   3.596   3.280
 6621SOL    HW120762   3.716   3.535   3.208
 6621SOL    HW220763   3.850   3.599   3.277
 6622SOL     OW20764   6.599   5.089   1.922
 6622SOL    HW120765   6.686   5.040   1.928
 6622SOL    HW220766   6.576   5.106   1.826
 6623SOL     OW20767   3.329   3.245   4.216
 6623SOL    HW120768   3.342   3.335   4.257
 6623SOL    HW220769   3.351   3.174   4.284
 6624SOL     OW20770   2.494   2.557   2.565
 6624SOL    HW120771   2.471   2.498   2.642
 6624SOL    HW220772   2.560   2.510   2.506
 6625SOL     OW20773   1.003   4.945   5.992
 6625SOL    HW120774   1.095   4.984   5.982
 6625SOL    HW220775   0.955   4.952   5.905
 6626SOL     OW20776   3.465   5.782   5.805
 6626SOL    HW120777   3.433   5.842   5.732
 6626SOL    HW220778   3.552   5.815   5.840
 6627SOL     OW20779   2.629   0.158   4.562
 6627SOL    HW120780   2.635   0.257   4.578
 6627SOL    HW220781   2.613   0.111   4.649
 6628SOL     OW20782   3.702   6.106   3.913
 6628SOL    HW120783   3.673   6.031   3.853
 6628SOL    HW220784   3.627   6.131   3.974
 6629SOL     OW20785   5.077   6.055   5.101
 6629SOL    HW120786   5.014   6.085   5.030
 6629SOL    HW220787   5.066   6.113   5.182
 6630SOL     OW20788   1.944   0.261   0.506
 6630SOL    HW120789   1.956   0.211   0.592
 6630SOL    HW220790   2.027   0.313   0.486
 6631SOL     OW20791   1.469   1.728   5.793
 6631SOL    HW120792   1.559   1.703   5.757
 6631SOL    HW220793   1.402   1.659   5.767
 6632SOL     OW20794   1.291   0.607   5.622
 6632SOL    HW120795   1.318   0.536   5.556
 6632SOL    HW220796   1.220   0.572   5.682
 6633SOL     OW20797   4.861   6.854   5.930
 6633SOL    HW120798   4.920   6.850   6.011
 6633SOL    HW220799   4.816   6.766   5.916
 6634SOL     OW20800   2.964   2.193   3.872
 6634SOL    HW120801   2.903   2.208   3.795
 6634SOL    HW220802   3.054   2.165   3.839
 6635SOL     OW20803   4.757   5.547   6.274
 6635SOL    HW120804   4.664   5.583   6.264
 6635SOL    HW220805   4.795   5.528   6.184
 6636SOL     OW20806   4.538   1.329   1.198
 6636SOL    HW120807   4.584   1.258   1.145
 6636SOL    HW220808   4.532   1.413   1.143
 6637SOL     OW20809   0.399   3.380   6.979
 6637SOL    HW120810   0.344   3.301   7.007
 6637SOL    HW220811   0.344   3.463   6.986
 6638SOL     OW20812   2.904   3.464   4.353
 6638SOL    HW120813   2.962   3.425   4.425
 6638SOL    HW220814   2.883   3.559   4.375
 6639SOL     OW20815   5.700   3.097   1.940
 6639SOL    HW120816   5.707   3.179   1.884
 6639SOL    HW220817   5.735   3.019   1.890
 6640SOL     OW20818   0.356   3.634   4.022
 6640SOL    HW120819   0.439   3.614   4.074
 6640SOL    HW220820   0.277   3.633   4.084
 6641SOL     OW20821   5.103   2.274   0.320
 6641SOL    HW120822   5.157   2.358   0.319
 6641SOL    HW220823   5.052   2.268   0.406
 6642SOL     OW20824   0.761   5.277   6.249
 6642SOL    HW120825   0.855   5.246   6.267
 6642SOL    HW220826   0.754   5.374   6.268
 6643SOL     OW20827   5.315   5.581   5.624
 6643SOL    HW120828   5.221   5.555   5.604
 6643SOL    HW220829   5.351   5.521   5.696
 6644SOL     OW20830   1.997   6.196   3.485
 6644SOL    HW120831   1.963   6.120   3.542
 6644SOL    HW220832   2.031   6.269   3.544
 6645SOL     OW20833   4.860   2.735   5.254
 6645SOL    HW120834   4.865   2.788   5.339
 6645SOL    HW220835   4.806   2.652   5.270
 6646SOL     OW20836   4.708   0.111   6.203
 6646SOL    HW120837   4.778   0.043   6.227
 6646SOL    HW220838   4.637   0.111   6.273
 6647SOL     OW20839   3.033   5.095   0.613
 6647SOL    HW120840   3.001   5.084   0.707
 6647SOL    HW220841   3.029   5.006   0.567
 6648SOL     OW20842   3.367   5.671   5.501
 6648SOL    HW120843   3.292   5.716   5.453
 6648SOL    HW220844   3.390   5.722   5.584
 6649SOL     OW20845   5.847   2.903   5.068
 6649SOL    HW120846   5.869   2.957   5.149
 6649SOL    HW220847   5.752   2.917   5.043
 6650SOL     OW20848   2.506   0.533   5.016
 6650SOL    HW120849   2.461   0.591   4.948
 6650SOL    HW220850   2.592   0.499   4.979
 6651SOL     OW20851   6.388   0.982   3.347
 6651SOL    HW120852   6.359   0.994   3.442
 6651SOL    HW220853   6.383   0.885   3.322
 6652SOL     OW20854   6.916   5.341   6.562
 6652SOL    HW120855   6.886   5.375   6.473
 6652SOL    HW220856   6.975   5.261   6.549
 6653SOL     OW20857   5.593   3.707   0.233
 6653SOL    HW120858   5.538   3.641   0.182
 6653SOL    HW220859   5.616   3.784   0.174
 6654SOL     OW20860   6.781   1.679   3.407
 6654SOL    HW120861   6.862   1.737   3.416
 6654SOL    HW220862   6.699   1.736   3.418
 6655SOL     OW20863   0.014   5.636   1.615
 6655SOL    HW120864   6.976   5.709   1.579
 6655SOL    HW220865   7.009   5.618   1.710
 6656SOL     OW20866   5.222   1.434   2.252
 6656SOL    HW120867   5.204   1.403   2.159
 6656SOL    HW220868   5.139   1.474   2.291
 6657SOL     OW20869   4.543   1.986   4.121
 6657SOL    HW120870   4.528   2.013   4.026
 6657SOL    HW220871   4.641   1.970   4.136
 6658SOL     OW20872   6.369   6.040   4.234
 6658SOL    HW120873   6.278   6.034   4.274
 6658SOL    HW220874   6.406   5.948   4.220
 6659SOL     OW20875   0.951   6.444   0.908
 6659SOL    HW120876   0.921   6.536   0.935
 6659SOL    HW220877   1.048   6.433   0.929
 6660SOL     OW20878   1.352   0.820   3.768
 6660SOL    HW120879   1.417   0.895   3.753
 6660SOL    HW220880   1.316   0.825   3.861
 6661SOL     OW20881   3.987   6.573   3.642
 6661SOL    HW120882   3.976   6.656   3.697
 6661SOL    HW220883   3.900   6.549   3.600
 6662SOL     OW20884   4.088   6.581   1.597
 6662SOL    HW120885   4.147   6.636   1.656
 6662SOL    HW220886   4.142   6.544   1.521
 6663SOL     OW20887   1.594   4.113   5.155
 6663SOL    HW120888   1.641   4.064   5.081
 6663SOL    HW220889   1.639   4.092   5.242
 6664SOL     OW20890   3.478   0.131   1.615
 6664SOL    HW120891   3.419   0.199   1.659
 6664SOL    HW220892   3.571   0.139   1.653
 6665SOL     OW20893   2.804   0.374   6.562
 6665SOL    HW120894   2.840   0.467   6.548
 6665SOL    HW220895   2.878   0.314   6.593
 6666SOL     OW20896   2.780   6.792   5.781
 6666SOL    HW120897   2.830   6.879   5.773
 6666SOL    HW220898   2.743   6.783   5.873
 6667SOL     OW20899   1.969   5.778   6.982
 6667SOL    HW120900   1.884   5.809   0.006
 6667SOL    HW220901   1.956   5.771   6.883
 6668SOL     OW20902   0.290   3.795   5.911
 6668SOL    HW120903   0.323   3.812   6.004
 6668SOL    HW220904   0.191   3.810   5.907
 6669SOL     OW20905   0.527   3.513   3.797
 6669SOL    HW120906   0.465   3.522   3.875
 6669SOL    HW220907   0.553   3.604   3.764
 6670SOL     OW20908   2.455   4.132   0.798
 6670SOL    HW120909   2.442   4.073   0.718
 6670SOL    HW220910   2.456   4.227   0.769
 6671SOL     OW20911   5.058   5.083   0.638
 6671SOL    HW120912   5.063   5.100   0.540
 6671SOL    HW220913   5.018   4.993   0.654
 6672SOL     OW20914   1.909   2.359   0.937
 6672SOL    HW120915   1.908   2.261   0.957
 6672SOL    HW220916   1.918   2.373   0.839
 6673SOL     OW20917   5.641   3.799   4.459
 6673SOL    HW120918   5.682   3.733   4.522
 6673SOL    HW220919   5.678   3.786   4.367
 6674SOL     OW20920   6.395   1.402   6.963
 6674SOL    HW120921   6.382   1.447   6.875
 6674SOL    HW220922   6.308   1.401   7.013
 6675SOL     OW20923   4.980   1.072   0.431
 6675SOL    HW120924   4.898   1.036   0.388
 6675SOL    HW220925   4.961   1.093   0.527
 6676SOL     OW20926   1.008   3.373   5.578
 6676SOL    HW120927   1.052   3.429   5.649
 6676SOL    HW220928   0.909   3.387   5.581
 6677SOL     OW20929   0.616   1.992   0.125
 6677SOL    HW120930   0.626   2.051   0.205
 6677SOL    HW220931   0.686   2.017   0.057
 6678SOL     OW20932   3.399   4.250   6.606
 6678SOL    HW120933   3.381   4.316   6.533
 6678SOL    HW220934   3.495   4.256   6.633
 6679SOL     OW20935   1.543   0.173   3.563
 6679SOL    HW120936   1.602   0.253   3.565
 6679SOL    HW220937   1.587   0.100   3.509
 6680SOL     OW20938   6.469   5.710   1.766
 6680SOL    HW120939   6.448   5.638   1.701
 6680SOL    HW220940   6.541   5.680   1.828
 6681SOL     OW20941   3.399   6.154   1.042
 6681SOL    HW120942   3.428   6.109   0.957
 6681SOL    HW220943   3.300   6.142   1.054
 6682SOL     OW20944   2.508   4.805   6.339
 6682SOL    HW120945   2.420   4.779   6.379
 6682SOL    HW220946   2.579   4.802   6.409
 6683SOL     OW20947   6.935   6.238   6.580
 6683SOL    HW120948   6.945   6.144   6.611
 6683SOL    HW220949   6.984   6.250   6.493
 6684SOL     OW20950   3.054   6.998   6.099
 6684SOL    HW120951   2.999   6.914   6.103
 6684SOL    HW220952   3.146   6.976   6.067
 6685SOL     OW20953   3.820   2.923   0.982
 6685SOL    HW120954   3.744   2.937   1.045
 6685SOL    HW220955   3.799   2.963   0.893
 6686SOL     OW20956   4.657   4.443   5.380
 6686SOL    HW120957   4.647   4.426   5.281
 6686SOL    HW220958   4.748   4.480   5.398
 6687SOL     OW20959   7.002   2.610   0.825
 6687SOL    HW120960   0.069   2.657   0.845
 6687SOL    HW220961   6.961   2.650   0.743
 6688SOL     OW20962   5.759   6.036   0.457
 6688SOL    HW120963   5.731   5.970   0.387
 6688SOL    HW220964   5.839   6.086   0.426
 6689SOL     OW20965   3.795   4.552   5.648
 6689SOL    HW120966   3.873   4.592   5.697
 6689SOL    HW220967   3.749   4.486   5.708
 6690SOL     OW20968   1.241   0.095   6.981
 6690SOL    HW120969   1.210   0.107   0.056
 6690SOL    HW220970   1.253   7.017   6.962
 6691SOL     OW20971   2.206   1.925   2.119
 6691SOL    HW120972   2.200   1.990   2.194
 6691SOL    HW220973   2.302   1.917   2.090
 6692SOL     OW20974   3.977   6.419   2.120
 6692SOL    HW120975   3.979   6.321   2.143
 6692SOL    HW220976   4.012   6.432   2.027
 6693SOL     OW20977   2.772   1.371   6.051
 6693SOL    HW120978   2.861   1.350   6.092
 6693SOL    HW220979   2.729   1.446   6.101
 6694SOL     OW20980   4.563   4.075   1.691
 6694SOL    HW120981   4.529   4.136   1.762
 6694SOL    HW220982   4.631   4.123   1.635
 6695SOL     OW20983   3.096   2.399   0.202
 6695SOL    HW120984   3.027   2.466   0.174
 6695SOL    HW220985   3.183   2.419   0.157
 6696SOL     OW20986   3.398   3.143   4.905
 6696SOL    HW120987   3.394   3.046   4.928
 6696SOL    HW220988   3.478   3.184   4.949
 6697SOL     OW20989   5.095   1.075   2.770
 6697SOL    HW120990   5.028   1.056   2.842
 6697SOL    HW220991   5.062   1.149   2.711
 6698SOL     OW20992   2.960   3.679   1.396
 6698SOL    HW120993   3.050   3.645   1.370
 6698SOL    HW220994   2.966   3.732   1.480
 6699SOL     OW20995   1.293   3.645   6.275
 6699SOL    HW120996   1.375   3.697   6.298
 6699SOL    HW220997   1.309   3.548   6.290
 6700SOL     OW20998   5.218   0.189   1.069
 6700SOL    HW120999   5.136   0.246   1.071
 6700SOL    HW221000   5.195   0.097   1.100
 6701SOL     OW21001   6.495   6.465   1.505
 6701SOL    HW121002   6.412   6.478   1.450
 6701SOL    HW221003   6.497   6.533   1.579
 6702SOL     OW21004   4.843   2.586   1.447
 6702SOL    HW121005   4.771   2.604   1.380
 6702SOL    HW221006   4.917   2.653   1.435
 6703SOL     OW21007   0.129   1.112   0.862
 6703SOL    HW121008   0.202   1.065   0.812
 6703SOL    HW221009   0.167   1.188   0.914
 6704SOL     OW21010   2.351   6.317   6.318
 6704SOL    HW121011   2.356   6.258   6.236
 6704SOL    HW221012   2.260   6.310   6.358
 6705SOL     OW21013   1.160   4.250   2.860
 6705SOL    HW121014   1.234   4.314   2.882
 6705SOL    HW221015   1.111   4.281   2.779
 6706SOL     OW21016   0.530   5.777   1.457
 6706SOL    HW121017   0.486   5.728   1.382
 6706SOL    HW221018   0.586   5.851   1.420
 6707SOL     OW21019   5.019   0.710   2.802
 6707SOL    HW121020   4.980   0.764   2.727
 6707SOL    HW221021   5.100   0.756   2.838
 6708SOL     OW21022   0.464   3.322   0.914
 6708SOL    HW121023   0.448   3.223   0.905
 6708SOL    HW221024   0.425   3.369   0.835
 6709SOL     OW21025   2.178   4.339   1.814
 6709SOL    HW121026   2.085   4.305   1.830
 6709SOL    HW221027   2.241   4.262   1.802
 6710SOL     OW21028   4.550   2.006   2.082
 6710SOL    HW121029   4.457   2.007   2.044
 6710SOL    HW221030   4.604   2.079   2.039
 6711SOL     OW21031   4.468   5.629   6.200
 6711SOL    HW121032   4.497   5.716   6.160
 6711SOL    HW221033   4.413   5.647   6.282
 6712SOL     OW21034   5.682   3.696   0.995
 6712SOL    HW121035   5.767   3.713   1.044
 6712SOL    HW221036   5.668   3.767   0.927
 6713SOL     OW21037   2.111   4.499   4.424
 6713SOL    HW121038   2.066   4.517   4.512
 6713SOL    HW221039   2.183   4.431   4.437
 6714SOL     OW21040   6.233   1.028   2.431
 6714SOL    HW121041   6.138   0.998   2.443
 6714SOL    HW221042   6.288   0.997   2.508
 6715SOL     OW21043   0.977   6.841   5.497
 6715SOL    HW121044   0.911   6.862   5.569
 6715SOL    HW221045   0.967   6.907   5.423
 6716SOL     OW21046   1.478   4.510   1.976
 6716SOL    HW121047   1.554   4.564   1.940
 6716SOL    HW221048   1.473   4.423   1.927
 6717SOL     OW21049   6.166   2.409   5.376
 6717SOL    HW121050   6.260   2.379   5.362
 6717SOL    HW221051   6.106   2.329   5.380
 6718SOL     OW21052   4.577   2.429   0.885
 6718SOL    HW121053   4.478   2.415   0.880
 6718SOL    HW221054   4.597   2.499   0.953
 6719SOL     OW21055   1.685   0.422   0.330
 6719SOL    HW121056   1.701   0.410   0.232
 6719SOL    HW221057   1.766   0.462   0.373
 6720SOL     OW21058   1.322   1.725   4.450
 6720SOL    HW121059   1.392   1.781   4.496
 6720SOL    HW221060   1.364   1.674   4.375
 6721SOL     OW21061   6.191   6.492   0.400
 6721SOL    HW121062   6.113   6.520   0.343
 6721SOL    HW221063   6.251   6.433   0.346
 6722SOL     OW21064   6.470   3.858   1.303
 6722SOL    HW121065   6.489   3.881   1.398
 6722SOL    HW221066   6.373   3.832   1.294
 6723SOL     OW21067   2.078   3.416   4.249
 6723SOL    HW121068   2.101   3.359   4.329
 6723SOL    HW221069   2.077   3.359   4.167
 6724SOL     OW21070   2.110   3.155   5.296
 6724SOL    HW121071   2.021   3.178   5.336
 6724SOL    HW221072   2.121   3.206   5.210
 6725SOL     OW21073   4.545   2.599   3.451
 6725SOL    HW121074   4.562   2.692   3.419
 6725SOL    HW221075   4.536   2.538   3.373
 6726SOL     OW21076   0.183   1.403   6.878
 6726SOL    HW121077   0.256   1.335   6.887
 6726SOL    HW221078   0.133   1.410   6.965
 6727SOL     OW21079   0.905   5.399   5.600
 6727SOL    HW121080   0.957   5.315   5.616
 6727SOL    HW221081   0.911   5.424   5.504
 6728SOL     OW21082   3.579   1.544   4.994
 6728SOL    HW121083   3.568   1.624   5.052
 6728SOL    HW221084   3.648   1.562   4.924
 6729SOL     OW21085   4.116   1.340   2.691
 6729SOL    HW121086   4.124   1.254   2.640
 6729SOL    HW221087   4.107   1.320   2.789
 6730SOL     OW21088   0.398   1.950   1.407
 6730SOL    HW121089   0.484   1.905   1.383
 6730SOL    HW221090   0.327   1.881   1.423
 6731SOL     OW21091   3.707   0.545   5.891
 6731SOL    HW121092   3.739   0.628   5.846
 6731SOL    HW221093   3.759   0.529   5.974
 6732SOL     OW21094   5.890   5.085   5.946
 6732SOL    HW121095   5.805   5.073   5.998
 6732SOL    HW221096   5.880   5.043   5.856
 6733SOL     OW21097   5.389   4.575   5.573
 6733SOL    HW121098   5.453   4.652   5.571
 6733SOL    HW221099   5.362   4.552   5.480
 6734SOL     OW21100   5.315   1.882   5.650
 6734SOL    HW121101   5.367   1.908   5.568
 6734SOL    HW221102   5.379   1.854   5.722
 6735SOL     OW21103   5.807   2.706   4.759
 6735SOL    HW121104   5.729   2.665   4.806
 6735SOL    HW221105   5.864   2.756   4.825
 6736SOL     OW21106   3.902   3.371   0.531
 6736SOL    HW121107   3.862   3.462   0.536
 6736SOL    HW221108   3.884   3.323   0.617
 6737SOL     OW21109   6.267   3.103   1.205
 6737SOL    HW121110   6.204   3.105   1.282
 6737SOL    HW221111   6.350   3.054   1.231
 6738SOL     OW21112   1.950   6.832   3.558
 6738SOL    HW121113   2.007   6.825   3.640
 6738SOL    HW221114   1.855   6.846   3.585
 6739SOL     OW21115   0.616   0.245   5.453
 6739SOL    HW121116   0.576   0.164   5.412
 6739SOL    HW221117   0.707   0.261   5.414
 6740SOL     OW21118   0.772   6.815   2.012
 6740SOL    HW121119   0.673   6.806   2.002
 6740SOL    HW221120   0.798   6.798   2.107
 6741SOL     OW21121   2.999   2.155   0.193
 6741SOL    HW121122   3.039   2.245   0.209
 6741SOL    HW221123   3.001   2.134   0.095
 6742SOL     OW21124   6.820   5.195   2.553
 6742SOL    HW121125   6.865   5.108   2.573
 6742SOL    HW221126   6.888   5.268   2.547
 6743SOL     OW21127   3.575   4.242   6.931
 6743SOL    HW121128   3.494   4.264   6.986
 6743SOL    HW221129   3.555   4.163   6.873
 6744SOL     OW21130   6.602   6.217   5.932
 6744SOL    HW121131   6.525   6.218   5.996
 6744SOL    HW221132   6.688   6.213   5.982
 6745SOL     OW21133   5.532   3.254   5.078
 6745SOL    HW121134   5.533   3.156   5.058
 6745SOL    HW221135   5.579   3.271   5.164
 6746SOL     OW21136   1.550   2.470   2.786
 6746SOL    HW121137   1.608   2.549   2.806
 6746SOL    HW221138   1.577   2.393   2.844
 6747SOL     OW21139   0.888   6.077   5.383
 6747SOL    HW121140   0.875   6.073   5.482
 6747SOL    HW221141   0.913   6.170   5.357
 6748SOL     OW21142   1.361   2.535   3.933
 6748SOL    HW121143   1.265   2.509   3.922
 6748SOL    HW221144   1.366   2.633   3.954
 6749SOL     OW21145   3.655   4.861   2.690
 6749SOL    HW121146   3.630   4.859   2.593
 6749SOL    HW221147   3.572   4.866   2.746
 6750SOL     OW21148   4.084   0.363   5.349
 6750SOL    HW121149   4.019   0.435   5.372
 6750SOL    HW221150   4.147   0.395   5.278
 6751SOL     OW21151   3.946   1.032   4.273
 6751SOL    HW121152   3.866   1.003   4.326
 6751SOL    HW221153   3.932   1.125   4.240
 6752SOL     OW21154   2.171   5.461   3.005
 6752SOL    HW121155   2.123   5.418   3.082
 6752SOL    HW221156   2.162   5.560   3.010
 6753SOL     OW21157   3.330   4.617   6.934
 6753SOL    HW121158   3.311   4.715   6.944
 6753SOL    HW221159   3.270   4.579   6.865
 6754SOL     OW21160   5.905   0.542   0.411
 6754SOL    HW121161   5.844   0.621   0.414
 6754SOL    HW221162   5.890   0.492   0.326
 6755SOL     OW21163   3.353   5.403   5.519
 6755SOL    HW121164   3.353   5.500   5.496
 6755SOL    HW221165   3.294   5.353   5.455
 6756SOL     OW21166   4.243   3.420   5.211
 6756SOL    HW121167   4.340   3.433   5.193
 6756SOL    HW221168   4.230   3.335   5.264
 6757SOL     OW21169   4.157   6.850   1.477
 6757SOL    HW121170   4.210   6.792   1.539
 6757SOL    HW221171   4.083   6.894   1.527
 6758SOL     OW21172   5.341   2.366   3.116
 6758SOL    HW121173   5.259   2.308   3.115
 6758SOL    HW221174   5.411   2.325   3.058
 6759SOL     OW21175   1.503   2.538   2.092
 6759SOL    HW121176   1.418   2.576   2.056
 6759SOL    HW221177   1.574   2.608   2.089
 6760SOL     OW21178   5.010   1.711   5.880
 6760SOL    HW121179   4.966   1.785   5.931
 6760SOL    HW221180   5.010   1.735   5.782
 6761SOL     OW21181   2.490   0.237   5.037
 6761SOL    HW121182   2.528   0.326   5.060
 6761SOL    HW221183   2.501   0.220   4.939
 6762SOL     OW21184   5.376   4.836   4.326
 6762SOL    HW121185   5.295   4.837   4.385
 6762SOL    HW221186   5.348   4.832   4.230
 6763SOL     OW21187   5.677   5.816   3.496
 6763SOL    HW121188   5.659   5.719   3.482
 6763SOL    HW221189   5.694   5.833   3.593
 6764SOL     OW21190   1.050   4.688   2.080
 6764SOL    HW121191   1.076   4.690   1.984
 6764SOL    HW221192   1.095   4.762   2.129
 6765SOL     OW21193   6.881   4.536   3.360
 6765SOL    HW121194   6.788   4.506   3.339
 6765SOL    HW221195   6.946   4.477   3.313
 6766SOL     OW21196   5.925   0.102   1.466
 6766SOL    HW121197   5.990   0.057   1.529
 6766SOL    HW221198   5.957   0.089   1.372
 6767SOL     OW21199   3.425   0.401   1.310
 6767SOL    HW121200   3.471   0.428   1.394
 6767SOL    HW221201   3.400   0.304   1.315
 6768SOL     OW21202   2.066   0.285   6.570
 6768SOL    HW121203   2.088   0.380   6.589
 6768SOL    HW221204   2.151   0.231   6.570
 6769SOL     OW21205   5.585   2.825   1.318
 6769SOL    HW121206   5.611   2.904   1.263
 6769SOL    HW221207   5.619   2.836   1.411
 6770SOL     OW21208   0.226   1.736   1.588
 6770SOL    HW121209   0.272   1.648   1.575
 6770SOL    HW221210   0.178   1.761   1.504
 6771SOL     OW21211   4.833   1.342   3.455
 6771SOL    HW121212   4.862   1.433   3.427
 6771SOL    HW221213   4.772   1.349   3.534
 6772SOL     OW21214   3.370   1.293   4.876
 6772SOL    HW121215   3.384   1.313   4.973
 6772SOL    HW221216   3.437   1.343   4.821
 6773SOL     OW21217   6.954   3.592   1.973
 6773SOL    HW121218   6.968   3.520   1.905
 6773SOL    HW221219   0.011   3.656   1.971
 6774SOL     OW21220   1.571   1.838   6.015
 6774SOL    HW121221   1.643   1.891   5.969
 6774SOL    HW221222   1.534   1.771   5.952
 6775SOL     OW21223   0.305   3.141   0.613
 6775SOL    HW121224   0.240   3.141   0.689
 6775SOL    HW221225   0.260   3.113   0.529
 6776SOL     OW21226   5.902   6.052   6.701
 6776SOL    HW121227   5.903   5.989   6.778
 6776SOL    HW221228   5.854   6.009   6.624
 6777SOL     OW21229   4.291   4.712   6.885
 6777SOL    HW121230   4.233   4.711   6.967
 6777SOL    HW221231   4.271   4.794   6.831
 6778SOL     OW21232   6.414   5.426   3.128
 6778SOL    HW121233   6.394   5.328   3.139
 6778SOL    HW221234   6.399   5.453   3.033
 6779SOL     OW21235   5.335   3.167   6.228
 6779SOL    HW121236   5.370   3.238   6.289
 6779SOL    HW221237   5.401   3.092   6.225
 6780SOL     OW21238   1.047   2.860   1.456
 6780SOL    HW121239   1.011   2.796   1.388
 6780SOL    HW221240   1.142   2.836   1.477
 6781SOL     OW21241   5.170   4.296   5.542
 6781SOL    HW121242   5.246   4.272   5.601
 6781SOL    HW221243   5.084   4.280   5.590
 6782SOL     OW21244   6.203   1.435   3.835
 6782SOL    HW121245   6.280   1.479   3.882
 6782SOL    HW221246   6.123   1.496   3.838
 6783SOL     OW21247   1.431   5.644   6.617
 6783SOL    HW121248   1.417   5.743   6.612
 6783SOL    HW221249   1.350   5.598   6.582
 6784SOL     OW21250   4.266   3.620   0.530
 6784SOL    HW121251   4.217   3.567   0.599
 6784SOL    HW221252   4.264   3.571   0.442
 6785SOL     OW21253   5.338   5.594   1.612
 6785SOL    HW121254   5.292   5.505   1.616
 6785SOL    HW221255   5.380   5.613   1.701
 6786SOL     OW21256   1.694   3.444   5.254
 6786SOL    HW121257   1.775   3.393   5.281
 6786SOL    HW221258   1.697   3.463   5.156
 6787SOL     OW21259   0.725   3.886   1.917
 6787SOL    HW121260   0.809   3.834   1.934
 6787SOL    HW221261   0.687   3.918   2.003
 6788SOL     OW21262   2.595   3.936   0.960
 6788SOL    HW121263   2.677   3.943   1.018
 6788SOL    HW221264   2.597   4.010   0.892
 6789SOL     OW21265   1.950   4.684   2.861
 6789SOL    HW121266   1.997   4.770   2.880
 6789SOL    HW221267   1.966   4.620   2.936
 6790SOL     OW21268   1.095   3.223   0.510
 6790SOL    HW121269   1.070   3.286   0.436
 6790SOL    HW221270   1.127   3.275   0.588
 6791SOL     OW21271   3.724   3.983   5.796
 6791SOL    HW121272   3.658   3.997   5.723
 6791SOL    HW221273   3.771   3.896   5.784
 6792SOL     OW21274   0.492   5.156   0.558
 6792SOL    HW121275   0.499   5.180   0.461
 6792SOL    HW221276   0.567   5.200   0.608
 6793SOL     OW21277   5.698   1.269   0.914
 6793SOL    HW121278   5.797   1.262   0.925
 6793SOL    HW221279   5.665   1.353   0.958
 6794SOL     OW21280   3.203   1.590   4.787
 6794SOL    HW121281   3.297   1.560   4.771
 6794SOL    HW221282   3.186   1.597   4.885
 6795SOL     OW21283   3.800   5.946   6.840
 6795SOL    HW121284   3.805   5.914   6.746
 6795SOL    HW221285   3.865   6.020   6.854
 6796SOL     OW21286   4.077   1.871   2.411
 6796SOL    HW121287   4.003   1.930   2.378
 6796SOL    HW221288   4.066   1.857   2.510
 6797SOL     OW21289   6.567   2.779   2.551
 6797SOL    HW121290   6.602   2.873   2.553
 6797SOL    HW221291   6.642   2.715   2.566
 6798SOL     OW21292   6.203   6.962   2.342
 6798SOL    HW121293   6.156   6.897   2.401
 6798SOL    HW221294   6.223   6.919   2.254
 6799SOL     OW21295   4.942   6.064   2.421
 6799SOL    HW121296   4.989   5.977   2.407
 6799SOL    HW221297   5.001   6.126   2.473
 6800SOL     OW21298   3.507   3.990   6.497
 6800SOL    HW121299   3.569   3.913   6.503
 6800SOL    HW221300   3.550   4.072   6.536
 6801SOL     OW21301   0.773   3.105   3.200
 6801SOL    HW121302   0.753   3.188   3.149
 6801SOL    HW221303   0.691   3.048   3.205
 6802SOL     OW21304   3.223   4.928   2.579
 6802SOL    HW121305   3.164   5.002   2.614
 6802SOL    HW221306   3.179   4.887   2.499
 6803SOL     OW21307   3.945   2.461   0.245
 6803SOL    HW121308   3.999   2.381   0.271
 6803SOL    HW221309   3.965   2.486   0.150
 6804SOL     OW21310   1.656   5.976   3.727
 6804SOL    HW121311   1.605   5.982   3.813
 6804SOL    HW221312   1.592   5.971   3.651
 6805SOL     OW21313   6.210   1.646   5.947
 6805SOL    HW121314   6.262   1.635   5.862
 6805SOL    HW221315   6.127   1.590   5.942
 6806SOL     OW21316   4.665   6.069   5.200
 6806SOL    HW121317   4.581   6.111   5.165
 6806SOL    HW221318   4.672   5.975   5.167
 6807SOL     OW21319   4.089   3.507   6.833
 6807SOL    HW121320   4.182   3.544   6.834
 6807SOL    HW221321   4.034   3.557   6.766
 6808SOL     OW21322   2.432   4.433   4.125
 6808SOL    HW121323   2.409   4.396   4.215
 6808SOL    HW221324   2.405   4.368   4.054
 6809SOL     OW21325   1.540   3.557   0.062
 6809SOL    HW121326   1.440   3.554   0.065
 6809SOL    HW221327   1.574   3.614   0.136
 6810SOL     OW21328   5.897   1.368   3.706
 6810SOL    HW121329   5.872   1.439   3.640
 6810SOL    HW221330   5.891   1.405   3.799
 6811SOL     OW21331   5.161   6.272   2.524
 6811SOL    HW121332   5.224   6.331   2.472
 6811SOL    HW221333   5.108   6.328   2.588
 6812SOL     OW21334   3.910   3.017   2.803
 6812SOL    HW121335   3.917   2.971   2.714
 6812SOL    HW221336   3.988   3.078   2.815
 6813SOL     OW21337   5.309   3.791   1.110
 6813SOL    HW121338   5.226   3.737   1.118
 6813SOL    HW221339   5.286   3.883   1.077
 6814SOL     OW21340   2.206   2.680   0.563
 6814SOL    HW121341   2.215   2.609   0.494
 6814SOL    HW221342   2.244   2.647   0.650
 6815SOL     OW21343   1.791   0.057   0.405
 6815SOL    HW121344   1.699   0.090   0.426
 6815SOL    HW221345   1.857   0.130   0.424
 6816SOL     OW21346   5.176   4.664   1.426
 6816SOL    HW121347   5.221   4.640   1.512
 6816SOL    HW221348   5.077   4.672   1.441
 6817SOL     OW21349   1.751   2.368   6.030
 6817SOL    HW121350   1.849   2.385   6.029
 6817SOL    HW221351   1.703   2.450   6.064
 6818SOL     OW21352   4.096   5.125   1.410
 6818SOL    HW121353   4.158   5.051   1.438
 6818SOL    HW221354   4.024   5.136   1.479
 6819SOL     OW21355   2.362   1.913   3.942
 6819SOL    HW121356   2.371   1.847   4.016
 6819SOL    HW221357   2.421   1.886   3.866
 6820SOL     OW21358   1.793   5.158   4.842
 6820SOL    HW121359   1.793   5.115   4.751
 6820SOL    HW221360   1.844   5.243   4.838
 6821SOL     OW21361   2.288   2.827   3.826
 6821SOL    HW121362   2.291   2.833   3.926
 6821SOL    HW221363   2.251   2.912   3.789
 6822SOL     OW21364   5.099   1.402   5.644
 6822SOL    HW121365   5.100   1.456   5.559
 6822SOL    HW221366   5.105   1.305   5.621
 6823SOL     OW21367   4.113   3.390   1.923
 6823SOL    HW121368   4.159   3.425   1.841
 6823SOL    HW221369   4.016   3.412   1.919
 6824SOL     OW21370   0.494   5.485   5.258
 6824SOL    HW121371   0.431   5.562   5.244
 6824SOL    HW221372   0.467   5.409   5.199
 6825SOL     OW21373   5.516   0.707   4.906
 6825SOL    HW121374   5.597   0.742   4.954
 6825SOL    HW221375   5.527   0.609   4.890
 6826SOL     OW21376   1.057   3.148   3.393
 6826SOL    HW121377   1.125   3.166   3.322
 6826SOL    HW221378   0.969   3.127   3.351
 6827SOL     OW21379   4.321   5.261   5.086
 6827SOL    HW121380   4.293   5.229   4.995
 6827SOL    HW221381   4.314   5.187   5.152
 6828SOL     OW21382   2.291   1.869   0.967
 6828SOL    HW121383   2.383   1.898   0.940
 6828SOL    HW221384   2.297   1.811   1.048
 6829SOL     OW21385   5.913   4.837   3.932
 6829SOL    HW121386   5.860   4.815   3.850
 6829SOL    HW221387   5.861   4.813   4.014
 6830SOL     OW21388   5.234   1.513   3.681
 6830SOL    HW121389   5.220   1.566   3.765
 6830SOL    HW221390   5.263   1.420   3.705
 6831SOL     OW21391   0.716   1.711   6.006
 6831SOL    HW121392   0.688   1.790   6.061
 6831SOL    HW221393   0.672   1.629   6.041
 6832SOL     OW21394   2.569   5.046   1.255
 6832SOL    HW121395   2.591   4.996   1.339
 6832SOL    HW221396   2.589   4.988   1.176
 6833SOL     OW21397   4.280   5.980   0.341
 6833SOL    HW121398   4.301   5.887   0.311
 6833SOL    HW221399   4.201   6.014   0.289
 6834SOL     OW21400   2.606   4.946   2.666
 6834SOL    HW121401   2.511   4.918   2.655
 6834SOL    HW221402   2.665   4.865   2.670
 6835SOL     OW21403   3.452   6.831   4.678
 6835SOL    HW121404   3.533   6.774   4.666
 6835SOL    HW221405   3.372   6.783   4.644
 6836SOL     OW21406   3.859   5.720   6.977
 6836SOL    HW121407   3.826   5.800   6.927
 6836SOL    HW221408   3.784   5.681   0.012
 6837SOL     OW21409   0.623   3.412   3.024
 6837SOL    HW121410   0.662   3.434   2.934
 6837SOL    HW221411   0.543   3.353   3.012
 6838SOL     OW21412   2.666   1.915   1.076
 6838SOL    HW121413   2.636   1.992   1.132
 6838SOL    HW221414   2.628   1.924   0.983
 6839SOL     OW21415   3.698   1.168   2.068
 6839SOL    HW121416   3.673   1.087   2.121
 6839SOL    HW221417   3.648   1.247   2.103
 6840SOL     OW21418   1.018   0.508   5.852
 6840SOL    HW121419   1.073   0.428   5.874
 6840SOL    HW221420   1.070   0.591   5.872
 6841SOL     OW21421   7.019   3.129   6.041
 6841SOL    HW121422   0.080   3.132   5.982
 6841SOL    HW221423   0.028   3.143   6.136
 6842SOL     OW21424   2.726   4.704   2.604
 6842SOL    HW121425   2.680   4.671   2.521
 6842SOL    HW221426   2.693   4.653   2.683
 6843SOL     OW21427   4.747   6.945   1.371
 6843SOL    HW121428   4.688   7.005   1.317
 6843SOL    HW221429   4.826   6.997   1.404
 6844SOL     OW21430   5.620   0.440   5.488
 6844SOL    HW121431   5.704   0.393   5.461
 6844SOL    HW221432   5.638   0.500   5.566
 6845SOL     OW21433   5.426   2.027   2.482
 6845SOL    HW121434   5.449   2.123   2.492
 6845SOL    HW221435   5.452   1.996   2.391
 6846SOL     OW21436   2.229   3.562   0.240
 6846SOL    HW121437   2.249   3.474   0.283
 6846SOL    HW221438   2.133   3.564   0.210
 6847SOL     OW21439   6.872   2.443   3.532
 6847SOL    HW121440   6.809   2.409   3.602
 6847SOL    HW221441   6.840   2.416   3.442
 6848SOL     OW21442   6.793   4.951   4.192
 6848SOL    HW121443   6.855   4.876   4.171
 6848SOL    HW221444   6.797   5.019   4.118
 6849SOL     OW21445   3.014   3.906   5.300
 6849SOL    HW121446   2.980   3.978   5.240
 6849SOL    HW221447   2.937   3.862   5.346
 6850SOL     OW21448   5.291   0.829   4.739
 6850SOL    HW121449   5.360   0.787   4.798
 6850SOL    HW221450   5.250   0.758   4.681
 6851SOL     OW21451   1.991   4.500   3.068
 6851SOL    HW121452   1.959   4.408   3.045
 6851SOL    HW221453   2.079   4.493   3.115
 6852SOL     OW21454   4.588   3.146   0.619
 6852SOL    HW121455   4.641   3.120   0.699
 6852SOL    HW221456   4.490   3.140   0.641
 6853SOL     OW21457   4.293   5.053   5.914
 6853SOL    HW121458   4.287   5.012   6.005
 6853SOL    HW221459   4.256   5.145   5.916
 6854SOL     OW21460   5.067   6.213   5.306
 6854SOL    HW121461   5.166   6.219   5.320
 6854SOL    HW221462   5.021   6.204   5.395
 6855SOL     OW21463   3.701   5.548   2.702
 6855SOL    HW121464   3.737   5.455   2.708
 6855SOL    HW221465   3.681   5.570   2.606
 6856SOL     OW21466   6.388   2.566   0.718
 6856SOL    HW121467   6.323   2.642   0.719
 6856SOL    HW221468   6.442   2.569   0.634
 6857SOL     OW21469   2.047   4.678   5.972
 6857SOL    HW121470   2.134   4.663   5.926
 6857SOL    HW221471   2.023   4.597   6.025
 6858SOL     OW21472   1.110   3.591   2.028
 6858SOL    HW121473   1.097   3.668   2.090
 6858SOL    HW221474   1.202   3.595   1.988
 6859SOL     OW21475   2.243   2.399   1.052
 6859SOL    HW121476   2.238   2.408   1.151
 6859SOL    HW221477   2.169   2.340   1.020
 6860SOL     OW21478   0.306   0.189   0.089
 6860SOL    HW121479   0.329   0.229   0.178
 6860SOL    HW221480   0.390   0.175   0.036
 6861SOL     OW21481   6.494   3.359   6.949
 6861SOL    HW121482   6.491   3.335   6.851
 6861SOL    HW221483   6.422   3.425   6.969
 6862SOL     OW21484   0.687   4.541   3.264
 6862SOL    HW121485   0.736   4.489   3.333
 6862SOL    HW221486   0.633   4.478   3.207
 6863SOL     OW21487   5.175   1.095   5.537
 6863SOL    HW121488   5.131   1.010   5.566
 6863SOL    HW221489   5.259   1.074   5.487
 6864SOL     OW21490   2.114   3.553   6.509
 6864SOL    HW121491   2.064   3.573   6.425
 6864SOL    HW221492   2.212   3.565   6.494
 6865SOL     OW21493   1.742   0.473   3.212
 6865SOL    HW121494   1.697   0.388   3.239
 6865SOL    HW221495   1.674   0.545   3.199
 6866SOL     OW21496   1.969   4.848   0.262
 6866SOL    HW121497   1.929   4.758   0.276
 6866SOL    HW221498   1.900   4.910   0.224
 6867SOL     OW21499   2.273   2.731   6.379
 6867SOL    HW121500   2.271   2.821   6.335
 6867SOL    HW221501   2.264   2.660   6.310
 6868SOL     OW21502   3.915   5.229   3.258
 6868SOL    HW121503   3.866   5.186   3.334
 6868SOL    HW221504   3.901   5.176   3.174
 6869SOL     OW21505   1.535   0.540   5.240
 6869SOL    HW121506   1.577   0.451   5.222
 6869SOL    HW221507   1.588   0.589   5.309
 6870SOL     OW21508   5.736   2.853   6.679
 6870SOL    HW121509   5.787   2.772   6.708
 6870SOL    HW221510   5.693   2.834   6.590
 6871SOL     OW21511   6.158   2.242   3.219
 6871SOL    HW121512   6.083   2.303   3.245
 6871SOL    HW221513   6.243   2.293   3.215
 6872SOL     OW21514   1.682   5.092   1.000
 6872SOL    HW121515   1.698   5.145   0.917
 6872SOL    HW221516   1.590   5.052   0.997
 6873SOL     OW21517   0.659   3.903   2.180
 6873SOL    HW121518   0.594   3.850   2.234
 6873SOL    HW221519   0.673   3.992   2.223
 6874SOL     OW21520   3.889   5.792   1.596
 6874SOL    HW121521   3.904   5.814   1.500
 6874SOL    HW221522   3.895   5.876   1.651
 6875SOL     OW21523   3.032   1.385   6.360
 6875SOL    HW121524   2.963   1.316   6.383
 6875SOL    HW221525   3.039   1.391   6.260
 6876SOL     OW21526   5.521   5.569   3.431
 6876SOL    HW121527   5.458   5.494   3.412
 6876SOL    HW221528   5.485   5.654   3.395
 6877SOL     OW21529   0.957   4.357   1.447
 6877SOL    HW121530   1.029   4.389   1.509
 6877SOL    HW221531   0.993   4.284   1.390
 6878SOL     OW21532   1.819   0.771   3.771
 6878SOL    HW121533   1.806   0.687   3.718
 6878SOL    HW221534   1.805   0.751   3.868
 6879SOL     OW21535   1.045   1.565   1.331
 6879SOL    HW121536   1.093   1.488   1.373
 6879SOL    HW221537   0.979   1.530   1.265
 6880SOL     OW21538   1.724   6.548   0.293
 6880SOL    HW121539   1.640   6.527   0.243
 6880SOL    HW221540   1.788   6.473   0.282
 6881SOL     OW21541   6.913   3.505   0.912
 6881SOL    HW121542   6.827   3.551   0.935
 6881SOL    HW221543   6.987   3.572   0.908
 6882SOL     OW21544   2.782   6.516   0.143
 6882SOL    HW121545   2.772   6.419   0.120
 6882SOL    HW221546   2.711   6.542   0.208
 6883SOL     OW21547   4.698   6.716   0.900
 6883SOL    HW121548   4.753   6.644   0.858
 6883SOL    HW221549   4.715   6.719   0.998
 6884SOL     OW21550   1.262   5.161   3.291
 6884SOL    HW121551   1.218   5.102   3.223
 6884SOL    HW221552   1.359   5.139   3.296
 6885SOL     OW21553   6.013   4.945   4.534
 6885SOL    HW121554   5.965   4.927   4.619
 6885SOL    HW221555   6.088   4.880   4.523
 6886SOL     OW21556   5.376   3.934   0.781
 6886SOL    HW121557   5.371   3.935   0.681
 6886SOL    HW221558   5.287   3.960   0.819
 6887SOL     OW21559   5.088   6.695   5.581
 6887SOL    HW121560   5.030   6.665   5.505
 6887SOL    HW221561   5.069   6.792   5.600
 6888SOL     OW21562   6.580   4.281   0.940
 6888SOL    HW121563   6.533   4.222   0.874
 6888SOL    HW221564   6.559   4.250   1.033
 6889SOL     OW21565   0.361   2.859   5.253
 6889SOL    HW121566   0.386   2.952   5.226
 6889SOL    HW221567   0.306   2.863   5.337
 6890SOL     OW21568   4.667   4.588   4.035
 6890SOL    HW121569   4.755   4.627   4.010
 6890SOL    HW221570   4.647   4.509   3.976
 6891SOL     OW21571   1.432   1.269   1.245
 6891SOL    HW121572   1.502   1.199   1.256
 6891SOL    HW221573   1.436   1.307   1.153
 6892SOL     OW21574   1.515   0.790   5.077
 6892SOL    HW121575   1.477   0.722   5.140
 6892SOL    HW221576   1.516   0.879   5.121
 6893SOL     OW21577   5.624   3.202   0.764
 6893SOL    HW121578   5.641   3.280   0.824
 6893SOL    HW221579   5.659   3.119   0.807
 6894SOL     OW21580   5.553   5.205   6.962
 6894SOL    HW121581   5.606   5.196   0.027
 6894SOL    HW221582   5.540   5.302   6.942
 6895SOL     OW21583   1.452   5.635   2.499
 6895SOL    HW121584   1.363   5.595   2.518
 6895SOL    HW221585   1.519   5.602   2.566
 6896SOL     OW21586   5.140   0.939   6.461
 6896SOL    HW121587   5.097   1.005   6.522
 6896SOL    HW221588   5.070   0.880   6.421
 6897SOL     OW21589   4.426   2.419   4.816
 6897SOL    HW121590   4.342   2.414   4.870
 6897SOL    HW221591   4.480   2.498   4.847
 6898SOL     OW21592   1.865   6.925   1.648
 6898SOL    HW121593   1.901   6.867   1.721
 6898SOL    HW221594   1.816   7.002   1.688
 6899SOL     OW21595   5.178   5.125   2.440
 6899SOL    HW121596   5.169   5.160   2.533
 6899SOL    HW221597   5.108   5.056   2.423
 6900SOL     OW21598   6.852   4.212   4.574
 6900SOL    HW121599   6.767   4.221   4.627
 6900SOL    HW221600   6.922   4.169   4.631
 6901SOL     OW21601   5.404   4.062   6.619
 6901SOL    HW121602   5.326   4.036   6.562
 6901SOL    HW221603   5.411   4.162   6.622
 6902SOL     OW21604   0.300   5.788   5.461
 6902SOL    HW121605   0.289   5.769   5.363
 6902SOL    HW221606   0.395   5.772   5.488
 6903SOL     OW21607   1.366   6.320   5.217
 6903SOL    HW121608   1.274   6.348   5.244
 6903SOL    HW221609   1.362   6.272   5.130
 6904SOL     OW21610   0.582   0.383   6.535
 6904SOL    HW121611   0.562   0.477   6.563
 6904SOL    HW221612   0.630   0.384   6.447
 6905SOL     OW21613   4.544   5.791   5.390
 6905SOL    HW121614   4.518   5.733   5.467
 6905SOL    HW221615   4.482   5.870   5.386
 6906SOL     OW21616   3.127   1.739   3.156
 6906SOL    HW121617   3.077   1.799   3.218
 6906SOL    HW221618   3.063   1.680   3.108
 6907SOL     OW21619   5.393   3.046   0.335
 6907SOL    HW121620   5.370   2.980   0.406
 6907SOL    HW221621   5.479   3.091   0.356
 6908SOL     OW21622   3.943   5.747   0.592
 6908SOL    HW121623   3.855   5.750   0.641
 6908SOL    HW221624   3.941   5.812   0.516
 6909SOL     OW21625   5.666   4.359   2.697
 6909SOL    HW121626   5.754   4.406   2.686
 6909SOL    HW221627   5.673   4.291   2.770
 6910SOL     OW21628   1.769   2.666   2.045
 6910SOL    HW121629   1.852   2.634   2.000
 6910SOL    HW221630   1.739   2.752   2.003
 6911SOL     OW21631   2.466   6.752   4.994
 6911SOL    HW121632   2.405   6.684   4.955
 6911SOL    HW221633   2.414   6.817   5.050
 6912SOL     OW21634   2.591   4.114   6.475
 6912SOL    HW121635   2.602   4.204   6.432
 6912SOL    HW221636   2.525   4.060   6.422
 6913SOL     OW21637   4.194   5.716   5.965
 6913SOL    HW121638   4.193   5.628   5.917
 6913SOL    HW221639   4.267   5.773   5.927
 6914SOL     OW21640   0.669   2.324   2.083
 6914SOL    HW121641   0.645   2.241   2.033
 6914SOL    HW221642   0.747   2.305   2.143
 6915SOL     OW21643   6.788   3.358   4.600
 6915SOL    HW121644   6.713   3.304   4.635
 6915SOL    HW221645   6.844   3.393   4.676
 6916SOL     OW21646   4.695   6.069   5.695
 6916SOL    HW121647   4.691   6.166   5.722
 6916SOL    HW221648   4.723   6.063   5.599
 6917SOL     OW21649   3.864   5.848   2.068
 6917SOL    HW121650   3.787   5.788   2.088
 6917SOL    HW221651   3.950   5.803   2.095
 6918SOL     OW21652   2.344   3.758   0.012
 6918SOL    HW121653   2.383   3.732   0.100
 6918SOL    HW221654   2.415   3.795   6.973
 6919SOL     OW21655   6.440   5.828   3.302
 6919SOL    HW121656   6.404   5.848   3.211
 6919SOL    HW221657   6.392   5.884   3.369
 6920SOL     OW21658   0.396   3.074   5.516
 6920SOL    HW121659   0.438   3.164   5.514
 6920SOL    HW221660   0.449   3.011   5.458
 6921SOL     OW21661   3.488   0.587   5.256
 6921SOL    HW121662   3.512   0.506   5.309
 6921SOL    HW221663   3.394   0.615   5.277
 6922SOL     OW21664   3.186   4.465   6.738
 6922SOL    HW121665   3.184   4.369   6.767
 6922SOL    HW221666   3.201   4.470   6.639
 6923SOL     OW21667   5.241   6.925   3.115
 6923SOL    HW121668   5.246   0.005   3.100
 6923SOL    HW221669   5.151   6.901   3.151
 6924SOL     OW21670   2.932   5.244   1.767
 6924SOL    HW121671   2.982   5.296   1.698
 6924SOL    HW221672   2.939   5.146   1.746
 6925SOL     OW21673   6.323   6.607   4.699
 6925SOL    HW121674   6.370   6.647   4.778
 6925SOL    HW221675   6.350   6.654   4.616
 6926SOL     OW21676   2.904   2.695   0.398
 6926SOL    HW121677   2.812   2.727   0.423
 6926SOL    HW221678   2.971   2.763   0.425
 6927SOL     OW21679   3.252   6.567   5.550
 6927SOL    HW121680   3.250   6.468   5.537
 6927SOL    HW221681   3.283   6.588   5.643
 6928SOL     OW21682   4.109   5.733   0.796
 6928SOL    HW121683   4.043   5.740   0.720
 6928SOL    HW221684   4.174   5.660   0.777
 6929SOL     OW21685   4.583   5.739   2.996
 6929SOL    HW121686   4.679   5.744   3.025
 6929SOL    HW221687   4.527   5.711   3.074
 6930SOL     OW21688   0.834   6.105   1.790
 6930SOL    HW121689   0.811   6.174   1.722
 6930SOL    HW221690   0.933   6.104   1.806
 6931SOL     OW21691   3.895   3.112   0.411
 6931SOL    HW121692   3.912   3.124   0.313
 6931SOL    HW221693   3.900   3.201   0.457
 6932SOL     OW21694   3.733   0.935   7.011
 6932SOL    HW121695   3.711   0.954   6.916
 6932SOL    HW221696   3.655   0.890   0.036
 6933SOL     OW21697   3.695   6.186   5.947
 6933SOL    HW121698   3.680   6.266   5.888
 6933SOL    HW221699   3.751   6.213   6.025
 6934SOL     OW21700   4.528   5.296   0.462
 6934SOL    HW121701   4.627   5.282   0.466
 6934SOL    HW221702   4.485   5.216   0.419
 6935SOL     OW21703   4.131   5.559   2.873
 6935SOL    HW121704   4.179   5.474   2.890
 6935SOL    HW221705   4.119   5.572   2.774
 6936SOL     OW21706   1.152   1.700   6.893
 6936SOL    HW121707   1.110   1.741   6.974
 6936SOL    HW221708   1.170   1.771   6.825
 6937SOL     OW21709   6.052   4.311   0.491
 6937SOL    HW121710   6.094   4.233   0.537
 6937SOL    HW221711   6.118   4.385   0.484
 6938SOL     OW21712   2.896   6.899   5.444
 6938SOL    HW121713   2.919   6.917   5.348
 6938SOL    HW221714   2.800   6.920   5.460
 6939SOL     OW21715   5.699   3.214   3.384
 6939SOL    HW121716   5.704   3.143   3.314
 6939SOL    HW221717   5.604   3.242   3.396
 6940SOL     OW21718   1.243   6.481   1.554
 6940SOL    HW121719   1.220   6.547   1.482
 6940SOL    HW221720   1.298   6.526   1.624
 6941SOL     OW21721   3.430   2.890   2.370
 6941SOL    HW121722   3.395   2.909   2.462
 6941SOL    HW221723   3.503   2.823   2.375
 6942SOL     OW21724   6.849   4.814   2.755
 6942SOL    HW121725   6.818   4.849   2.844
 6942SOL    HW221726   6.942   4.778   2.764
 6943SOL     OW21727   3.060   5.735   5.509
 6943SOL    HW121728   3.006   5.676   5.450
 6943SOL    HW221729   3.032   5.720   5.604
 6944SOL     OW21730   0.662   4.927   5.607
 6944SOL    HW121731   0.607   4.844   5.603
 6944SOL    HW221732   0.602   5.006   5.623
 6945SOL     OW21733   4.281   1.754   1.013
 6945SOL    HW121734   4.228   1.720   1.091
 6945SOL    HW221735   4.230   1.737   0.929
 6946SOL     OW21736   5.555   5.377   3.706
 6946SOL    HW121737   5.551   5.474   3.727
 6946SOL    HW221738   5.642   5.357   3.661
 6947SOL     OW21739   6.550   3.756   5.577
 6947SOL    HW121740   6.544   3.855   5.592
 6947SOL    HW221741   6.510   3.708   5.655
 6948SOL     OW21742   0.078   5.111   6.427
 6948SOL    HW121743   0.165   5.066   6.446
 6948SOL    HW221744   0.095   5.193   6.371
 6949SOL     OW21745   2.203   1.191   3.135
 6949SOL    HW121746   2.270   1.192   3.209
 6949SOL    HW221747   2.113   1.216   3.171
 6950SOL     OW21748   1.907   1.583   4.638
 6950SOL    HW121749   1.886   1.485   4.635
 6950SOL    HW221750   1.921   1.617   4.546
 6951SOL     OW21751   1.435   3.895   0.330
 6951SOL    HW121752   1.505   3.942   0.383
 6951SOL    HW221753   1.387   3.961   0.271
 6952SOL     OW21754   4.154   4.760   3.339
 6952SOL    HW121755   4.092   4.754   3.416
 6952SOL    HW221756   4.102   4.774   3.255
 6953SOL     OW21757   0.844   0.866   2.165
 6953SOL    HW121758   0.844   0.957   2.125
 6953SOL    HW221759   0.750   0.832   2.170
 6954SOL     OW21760   6.510   5.304   6.151
 6954SOL    HW121761   6.487   5.242   6.226
 6954SOL    HW221762   6.534   5.250   6.070
 6955SOL     OW21763   4.177   5.557   2.591
 6955SOL    HW121764   4.275   5.568   2.577
 6955SOL    HW221765   4.152   5.461   2.579
 6956SOL     OW21766   6.070   5.005   2.401
 6956SOL    HW121767   6.096   5.047   2.489
 6956SOL    HW221768   5.993   5.057   2.362
 6957SOL     OW21769   5.977   3.937   5.358
 6957SOL    HW121770   5.998   3.967   5.451
 6957SOL    HW221771   6.039   3.981   5.293
 6958SOL     OW21772   3.500   3.825   1.689
 6958SOL    HW121773   3.430   3.780   1.745
 6958SOL    HW221774   3.456   3.891   1.627
 6959SOL     OW21775   0.682   3.399   2.743
 6959SOL    HW121776   0.592   3.382   2.703
 6959SOL    HW221777   0.739   3.317   2.732
 6960SOL     OW21778   5.419   4.466   1.681
 6960SOL    HW121779   5.466   4.406   1.616
 6960SOL    HW221780   5.390   4.412   1.760
 6961SOL     OW21781   5.270   2.364   4.813
 6961SOL    HW121782   5.280   2.462   4.795
 6961SOL    HW221783   5.173   2.341   4.818
 6962SOL     OW21784   2.303   6.669   0.855
 6962SOL    HW121785   2.356   6.673   0.940
 6962SOL    HW221786   2.206   6.682   0.876
 6963SOL     OW21787   0.982   6.800   6.718
 6963SOL    HW121788   1.016   6.877   6.665
 6963SOL    HW221789   0.905   6.830   6.775
 6964SOL     OW21790   1.963   1.156   5.632
 6964SOL    HW121791   2.047   1.200   5.662
 6964SOL    HW221792   1.979   1.108   5.546
 6965SOL     OW21793   1.845   1.217   0.156
 6965SOL    HW121794   1.855   1.127   0.112
 6965SOL    HW221795   1.762   1.261   0.122
 6966SOL     OW21796   1.309   6.606   0.778
 6966SOL    HW121797   1.250   6.683   0.802
 6966SOL    HW221798   1.293   6.531   0.842
 6967SOL     OW21799   3.863   6.861   6.576
 6967SOL    HW121800   3.844   6.825   6.485
 6967SOL    HW221801   3.796   6.932   6.599
 6968SOL     OW21802   4.172   0.445   2.202
 6968SOL    HW121803   4.123   0.359   2.217
 6968SOL    HW221804   4.110   0.514   2.166
 6969SOL     OW21805   1.472   3.351   2.957
 6969SOL    HW121806   1.387   3.303   2.935
 6969SOL    HW221807   1.512   3.389   2.874
 6970SOL     OW21808   3.640   5.948   6.175
 6970SOL    HW121809   3.592   5.992   6.099
 6970SOL    HW221810   3.633   5.848   6.166
 6971SOL     OW21811   6.928   4.100   0.205
 6971SOL    HW121812   6.856   4.080   0.272
 6971SOL    HW221813   7.001   4.032   0.214
 6972SOL     OW21814   5.821   3.892   1.597
 6972SOL    HW121815   5.802   3.793   1.595
 6972SOL    HW221816   5.846   3.923   1.506
 6973SOL     OW21817   0.800   1.506   3.002
 6973SOL    HW121818   0.883   1.507   2.945
 6973SOL    HW221819   0.755   1.595   2.997
 6974SOL     OW21820   4.018   3.604   3.095
 6974SOL    HW121821   3.945   3.558   3.044
 6974SOL    HW221822   4.061   3.538   3.157
 6975SOL     OW21823   2.996   5.319   4.936
 6975SOL    HW121824   3.035   5.318   4.844
 6975SOL    HW221825   2.989   5.414   4.968
 6976SOL     OW21826   4.862   5.122   5.951
 6976SOL    HW121827   4.909   5.198   5.995
 6976SOL    HW221828   4.764   5.140   5.948
 6977SOL     OW21829   4.009   4.791   2.266
 6977SOL    HW121830   4.022   4.747   2.178
 6977SOL    HW221831   3.916   4.827   2.273
 6978SOL     OW21832   1.111   3.485   1.496
 6978SOL    HW121833   1.053   3.491   1.576
 6978SOL    HW221834   1.207   3.498   1.523
 6979SOL     OW21835   0.928   4.045   2.657
 6979SOL    HW121836   0.838   4.009   2.634
 6979SOL    HW221837   0.945   4.035   2.755
 6980SOL     OW21838   2.447   4.533   3.325
 6980SOL    HW121839   2.468   4.486   3.411
 6980SOL    HW221840   2.451   4.632   3.339
 6981SOL     OW21841   4.137   2.672   6.936
 6981SOL    HW121842   4.175   2.732   7.006
 6981SOL    HW221843   4.088   2.596   6.980
 6982SOL     OW21844   6.624   6.878   1.678
 6982SOL    HW121845   6.561   6.801   1.691
 6982SOL    HW221846   6.707   6.863   1.732
 6983SOL     OW21847   6.721   0.601   3.989
 6983SOL    HW121848   6.730   0.547   4.073
 6983SOL    HW221849   6.684   0.544   3.916
 6984SOL     OW21850   1.638   4.275   3.697
 6984SOL    HW121851   1.684   4.248   3.613
 6984SOL    HW221852   1.603   4.194   3.744
 6985SOL     OW21853   5.435   3.516   1.115
 6985SOL    HW121854   5.417   3.466   1.200
 6985SOL    HW221855   5.385   3.472   1.040
 6986SOL     OW21856   3.816   5.976   5.045
 6986SOL    HW121857   3.870   5.917   4.985
 6986SOL    HW221858   3.752   5.921   5.098
 6987SOL     OW21859   0.310   1.032   6.626
 6987SOL    HW121860   0.217   1.067   6.639
 6987SOL    HW221861   0.366   1.102   6.581
 6988SOL     OW21862   1.490   0.450   5.994
 6988SOL    HW121863   1.480   0.380   5.923
 6988SOL    HW221864   1.487   0.541   5.952
 6989SOL     OW21865   0.604   3.442   2.096
 6989SOL    HW121866   0.566   3.483   2.179
 6989SOL    HW221867   0.702   3.457   2.094
 6990SOL     OW21868   3.854   5.212   6.698
 6990SOL    HW121869   3.867   5.271   6.777
 6990SOL    HW221870   3.770   5.237   6.650
 6991SOL     OW21871   5.278   3.997   3.561
 6991SOL    HW121872   5.283   3.947   3.648
 6991SOL    HW221873   5.214   4.073   3.571
 6992SOL     OW21874   2.004   5.344   6.187
 6992SOL    HW121875   1.976   5.404   6.262
 6992SOL    HW221876   2.103   5.334   6.187
 6993SOL     OW21877   4.301   2.332   1.513
 6993SOL    HW121878   4.331   2.253   1.461
 6993SOL    HW221879   4.307   2.312   1.611
 6994SOL     OW21880   2.813   0.823   2.980
 6994SOL    HW121881   2.767   0.791   3.063
 6994SOL    HW221882   2.889   0.883   3.006
 6995SOL     OW21883   0.059   5.007   0.755
 6995SOL    HW121884   0.155   5.020   0.778
 6995SOL    HW221885   0.005   4.994   0.838
 6996SOL     OW21886   1.292   1.630   6.551
 6996SOL    HW121887   1.333   1.559   6.495
 6996SOL    HW221888   1.213   1.593   6.601
 6997SOL     OW21889   5.906   6.163   6.167
 6997SOL    HW121890   5.954   6.100   6.106
 6997SOL    HW221891   5.971   6.204   6.231
 6998SOL     OW21892   0.485   0.970   6.843
 6998SOL    HW121893   0.562   0.976   6.780
 6998SOL    HW221894   0.400   0.986   6.792
 6999SOL     OW21895   0.442   2.781   0.083
 6999SOL    HW121896   0.482   2.871   0.060
 6999SOL    HW221897   0.375   2.792   0.156
 7000SOL     OW21898   1.030   5.002   3.125
 7000SOL    HW121899   0.931   5.007   3.138
 7000SOL    HW221900   1.065   4.918   3.167
 7001SOL     OW21901   1.018   0.831   4.179
 7001SOL    HW121902   0.942   0.890   4.206
 7001SOL    HW221903   1.030   0.758   4.246
 7002SOL     OW21904   1.520   4.370   3.220
 7002SOL    HW121905   1.580   4.400   3.146
 7002SOL    HW221906   1.506   4.445   3.284
 7003SOL     OW21907   0.489   5.265   6.353
 7003SOL    HW121908   0.588   5.267   6.343
 7003SOL    HW221909   0.446   5.320   6.281
 7004SOL     OW21910   1.239   0.991   6.909
 7004SOL    HW121911   1.297   0.973   6.988
 7004SOL    HW221912   1.189   0.907   6.884
 7005SOL     OW21913   1.569   5.250   0.162
 7005SOL    HW121914   1.584   5.180   0.231
 7005SOL    HW221915   1.605   5.218   0.074
 7006SOL     OW21916   0.534   0.241   3.568
 7006SOL    HW121917   0.437   0.219   3.583
 7006SOL    HW221918   0.585   0.220   3.652
 7007SOL     OW21919   2.078   6.807   6.177
 7007SOL    HW121920   2.161   6.834   6.225
 7007SOL    HW221921   2.074   6.708   6.169
 7008SOL     OW21922   5.825   2.936   2.460
 7008SOL    HW121923   5.738   2.984   2.470
 7008SOL    HW221924   5.897   3.001   2.440
 7009SOL     OW21925   5.516   5.446   2.397
 7009SOL    HW121926   5.503   5.505   2.317
 7009SOL    HW221927   5.605   5.464   2.439
 7010SOL     OW21928   5.095   2.538   3.140
 7010SOL    HW121929   5.149   2.456   3.117
 7010SOL    HW221930   5.005   2.510   3.174
 7011SOL     OW21931   2.523   5.700   6.512
 7011SOL    HW121932   2.482   5.680   6.601
 7011SOL    HW221933   2.453   5.693   6.441
 7012SOL     OW21934   0.150   3.904   0.535
 7012SOL    HW121935   0.071   3.889   0.594
 7012SOL    HW221936   0.234   3.882   0.584
 7013SOL     OW21937   2.660   2.728   6.832
 7013SOL    HW121938   2.643   2.793   6.758
 7013SOL    HW221939   2.623   2.764   6.917
 7014SOL     OW21940   6.566   3.229   0.757
 7014SOL    HW121941   6.510   3.160   0.712
 7014SOL    HW221942   6.663   3.205   0.748
 7015SOL     OW21943   5.992   6.251   1.617
 7015SOL    HW121944   5.962   6.167   1.571
 7015SOL    HW221945   6.091   6.259   1.613
 7016SOL     OW21946   3.034   5.513   0.973
 7016SOL    HW121947   2.992   5.548   1.057
 7016SOL    HW221948   3.116   5.460   0.996
 7017SOL     OW21949   6.086   4.373   6.455
 7017SOL    HW121950   6.133   4.331   6.533
 7017SOL    HW221951   6.028   4.448   6.488
 7018SOL     OW21952   5.797   2.779   4.500
 7018SOL    HW121953   5.800   2.756   4.597
 7018SOL    HW221954   5.870   2.844   4.478
 7019SOL     OW21955   3.290   6.034   2.867
 7019SOL    HW121956   3.358   6.102   2.840
 7019SOL    HW221957   3.212   6.078   2.910
 7020SOL     OW21958   6.838   1.673   0.976
 7020SOL    HW121959   6.784   1.719   0.905
 7020SOL    HW221960   6.801   1.695   1.066
 7021SOL     OW21961   0.792   2.281   4.798
 7021SOL    HW121962   0.764   2.344   4.870
 7021SOL    HW221963   0.713   2.262   4.739
 7022SOL     OW21964   1.872   4.176   0.994
 7022SOL    HW121965   1.885   4.256   0.936
 7022SOL    HW221966   1.931   4.183   1.075
 7023SOL     OW21967   6.873   2.066   1.169
 7023SOL    HW121968   6.833   2.049   1.259
 7023SOL    HW221969   6.805   2.106   1.109
 7024SOL     OW21970   3.508   4.180   5.606
 7024SOL    HW121971   3.446   4.129   5.546
 7024SOL    HW221972   3.472   4.273   5.618
 7025SOL     OW21973   3.395   0.882   0.937
 7025SOL    HW121974   3.297   0.861   0.935
 7025SOL    HW221975   3.447   0.796   0.936
 7026SOL     OW21976   2.844   2.432   1.364
 7026SOL    HW121977   2.901   2.370   1.419
 7026SOL    HW221978   2.899   2.510   1.334
 7027SOL     OW21979   2.454   4.396   0.664
 7027SOL    HW121980   2.487   4.458   0.735
 7027SOL    HW221981   2.533   4.356   0.615
 7028SOL     OW21982   3.051   0.545   2.546
 7028SOL    HW121983   3.014   0.637   2.530
 7028SOL    HW221984   3.141   0.538   2.504
 7029SOL     OW21985   3.360   3.844   3.519
 7029SOL    HW121986   3.441   3.799   3.482
 7029SOL    HW221987   3.287   3.777   3.531
 7030SOL     OW21988   5.730   7.008   4.978
 7030SOL    HW121989   5.809   6.988   4.921
 7030SOL    HW221990   5.657   6.942   4.959
 7031SOL     OW21991   5.849   4.966   0.515
 7031SOL    HW121992   5.837   4.977   0.614
 7031SOL    HW221993   5.937   5.005   0.488
 7032SOL     OW21994   3.654   4.880   3.888
 7032SOL    HW121995   3.735   4.838   3.847
 7032SOL    HW221996   3.667   4.888   3.987
 7033SOL     OW21997   2.204   2.062   5.455
 7033SOL    HW121998   2.268   2.109   5.515
 7033SOL    HW221999   2.200   2.108   5.367
 7034SOL     OW22000   6.274   2.585   2.492
 7034SOL    HW122001   6.335   2.507   2.479
 7034SOL    HW222002   6.204   2.585   2.421
 7035SOL     OW22003   3.684   2.581   1.204
 7035SOL    HW122004   3.716   2.642   1.276
 7035SOL    HW222005   3.669   2.489   1.241
 7036SOL     OW22006   6.893   1.697   1.551
 7036SOL    HW122007   6.812   1.696   1.609
 7036SOL    HW222008   6.912   1.791   1.522
 7037SOL     OW22009   0.431   1.286   6.102
 7037SOL    HW122010   0.407   1.378   6.133
 7037SOL    HW222011   0.347   1.236   6.079
 7038SOL     OW22012   0.821   4.233   0.468
 7038SOL    HW122013   0.741   4.291   0.455
 7038SOL    HW222014   0.875   4.232   0.384
 7039SOL     OW22015   6.661   0.556   1.489
 7039SOL    HW122016   6.732   0.562   1.419
 7039SOL    HW222017   6.572   0.576   1.449
 7040SOL     OW22018   4.913   3.139   4.440
 7040SOL    HW122019   4.870   3.116   4.527
 7040SOL    HW222020   4.868   3.088   4.366
 7041SOL     OW22021   1.009   6.908   3.271
 7041SOL    HW122022   1.088   6.969   3.275
 7041SOL    HW222023   1.029   6.825   3.322
 7042SOL     OW22024   5.002   5.446   5.216
 7042SOL    HW122025   5.038   5.414   5.129
 7042SOL    HW222026   5.077   5.452   5.283
 7043SOL     OW22027   2.156   6.007   0.474
 7043SOL    HW122028   2.248   5.967   0.469
 7043SOL    HW222029   2.155   6.081   0.541
 7044SOL     OW22030   4.477   6.577   4.846
 7044SOL    HW122031   4.441   6.509   4.783
 7044SOL    HW222032   4.577   6.580   4.838
 7045SOL     OW22033   5.342   6.694   1.752
 7045SOL    HW122034   5.287   6.687   1.836
 7045SOL    HW222035   5.344   6.788   1.721
 7046SOL     OW22036   2.769   1.141   2.494
 7046SOL    HW122037   2.853   1.088   2.501
 7046SOL    HW222038   2.706   1.116   2.567
 7047SOL     OW22039   1.689   0.061   0.827
 7047SOL    HW122040   1.720   0.022   0.914
 7047SOL    HW222041   1.593   0.035   0.812
 7048SOL     OW22042   0.539   5.702   4.619
 7048SOL    HW122043   0.541   5.683   4.717
 7048SOL    HW222044   0.537   5.801   4.604
 7049SOL     OW22045   2.649   1.280   4.881
 7049SOL    HW122046   2.713   1.348   4.918
 7049SOL    HW222047   2.564   1.283   4.934
 7050SOL     OW22048   4.150   4.467   0.582
 7050SOL    HW122049   4.193   4.425   0.502
 7050SOL    HW222050   4.124   4.395   0.647
 7051SOL     OW22051   2.130   0.852   2.273
 7051SOL    HW122052   2.156   0.934   2.323
 7051SOL    HW222053   2.139   0.869   2.174
 7052SOL     OW22054   4.991   2.001   2.811
 7052SOL    HW122055   4.990   2.070   2.884
 7052SOL    HW222056   5.062   2.023   2.745
 7053SOL     OW22057   0.567   4.596   3.677
 7053SOL    HW122058   0.609   4.625   3.763
 7053SOL    HW222059   0.584   4.499   3.662
 7054SOL     OW22060   5.543   6.615   0.480
 7054SOL    HW122061   5.518   6.565   0.563
 7054SOL    HW222062   5.526   6.558   0.400
 7055SOL     OW22063   1.662   0.108   6.894
 7055SOL    HW122064   1.758   0.134   6.881
 7055SOL    HW222065   1.604   0.168   6.838
 7056SOL     OW22066   6.969   5.421   1.099
 7056SOL    HW122067   0.013   5.451   1.171
 7056SOL    HW222068   6.970   5.489   1.025
 7057SOL     OW22069   2.992   5.576   5.047
 7057SOL    HW122070   2.997   5.668   5.010
 7057SOL    HW222071   2.977   5.579   5.145
 7058SOL     OW22072   5.872   2.767   5.587
 7058SOL    HW122073   5.902   2.672   5.586
 7058SOL    HW222074   5.905   2.814   5.506
 7059SOL     OW22075   1.759   1.088   4.454
 7059SOL    HW122076   1.822   1.105   4.378
 7059SOL    HW222077   1.686   1.027   4.423
 7060SOL     OW22078   2.569   2.159   1.271
 7060SOL    HW122079   2.627   2.232   1.234
 7060SOL    HW222080   2.618   2.111   1.344
 7061SOL     OW22081   1.760   0.385   1.247
 7061SOL    HW122082   1.819   0.414   1.322
 7061SOL    HW222083   1.668   0.421   1.261
 7062SOL     OW22084   3.684   0.993   5.268
 7062SOL    HW122085   3.659   0.943   5.351
 7062SOL    HW222086   3.626   1.073   5.258
 7063SOL     OW22087   7.002   1.139   1.408
 7063SOL    HW122088   6.969   1.065   1.350
 7063SOL    HW222089   0.057   1.187   1.362
 7064SOL     OW22090   2.655   1.726   5.179
 7064SOL    HW122091   2.754   1.718   5.181
 7064SOL    HW222092   2.624   1.788   5.251
 7065SOL     OW22093   3.171   6.945   3.938
 7065SOL    HW122094   3.084   6.992   3.951
 7065SOL    HW222095   3.180   6.873   4.007
 7066SOL     OW22096   3.857   0.660   1.403
 7066SOL    HW122097   3.874   0.680   1.307
 7066SOL    HW222098   3.785   0.720   1.437
 7067SOL     OW22099   2.934   4.384   5.809
 7067SOL    HW122100   2.942   4.310   5.876
 7067SOL    HW222101   3.025   4.407   5.774
 7068SOL     OW22102   4.672   4.702   2.477
 7068SOL    HW122103   4.766   4.668   2.477
 7068SOL    HW222104   4.609   4.625   2.483
 7069SOL     OW22105   3.835   1.493   5.286
 7069SOL    HW122106   3.739   1.469   5.268
 7069SOL    HW222107   3.872   1.542   5.207
 7070SOL     OW22108   0.108   1.537   5.080
 7070SOL    HW122109   0.042   1.462   5.072
 7070SOL    HW222110   0.200   1.501   5.064
 7071SOL     OW22111   4.573   5.507   0.146
 7071SOL    HW122112   4.527   5.441   0.087
 7071SOL    HW222113   4.630   5.568   0.091
 7072SOL     OW22114   1.193   3.645   6.023
 7072SOL    HW122115   1.223   3.631   6.118
 7072SOL    HW222116   1.229   3.731   5.989
 7073SOL     OW22117   3.907   1.302   4.192
 7073SOL    HW122118   3.869   1.264   4.107
 7073SOL    HW222119   3.995   1.345   4.173
 7074SOL     OW22120   5.995   3.214   2.073
 7074SOL    HW122121   6.021   3.311   2.077
 7074SOL    HW222122   5.896   3.206   2.071
 7075SOL     OW22123   1.751   4.864   2.576
 7075SOL    HW122124   1.737   4.768   2.555
 7075SOL    HW222125   1.759   4.916   2.491
 7076SOL     OW22126   6.156   2.709   0.606
 7076SOL    HW122127   6.075   2.667   0.565
 7076SOL    HW222128   6.197   2.773   0.540
 7077SOL     OW22129   3.216   6.115   2.194
 7077SOL    HW122130   3.136   6.065   2.227
 7077SOL    HW222131   3.201   6.143   2.099
 7078SOL     OW22132   0.079   1.836   0.097
 7078SOL    HW122133   0.155   1.850   0.161
 7078SOL    HW222134   0.040   1.745   0.112
 7079SOL     OW22135   2.357   5.333   5.513
 7079SOL    HW122136   2.378   5.261   5.578
 7079SOL    HW222137   2.440   5.357   5.462
 7080SOL     OW22138   3.798   1.969   6.371
 7080SOL    HW122139   3.751   1.911   6.437
 7080SOL    HW222140   3.772   2.065   6.387
 7081SOL     OW22141   2.873   6.580   6.713
 7081SOL    HW122142   2.837   6.617   6.627
 7081SOL    HW222143   2.825   6.495   6.736
 7082SOL     OW22144   1.732   4.958   2.073
 7082SOL    HW122145   1.653   4.927   2.126
 7082SOL    HW222146   1.794   5.008   2.132
 7083SOL     OW22147   5.814   2.888   2.721
 7083SOL    HW122148   5.727   2.888   2.770
 7083SOL    HW222149   5.797   2.887   2.623
 7084SOL     OW22150   1.112   5.427   6.968
 7084SOL    HW122151   1.088   5.346   0.003
 7084SOL    HW222152   1.211   5.427   6.953
 7085SOL     OW22153   0.178   3.366   2.184
 7085SOL    HW122154   0.123   3.301   2.236
 7085SOL    HW222155   0.149   3.459   2.205
 7086SOL     OW22156   4.414   1.141   3.529
 7086SOL    HW122157   4.355   1.093   3.594
 7086SOL    HW222158   4.438   1.079   3.454
 7087SOL     OW22159   5.884   2.786   3.644
 7087SOL    HW122160   5.979   2.810   3.658
 7087SOL    HW222161   5.870   2.690   3.669
 7088SOL     OW22162   5.955   1.963   5.282
 7088SOL    HW122163   5.920   1.959   5.375
 7088SOL    HW222164   5.972   1.871   5.249
 7089SOL     OW22165   3.698   6.302   1.781
 7089SOL    HW122166   3.645   6.227   1.820
 7089SOL    HW222167   3.789   6.270   1.755
 7090SOL     OW22168   5.390   3.417   1.592
 7090SOL    HW122169   5.470   3.476   1.585
 7090SOL    HW222170   5.324   3.456   1.656
 7091SOL     OW22171   5.685   0.386   6.573
 7091SOL    HW122172   5.608   0.450   6.575
 7091SOL    HW222173   5.687   0.339   6.485
 7092SOL     OW22174   4.126   6.810   6.225
 7092SOL    HW122175   4.109   6.746   6.299
 7092SOL    HW222176   4.071   6.892   6.237
 7093SOL     OW22177   4.162   3.312   0.250
 7093SOL    HW122178   4.064   3.323   0.232
 7093SOL    HW222179   4.192   3.222   0.219
 7094SOL     OW22180   4.392   0.977   5.043
 7094SOL    HW122181   4.417   0.928   4.959
 7094SOL    HW222182   4.473   1.024   5.079
 7095SOL     OW22183   2.335   4.829   3.599
 7095SOL    HW122184   2.311   4.917   3.639
 7095SOL    HW222185   2.259   4.765   3.612
 7096SOL     OW22186   0.366   5.694   0.321
 7096SOL    HW122187   0.402   5.604   0.347
 7096SOL    HW222188   0.271   5.684   0.292
 7097SOL     OW22189   4.559   1.963   2.901
 7097SOL    HW122190   4.640   1.917   2.866
 7097SOL    HW222191   4.479   1.904   2.888
 7098SOL     OW22192   0.909   1.351   2.359
 7098SOL    HW122193   0.855   1.267   2.348
 7098SOL    HW222194   0.947   1.353   2.452
 7099SOL     OW22195   2.958   1.616   4.652
 7099SOL    HW122196   2.961   1.573   4.561
 7099SOL    HW222197   3.050   1.647   4.677
 7100SOL     OW22198   0.443   4.323   1.284
 7100SOL    HW122199   0.509   4.309   1.210
 7100SOL    HW222200   0.491   4.321   1.372
 7101SOL     OW22201   2.942   6.153   4.511
 7101SOL    HW122202   3.034   6.161   4.548
 7101SOL    HW222203   2.942   6.181   4.415
 7102SOL     OW22204   5.364   1.680   2.432
 7102SOL    HW122205   5.432   1.607   2.441
 7102SOL    HW222206   5.402   1.754   2.377
 7103SOL     OW22207   6.725   3.694   4.770
 7103SOL    HW122208   6.755   3.755   4.844
 7103SOL    HW222209   6.776   3.608   4.775
 7104SOL     OW22210   4.361   2.392   4.236
 7104SOL    HW122211   4.437   2.456   4.242
 7104SOL    HW222212   4.284   2.426   4.290
 7105SOL     OW22213   3.253   3.730   2.066
 7105SOL    HW122214   3.235   3.723   1.968
 7105SOL    HW222215   3.345   3.767   2.081
 7106SOL     OW22216   2.153   2.234   2.529
 7106SOL    HW122217   2.213   2.194   2.597
 7106SOL    HW222218   2.060   2.239   2.565
 7107SOL     OW22219   3.987   0.426   0.421
 7107SOL    HW122220   4.029   0.390   0.338
 7107SOL    HW222221   3.960   0.351   0.481
 7108SOL     OW22222   3.342   6.956   1.807
 7108SOL    HW122223   3.407   6.997   1.871
 7108SOL    HW222224   3.390   6.926   1.724
 7109SOL     OW22225   2.345   5.040   6.058
 7109SOL    HW122226   2.359   5.055   5.960
 7109SOL    HW222227   2.432   5.049   6.106
 7110SOL     OW22228   2.888   5.547   5.913
 7110SOL    HW122229   2.972   5.597   5.895
 7110SOL    HW222230   2.810   5.610   5.908
 7111SOL     OW22231   6.034   1.891   4.520
 7111SOL    HW122232   5.949   1.849   4.550
 7111SOL    HW222233   6.033   1.988   4.546
 7112SOL     OW22234   6.368   5.020   4.600
 7112SOL    HW122235   6.411   4.953   4.660
 7112SOL    HW222236   6.335   4.974   4.517
 7113SOL     OW22237   2.954   6.945   5.161
 7113SOL    HW122238   2.956   0.025   5.145
 7113SOL    HW222239   2.867   6.908   5.128
 7114SOL     OW22240   5.802   4.209   0.465
 7114SOL    HW122241   5.882   4.266   0.485
 7114SOL    HW222242   5.730   4.265   0.424
 7115SOL     OW22243   4.971   2.690   6.239
 7115SOL    HW122244   4.875   2.719   6.233
 7115SOL    HW222245   5.027   2.749   6.181
 7116SOL     OW22246   5.922   5.231   4.555
 7116SOL    HW122247   5.906   5.135   4.578
 7116SOL    HW222248   5.848   5.287   4.593
 7117SOL     OW22249   3.251   0.535   2.796
 7117SOL    HW122250   3.236   0.440   2.823
 7117SOL    HW222251   3.311   0.580   2.862
 7118SOL     OW22252   4.936   4.270   5.667
 7118SOL    HW122253   4.968   4.188   5.713
 7118SOL    HW222254   4.839   4.284   5.686
 7119SOL     OW22255   2.480   6.709   4.469
 7119SOL    HW122256   2.437   6.759   4.544
 7119SOL    HW222257   2.433   6.729   4.384
 7120SOL     OW22258   4.563   1.676   2.259
 7120SOL    HW122259   4.624   1.750   2.290
 7120SOL    HW222260   4.483   1.715   2.215
 7121SOL     OW22261   1.621   5.888   2.370
 7121SOL    HW122262   1.604   5.870   2.467
 7121SOL    HW222263   1.572   5.970   2.341
 7122SOL     OW22264   2.949   2.350   6.607
 7122SOL    HW122265   2.905   2.429   6.651
 7122SOL    HW222266   2.879   2.285   6.577
 7123SOL     OW22267   5.285   4.101   0.074
 7123SOL    HW122268   5.205   4.049   0.046
 7123SOL    HW222269   5.351   4.104   7.019
 7124SOL     OW22270   2.906   2.933   6.257
 7124SOL    HW122271   3.006   2.925   6.263
 7124SOL    HW222272   2.863   2.855   6.302
 7125SOL     OW22273   1.043   6.105   1.543
 7125SOL    HW122274   0.997   6.154   1.470
 7125SOL    HW222275   1.075   6.170   1.612
 7126SOL     OW22276   3.851   4.750   0.660
 7126SOL    HW122277   3.867   4.661   0.703
 7126SOL    HW222278   3.921   4.815   0.689
 7127SOL     OW22279   2.689   0.118   4.854
 7127SOL    HW122280   2.704   0.102   4.951
 7127SOL    HW222281   2.606   0.071   4.824
 7128SOL     OW22282   4.282   3.867   0.155
 7128SOL    HW122283   4.337   3.906   0.082
 7128SOL    HW222284   4.190   3.906   0.153
 7129SOL     OW22285   0.106   1.735   0.401
 7129SOL    HW122286   0.077   1.828   0.424
 7129SOL    HW222287   0.059   1.706   0.317
 7130SOL     OW22288   3.610   6.938   4.006
 7130SOL    HW122289   3.685   7.003   4.020
 7130SOL    HW222290   3.624   6.859   4.066
 7131SOL     OW22291   2.264   2.162   3.030
 7131SOL    HW122292   2.211   2.223   2.970
 7131SOL    HW222293   2.206   2.133   3.106
 7132SOL     OW22294   5.265   4.803   2.296
 7132SOL    HW122295   5.324   4.826   2.218
 7132SOL    HW222296   5.322   4.789   2.377
 7133SOL     OW22297   3.365   6.120   2.453
 7133SOL    HW122298   3.347   6.130   2.355
 7133SOL    HW222299   3.463   6.106   2.467
 7134SOL     OW22300   5.571   5.033   6.738
 7134SOL    HW122301   5.574   4.950   6.793
 7134SOL    HW222302   5.547   5.111   6.797
 7135SOL     OW22303   2.262   5.180   1.095
 7135SOL    HW122304   2.350   5.224   1.112
 7135SOL    HW222305   2.228   5.206   1.005
 7136SOL     OW22306   1.332   3.060   2.730
 7136SOL    HW122307   1.250   3.046   2.674
 7136SOL    HW222308   1.366   2.972   2.762
 7137SOL     OW22309   1.832   6.946   2.003
 7137SOL    HW122310   1.820   6.967   2.100
 7137SOL    HW222311   1.923   6.907   1.988
 7138SOL     OW22312   6.515   4.123   0.331
 7138SOL    HW122313   6.523   4.222   0.320
 7138SOL    HW222314   6.479   4.082   0.247
 7139SOL     OW22315   5.773   5.871   0.931
 7139SOL    HW122316   5.675   5.854   0.939
 7139SOL    HW222317   5.789   5.949   0.870
 7140SOL     OW22318   6.987   4.277   6.935
 7140SOL    HW122319   6.927   4.326   6.872
 7140SOL    HW222320   0.056   4.323   6.939
 7141SOL     OW22321   2.545   2.370   0.267
 7141SOL    HW122322   2.554   2.463   0.232
 7141SOL    HW222323   2.520   2.308   0.192
 7142SOL     OW22324   4.339   6.857   5.837
 7142SOL    HW122325   4.405   6.902   5.897
 7142SOL    HW222326   4.348   6.894   5.744
 7143SOL     OW22327   3.301   2.893   5.656
 7143SOL    HW122328   3.395   2.864   5.636
 7143SOL    HW222329   3.239   2.853   5.589
 7144SOL     OW22330   6.456   1.859   6.175
 7144SOL    HW122331   6.372   1.868   6.122
 7144SOL    HW222332   6.449   1.779   6.235
 7145SOL     OW22333   0.249   2.829   0.281
 7145SOL    HW122334   0.218   2.923   0.296
 7145SOL    HW222335   0.170   2.772   0.256
 7146SOL     OW22336   6.916   1.402   4.147
 7146SOL    HW122337   6.837   1.458   4.175
 7146SOL    HW222338   6.986   1.461   4.106
 7147SOL     OW22339   6.736   0.372   0.129
 7147SOL    HW122340   6.774   0.365   0.220
 7147SOL    HW222341   6.654   0.315   0.123
 7148SOL     OW22342   5.564   6.404   1.077
 7148SOL    HW122343   5.621   6.486   1.081
 7148SOL    HW222344   5.592   6.340   1.149
 7149SOL     OW22345   6.613   3.651   6.838
 7149SOL    HW122346   6.686   3.719   6.832
 7149SOL    HW222347   6.646   3.572   6.890
 7150SOL     OW22348   2.514   2.148   0.072
 7150SOL    HW122349   2.482   2.128   6.998
 7150SOL    HW222350   2.611   2.172   0.069
 7151SOL     OW22351   5.502   2.519   7.012
 7151SOL    HW122352   5.539   2.612   7.011
 7151SOL    HW222353   5.517   2.476   6.923
 7152SOL     OW22354   5.809   0.835   5.026
 7152SOL    HW122355   5.862   0.810   5.107
 7152SOL    HW222356   5.773   0.927   5.038
 7153SOL     OW22357   5.570   5.542   0.439
 7153SOL    HW122358   5.491   5.564   0.382
 7153SOL    HW222359   5.540   5.486   0.517
 7154SOL     OW22360   4.660   0.247   1.891
 7154SOL    HW122361   4.704   0.334   1.870
 7154SOL    HW222362   4.671   0.226   1.988
 7155SOL     OW22363   1.571   0.104   1.474
 7155SOL    HW122364   1.652   0.133   1.425
 7155SOL    HW222365   1.597   0.070   1.565
 7156SOL     OW22366   6.454   2.728   5.817
 7156SOL    HW122367   6.508   2.797   5.866
 7156SOL    HW222368   6.357   2.749   5.826
 7157SOL     OW22369   6.842   3.587   5.814
 7157SOL    HW122370   6.857   3.488   5.811
 7157SOL    HW222371   6.861   3.626   5.723
 7158SOL     OW22372   5.042   7.000   3.763
 7158SOL    HW122373   5.092   0.006   3.845
 7158SOL    HW222374   4.964   0.042   3.751
 7159SOL     OW22375   0.713   6.910   3.523
 7159SOL    HW122376   0.738   6.821   3.486
 7159SOL    HW222377   0.763   6.982   3.475
 7160SOL     OW22378   5.656   6.495   2.234
 7160SOL    HW122379   5.753   6.501   2.210
 7160SOL    HW222380   5.601   6.527   2.157
 7161SOL     OW22381   3.757   3.016   1.884
 7161SOL    HW122382   3.684   2.993   1.948
 7161SOL    HW222383   3.839   3.044   1.935
 7162SOL     OW22384   0.911   6.131   0.421
 7162SOL    HW122385   0.965   6.131   0.505
 7162SOL    HW222386   0.943   6.204   0.360
 7163SOL     OW22387   6.936   6.459   0.155
 7163SOL    HW122388   7.012   6.520   0.175
 7163SOL    HW222389   6.971   6.369   0.128
 7164SOL     OW22390   0.719   5.999   6.864
 7164SOL    HW122391   0.663   5.924   6.827
 7164SOL    HW222392   0.692   6.016   6.959
 7165SOL     OW22393   4.206   2.281   6.088
 7165SOL    HW122394   4.220   2.236   5.999
 7165SOL    HW222395   4.289   2.330   6.114
 7166SOL     OW22396   0.046   6.618   5.491
 7166SOL    HW122397   0.118   6.606   5.423
 7166SOL    HW222398   6.995   6.547   5.479
 7167SOL     OW22399   0.565   3.736   5.550
 7167SOL    HW122400   0.611   3.698   5.470
 7167SOL    HW222401   0.548   3.834   5.534
 7168SOL     OW22402   0.484   6.538   2.442
 7168SOL    HW122403   0.526   6.622   2.477
 7168SOL    HW222404   0.550   6.490   2.384
 7169SOL     OW22405   1.730   5.051   5.457
 7169SOL    HW122406   1.815   5.003   5.436
 7169SOL    HW222407   1.653   5.004   5.413
 7170SOL     OW22408   4.178   2.227   2.186
 7170SOL    HW122409   4.166   2.173   2.103
 7170SOL    HW222410   4.116   2.194   2.257
 7171SOL     OW22411   0.691   5.641   1.984
 7171SOL    HW122412   0.694   5.718   2.048
 7171SOL    HW222413   0.679   5.675   1.891
 7172SOL     OW22414   1.361   2.894   3.773
 7172SOL    HW122415   1.333   2.949   3.851
 7172SOL    HW222416   1.311   2.925   3.691
 7173SOL     OW22417   3.378   5.388   4.511
 7173SOL    HW122418   3.455   5.326   4.498
 7173SOL    HW222419   3.349   5.425   4.423
 7174SOL     OW22420   6.795   3.633   2.484
 7174SOL    HW122421   6.815   3.677   2.572
 7174SOL    HW222422   6.841   3.683   2.411
 7175SOL     OW22423   5.952   2.994   5.749
 7175SOL    HW122424   5.916   3.021   5.839
 7175SOL    HW222425   5.912   2.906   5.722
 7176SOL     OW22426   6.538   2.154   6.533
 7176SOL    HW122427   6.631   2.126   6.556
 7176SOL    HW222428   6.506   2.101   6.454
 7177SOL     OW22429   1.308   5.738   4.033
 7177SOL    HW122430   1.225   5.756   3.979
 7177SOL    HW222431   1.295   5.772   4.126
 7178SOL     OW22432   1.047   6.330   5.462
 7178SOL    HW122433   1.008   6.411   5.505
 7178SOL    HW222434   1.082   6.354   5.372
 7179SOL     OW22435   5.329   4.568   5.328
 7179SOL    HW122436   5.379   4.608   5.252
 7179SOL    HW222437   5.276   4.489   5.295
 7180SOL     OW22438   6.920   2.444   2.200
 7180SOL    HW122439   6.854   2.371   2.213
 7180SOL    HW222440   7.005   2.421   2.248
 7181SOL     OW22441   3.384   0.432   0.209
 7181SOL    HW122442   3.481   0.412   0.227
 7181SOL    HW222443   3.335   0.346   0.194
 7182SOL     OW22444   1.851   0.943   2.265
 7182SOL    HW122445   1.794   0.866   2.294
 7182SOL    HW222446   1.948   0.919   2.276
 7183SOL     OW22447   1.716   0.081   1.137
 7183SOL    HW122448   1.616   0.084   1.129
 7183SOL    HW222449   1.754   0.170   1.113
 7184SOL     OW22450   6.761   1.430   3.269
 7184SOL    HW122451   6.770   1.510   3.328
 7184SOL    HW222452   6.696   1.366   3.311
 7185SOL     OW22453   3.776   0.139   3.541
 7185SOL    HW122454   3.727   0.078   3.602
 7185SOL    HW222455   3.712   0.185   3.480
 7186SOL     OW22456   6.301   2.593   6.920
 7186SOL    HW122457   6.298   2.595   0.001
 7186SOL    HW222458   6.323   2.500   6.889
 7187SOL     OW22459   3.162   3.899   4.063
 7187SOL    HW122460   3.091   3.832   4.046
 7187SOL    HW222461   3.251   3.860   4.042
 7188SOL     OW22462   4.478   5.058   0.039
 7188SOL    HW122463   4.567   5.023   0.009
 7188SOL    HW222464   4.473   5.055   0.139
 7189SOL     OW22465   6.895   2.131   5.797
 7189SOL    HW122466   6.857   2.175   5.716
 7189SOL    HW222467   6.852   2.041   5.810
 7190SOL     OW22468   5.490   5.769   0.598
 7190SOL    HW122469   5.474   5.861   0.563
 7190SOL    HW222470   5.578   5.735   0.565
 7191SOL     OW22471   0.375   5.098   2.796
 7191SOL    HW122472   0.327   5.128   2.714
 7191SOL    HW222473   0.356   5.001   2.811
 7192SOL     OW22474   3.574   3.720   5.708
 7192SOL    HW122475   3.520   3.804   5.704
 7192SOL    HW222476   3.584   3.682   5.616
 7193SOL     OW22477   3.432   1.080   4.088
 7193SOL    HW122478   3.490   1.012   4.133
 7193SOL    HW222479   3.490   1.147   4.042
 7194SOL     OW22480   3.606   2.510   5.342
 7194SOL    HW122481   3.617   2.416   5.376
 7194SOL    HW222482   3.518   2.518   5.296
 7195SOL     OW22483   6.637   4.312   5.520
 7195SOL    HW122484   6.635   4.212   5.511
 7195SOL    HW222485   6.591   4.338   5.605
 7196SOL     OW22486   2.853   4.284   1.668
 7196SOL    HW122487   2.901   4.335   1.596
 7196SOL    HW222488   2.867   4.329   1.756
 7197SOL     OW22489   3.660   4.518   6.435
 7197SOL    HW122490   3.671   4.480   6.526
 7197SOL    HW222491   3.738   4.492   6.378
 7198SOL     OW22492   1.225   6.806   2.435
 7198SOL    HW122493   1.194   6.712   2.447
 7198SOL    HW222494   1.291   6.810   2.361
 7199SOL     OW22495   6.183   0.991   3.549
 7199SOL    HW122496   6.184   1.088   3.573
 7199SOL    HW222497   6.118   0.942   3.608
 7200SOL     OW22498   1.003   3.994   6.329
 7200SOL    HW122499   1.045   3.960   6.413
 7200SOL    HW222500   0.991   3.918   6.265
 7201SOL     OW22501   5.655   5.876   5.010
 7201SOL    HW122502   5.597   5.819   4.952
 7201SOL    HW222503   5.601   5.951   5.048
 7202SOL     OW22504   4.585   0.268   5.439
 7202SOL    HW122505   4.556   0.270   5.344
 7202SOL    HW222506   4.555   0.183   5.482
 7203SOL     OW22507   1.301   1.361   0.563
 7203SOL    HW122508   1.233   1.288   0.558
 7203SOL    HW222509   1.255   1.448   0.580
 7204SOL     OW22510   5.268   0.891   2.842
 7204SOL    HW122511   5.194   0.954   2.820
 7204SOL    HW222512   5.351   0.942   2.862
 7205SOL     OW22513   2.712   1.174   4.017
 7205SOL    HW122514   2.694   1.095   4.075
 7205SOL    HW222515   2.694   1.258   4.068
 7206SOL     OW22516   2.186   2.600   6.611
 7206SOL    HW122517   2.133   2.677   6.646
 7206SOL    HW222518   2.233   2.627   6.528
 7207SOL     OW22519   1.922   2.367   2.925
 7207SOL    HW122520   2.002   2.373   2.865
 7207SOL    HW222521   1.851   2.312   2.880
 7208SOL     OW22522   3.012   0.116   3.556
 7208SOL    HW122523   3.062   0.155   3.479
 7208SOL    HW222524   3.069   0.117   3.637
 7209SOL     OW22525   4.592   0.877   1.896
 7209SOL    HW122526   4.533   0.841   1.968
 7209SOL    HW222527   4.538   0.933   1.833
 7210SOL     OW22528   2.964   1.246   5.056
 7210SOL    HW122529   2.938   1.157   5.019
 7210SOL    HW222530   2.904   1.317   5.019
 7211SOL     OW22531   4.636   5.886   6.379
 7211SOL    HW122532   4.640   5.856   6.475
 7211SOL    HW222533   4.575   5.965   6.371
 7212SOL     OW22534   0.028   5.965   3.842
 7212SOL    HW122535   0.117   5.952   3.798
 7212SOL    HW222536   0.010   5.889   3.904
 7213SOL     OW22537   5.019   2.898   0.124
 7213SOL    HW122538   5.027   2.962   0.048
 7213SOL    HW222539   5.038   2.945   0.210
 7214SOL     OW22540   6.630   1.568   5.789
 7214SOL    HW122541   6.628   1.646   5.852
 7214SOL    HW222542   6.600   1.486   5.837
 7215SOL     OW22543   6.377   1.247   2.346
 7215SOL    HW122544   6.338   1.159   2.373
 7215SOL    HW222545   6.432   1.235   2.263
 7216SOL     OW22546   5.347   6.555   4.116
 7216SOL    HW122547   5.407   6.634   4.099
 7216SOL    HW222548   5.308   6.562   4.207
 7217SOL     OW22549   0.855   3.703   3.033
 7217SOL    HW122550   0.809   3.699   2.944
 7217SOL    HW222551   0.790   3.681   3.105
 7218SOL     OW22552   6.391   2.824   5.450
 7218SOL    HW122553   6.357   2.732   5.471
 7218SOL    HW222554   6.488   2.818   5.428
 7219SOL     OW22555   3.593   5.565   0.828
 7219SOL    HW122556   3.609   5.661   0.805
 7219SOL    HW222557   3.502   5.556   0.868
 7220SOL     OW22558   6.957   3.265   3.753
 7220SOL    HW122559   6.940   3.176   3.711
 7220SOL    HW222560   6.968   3.254   3.852
 7221SOL     OW22561   4.808   4.824   3.618
 7221SOL    HW122562   4.871   4.758   3.661
 7221SOL    HW222563   4.791   4.899   3.681
 7222SOL     OW22564   6.548   6.036   3.873
 7222SOL    HW122565   6.472   6.028   3.808
 7222SOL    HW222566   6.571   6.132   3.886
 7223SOL     OW22567   6.431   5.537   1.555
 7223SOL    HW122568   6.526   5.509   1.538
 7223SOL    HW222569   6.409   5.616   1.498
 7224SOL     OW22570   5.527   2.597   2.520
 7224SOL    HW122571   5.462   2.524   2.500
 7224SOL    HW222572   5.608   2.586   2.463
 7225SOL     OW22573   1.224   5.306   0.527
 7225SOL    HW122574   1.129   5.337   0.526
 7225SOL    HW222575   1.228   5.209   0.503
 7226SOL     OW22576   6.444   6.613   0.247
 7226SOL    HW122577   6.383   6.537   0.267
 7226SOL    HW222578   6.538   6.579   0.240
 7227SOL     OW22579   2.158   0.872   1.991
 7227SOL    HW122580   2.248   0.828   1.987
 7227SOL    HW222581   2.101   0.839   1.915
 7228SOL     OW22582   6.503   3.560   3.046
 7228SOL    HW122583   6.452   3.551   3.131
 7228SOL    HW222584   6.556   3.646   3.048
 7229SOL     OW22585   6.041   6.904   5.052
 7229SOL    HW122586   6.081   6.929   5.140
 7229SOL    HW222587   6.112   6.863   4.994
 7230SOL     OW22588   2.217   5.004   5.388
 7230SOL    HW122589   2.219   4.904   5.381
 7230SOL    HW222590   2.122   5.035   5.390
 7231SOL     OW22591   3.701   3.624   6.861
 7231SOL    HW122592   3.722   3.677   6.944
 7231SOL    HW222593   3.604   3.598   6.863
 7232SOL     OW22594   4.293   5.697   3.488
 7232SOL    HW122595   4.288   5.768   3.417
 7232SOL    HW222596   4.297   5.739   3.578
 7233SOL     OW22597   0.418   1.769   6.471
 7233SOL    HW122598   0.373   1.844   6.521
 7233SOL    HW222599   0.491   1.730   6.528
 7234SOL     OW22600   5.539   4.695   3.094
 7234SOL    HW122601   5.525   4.612   3.039
 7234SOL    HW222602   5.494   4.772   3.050
 7235SOL     OW22603   6.694   0.359   1.074
 7235SOL    HW122604   6.776   0.414   1.060
 7235SOL    HW222605   6.616   0.419   1.090
 7236SOL     OW22606   0.667   3.990   2.589
 7236SOL    HW122607   0.659   3.937   2.505
 7236SOL    HW222608   0.587   3.973   2.647
 7237SOL     OW22609   4.958   1.110   0.106
 7237SOL    HW122610   4.927   1.187   0.161
 7237SOL    HW222611   4.890   1.037   0.109
 7238SOL     OW22612   4.783   3.434   0.381
 7238SOL    HW122613   4.712   3.446   0.450
 7238SOL    HW222614   4.748   3.376   0.307
 7239SOL     OW22615   6.013   2.940   1.989
 7239SOL    HW122616   6.069   2.935   1.906
 7239SOL    HW222617   5.994   3.036   2.011
 7240SOL     OW22618   0.798   1.834   0.475
 7240SOL    HW122619   0.805   1.806   0.570
 7240SOL    HW222620   0.705   1.867   0.457
 7241SOL     OW22621   1.875   0.326   2.903
 7241SOL    HW122622   1.964   0.338   2.946
 7241SOL    HW222623   1.865   0.230   2.874
 7242SOL     OW22624   6.344   3.684   6.202
 7242SOL    HW122625   6.405   3.763   6.189
 7242SOL    HW222626   6.253   3.708   6.171
 7243SOL     OW22627   5.996   4.788   6.328
 7243SOL    HW122628   6.085   4.830   6.309
 7243SOL    HW222629   5.923   4.850   6.301
 7244SOL     OW22630   6.644   6.400   0.292
 7244SOL    HW122631   6.736   6.416   0.256
 7244SOL    HW222632   6.645   6.321   0.352
 7245SOL     OW22633   1.876   2.652   0.254
 7245SOL    HW122634   1.889   2.604   0.167
 7245SOL    HW222635   1.789   2.624   0.294
 7246SOL     OW22636   4.646   0.185   4.427
 7246SOL    HW122637   4.671   0.091   4.401
 7246SOL    HW222638   4.722   0.246   4.407
 7247SOL     OW22639   3.404   4.107   4.600
 7247SOL    HW122640   3.499   4.127   4.579
 7247SOL    HW222641   3.347   4.135   4.522
 7248SOL     OW22642   1.933   2.098   5.051
 7248SOL    HW122643   2.011   2.036   5.057
 7248SOL    HW222644   1.859   2.052   5.000
 7249SOL     OW22645   3.490   5.548   2.903
 7249SOL    HW122646   3.489   5.617   2.976
 7249SOL    HW222647   3.568   5.564   2.843
 7250SOL     OW22648   5.154   5.856   5.329
 7250SOL    HW122649   5.153   5.880   5.426
 7250SOL    HW222650   5.092   5.917   5.279
 7251SOL     OW22651   0.531   5.912   4.140
 7251SOL    HW122652   0.590   5.855   4.198
 7251SOL    HW222653   0.584   5.988   4.103
 7252SOL     OW22654   3.895   4.122   1.763
 7252SOL    HW122655   3.827   4.058   1.800
 7252SOL    HW222656   3.848   4.197   1.715
 7253SOL     OW22657   1.378   5.190   5.707
 7253SOL    HW122658   1.319   5.269   5.694
 7253SOL    HW222659   1.474   5.218   5.698
 7254SOL     OW22660   0.044   3.533   3.714
 7254SOL    HW122661   0.044   3.435   3.734
 7254SOL    HW222662   6.999   3.579   3.776
 7255SOL     OW22663   4.717   3.670   0.758
 7255SOL    HW122664   4.628   3.699   0.724
 7255SOL    HW222665   4.714   3.574   0.784
 7256SOL     OW22666   3.098   0.023   4.595
 7256SOL    HW122667   3.198   0.022   4.582
 7256SOL    HW222668   3.078   0.009   4.692
 7257SOL     OW22669   0.874   1.494   5.042
 7257SOL    HW122670   0.914   1.539   5.121
 7257SOL    HW222671   0.858   1.562   4.969
 7258SOL     OW22672   6.515   2.037   2.883
 7258SOL    HW122673   6.518   2.009   2.787
 7258SOL    HW222674   6.504   1.955   2.940
 7259SOL     OW22675   1.464   4.050   2.444
 7259SOL    HW122676   1.379   4.058   2.496
 7259SOL    HW222677   1.506   3.960   2.460
 7260SOL     OW22678   6.015   2.936   0.910
 7260SOL    HW122679   5.928   2.941   0.958
 7260SOL    HW222680   6.066   3.021   0.925
 7261SOL     OW22681   0.092   4.339   0.183
 7261SOL    HW122682   0.035   4.273   0.232
 7261SOL    HW222683   0.110   4.305   0.091
 7262SOL     OW22684   3.143   0.366   5.297
 7262SOL    HW122685   3.189   0.332   5.379
 7262SOL    HW222686   3.182   0.454   5.271
 7263SOL     OW22687   5.921   5.546   5.370
 7263SOL    HW122688   5.890   5.618   5.307
 7263SOL    HW222689   6.020   5.550   5.379
 7264SOL     OW22690   5.191   1.279   1.251
 7264SOL    HW122691   5.094   1.271   1.273
 7264SOL    HW222692   5.203   1.270   1.152
 7265SOL     OW22693   3.442   0.191   5.685
 7265SOL    HW122694   3.396   0.252   5.621
 7265SOL    HW222695   3.526   0.234   5.719
 7266SOL     OW22696   6.698   0.697   3.184
 7266SOL    HW122697   6.709   0.739   3.094
 7266SOL    HW222698   6.687   0.768   3.253
 7267SOL     OW22699   0.011   4.132   5.510
 7267SOL    HW122700   0.016   4.229   5.484
 7267SOL    HW222701   0.090   4.083   5.473
 7268SOL     OW22702   5.514   6.096   4.037
 7268SOL    HW122703   5.600   6.076   4.084
 7268SOL    HW222704   5.451   6.140   4.100
 7269SOL     OW22705   3.055   5.599   4.385
 7269SOL    HW122706   3.047   5.507   4.421
 7269SOL    HW222707   3.045   5.597   4.285
 7270SOL     OW22708   0.491   1.224   4.379
 7270SOL    HW122709   0.473   1.256   4.286
 7270SOL    HW222710   0.496   1.124   4.379
 7271SOL     OW22711   0.841   4.705   3.110
 7271SOL    HW122712   0.815   4.799   3.133
 7271SOL    HW222713   0.788   4.641   3.164
 7272SOL     OW22714   6.345   4.213   1.757
 7272SOL    HW122715   6.330   4.218   1.855
 7272SOL    HW222716   6.331   4.119   1.725
 7273SOL     OW22717   6.878   1.166   4.844
 7273SOL    HW122718   6.870   1.231   4.768
 7273SOL    HW222719   6.856   1.074   4.813
 7274SOL     OW22720   0.397   5.584   6.351
 7274SOL    HW122721   0.393   5.589   6.451
 7274SOL    HW222722   0.335   5.512   6.319
 7275SOL     OW22723   0.753   4.998   3.140
 7275SOL    HW122724   0.670   4.956   3.177
 7275SOL    HW222725   0.735   5.094   3.121
 7276SOL     OW22726   5.120   6.444   3.420
 7276SOL    HW122727   5.127   6.347   3.395
 7276SOL    HW222728   5.200   6.493   3.386
 7277SOL     OW22729   4.747   0.919   0.380
 7277SOL    HW122730   4.656   0.907   0.340
 7277SOL    HW222731   4.781   0.830   0.412
 7278SOL     OW22732   3.939   2.973   2.515
 7278SOL    HW122733   3.954   3.071   2.506
 7278SOL    HW222734   3.936   2.931   2.425
 7279SOL     OW22735   3.473   6.317   6.237
 7279SOL    HW122736   3.564   6.281   6.257
 7279SOL    HW222737   3.408   6.241   6.227
 7280SOL     OW22738   4.389   0.303   5.822
 7280SOL    HW122739   4.432   0.377   5.770
 7280SOL    HW222740   4.436   0.291   5.909
 7281SOL     OW22741   5.712   0.772   6.194
 7281SOL    HW122742   5.738   0.753   6.288
 7281SOL    HW222743   5.613   0.787   6.188
 7282SOL     OW22744   6.143   5.923   3.146
 7282SOL    HW122745   6.194   5.837   3.150
 7282SOL    HW222746   6.101   5.940   3.235
 7283SOL     OW22747   2.077   1.469   3.473
 7283SOL    HW122748   2.089   1.469   3.373
 7283SOL    HW222749   2.085   1.562   3.508
 7284SOL     OW22750   1.325   1.681   4.765
 7284SOL    HW122751   1.385   1.627   4.706
 7284SOL    HW222752   1.238   1.697   4.719
 7285SOL     OW22753   6.075   5.152   2.071
 7285SOL    HW122754   6.128   5.236   2.063
 7285SOL    HW222755   6.137   5.075   2.088
 7286SOL     OW22756   1.376   4.268   0.667
 7286SOL    HW122757   1.363   4.278   0.569
 7286SOL    HW222758   1.468   4.298   0.692
 7287SOL     OW22759   6.596   2.094   6.218
 7287SOL    HW122760   6.558   2.002   6.215
 7287SOL    HW222761   6.533   2.158   6.174
 7288SOL     OW22762   2.759   0.384   0.160
 7288SOL    HW122763   2.775   0.287   0.145
 7288SOL    HW222764   2.769   0.405   0.257
 7289SOL     OW22765   4.366   2.016   3.381
 7289SOL    HW122766   4.438   2.041   3.317
 7289SOL    HW222767   4.341   2.095   3.436
 7290SOL     OW22768   2.789   5.780   4.316
 7290SOL    HW122769   2.833   5.855   4.268
 7290SOL    HW222770   2.834   5.694   4.293
 7291SOL     OW22771   3.522   5.416   1.252
 7291SOL    HW122772   3.567   5.503   1.273
 7291SOL    HW222773   3.575   5.368   1.182
 7292SOL     OW22774   3.511   0.258   4.700
 7292SOL    HW122775   3.526   0.293   4.607
 7292SOL    HW222776   3.496   0.335   4.762
 7293SOL     OW22777   2.384   1.530   6.209
 7293SOL    HW122778   2.301   1.583   6.194
 7293SOL    HW222779   2.376   1.477   6.293
 7294SOL     OW22780   5.678   5.568   6.228
 7294SOL    HW122781   5.725   5.562   6.316
 7294SOL    HW222782   5.685   5.481   6.181
 7295SOL     OW22783   4.709   6.889   1.644
 7295SOL    HW122784   4.725   6.923   1.551
 7295SOL    HW222785   4.711   6.965   1.708
 7296SOL     OW22786   4.049   4.953   0.720
 7296SOL    HW122787   4.095   4.959   0.632
 7296SOL    HW222788   4.053   5.042   0.766
 7297SOL     OW22789   4.862   6.587   2.472
 7297SOL    HW122790   4.788   6.594   2.539
 7297SOL    HW222791   4.840   6.515   2.406
 7298SOL     OW22792   6.074   3.058   4.120
 7298SOL    HW122793   6.047   3.091   4.030
 7298SOL    HW222794   6.062   3.130   4.187
 7299SOL     OW22795   5.371   3.354   6.650
 7299SOL    HW122796   5.382   3.262   6.688
 7299SOL    HW222797   5.415   3.359   6.560
 7300SOL     OW22798   4.861   5.070   1.277
 7300SOL    HW122799   4.959   5.055   1.289
 7300SOL    HW222800   4.831   5.146   1.333
 7301SOL     OW22801   6.648   1.322   6.419
 7301SOL    HW122802   6.678   1.384   6.346
 7301SOL    HW222803   6.607   1.240   6.378
 7302SOL     OW22804   6.374   0.861   6.385
 7302SOL    HW122805   6.431   0.783   6.413
 7302SOL    HW222806   6.283   0.827   6.359
 7303SOL     OW22807   4.326   0.652   1.122
 7303SOL    HW122808   4.337   0.751   1.126
 7303SOL    HW222809   4.401   0.612   1.069
 7304SOL     OW22810   4.017   3.181   4.747
 7304SOL    HW122811   4.007   3.226   4.836
 7304SOL    HW222812   4.049   3.087   4.762
 7305SOL     OW22813   5.831   2.369   0.078
 7305SOL    HW122814   5.740   2.409   0.078
 7305SOL    HW222815   5.826   2.273   0.048
 7306SOL     OW22816   4.936   4.957   1.908
 7306SOL    HW122817   4.880   5.001   1.838
 7306SOL    HW222818   4.997   5.025   1.949
 7307SOL     OW22819   4.159   6.539   2.265
 7307SOL    HW122820   4.162   6.639   2.272
 7307SOL    HW222821   4.079   6.512   2.211
 7308SOL     OW22822   5.698   0.860   4.086
 7308SOL    HW122823   5.714   0.840   3.989
 7308SOL    HW222824   5.644   0.787   4.127
 7309SOL     OW22825   4.390   4.491   0.885
 7309SOL    HW122826   4.312   4.549   0.858
 7309SOL    HW222827   4.430   4.449   0.804
 7310SOL     OW22828   2.297   5.814   1.903
 7310SOL    HW122829   2.354   5.840   1.981
 7310SOL    HW222830   2.224   5.753   1.935
 7311SOL     OW22831   3.062   2.091   1.961
 7311SOL    HW122832   3.029   2.082   1.867
 7311SOL    HW222833   3.023   2.173   2.002
 7312SOL     OW22834   0.302   2.473   6.438
 7312SOL    HW122835   0.306   2.399   6.506
 7312SOL    HW222836   0.359   2.449   6.359
 7313SOL     OW22837   3.357   2.388   6.224
 7313SOL    HW122838   3.437   2.423   6.176
 7313SOL    HW222839   3.301   2.464   6.257
 7314SOL     OW22840   0.808   1.871   4.673
 7314SOL    HW122841   0.795   1.919   4.759
 7314SOL    HW222842   0.723   1.825   4.647
 7315SOL     OW22843   0.192   1.098   5.991
 7315SOL    HW122844   0.160   1.152   5.914
 7315SOL    HW222845   0.168   1.002   5.978
 7316SOL     OW22846   4.113   3.227   4.334
 7316SOL    HW122847   4.178   3.156   4.363
 7316SOL    HW222848   4.074   3.203   4.245
 7317SOL     OW22849   2.957   0.563   4.178
 7317SOL    HW122850   3.030   0.625   4.206
 7317SOL    HW222851   2.922   0.514   4.258
 7318SOL     OW22852   1.433   0.891   1.380
 7318SOL    HW122853   1.385   0.935   1.456
 7318SOL    HW222854   1.447   0.958   1.306
 7319SOL     OW22855   0.008   4.412   6.096
 7319SOL    HW122856   0.088   4.360   6.128
 7319SOL    HW222857   6.960   4.417   6.169
 7320SOL     OW22858   0.531   1.781   2.120
 7320SOL    HW122859   0.447   1.784   2.175
 7320SOL    HW222860   0.554   1.874   2.091
 7321SOL     OW22861   2.927   1.426   4.062
 7321SOL    HW122862   2.899   1.333   4.041
 7321SOL    HW222863   3.010   1.449   4.012
 7322SOL     OW22864   1.455   3.263   1.576
 7322SOL    HW122865   1.496   3.196   1.513
 7322SOL    HW222866   1.468   3.232   1.670
 7323SOL     OW22867   2.282   4.322   2.962
 7323SOL    HW122868   2.277   4.245   3.026
 7323SOL    HW222869   2.351   4.387   2.994
 7324SOL     OW22870   4.901   5.116   3.646
 7324SOL    HW122871   4.824   5.115   3.582
 7324SOL    HW222872   4.964   5.189   3.622
 7325SOL     OW22873   3.053   6.374   0.764
 7325SOL    HW122874   3.052   6.365   0.864
 7325SOL    HW222875   3.107   6.300   0.725
 7326SOL     OW22876   2.522   0.746   4.077
 7326SOL    HW122877   2.577   0.667   4.049
 7326SOL    HW222878   2.425   0.727   4.061
 7327SOL     OW22879   1.303   3.269   5.755
 7327SOL    HW122880   1.237   3.204   5.718
 7327SOL    HW222881   1.363   3.221   5.820
 7328SOL     OW22882   2.359   6.745   6.933
 7328SOL    HW122883   2.308   6.660   6.943
 7328SOL    HW222884   2.455   6.730   6.956
 7329SOL     OW22885   4.665   3.802   1.745
 7329SOL    HW122886   4.652   3.889   1.697
 7329SOL    HW222887   4.597   3.736   1.713
 7330SOL     OW22888   3.839   2.095   0.947
 7330SOL    HW122889   3.865   2.163   1.016
 7330SOL    HW222890   3.873   2.124   0.858
 7331SOL     OW22891   5.731   1.603   1.555
 7331SOL    HW122892   5.637   1.571   1.565
 7331SOL    HW222893   5.794   1.525   1.567
 7332SOL     OW22894   3.848   6.661   0.368
 7332SOL    HW122895   3.790   6.699   0.439
 7332SOL    HW222896   3.894   6.579   0.402
 7333SOL     OW22897   0.254   4.693   2.394
 7333SOL    HW122898   0.205   4.780   2.402
 7333SOL    HW222899   0.345   4.708   2.356
 7334SOL     OW22900   3.090   0.408   4.728
 7334SOL    HW122901   3.187   0.430   4.734
 7334SOL    HW222902   3.046   0.469   4.663
 7335SOL     OW22903   1.819   3.095   2.943
 7335SOL    HW122904   1.748   3.133   3.002
 7335SOL    HW222905   1.794   3.110   2.847
 7336SOL     OW22906   1.442   6.514   4.458
 7336SOL    HW122907   1.492   6.485   4.540
 7336SOL    HW222908   1.499   6.578   4.405
 7337SOL     OW22909   5.401   2.327   1.429
 7337SOL    HW122910   5.427   2.254   1.365
 7337SOL    HW222911   5.435   2.414   1.395
 7338SOL     OW22912   0.085   3.865   0.254
 7338SOL    HW122913   0.090   3.870   0.354
 7338SOL    HW222914   0.133   3.783   0.223
 7339SOL     OW22915   1.567   5.853   4.783
 7339SOL    HW122916   1.604   5.809   4.702
 7339SOL    HW222917   1.622   5.828   4.863
 7340SOL     OW22918   2.853   6.913   6.561
 7340SOL    HW122919   2.841   6.825   6.516
 7340SOL    HW222920   2.824   6.986   6.499
 7341SOL     OW22921   6.238   2.148   0.524
 7341SOL    HW122922   6.199   2.056   0.528
 7341SOL    HW222923   6.172   2.210   0.483
 7342SOL     OW22924   0.184   6.363   1.728
 7342SOL    HW122925   0.212   6.345   1.822
 7342SOL    HW222926   0.175   6.462   1.715
 7343SOL     OW22927   6.196   2.879   0.370
 7343SOL    HW122928   6.115   2.921   0.331
 7343SOL    HW222929   6.276   2.900   0.314
 7344SOL     OW22930   2.652   0.095   6.108
 7344SOL    HW122931   2.688   0.029   6.042
 7344SOL    HW222932   2.556   0.114   6.087
 7345SOL     OW22933   3.921   5.879   6.361
 7345SOL    HW122934   3.952   5.794   6.320
 7345SOL    HW222935   3.949   5.956   6.303
 7346SOL     OW22936   4.228   5.001   2.075
 7346SOL    HW122937   4.255   5.010   2.171
 7346SOL    HW222938   4.214   5.091   2.035
 7347SOL     OW22939   5.168   1.254   6.760
 7347SOL    HW122940   5.075   1.222   6.742
 7347SOL    HW222941   5.231   1.177   6.761
 7348SOL     OW22942   0.544   5.898   0.387
 7348SOL    HW122943   0.630   5.898   0.335
 7348SOL    HW222944   0.495   5.812   0.370
 7349SOL     OW22945   4.412   1.276   1.460
 7349SOL    HW122946   4.476   1.207   1.492
 7349SOL    HW222947   4.439   1.307   1.369
 7350SOL     OW22948   3.894   0.960   4.786
 7350SOL    HW122949   3.942   1.025   4.845
 7350SOL    HW222950   3.841   1.010   4.717
 7351SOL     OW22951   2.048   4.525   4.728
 7351SOL    HW122952   2.133   4.473   4.728
 7351SOL    HW222953   1.988   4.492   4.801
 7352SOL     OW22954   5.691   3.078   4.418
 7352SOL    HW122955   5.732   3.064   4.328
 7352SOL    HW222956   5.762   3.098   4.485
 7353SOL     OW22957   6.812   1.748   5.426
 7353SOL    HW122958   6.902   1.748   5.382
 7353SOL    HW222959   6.817   1.698   5.512
 7354SOL     OW22960   1.025   1.997   2.344
 7354SOL    HW122961   1.020   2.023   2.440
 7354SOL    HW222962   1.121   1.982   2.318
 7355SOL     OW22963   3.333   2.009   0.251
 7355SOL    HW122964   3.279   2.091   0.270
 7355SOL    HW222965   3.275   1.928   0.260
 7356SOL     OW22966   4.075   4.500   5.948
 7356SOL    HW122967   4.001   4.443   5.985
 7356SOL    HW222968   4.047   4.539   5.860
 7357SOL     OW22969   4.334   6.405   1.964
 7357SOL    HW122970   4.281   6.347   1.902
 7357SOL    HW222971   4.337   6.364   2.055
 7358SOL     OW22972   4.411   6.845   2.866
 7358SOL    HW122973   4.359   6.927   2.842
 7358SOL    HW222974   4.370   6.766   2.820
 7359SOL     OW22975   4.022   0.222   2.236
 7359SOL    HW122976   3.952   0.167   2.282
 7359SOL    HW222977   4.076   0.164   2.175
 7360SOL     OW22978   2.800   3.543   5.861
 7360SOL    HW122979   2.816   3.632   5.819
 7360SOL    HW222980   2.807   3.552   5.961
 7361SOL     OW22981   6.056   0.856   3.355
 7361SOL    HW122982   6.105   0.792   3.295
 7361SOL    HW222983   6.119   0.926   3.387
 7362SOL     OW22984   3.648   5.808   0.352
 7362SOL    HW122985   3.623   5.891   0.402
 7362SOL    HW222986   3.619   5.728   0.406
 7363SOL     OW22987   4.636   0.824   0.853
 7363SOL    HW122988   4.582   0.812   0.769
 7363SOL    HW222989   4.624   0.918   0.886
 7364SOL     OW22990   5.612   6.187   1.915
 7364SOL    HW122991   5.712   6.188   1.925
 7364SOL    HW222992   5.589   6.185   1.817
 7365SOL     OW22993   5.131   2.906   2.238
 7365SOL    HW122994   5.110   2.812   2.265
 7365SOL    HW222995   5.047   2.960   2.238
 7366SOL     OW22996   2.304   6.844   3.252
 7366SOL    HW122997   2.234   6.891   3.199
 7366SOL    HW222998   2.348   6.774   3.195
 7367SOL     OW22999   4.211   1.010   6.860
 7367SOL    HW123000   4.171   1.095   6.894
 7367SOL    HW223001   4.305   1.027   6.828
 7368SOL     OW23002   3.021   3.897   2.952
 7368SOL    HW123003   3.068   3.961   2.891
 7368SOL    HW223004   2.996   3.943   3.037
 7369SOL     OW23005   5.931   3.572   0.204
 7369SOL    HW123006   5.976   3.585   0.116
 7369SOL    HW223007   5.856   3.637   0.213
 7370SOL     OW23008   1.774   0.956   4.074
 7370SOL    HW123009   1.791   0.858   4.070
 7370SOL    HW223010   1.819   0.995   4.154
 7371SOL     OW23011   3.840   0.799   3.681
 7371SOL    HW123012   3.756   0.745   3.686
 7371SOL    HW223013   3.845   0.844   3.592
 7372SOL     OW23014   4.215   1.168   5.287
 7372SOL    HW123015   4.206   1.242   5.221
 7372SOL    HW223016   4.127   1.154   5.333
 7373SOL     OW23017   6.565   3.031   3.834
 7373SOL    HW123018   6.469   3.056   3.849
 7373SOL    HW223019   6.579   2.935   3.859
 7374SOL     OW23020   0.378   2.982   6.163
 7374SOL    HW123021   0.406   3.048   6.093
 7374SOL    HW223022   0.454   2.969   6.228
 7375SOL     OW23023   2.029   2.777   1.264
 7375SOL    HW123024   2.012   2.773   1.166
 7375SOL    HW223025   2.041   2.872   1.293
 7376SOL     OW23026   6.753   5.364   0.512
 7376SOL    HW123027   6.828   5.305   0.541
 7376SOL    HW223028   6.675   5.307   0.485
 7377SOL     OW23029   2.483   5.969   1.330
 7377SOL    HW123030   2.495   6.013   1.241
 7377SOL    HW223031   2.390   5.983   1.363
 7378SOL     OW23032   2.402   5.130   5.807
 7378SOL    HW123033   2.474   5.194   5.832
 7378SOL    HW223034   2.433   5.072   5.732
 7379SOL     OW23035   5.361   2.442   2.296
 7379SOL    HW123036   5.378   2.422   2.200
 7379SOL    HW223037   5.264   2.430   2.317
 7380SOL     OW23038   5.188   3.572   1.734
 7380SOL    HW123039   5.162   3.507   1.805
 7380SOL    HW223040   5.118   3.573   1.662
 7381SOL     OW23041   3.964   6.954   1.862
 7381SOL    HW123042   3.966   6.972   1.763
 7381SOL    HW223043   3.960   0.022   1.910
 7382SOL     OW23044   0.504   2.426   6.814
 7382SOL    HW123045   0.597   2.402   6.843
 7382SOL    HW223046   0.459   2.344   6.779
 7383SOL     OW23047   2.409   6.764   1.105
 7383SOL    HW123048   2.408   6.694   1.176
 7383SOL    HW223049   2.501   6.771   1.067
 7384SOL     OW23050   6.655   0.705   0.056
 7384SOL    HW123051   6.562   0.692   0.087
 7384SOL    HW223052   6.719   0.683   0.129
 7385SOL     OW23053   6.440   4.445   3.235
 7385SOL    HW123054   6.464   4.462   3.331
 7385SOL    HW223055   6.440   4.346   3.219
 7386SOL     OW23056   6.474   4.391   0.270
 7386SOL    HW123057   6.423   4.459   0.218
 7386SOL    HW223058   6.571   4.396   0.244
 7387SOL     OW23059   6.733   5.643   4.218
 7387SOL    HW123060   6.803   5.707   4.187
 7387SOL    HW223061   6.738   5.634   4.318
 7388SOL     OW23062   2.190   4.185   2.479
 7388SOL    HW123063   2.213   4.104   2.426
 7388SOL    HW223064   2.234   4.265   2.438
 7389SOL     OW23065   6.664   2.890   0.673
 7389SOL    HW123066   6.643   2.865   0.767
 7389SOL    HW223067   6.653   2.811   0.614
 7390SOL     OW23068   3.852   2.026   4.135
 7390SOL    HW123069   3.830   2.047   4.230
 7390SOL    HW223070   3.822   1.933   4.113
 7391SOL     OW23071   3.599   3.847   3.014
 7391SOL    HW123072   3.664   3.914   3.052
 7391SOL    HW223073   3.506   3.883   3.023
 7392SOL     OW23074   3.394   6.281   0.730
 7392SOL    HW123075   3.405   6.366   0.782
 7392SOL    HW223076   3.393   6.301   0.633
 7393SOL     OW23077   5.008   5.412   3.295
 7393SOL    HW123078   4.912   5.395   3.316
 7393SOL    HW223079   5.058   5.326   3.291
 7394SOL     OW23080   1.940   2.073   6.188
 7394SOL    HW123081   1.902   1.986   6.158
 7394SOL    HW223082   1.867   2.142   6.188
 7395SOL     OW23083   2.971   6.272   1.296
 7395SOL    HW123084   2.902   6.200   1.309
 7395SOL    HW223085   3.060   6.238   1.327
 7396SOL     OW23086   1.446   5.231   2.361
 7396SOL    HW123087   1.357   5.272   2.344
 7396SOL    HW223088   1.463   5.159   2.294
 7397SOL     OW23089   6.052   4.679   4.249
 7397SOL    HW123090   6.074   4.776   4.258
 7397SOL    HW223091   5.955   4.669   4.225
 7398SOL     OW23092   3.298   5.087   2.177
 7398SOL    HW123093   3.216   5.029   2.172
 7398SOL    HW223094   3.361   5.062   2.104
 7399SOL     OW23095   6.453   1.810   5.126
 7399SOL    HW123096   6.460   1.903   5.162
 7399SOL    HW223097   6.477   1.810   5.029
 7400SOL     OW23098   4.002   3.603   5.303
 7400SOL    HW123099   3.929   3.535   5.306
 7400SOL    HW223100   4.051   3.596   5.217
 7401SOL     OW23101   1.569   2.524   3.717
 7401SOL    HW123102   1.533   2.438   3.754
 7401SOL    HW223103   1.495   2.577   3.676
 7402SOL     OW23104   3.351   5.243   4.066
 7402SOL    HW123105   3.430   5.298   4.091
 7402SOL    HW223106   3.375   5.146   4.066
 7403SOL     OW23107   1.795   4.878   4.331
 7403SOL    HW123108   1.712   4.884   4.275
 7403SOL    HW223109   1.872   4.849   4.273
 7404SOL     OW23110   1.870   3.536   0.884
 7404SOL    HW123111   1.905   3.558   0.793
 7404SOL    HW223112   1.896   3.442   0.908
 7405SOL     OW23113   3.562   6.724   6.100
 7405SOL    HW123114   3.540   6.740   6.196
 7405SOL    HW223115   3.508   6.647   6.066
 7406SOL     OW23116   0.279   2.542   4.458
 7406SOL    HW123117   0.334   2.611   4.505
 7406SOL    HW223118   0.321   2.452   4.471
 7407SOL     OW23119   1.202   6.389   4.566
 7407SOL    HW123120   1.218   6.305   4.618
 7407SOL    HW223121   1.286   6.443   4.562
 7408SOL     OW23122   4.311   5.373   5.646
 7408SOL    HW123123   4.272   5.350   5.735
 7408SOL    HW223124   4.243   5.421   5.591
 7409SOL     OW23125   6.363   5.183   1.746
 7409SOL    HW123126   6.364   5.239   1.829
 7409SOL    HW223127   6.324   5.235   1.671
 7410SOL     OW23128   6.165   0.997   0.815
 7410SOL    HW123129   6.234   0.993   0.744
 7410SOL    HW223130   6.209   0.991   0.905
 7411SOL     OW23131   3.903   1.808   4.910
 7411SOL    HW123132   3.808   1.808   4.877
 7411SOL    HW223133   3.904   1.812   5.010
 7412SOL     OW23134   4.265   6.634   6.709
 7412SOL    HW123135   4.273   6.586   6.796
 7412SOL    HW223136   4.351   6.628   6.659
 7413SOL     OW23137   5.248   0.966   3.709
 7413SOL    HW123138   5.176   0.921   3.656
 7413SOL    HW223139   5.335   0.956   3.661
 7414SOL     OW23140   2.632   0.956   4.186
 7414SOL    HW123141   2.592   0.873   4.147
 7414SOL    HW223142   2.624   0.953   4.285
 7415SOL     OW23143   4.403   1.011   5.938
 7415SOL    HW123144   4.487   1.040   5.892
 7415SOL    HW223145   4.382   0.917   5.912
 7416SOL     OW23146   0.953   0.059   1.714
 7416SOL    HW123147   0.920   0.153   1.707
 7416SOL    HW223148   0.921   0.006   1.636
 7417SOL     OW23149   0.495   0.493   2.174
 7417SOL    HW123150   0.551   0.412   2.154
 7417SOL    HW223151   0.507   0.520   2.269
 7418SOL     OW23152   1.775   3.582   6.252
 7418SOL    HW123153   1.831   3.661   6.275
 7418SOL    HW223154   1.822   3.498   6.280
 7419SOL     OW23155   6.574   2.700   4.492
 7419SOL    HW123156   6.538   2.708   4.400
 7419SOL    HW223157   6.605   2.607   4.508
 7420SOL     OW23158   0.025   6.994   0.794
 7420SOL    HW123159   6.981   6.966   0.867
 7420SOL    HW223160   0.016   0.073   0.777
 7421SOL     OW23161   6.395   3.668   0.998
 7421SOL    HW123162   6.375   3.734   0.926
 7421SOL    HW223163   6.478   3.617   0.974
 7422SOL     OW23164   5.774   3.597   1.644
 7422SOL    HW123165   5.675   3.612   1.642
 7422SOL    HW223166   5.795   3.510   1.601
 7423SOL     OW23167   4.202   2.521   5.556
 7423SOL    HW123168   4.138   2.471   5.498
 7423SOL    HW223169   4.221   2.610   5.516
 7424SOL     OW23170   0.474   1.949   3.674
 7424SOL    HW123171   0.428   2.037   3.663
 7424SOL    HW223172   0.525   1.949   3.760
 7425SOL     OW23173   5.674   0.161   0.932
 7425SOL    HW123174   5.728   0.148   0.848
 7425SOL    HW223175   5.727   0.214   0.997
 7426SOL     OW23176   3.508   3.450   5.190
 7426SOL    HW123177   3.423   3.417   5.232
 7426SOL    HW223178   3.523   3.403   5.104
 7427SOL     OW23179   2.773   0.815   2.023
 7427SOL    HW123180   2.805   0.908   2.040
 7427SOL    HW223181   2.733   0.778   2.107
 7428SOL     OW23182   1.881   6.697   5.152
 7428SOL    HW123183   1.891   6.791   5.119
 7428SOL    HW223184   1.970   6.664   5.183
 7429SOL     OW23185   0.860   1.039   2.385
 7429SOL    HW123186   0.852   0.961   2.322
 7429SOL    HW223187   0.779   1.043   2.443
 7430SOL     OW23188   6.509   4.149   2.688
 7430SOL    HW123189   6.556   4.223   2.640
 7430SOL    HW223190   6.433   4.116   2.632
 7431SOL     OW23191   1.053   2.244   4.479
 7431SOL    HW123192   1.090   2.210   4.566
 7431SOL    HW223193   0.958   2.213   4.470
 7432SOL     OW23194   1.456   1.205   2.935
 7432SOL    HW123195   1.438   1.296   2.974
 7432SOL    HW223196   1.540   1.209   2.880
 7433SOL     OW23197   3.431   0.063   6.395
 7433SOL    HW123198   3.369   7.016   6.437
 7433SOL    HW223199   3.407   0.155   6.426
 7434SOL     OW23200   4.140   0.136   3.857
 7434SOL    HW123201   4.219   0.080   3.879
 7434SOL    HW223202   4.107   0.182   3.939
 7435SOL     OW23203   5.340   4.438   3.112
 7435SOL    HW123204   5.352   4.520   3.168
 7435SOL    HW223205   5.244   4.410   3.114
 7436SOL     OW23206   4.316   3.068   6.070
 7436SOL    HW123207   4.359   3.044   6.157
 7436SOL    HW223208   4.234   3.123   6.086
 7437SOL     OW23209   3.784   0.410   1.496
 7437SOL    HW123210   3.684   0.405   1.494
 7437SOL    HW223211   3.813   0.502   1.468
 7438SOL     OW23212   1.706   0.494   6.673
 7438SOL    HW123213   1.665   0.566   6.729
 7438SOL    HW223214   1.767   0.536   6.605
 7439SOL     OW23215   1.708   4.380   6.302
 7439SOL    HW123216   1.686   4.477   6.310
 7439SOL    HW223217   1.676   4.346   6.213
 7440SOL     OW23218   5.649   2.672   4.268
 7440SOL    HW123219   5.706   2.706   4.343
 7440SOL    HW223220   5.571   2.733   4.255
 7441SOL     OW23221   4.240   6.772   0.345
 7441SOL    HW123222   4.332   6.791   0.309
 7441SOL    HW223223   4.235   6.676   0.371
 7442SOL     OW23224   6.418   1.048   6.085
 7442SOL    HW123225   6.461   1.058   6.175
 7442SOL    HW223226   6.350   1.120   6.072
 7443SOL     OW23227   0.268   6.751   1.056
 7443SOL    HW123228   0.180   6.751   1.008
 7443SOL    HW223229   0.252   6.757   1.155
 7444SOL     OW23230   1.706   5.651   6.595
 7444SOL    HW123231   1.615   5.647   6.637
 7444SOL    HW223232   1.701   5.615   6.501
 7445SOL     OW23233   3.349   5.878   2.627
 7445SOL    HW123234   3.293   5.940   2.682
 7445SOL    HW223235   3.400   5.931   2.559
 7446SOL     OW23236   6.526   5.198   0.484
 7446SOL    HW123237   6.513   5.147   0.569
 7446SOL    HW223238   6.497   5.142   0.407
 7447SOL     OW23239   0.965   5.436   0.563
 7447SOL    HW123240   0.961   5.519   0.618
 7447SOL    HW223241   0.976   5.357   0.624
 7448SOL     OW23242   4.692   4.899   6.898
 7448SOL    HW123243   4.732   4.827   6.954
 7448SOL    HW223244   4.690   4.870   6.802
 7449SOL     OW23245   6.881   3.955   6.606
 7449SOL    HW123246   6.922   3.866   6.585
 7449SOL    HW223247   6.926   3.994   6.686
 7450SOL     OW23248   5.384   3.258   0.604
 7450SOL    HW123249   5.423   3.281   0.515
 7450SOL    HW223250   5.452   3.209   0.658
 7451SOL     OW23251   4.451   4.910   2.973
 7451SOL    HW123252   4.359   4.929   3.006
 7451SOL    HW223253   4.492   4.839   3.030
 7452SOL     OW23254   6.949   5.703   6.693
 7452SOL    HW123255   6.904   5.622   6.731
 7452SOL    HW223256   6.981   5.683   6.601
 7453SOL     OW23257   4.450   5.107   6.193
 7453SOL    HW123258   4.353   5.128   6.187
 7453SOL    HW223259   4.472   5.071   6.284
 7454SOL     OW23260   3.999   1.902   1.128
 7454SOL    HW123261   4.032   1.941   1.214
 7454SOL    HW223262   3.923   1.958   1.093
 7455SOL     OW23263   6.592   0.314   3.012
 7455SOL    HW123264   6.550   0.235   3.058
 7455SOL    HW223265   6.570   0.310   2.914
 7456SOL     OW23266   3.053   1.409   5.607
 7456SOL    HW123267   3.124   1.446   5.667
 7456SOL    HW223268   2.975   1.471   5.605
 7457SOL     OW23269   1.346   1.701   2.253
 7457SOL    HW123270   1.423   1.643   2.226
 7457SOL    HW223271   1.282   1.648   2.309
 7458SOL     OW23272   0.071   5.981   5.181
 7458SOL    HW123273   0.030   6.017   5.097
 7458SOL    HW223274   0.065   5.881   5.180
 7459SOL     OW23275   5.753   6.867   3.231
 7459SOL    HW123276   5.818   6.796   3.259
 7459SOL    HW223277   5.732   6.857   3.134
 7460SOL     OW23278   0.503   0.225   1.056
 7460SOL    HW123279   0.475   0.302   1.113
 7460SOL    HW223280   0.600   0.208   1.068
 7461SOL     OW23281   1.833   4.245   5.009
 7461SOL    HW123282   1.908   4.200   5.058
 7461SOL    HW223283   1.781   4.177   4.958
 7462SOL     OW23284   1.798   4.731   6.877
 7462SOL    HW123285   1.852   4.649   6.894
 7462SOL    HW223286   1.706   4.718   6.915
 7463SOL     OW23287   5.121   5.004   1.312
 7463SOL    HW123288   5.163   4.996   1.222
 7463SOL    HW223289   5.103   4.913   1.349
 7464SOL     OW23290   5.482   4.916   5.193
 7464SOL    HW123291   5.489   4.816   5.192
 7464SOL    HW223292   5.503   4.949   5.285
 7465SOL     OW23293   1.302   3.731   6.769
 7465SOL    HW123294   1.239   3.798   6.729
 7465SOL    HW223295   1.389   3.777   6.791
 7466SOL     OW23296   0.374   0.073   5.562
 7466SOL    HW123297   0.359   0.105   5.656
 7466SOL    HW223298   0.407   6.998   5.564
 7467SOL     OW23299   0.584   3.588   4.159
 7467SOL    HW123300   0.629   3.600   4.248
 7467SOL    HW223301   0.640   3.529   4.101
 7468SOL     OW23302   5.941   2.540   4.486
 7468SOL    HW123303   5.899   2.629   4.470
 7468SOL    HW223304   6.040   2.550   4.491
 7469SOL     OW23305   0.411   2.171   0.369
 7469SOL    HW123306   0.430   2.208   0.279
 7469SOL    HW223307   0.425   2.243   0.438
 7470SOL     OW23308   4.895   2.736   3.540
 7470SOL    HW123309   4.896   2.776   3.449
 7470SOL    HW223310   4.984   2.749   3.584
 7471SOL     OW23311   3.253   6.773   6.264
 7471SOL    HW123312   3.206   6.837   6.325
 7471SOL    HW223313   3.342   6.749   6.303
 7472SOL     OW23314   6.739   0.150   5.488
 7472SOL    HW123315   6.805   0.080   5.512
 7472SOL    HW223316   6.663   0.109   5.438
 7473SOL     OW23317   4.202   6.405   3.604
 7473SOL    HW123318   4.132   6.477   3.597
 7473SOL    HW223319   4.162   6.318   3.575
 7474SOL     OW23320   6.235   2.172   0.819
 7474SOL    HW123321   6.201   2.246   0.877
 7474SOL    HW223322   6.213   2.191   0.724
 7475SOL     OW23323   5.109   2.393   1.077
 7475SOL    HW123324   5.049   2.322   1.042
 7475SOL    HW223325   5.090   2.479   1.030
 7476SOL     OW23326   2.278   1.428   2.995
 7476SOL    HW123327   2.254   1.335   3.021
 7476SOL    HW223328   2.358   1.458   3.047
 7477SOL     OW23329   2.484   3.487   5.739
 7477SOL    HW123330   2.536   3.458   5.659
 7477SOL    HW223331   2.546   3.529   5.805
 7478SOL     OW23332   0.630   2.543   6.463
 7478SOL    HW123333   0.612   2.557   6.366
 7478SOL    HW223334   0.558   2.588   6.517
 7479SOL     OW23335   5.442   3.042   1.586
 7479SOL    HW123336   5.407   3.078   1.672
 7479SOL    HW223337   5.483   2.952   1.602
 7480SOL     OW23338   3.608   6.039   2.547
 7480SOL    HW123339   3.631   6.020   2.451
 7480SOL    HW223340   3.641   6.130   2.571
 7481SOL     OW23341   0.225   3.943   0.026
 7481SOL    HW123342   0.283   4.017   0.062
 7481SOL    HW223343   0.165   3.910   0.099
 7482SOL     OW23344   4.393   1.955   4.530
 7482SOL    HW123345   4.400   2.052   4.504
 7482SOL    HW223346   4.431   1.898   4.457
 7483SOL     OW23347   5.421   1.339   5.705
 7483SOL    HW123348   5.336   1.378   5.669
 7483SOL    HW223349   5.440   1.379   5.795
 7484SOL     OW23350   2.394   0.736   4.503
 7484SOL    HW123351   2.313   0.769   4.455
 7484SOL    HW223352   2.472   0.796   4.484
 7485SOL     OW23353   4.224   0.152   6.407
 7485SOL    HW123354   4.173   0.135   6.491
 7485SOL    HW223355   4.217   0.249   6.383
 7486SOL     OW23356   4.168   6.488   1.357
 7486SOL    HW123357   4.216   6.409   1.394
 7486SOL    HW223358   4.206   6.511   1.268
 7487SOL     OW23359   3.021   6.250   4.248
 7487SOL    HW123360   3.102   6.281   4.199
 7487SOL    HW223361   2.991   6.321   4.312
 7488SOL     OW23362   1.489   5.943   3.934
 7488SOL    HW123363   1.472   6.031   3.977
 7488SOL    HW223364   1.418   5.878   3.961
 7489SOL     OW23365   4.921   3.382   6.233
 7489SOL    HW123366   4.911   3.285   6.252
 7489SOL    HW223367   5.017   3.402   6.211
 7490SOL     OW23368   1.740   2.459   1.389
 7490SOL    HW123369   1.827   2.487   1.430
 7490SOL    HW223370   1.716   2.367   1.420
 7491SOL     OW23371   4.528   4.116   6.601
 7491SOL    HW123372   4.525   4.025   6.642
 7491SOL    HW223373   4.496   4.112   6.507
 7492SOL     OW23374   1.644   1.008   3.489
 7492SOL    HW123375   1.565   0.947   3.478
 7492SOL    HW223376   1.724   0.954   3.514
 7493SOL     OW23377   5.962   5.117   4.245
 7493SOL    HW123378   5.975   5.153   4.337
 7493SOL    HW223379   6.051   5.103   4.202
 7494SOL     OW23380   6.202   1.016   2.125
 7494SOL    HW123381   6.198   1.005   2.225
 7494SOL    HW223382   6.136   0.954   2.082
 7495SOL     OW23383   1.453   3.405   4.394
 7495SOL    HW123384   1.490   3.312   4.384
 7495SOL    HW223385   1.462   3.434   4.489
 7496SOL     OW23386   5.886   2.872   3.374
 7496SOL    HW123387   5.849   2.964   3.377
 7496SOL    HW223388   5.884   2.832   3.466
 7497SOL     OW23389   6.244   0.336   1.430
 7497SOL    HW123390   6.271   0.251   1.385
 7497SOL    HW223391   6.242   0.321   1.529
 7498SOL     OW23392   2.027   6.470   3.280
 7498SOL    HW123393   2.073   6.534   3.342
 7498SOL    HW223394   2.003   6.386   3.330
 7499SOL     OW23395   2.966   1.275   3.371
 7499SOL    HW123396   2.883   1.326   3.346
 7499SOL    HW223397   3.046   1.320   3.331
 7500SOL     OW23398   3.525   1.095   4.584
 7500SOL    HW123399   3.479   1.053   4.662
 7500SOL    HW223400   3.457   1.117   4.514
 7501SOL     OW23401   5.924   2.226   3.428
 7501SOL    HW123402   5.902   2.240   3.331
 7501SOL    HW223403   5.846   2.256   3.484
 7502SOL     OW23404   3.686   1.164   3.438
 7502SOL    HW123405   3.771   1.118   3.461
 7502SOL    HW223406   3.634   1.108   3.372
 7503SOL     OW23407   1.205   5.898   0.932
 7503SOL    HW123408   1.288   5.842   0.924
 7503SOL    HW223409   1.128   5.849   0.891
 7504SOL     OW23410   5.655   6.095   4.562
 7504SOL    HW123411   5.582   6.095   4.494
 7504SOL    HW223412   5.616   6.080   4.653
 7505SOL     OW23413   0.819   6.575   5.992
 7505SOL    HW123414   0.737   6.517   5.995
 7505SOL    HW223415   0.791   6.671   5.995
 7506SOL     OW23416   3.774   2.117   4.396
 7506SOL    HW123417   3.728   2.117   4.485
 7506SOL    HW223418   3.849   2.184   4.397
 7507SOL     OW23419   6.965   3.677   6.233
 7507SOL    HW123420   6.912   3.760   6.218
 7507SOL    HW223421   0.043   3.697   6.221
 7508SOL     OW23422   3.485   6.406   6.954
 7508SOL    HW123423   3.386   6.411   6.949
 7508SOL    HW223424   3.521   6.490   6.994
 7509SOL     OW23425   5.770   4.101   2.827
 7509SOL    HW123426   5.725   4.036   2.889
 7509SOL    HW223427   5.763   4.069   2.733
 7510SOL     OW23428   3.332   4.812   1.166
 7510SOL    HW123429   3.366   4.895   1.122
 7510SOL    HW223430   3.401   4.777   1.229
 7511SOL     OW23431   4.763   5.803   3.572
 7511SOL    HW123432   4.773   5.901   3.552
 7511SOL    HW223433   4.706   5.760   3.502
 7512SOL     OW23434   4.219   6.540   1.077
 7512SOL    HW123435   4.299   6.484   1.058
 7512SOL    HW223436   4.137   6.492   1.047
 7513SOL     OW23437   0.543   0.358   2.430
 7513SOL    HW123438   0.537   0.280   2.493
 7513SOL    HW223439   0.591   0.329   2.347
 7514SOL     OW23440   0.080   0.449   0.681
 7514SOL    HW123441   0.092   0.363   0.732
 7514SOL    HW223442   0.169   0.493   0.669
 7515SOL     OW23443   7.015   4.689   4.838
 7515SOL    HW123444   6.920   4.664   4.821
 7515SOL    HW223445   0.002   4.788   4.852
 7516SOL     OW23446   1.916   6.004   5.009
 7516SOL    HW123447   1.956   5.916   4.986
 7516SOL    HW223448   1.818   5.994   5.026
 7517SOL     OW23449   0.378   2.550   0.251
 7517SOL    HW123450   0.414   2.623   0.194
 7517SOL    HW223451   0.361   2.469   0.195
 7518SOL     OW23452   4.123   2.030   4.497
 7518SOL    HW123453   4.207   1.976   4.508
 7518SOL    HW223454   4.051   1.991   4.555
 7519SOL     OW23455   3.210   6.449   4.937
 7519SOL    HW123456   3.196   6.459   5.035
 7519SOL    HW223457   3.125   6.469   4.889
 7520SOL     OW23458   2.157   0.772   1.121
 7520SOL    HW123459   2.060   0.775   1.095
 7520SOL    HW223460   2.214   0.788   1.040
 7521SOL     OW23461   4.160   1.594   5.728
 7521SOL    HW123462   4.251   1.555   5.712
 7521SOL    HW223463   4.163   1.692   5.709
 7522SOL     OW23464   1.603   6.631   4.235
 7522SOL    HW123465   1.624   6.714   4.288
 7522SOL    HW223466   1.681   6.608   4.177
 7523SOL     OW23467   5.447   1.655   6.776
 7523SOL    HW123468   5.546   1.671   6.781
 7523SOL    HW223469   5.417   1.610   6.861
 7524SOL     OW23470   0.390   3.593   4.862
 7524SOL    HW123471   0.356   3.635   4.778
 7524SOL    HW223472   0.433   3.663   4.919
 7525SOL     OW23473   1.914   4.513   5.539
 7525SOL    HW123474   1.999   4.469   5.509
 7525SOL    HW223475   1.934   4.572   5.617
 7526SOL     OW23476   1.097   4.606   0.592
 7526SOL    HW123477   1.034   4.528   0.590
 7526SOL    HW223478   1.187   4.576   0.623
 7527SOL     OW23479   2.802   5.490   2.231
 7527SOL    HW123480   2.838   5.464   2.142
 7527SOL    HW223481   2.868   5.465   2.302
 7528SOL     OW23482   6.453   2.839   6.825
 7528SOL    HW123483   6.392   2.763   6.803
 7528SOL    HW223484   6.399   2.918   6.853
 7529SOL     OW23485   5.814   3.116   4.743
 7529SOL    HW123486   5.823   3.034   4.800
 7529SOL    HW223487   5.905   3.154   4.723
 7530SOL     OW23488   1.234   2.684   3.256
 7530SOL    HW123489   1.321   2.733   3.251
 7530SOL    HW223490   1.186   2.709   3.340
 7531SOL     OW23491   4.054   1.838   3.934
 7531SOL    HW123492   3.993   1.787   3.873
 7531SOL    HW223493   4.106   1.905   3.881
 7532SOL     OW23494   4.451   5.011   6.445
 7532SOL    HW123495   4.441   4.921   6.404
 7532SOL    HW223496   4.526   5.009   6.512
 7533SOL     OW23497   4.440   4.750   1.399
 7533SOL    HW123498   4.503   4.731   1.324
 7533SOL    HW223499   4.440   4.672   1.462
 7534SOL     OW23500   4.449   6.234   5.173
 7534SOL    HW123501   4.482   6.318   5.216
 7534SOL    HW223502   4.407   6.255   5.085
 7535SOL     OW23503   0.478   6.795   4.432
 7535SOL    HW123504   0.559   6.770   4.485
 7535SOL    HW223505   0.414   6.717   4.432
 7536SOL     OW23506   6.125   6.940   2.762
 7536SOL    HW123507   6.050   7.006   2.762
 7536SOL    HW223508   6.103   6.866   2.826
 7537SOL     OW23509   2.082   0.419   2.308
 7537SOL    HW123510   2.011   0.375   2.253
 7537SOL    HW223511   2.172   0.381   2.283
 7538SOL     OW23512   6.893   4.803   7.000
 7538SOL    HW123513   6.825   4.749   0.032
 7538SOL    HW223514   6.971   4.821   0.040
 7539SOL     OW23515   6.589   0.440   4.995
 7539SOL    HW123516   6.596   0.372   4.922
 7539SOL    HW223517   6.534   0.517   4.963
 7540SOL     OW23518   5.124   3.738   3.489
 7540SOL    HW123519   5.168   3.660   3.445
 7540SOL    HW223520   5.194   3.805   3.514
 7541SOL     OW23521   2.366   4.017   0.250
 7541SOL    HW123522   2.290   4.081   0.261
 7541SOL    HW223523   2.389   4.008   0.153
 7542SOL     OW23524   6.179   5.789   4.897
 7542SOL    HW123525   6.242   5.773   4.821
 7542SOL    HW223526   6.101   5.844   4.865
 7543SOL     OW23527   2.180   1.106   1.272
 7543SOL    HW123528   2.096   1.082   1.224
 7543SOL    HW223529   2.179   1.203   1.296
 7544SOL     OW23530   5.718   1.452   5.363
 7544SOL    HW123531   5.693   1.546   5.340
 7544SOL    HW223532   5.797   1.424   5.309
 7545SOL     OW23533   1.458   5.384   5.233
 7545SOL    HW123534   1.513   5.432   5.302
 7545SOL    HW223535   1.437   5.292   5.267
 7546SOL     OW23536   2.683   2.581   1.748
 7546SOL    HW123537   2.650   2.542   1.662
 7546SOL    HW223538   2.611   2.575   1.817
 7547SOL     OW23539   4.197   7.015   2.462
 7547SOL    HW123540   4.198   0.058   2.541
 7547SOL    HW223541   4.122   0.022   2.400
 7548SOL     OW23542   2.585   1.914   6.273
 7548SOL    HW123543   2.578   1.839   6.339
 7548SOL    HW223544   2.517   1.984   6.295
 7549SOL     OW23545   4.858   0.550   4.146
 7549SOL    HW123546   4.847   0.646   4.171
 7549SOL    HW223547   4.778   0.519   4.095
 7550SOL     OW23548   2.021   5.798   4.911
 7550SOL    HW123549   2.062   5.778   4.822
 7550SOL    HW223550   1.953   5.728   4.933
 7551SOL     OW23551   6.347   3.247   6.300
 7551SOL    HW123552   6.434   3.196   6.298
 7551SOL    HW223553   6.359   3.331   6.353
 7552SOL     OW23554   2.587   6.608   4.755
 7552SOL    HW123555   2.529   6.541   4.802
 7552SOL    HW223556   2.603   6.686   4.814
 7553SOL     OW23557   6.484   6.898   5.850
 7553SOL    HW123558   6.533   6.916   5.765
 7553SOL    HW223559   6.545   6.853   5.916
 7554SOL     OW23560   5.242   1.484   1.443
 7554SOL    HW123561   5.233   1.415   1.372
 7554SOL    HW223562   5.188   1.457   1.523
 7555SOL     OW23563   4.443   5.456   4.263
 7555SOL    HW123564   4.454   5.413   4.173
 7555SOL    HW223565   4.502   5.410   4.329
 7556SOL     OW23566   1.030   6.161   0.671
 7556SOL    HW123567   1.013   6.067   0.700
 7556SOL    HW223568   1.114   6.195   0.713
 7557SOL     OW23569   4.386   6.274   0.996
 7557SOL    HW123570   4.357   6.200   1.057
 7557SOL    HW223571   4.484   6.290   1.006
 7558SOL     OW23572   0.749   1.495   3.708
 7558SOL    HW123573   0.680   1.432   3.671
 7558SOL    HW223574   0.737   1.585   3.666
 7559SOL     OW23575   2.075   0.168   5.222
 7559SOL    HW123576   2.145   0.201   5.158
 7559SOL    HW223577   2.035   0.083   5.187
 7560SOL     OW23578   0.927   0.546   5.584
 7560SOL    HW123579   0.970   0.631   5.554
 7560SOL    HW223580   0.957   0.524   5.676
 7561SOL     OW23581   5.268   1.347   5.286
 7561SOL    HW123582   5.250   1.276   5.354
 7561SOL    HW223583   5.184   1.365   5.235
 7562SOL     OW23584   1.665   5.709   3.797
 7562SOL    HW123585   1.647   5.798   3.757
 7562SOL    HW223586   1.760   5.683   3.778
 7563SOL     OW23587   2.743   6.331   3.377
 7563SOL    HW123588   2.712   6.426   3.388
 7563SOL    HW223589   2.816   6.327   3.309
 7564SOL     OW23590   4.666   3.036   6.051
 7564SOL    HW123591   4.637   2.975   5.977
 7564SOL    HW223592   4.604   3.028   6.128
 7565SOL     OW23593   6.583   3.405   5.579
 7565SOL    HW123594   6.541   3.351   5.652
 7565SOL    HW223595   6.552   3.500   5.587
 7566SOL     OW23596   4.807   4.262   1.663
 7566SOL    HW123597   4.892   4.258   1.611
 7566SOL    HW223598   4.828   4.261   1.761
 7567SOL     OW23599   1.465   0.396   3.267
 7567SOL    HW123600   1.455   0.414   3.169
 7567SOL    HW223601   1.415   0.313   3.291
 7568SOL     OW23602   7.001   3.932   0.752
 7568SOL    HW123603   6.901   3.926   0.746
 7568SOL    HW223604   0.007   4.016   0.800
 7569SOL     OW23605   4.410   3.769   1.432
 7569SOL    HW123606   4.328   3.796   1.381
 7569SOL    HW223607   4.398   3.790   1.529
 7570SOL     OW23608   1.249   2.674   2.043
 7570SOL    HW123609   1.203   2.606   1.985
 7570SOL    HW223610   1.208   2.673   2.134
 7571SOL     OW23611   4.909   1.629   3.414
 7571SOL    HW123612   4.951   1.623   3.324
 7571SOL    HW223613   4.831   1.692   3.411
 7572SOL     OW23614   4.558   6.617   3.112
 7572SOL    HW123615   4.625   6.660   3.052
 7572SOL    HW223616   4.502   6.553   3.060
 7573SOL     OW23617   3.710   0.195   6.224
 7573SOL    HW123618   3.620   0.191   6.267
 7573SOL    HW223619   3.709   0.143   6.139
 7574SOL     OW23620   0.813   3.372   3.511
 7574SOL    HW123621   0.731   3.420   3.542
 7574SOL    HW223622   0.825   3.385   3.413
 7575SOL     OW23623   0.150   0.153   0.498
 7575SOL    HW123624   0.219   0.115   0.559
 7575SOL    HW223625   0.069   0.178   0.552
 7576SOL     OW23626   4.617   2.614   0.359
 7576SOL    HW123627   4.693   2.550   0.347
 7576SOL    HW223628   4.609   2.639   0.455
 7577SOL     OW23629   0.012   0.386   6.560
 7577SOL    HW123630   0.045   0.312   6.501
 7577SOL    HW223631   7.007   0.348   6.650
 7578SOL     OW23632   6.095   5.735   2.915
 7578SOL    HW123633   6.021   5.782   2.964
 7578SOL    HW223634   6.063   5.645   2.886
 7579SOL     OW23635   1.634   1.751   6.871
 7579SOL    HW123636   1.651   1.658   6.838
 7579SOL    HW223637   1.559   1.792   6.819
 7580SOL     OW23638   2.030   5.116   2.731
 7580SOL    HW123639   1.942   5.148   2.695
 7580SOL    HW223640   2.055   5.031   2.687
 7581SOL     OW23641   0.413   0.119   0.827
 7581SOL    HW123642   0.439   0.181   0.900
 7581SOL    HW223643   0.438   0.025   0.851
 7582SOL     OW23644   1.997   1.321   6.110
 7582SOL    HW123645   1.949   1.305   6.196
 7582SOL    HW223646   1.939   1.373   6.047
 7583SOL     OW23647   5.572   3.483   2.245
 7583SOL    HW123648   5.564   3.395   2.199
 7583SOL    HW223649   5.482   3.526   2.251
 7584SOL     OW23650   0.054   1.090   3.371
 7584SOL    HW123651   0.133   1.031   3.361
 7584SOL    HW223652   7.006   1.070   3.299
 7585SOL     OW23653   1.344   1.214   5.718
 7585SOL    HW123654   1.353   1.305   5.678
 7585SOL    HW223655   1.327   1.222   5.817
 7586SOL     OW23656   1.725   6.612   3.933
 7586SOL    HW123657   1.667   6.675   3.882
 7586SOL    HW223658   1.803   6.585   3.877
 7587SOL     OW23659   5.292   6.893   2.050
 7587SOL    HW123660   5.330   6.907   1.959
 7587SOL    HW223661   5.331   6.960   2.113
 7588SOL     OW23662   2.113   3.424   4.828
 7588SOL    HW123663   2.024   3.440   4.786
 7588SOL    HW223664   2.171   3.504   4.815
 7589SOL     OW23665   6.749   0.090   2.589
 7589SOL    HW123666   6.764   0.054   2.681
 7589SOL    HW223667   6.687   0.169   2.595
 7590SOL     OW23668   5.834   0.985   0.078
 7590SOL    HW123669   5.763   0.920   0.105
 7590SOL    HW223670   5.906   0.936   0.027
 7591SOL     OW23671   3.225   4.059   5.051
 7591SOL    HW123672   3.284   4.109   4.988
 7591SOL    HW223673   3.279   3.992   5.101
 7592SOL     OW23674   0.375   6.427   3.269
 7592SOL    HW123675   0.277   6.440   3.283
 7592SOL    HW223676   0.404   6.342   3.313
 7593SOL     OW23677   6.689   1.594   6.200
 7593SOL    HW123678   6.754   1.569   6.129
 7593SOL    HW223679   6.596   1.568   6.171
 7594SOL     OW23680   6.830   3.892   6.124
 7594SOL    HW123681   6.819   3.986   6.155
 7594SOL    HW223682   6.828   3.890   6.024
 7595SOL     OW23683   0.254   3.146   0.007
 7595SOL    HW123684   0.179   3.103   0.058
 7595SOL    HW223685   0.328   3.080   7.014
 7596SOL     OW23686   3.265   1.569   6.816
 7596SOL    HW123687   3.178   1.562   6.767
 7596SOL    HW223688   3.323   1.638   6.770
 7597SOL     OW23689   2.464   4.560   0.920
 7597SOL    HW123690   2.413   4.538   1.003
 7597SOL    HW223691   2.407   4.617   0.860
 7598SOL     OW23692   5.198   0.451   1.872
 7598SOL    HW123693   5.129   0.496   1.815
 7598SOL    HW223694   5.272   0.515   1.891
 7599SOL     OW23695   3.218   3.276   0.010
 7599SOL    HW123696   3.189   3.369   7.007
 7599SOL    HW223697   3.137   3.217   0.018
 7600SOL     OW23698   0.912   6.791   3.774
 7600SOL    HW123699   0.878   6.883   3.756
 7600SOL    HW223700   0.837   6.733   3.805
 7601SOL     OW23701   3.229   6.599   1.334
 7601SOL    HW123702   3.161   6.644   1.275
 7601SOL    HW223703   3.246   6.656   1.414
 7602SOL     OW23704   0.192   1.257   1.257
 7602SOL    HW123705   0.192   1.285   1.161
 7602SOL    HW223706   0.279   1.282   1.299
 7603SOL     OW23707   4.415   1.152   6.612
 7603SOL    HW123708   4.376   1.243   6.598
 7603SOL    HW223709   4.344   1.083   6.598
 7604SOL     OW23710   2.638   2.407   5.039
 7604SOL    HW123711   2.550   2.449   5.016
 7604SOL    HW223712   2.686   2.383   4.954
 7605SOL     OW23713   2.986   5.612   0.271
 7605SOL    HW123714   3.071   5.570   0.303
 7605SOL    HW223715   2.997   5.642   0.176
 7606SOL     OW23716   6.182   0.365   3.189
 7606SOL    HW123717   6.192   0.295   3.118
 7606SOL    HW223718   6.169   0.454   3.147
 7607SOL     OW23719   1.964   5.856   5.928
 7607SOL    HW123720   2.030   5.928   5.907
 7607SOL    HW223721   1.997   5.802   6.006
 7608SOL     OW23722   0.279   2.548   6.103
 7608SOL    HW123723   0.239   2.635   6.073
 7608SOL    HW223724   0.209   2.494   6.151
 7609SOL     OW23725   2.974   0.212   5.144
 7609SOL    HW123726   2.976   0.202   5.044
 7609SOL    HW223727   3.056   0.260   5.174
 7610SOL     OW23728   4.234   5.150   4.104
 7610SOL    HW123729   4.231   5.222   4.174
 7610SOL    HW223730   4.197   5.065   4.142
 7611SOL     OW23731   4.117   2.226   0.295
 7611SOL    HW123732   4.073   2.146   0.335
 7611SOL    HW223733   4.216   2.221   0.309
 7612SOL     OW23734   4.526   2.260   2.274
 7612SOL    HW123735   4.532   2.171   2.229
 7612SOL    HW223736   4.609   2.312   2.256
 7613SOL     OW23737   0.150   0.902   7.012
 7613SOL    HW123738   0.133   0.816   0.041
 7613SOL    HW223739   0.105   0.900   6.923
 7614SOL     OW23740   5.919   5.351   6.624
 7614SOL    HW123741   5.985   5.340   6.549
 7614SOL    HW223742   5.879   5.263   6.647
 7615SOL     OW23743   4.695   2.771   6.271
 7615SOL    HW123744   4.747   2.842   6.319
 7615SOL    HW223745   4.665   2.701   6.336
 7616SOL     OW23746   6.381   6.651   1.918
 7616SOL    HW123747   6.476   6.644   1.947
 7616SOL    HW223748   6.333   6.715   1.978
 7617SOL     OW23749   6.136   4.229   3.449
 7617SOL    HW123750   6.138   4.276   3.360
 7617SOL    HW223751   6.229   4.203   3.474
 7618SOL     OW23752   2.734   2.304   0.082
 7618SOL    HW123753   2.828   2.278   0.060
 7618SOL    HW223754   2.729   2.336   0.176
 7619SOL     OW23755   0.592   0.529   5.114
 7619SOL    HW123756   0.625   0.559   5.203
 7619SOL    HW223757   0.535   0.601   5.074
 7620SOL     OW23758   3.499   4.128   0.196
 7620SOL    HW123759   3.443   4.188   0.138
 7620SOL    HW223760   3.479   4.146   0.292
 7621SOL     OW23761   6.114   4.852   0.434
 7621SOL    HW123762   6.170   4.797   0.373
 7621SOL    HW223763   6.172   4.916   0.485
 7622SOL     OW23764   2.632   4.292   1.259
 7622SOL    HW123765   2.549   4.246   1.291
 7622SOL    HW223766   2.693   4.309   1.337
 7623SOL     OW23767   5.024   4.418   2.817
 7623SOL    HW123768   5.075   4.346   2.769
 7623SOL    HW223769   5.088   4.475   2.869
 7624SOL     OW23770   6.890   2.959   2.669
 7624SOL    HW123771   6.988   2.943   2.658
 7624SOL    HW223772   6.857   2.910   2.750
 7625SOL     OW23773   5.154   0.165   1.841
 7625SOL    HW123774   5.097   0.137   1.764
 7625SOL    HW223775   5.151   0.265   1.850
 7626SOL     OW23776   4.560   6.257   0.153
 7626SOL    HW123777   4.557   6.313   0.070
 7626SOL    HW223778   4.648   6.210   0.158
 7627SOL     OW23779   4.269   2.619   5.807
 7627SOL    HW123780   4.217   2.621   5.722
 7627SOL    HW223781   4.335   2.694   5.807
 7628SOL     OW23782   3.441   2.606   0.862
 7628SOL    HW123783   3.342   2.615   0.849
 7628SOL    HW223784   3.482   2.697   0.870
 7629SOL     OW23785   5.551   2.761   3.412
 7629SOL    HW123786   5.485   2.832   3.437
 7629SOL    HW223787   5.546   2.745   3.313
 7630SOL     OW23788   1.248   6.077   3.761
 7630SOL    HW123789   1.247   6.174   3.736
 7630SOL    HW223790   1.218   6.067   3.856
 7631SOL     OW23791   1.334   1.132   6.442
 7631SOL    HW123792   1.384   1.073   6.378
 7631SOL    HW223793   1.351   1.228   6.420
 7632SOL     OW23794   4.192   5.457   1.523
 7632SOL    HW123795   4.111   5.415   1.482
 7632SOL    HW223796   4.203   5.550   1.488
 7633SOL     OW23797   5.193   0.623   1.515
 7633SOL    HW123798   5.264   0.677   1.469
 7633SOL    HW223799   5.132   0.685   1.565
 7634SOL     OW23800   0.414   2.164   6.743
 7634SOL    HW123801   0.402   2.070   6.775
 7634SOL    HW223802   0.489   2.167   6.676
 7635SOL     OW23803   1.173   3.070   5.600
 7635SOL    HW123804   1.259   3.024   5.623
 7635SOL    HW223805   1.182   3.116   5.511
 7636SOL     OW23806   6.669   2.927   3.379
 7636SOL    HW123807   6.570   2.924   3.392
 7636SOL    HW223808   6.700   2.841   3.338
 7637SOL     OW23809   1.317   3.639   5.336
 7637SOL    HW123810   1.385   3.712   5.325
 7637SOL    HW223811   1.354   3.567   5.395
 7638SOL     OW23812   0.594   6.539   1.025
 7638SOL    HW123813   0.583   6.637   1.038
 7638SOL    HW223814   0.607   6.494   1.113
 7639SOL     OW23815   2.472   6.424   0.475
 7639SOL    HW123816   2.451   6.346   0.416
 7639SOL    HW223817   2.517   6.495   0.421
 7640SOL     OW23818   3.258   0.334   0.848
 7640SOL    HW123819   3.166   0.308   0.820
 7640SOL    HW223820   3.311   0.363   0.768
 7641SOL     OW23821   6.505   4.803   4.729
 7641SOL    HW123822   6.529   4.880   4.789
 7641SOL    HW223823   6.462   4.731   4.783
 7642SOL     OW23824   5.772   1.110   3.730
 7642SOL    HW123825   5.813   1.201   3.725
 7642SOL    HW223826   5.695   1.112   3.795
 7643SOL     OW23827   4.973   2.083   4.094
 7643SOL    HW123828   4.920   2.005   4.128
 7643SOL    HW223829   5.042   2.050   4.030
 7644SOL     OW23830   5.319   3.674   0.437
 7644SOL    HW123831   5.364   3.758   0.467
 7644SOL    HW223832   5.353   3.650   0.346
 7645SOL     OW23833   4.979   5.180   6.400
 7645SOL    HW123834   4.922   5.098   6.388
 7645SOL    HW223835   4.927   5.249   6.450
 7646SOL     OW23836   6.213   1.927   2.077
 7646SOL    HW123837   6.293   1.983   2.101
 7646SOL    HW223838   6.158   1.910   2.159
 7647SOL     OW23839   6.884   1.786   4.115
 7647SOL    HW123840   6.952   1.715   4.099
 7647SOL    HW223841   6.854   1.825   4.028
 7648SOL     OW23842   1.633   2.536   0.836
 7648SOL    HW123843   1.562   2.526   0.766
 7648SOL    HW223844   1.600   2.496   0.922
 7649SOL     OW23845   4.035   0.571   0.105
 7649SOL    HW123846   3.960   0.586   0.041
 7649SOL    HW223847   4.069   0.659   0.138
 7650SOL     OW23848   3.497   2.519   0.399
 7650SOL    HW123849   3.497   2.519   0.299
 7650SOL    HW223850   3.451   2.437   0.432
 7651SOL     OW23851   3.716   5.557   6.381
 7651SOL    HW123852   3.732   5.635   6.441
 7651SOL    HW223853   3.699   5.590   6.287
 7652SOL     OW23854   0.451   0.956   5.288
 7652SOL    HW123855   0.547   0.930   5.300
 7652SOL    HW223856   0.394   0.873   5.289
 7653SOL     OW23857   1.673   6.702   6.541
 7653SOL    HW123858   1.577   6.712   6.514
 7653SOL    HW223859   1.707   6.788   6.579
 7654SOL     OW23860   6.539   2.568   5.608
 7654SOL    HW123861   6.531   2.626   5.690
 7654SOL    HW223862   6.620   2.595   5.557
 7655SOL     OW23863   2.937   1.722   5.120
 7655SOL    HW123864   3.028   1.747   5.154
 7655SOL    HW223865   2.904   1.793   5.057
 7656SOL     OW23866   6.218   3.784   0.048
 7656SOL    HW123867   6.285   3.856   0.031
 7656SOL    HW223868   6.136   3.800   7.012
 7657SOL     OW23869   1.242   3.543   4.715
 7657SOL    HW123870   1.333   3.558   4.676
 7657SOL    HW223871   1.178   3.519   4.642
 7658SOL     OW23872   2.942   0.524   1.105
 7658SOL    HW123873   2.894   0.437   1.119
 7658SOL    HW223874   3.019   0.531   1.168
 7659SOL     OW23875   5.700   3.803   5.187
 7659SOL    HW123876   5.761   3.780   5.112
 7659SOL    HW223877   5.723   3.894   5.222
 7660SOL     OW23878   0.212   6.353   5.123
 7660SOL    HW123879   0.226   6.452   5.132
 7660SOL    HW223880   0.300   6.307   5.128
 7661SOL     OW23881   2.186   0.550   4.915
 7661SOL    HW123882   2.092   0.530   4.886
 7661SOL    HW223883   2.236   0.593   4.840
 7662SOL     OW23884   6.910   6.601   1.225
 7662SOL    HW123885   6.993   6.562   1.266
 7662SOL    HW223886   6.914   6.700   1.231
 7663SOL     OW23887   1.215   5.878   4.278
 7663SOL    HW123888   1.165   5.964   4.262
 7663SOL    HW223889   1.163   5.820   4.339
 7664SOL     OW23890   5.856   2.109   2.785
 7664SOL    HW123891   5.840   2.011   2.781
 7664SOL    HW223892   5.778   2.157   2.744
 7665SOL     OW23893   2.271   0.004   5.422
 7665SOL    HW123894   2.298   6.943   5.370
 7665SOL    HW223895   2.204   0.057   5.371
 7666SOL     OW23896   6.172   5.321   4.035
 7666SOL    HW123897   6.181   5.223   4.014
 7666SOL    HW223898   6.168   5.373   3.950
 7667SOL     OW23899   4.458   5.119   1.422
 7667SOL    HW123900   4.426   5.064   1.499
 7667SOL    HW223901   4.380   5.168   1.382
 7668SOL     OW23902   1.568   5.756   0.250
 7668SOL    HW123903   1.628   5.799   0.317
 7668SOL    HW223904   1.551   5.820   0.175
 7669SOL     OW23905   3.492   2.093   6.423
 7669SOL    HW123906   3.443   2.077   6.337
 7669SOL    HW223907   3.526   2.006   6.458
 7670SOL     OW23908   1.081   0.174   0.519
 7670SOL    HW123909   1.173   0.213   0.517
 7670SOL    HW223910   1.087   0.074   0.520
 7671SOL     OW23911   4.103   0.723   1.566
 7671SOL    HW123912   4.086   0.632   1.603
 7671SOL    HW223913   4.020   0.758   1.523
 7672SOL     OW23914   5.556   3.167   2.181
 7672SOL    HW123915   5.619   3.152   2.106
 7672SOL    HW223916   5.603   3.154   2.268
 7673SOL     OW23917   2.344   6.726   5.344
 7673SOL    HW123918   2.374   6.668   5.420
 7673SOL    HW223919   2.245   6.720   5.334
 7674SOL     OW23920   3.323   5.613   3.806
 7674SOL    HW123921   3.338   5.515   3.792
 7674SOL    HW223922   3.299   5.657   3.720
 7675SOL     OW23923   3.896   6.172   3.298
 7675SOL    HW123924   3.884   6.127   3.387
 7675SOL    HW223925   3.822   6.237   3.283
 7676SOL     OW23926   3.033   3.379   4.589
 7676SOL    HW123927   3.037   3.282   4.616
 7676SOL    HW223928   2.959   3.424   4.641
 7677SOL     OW23929   0.613   6.444   6.915
 7677SOL    HW123930   0.632   6.522   6.856
 7677SOL    HW223931   0.518   6.416   6.904
 7678SOL     OW23932   3.486   1.173   5.275
 7678SOL    HW123933   3.460   1.097   5.334
 7678SOL    HW223934   3.404   1.212   5.232
 7679SOL     OW23935   3.103   5.313   4.136
 7679SOL    HW123936   3.198   5.313   4.105
 7679SOL    HW223937   3.069   5.219   4.143
 7680SOL     OW23938   1.345   6.688   4.116
 7680SOL    HW123939   1.431   6.678   4.167
 7680SOL    HW223940   1.310   6.598   4.092
 7681SOL     OW23941   1.926   2.074   5.513
 7681SOL    HW123942   1.973   2.022   5.442
 7681SOL    HW223943   1.827   2.063   5.504
 7682SOL     OW23944   3.565   0.572   1.860
 7682SOL    HW123945   3.635   0.504   1.882
 7682SOL    HW223946   3.606   0.663   1.864
 7683SOL     OW23947   1.163   4.326   4.986
 7683SOL    HW123948   1.244   4.379   5.008
 7683SOL    HW223949   1.097   4.332   5.062
 7684SOL     OW23950   4.870   3.629   1.774
 7684SOL    HW123951   4.787   3.683   1.790
 7684SOL    HW223952   4.847   3.547   1.721
 7685SOL     OW23953   2.559   0.017   0.365
 7685SOL    HW123954   2.549   0.112   0.394
 7685SOL    HW223955   2.488   6.980   0.408
 7686SOL     OW23956   6.003   0.524   4.448
 7686SOL    HW123957   6.030   0.543   4.353
 7686SOL    HW223958   5.984   0.426   4.457
 7687SOL     OW23959   5.758   3.387   5.784
 7687SOL    HW123960   5.779   3.342   5.697
 7687SOL    HW223961   5.843   3.418   5.827
 7688SOL     OW23962   6.802   3.141   0.310
 7688SOL    HW123963   6.856   3.063   0.342
 7688SOL    HW223964   6.712   3.139   0.352
 7689SOL     OW23965   5.437   0.344   2.786
 7689SOL    HW123966   5.393   0.259   2.754
 7689SOL    HW223967   5.464   0.399   2.707
 7690SOL     OW23968   6.317   4.430   2.570
 7690SOL    HW123969   6.353   4.523   2.578
 7690SOL    HW223970   6.283   4.400   2.660
 7691SOL     OW23971   4.956   2.621   3.964
 7691SOL    HW123972   5.005   2.675   4.032
 7691SOL    HW223973   4.859   2.647   3.963
 7692SOL     OW23974   2.486   6.751   2.171
 7692SOL    HW123975   2.393   6.787   2.175
 7692SOL    HW223976   2.492   6.669   2.228
 7693SOL     OW23977   2.430   2.157   1.011
 7693SOL    HW123978   2.393   2.250   1.010
 7693SOL    HW223979   2.474   2.139   1.099
 7694SOL     OW23980   4.297   2.606   1.150
 7694SOL    HW123981   4.237   2.577   1.225
 7694SOL    HW223982   4.267   2.564   1.065
 7695SOL     OW23983   5.094   6.801   4.090
 7695SOL    HW123984   5.065   6.858   4.013
 7695SOL    HW223985   5.157   6.730   4.057
 7696SOL     OW23986   2.529   1.517   5.671
 7696SOL    HW123987   2.440   1.531   5.628
 7696SOL    HW223988   2.521   1.444   5.739
 7697SOL     OW23989   5.745   6.862   2.946
 7697SOL    HW123990   5.675   6.790   2.941
 7697SOL    HW223991   5.836   6.822   2.936
 7698SOL     OW23992   5.889   2.518   1.572
 7698SOL    HW123993   5.819   2.472   1.517
 7698SOL    HW223994   5.898   2.472   1.660
 7699SOL     OW23995   3.860   6.111   6.207
 7699SOL    HW123996   3.778   6.054   6.214
 7699SOL    HW223997   3.871   6.164   6.291
 7700SOL     OW23998   6.472   5.355   1.963
 7700SOL    HW123999   6.537   5.430   1.948
 7700SOL    HW224000   6.511   5.290   2.028
 7701SOL     OW24001   3.158   1.635   6.566
 7701SOL    HW124002   3.125   1.558   6.512
 7701SOL    HW224003   3.093   1.710   6.561
 7702SOL     OW24004   6.244   6.037   5.877
 7702SOL    HW124005   6.149   6.050   5.905
 7702SOL    HW224006   6.266   5.939   5.876
 7703SOL     OW24007   0.381   6.374   6.440
 7703SOL    HW124008   0.459   6.388   6.501
 7703SOL    HW224009   0.377   6.449   6.374
 7704SOL     OW24010   1.484   2.173   4.712
 7704SOL    HW124011   1.394   2.145   4.677
 7704SOL    HW224012   1.507   2.117   4.792
 7705SOL     OW24013   0.893   4.633   0.223
 7705SOL    HW124014   0.836   4.572   0.169
 7705SOL    HW224015   0.884   4.610   0.320
 7706SOL     OW24016   3.078   4.059   2.030
 7706SOL    HW124017   3.049   4.151   2.056
 7706SOL    HW224018   3.069   3.998   2.109
 7707SOL     OW24019   0.325   5.324   5.833
 7707SOL    HW124020   0.275   5.410   5.842
 7707SOL    HW224021   0.414   5.332   5.879
 7708SOL     OW24022   0.496   0.256   4.326
 7708SOL    HW124023   0.594   0.274   4.314
 7708SOL    HW224024   0.445   0.308   4.257
 7709SOL     OW24025   6.258   4.984   0.724
 7709SOL    HW124026   6.351   5.016   0.744
 7709SOL    HW224027   6.197   5.062   0.714
 7710SOL     OW24028   6.184   3.287   2.624
 7710SOL    HW124029   6.264   3.345   2.605
 7710SOL    HW224030   6.171   3.222   2.549
 7711SOL     OW24031   1.132   4.437   3.385
 7711SOL    HW124032   1.210   4.466   3.441
 7711SOL    HW224033   1.110   4.342   3.406
 7712SOL     OW24034   1.076   4.508   4.405
 7712SOL    HW124035   1.054   4.605   4.402
 7712SOL    HW224036   1.171   4.496   4.434
 7713SOL     OW24037   1.069   5.836   0.452
 7713SOL    HW124038   1.055   5.910   0.386
 7713SOL    HW224039   1.162   5.800   0.443
 7714SOL     OW24040   5.662   1.795   4.976
 7714SOL    HW124041   5.609   1.711   4.967
 7714SOL    HW224042   5.746   1.787   4.921
 7715SOL     OW24043   3.712   3.797   6.498
 7715SOL    HW124044   3.776   3.862   6.458
 7715SOL    HW224045   3.698   3.720   6.437
 7716SOL     OW24046   1.662   1.175   6.768
 7716SOL    HW124047   1.636   1.270   6.781
 7716SOL    HW224048   1.580   1.119   6.755
 7717SOL     OW24049   0.700   1.539   5.771
 7717SOL    HW124050   0.698   1.452   5.819
 7717SOL    HW224051   0.725   1.613   5.834
 7718SOL     OW24052   0.222   3.797   3.339
 7718SOL    HW124053   0.177   3.868   3.286
 7718SOL    HW224054   0.249   3.833   3.428
 7719SOL     OW24055   2.103   6.297   5.010
 7719SOL    HW124056   2.007   6.320   4.993
 7719SOL    HW224057   2.151   6.290   4.923
 7720SOL     OW24058   4.471   1.478   6.349
 7720SOL    HW124059   4.533   1.551   6.376
 7720SOL    HW224060   4.522   1.406   6.302
 7721SOL     OW24061   6.002   5.487   2.868
 7721SOL    HW124062   6.036   5.467   2.776
 7721SOL    HW224063   5.947   5.411   2.901
 7722SOL     OW24064   0.110   6.045   4.586
 7722SOL    HW124065   0.012   6.068   4.585
 7722SOL    HW224066   0.135   6.012   4.678
 7723SOL     OW24067   3.936   4.578   0.150
 7723SOL    HW124068   3.872   4.627   0.210
 7723SOL    HW224069   3.890   4.498   0.112
 7724SOL     OW24070   1.288   4.636   0.354
 7724SOL    HW124071   1.196   4.641   0.393
 7724SOL    HW224072   1.354   4.614   0.427
 7725SOL     OW24073   5.374   3.469   4.953
 7725SOL    HW124074   5.315   3.422   4.887
 7725SOL    HW224075   5.433   3.403   4.999
 7726SOL     OW24076   2.116   3.146   0.597
 7726SOL    HW124077   2.200   3.198   0.583
 7726SOL    HW224078   2.132   3.077   0.668
 7727SOL     OW24079   5.505   0.381   3.354
 7727SOL    HW124080   5.600   0.357   3.376
 7727SOL    HW224081   5.493   0.480   3.365
 7728SOL     OW24082   2.307   3.105   5.473
 7728SOL    HW124083   2.393   3.132   5.430
 7728SOL    HW224084   2.230   3.136   5.417
 7729SOL     OW24085   6.966   1.078   2.728
 7729SOL    HW124086   0.033   1.085   2.677
 7729SOL    HW224087   6.982   1.030   2.814
 7730SOL     OW24088   6.142   3.627   6.404
 7730SOL    HW124089   6.130   3.565   6.326
 7730SOL    HW224090   6.232   3.669   6.401
 7731SOL     OW24091   6.923   0.542   6.244
 7731SOL    HW124092   6.881   0.539   6.334
 7731SOL    HW224093   6.964   0.632   6.229
 7732SOL     OW24094   4.279   1.329   0.218
 7732SOL    HW124095   4.373   1.322   0.249
 7732SOL    HW224096   4.276   1.325   0.118
 7733SOL     OW24097   5.772   6.388   1.545
 7733SOL    HW124098   5.686   6.362   1.588
 7733SOL    HW224099   5.846   6.330   1.580
 7734SOL     OW24100   4.064   3.665   3.462
 7734SOL    HW124101   4.106   3.632   3.547
 7734SOL    HW224102   3.992   3.731   3.485
 7735SOL     OW24103   0.917   5.924   0.795
 7735SOL    HW124104   0.821   5.914   0.768
 7735SOL    HW224105   0.923   5.928   0.894
 7736SOL     OW24106   1.811   1.448   1.051
 7736SOL    HW124107   1.864   1.446   0.966
 7736SOL    HW224108   1.720   1.412   1.035
 7737SOL     OW24109   4.426   4.635   6.668
 7737SOL    HW124110   4.422   4.535   6.665
 7737SOL    HW224111   4.386   4.667   6.754
 7738SOL     OW24112   1.469   1.026   5.214
 7738SOL    HW124113   1.416   0.968   5.274
 7738SOL    HW224114   1.448   1.122   5.233
 7739SOL     OW24115   0.847   3.204   6.371
 7739SOL    HW124116   0.792   3.134   6.325
 7739SOL    HW224117   0.919   3.235   6.309
 7740SOL     OW24118   2.255   0.705   4.003
 7740SOL    HW124119   2.259   0.686   3.905
 7740SOL    HW224120   2.190   0.780   4.020
 7741SOL     OW24121   6.376   4.472   5.964
 7741SOL    HW124122   6.314   4.411   5.916
 7741SOL    HW224123   6.327   4.554   5.994
 7742SOL     OW24124   4.927   2.330   3.655
 7742SOL    HW124125   4.950   2.276   3.574
 7742SOL    HW224126   4.876   2.411   3.628
 7743SOL     OW24127   3.273   1.096   6.062
 7743SOL    HW124128   3.320   1.176   6.026
 7743SOL    HW224129   3.331   1.015   6.051
 7744SOL     OW24130   0.299   6.333   4.599
 7744SOL    HW124131   0.256   6.248   4.567
 7744SOL    HW224132   0.274   6.349   4.695
 7745SOL     OW24133   2.818   0.151   0.460
 7745SOL    HW124134   2.751   0.080   0.437
 7745SOL    HW224135   2.885   0.114   0.525
 7746SOL     OW24136   6.977   6.114   0.634
 7746SOL    HW124137   6.974   6.016   0.614
 7746SOL    HW224138   0.031   6.156   0.581
 7747SOL     OW24139   6.987   6.157   1.168
 7747SOL    HW124140   7.001   6.179   1.071
 7747SOL    HW224141   6.905   6.205   1.201
 7748SOL     OW24142   4.428   0.841   6.203
 7748SOL    HW124143   4.387   0.926   6.236
 7748SOL    HW224144   4.482   0.859   6.121
 7749SOL     OW24145   2.950   3.623   2.424
 7749SOL    HW124146   2.940   3.685   2.502
 7749SOL    HW224147   2.935   3.529   2.454
 7750SOL     OW24148   5.245   4.248   6.183
 7750SOL    HW124149   5.213   4.299   6.263
 7750SOL    HW224150   5.299   4.169   6.213
 7751SOL     OW24151   0.445   1.561   4.799
 7751SOL    HW124152   0.383   1.531   4.726
 7751SOL    HW224153   0.416   1.521   4.886
 7752SOL     OW24154   5.668   4.100   6.036
 7752SOL    HW124155   5.635   4.131   6.125
 7752SOL    HW224156   5.610   4.026   6.003
 7753SOL     OW24157   2.718   0.765   4.969
 7753SOL    HW124158   2.750   0.856   4.998
 7753SOL    HW224159   2.640   0.738   5.024
 7754SOL     OW24160   6.282   1.259   0.901
 7754SOL    HW124161   6.355   1.265   0.832
 7754SOL    HW224162   6.291   1.173   0.952
 7755SOL     OW24163   1.698   6.013   5.312
 7755SOL    HW124164   1.752   6.093   5.337
 7755SOL    HW224165   1.608   6.019   5.357
 7756SOL     OW24166   3.932   6.565   2.905
 7756SOL    HW124167   3.918   6.477   2.859
 7756SOL    HW224168   3.910   6.556   3.002
 7757SOL     OW24169   3.359   1.169   5.717
 7757SOL    HW124170   3.281   1.114   5.749
 7757SOL    HW224171   3.402   1.123   5.639
 7758SOL     OW24172   2.576   1.758   6.495
 7758SOL    HW124173   2.500   1.752   6.559
 7758SOL    HW224174   2.643   1.687   6.515
 7759SOL     OW24175   2.397   0.671   4.808
 7759SOL    HW124176   2.401   0.771   4.812
 7759SOL    HW224177   2.421   0.641   4.715
 7760SOL     OW24178   5.335   1.863   2.916
 7760SOL    HW124179   5.253   1.909   2.950
 7760SOL    HW224180   5.314   1.769   2.892
 7761SOL     OW24181   4.572   1.133   0.043
 7761SOL    HW124182   4.619   1.214   0.008
 7761SOL    HW224183   4.558   1.142   0.142
 7762SOL     OW24184   1.527   2.291   0.541
 7762SOL    HW124185   1.507   2.389   0.542
 7762SOL    HW224186   1.519   2.254   0.633
 7763SOL     OW24187   2.352   2.766   0.837
 7763SOL    HW124188   2.408   2.800   0.913
 7763SOL    HW224189   2.388   2.679   0.805
 7764SOL     OW24190   3.471   3.179   2.028
 7764SOL    HW124191   3.433   3.128   1.951
 7764SOL    HW224192   3.473   3.277   2.006
 7765SOL     OW24193   6.848   1.368   1.845
 7765SOL    HW124194   6.838   1.420   1.930
 7765SOL    HW224195   6.792   1.409   1.773
 7766SOL     OW24196   6.977   2.817   6.903
 7766SOL    HW124197   6.893   2.776   6.869
 7766SOL    HW224198   0.030   2.805   6.834
 7767SOL     OW24199   6.183   3.772   5.084
 7767SOL    HW124200   6.209   3.868   5.091
 7767SOL    HW224201   6.244   3.716   5.139
 7768SOL     OW24202   3.877   5.430   1.632
 7768SOL    HW124203   3.874   5.438   1.532
 7768SOL    HW224204   3.828   5.507   1.672
 7769SOL     OW24205   4.778   1.875   3.215
 7769SOL    HW124206   4.803   1.838   3.125
 7769SOL    HW224207   4.711   1.814   3.258
 7770SOL     OW24208   3.472   6.709   1.250
 7770SOL    HW124209   3.385   6.664   1.270
 7770SOL    HW224210   3.455   6.801   1.216
 7771SOL     OW24211   2.076   0.859   4.121
 7771SOL    HW124212   2.129   0.832   4.202
 7771SOL    HW224213   2.062   0.958   4.123
 7772SOL     OW24214   5.563   0.661   5.352
 7772SOL    HW124215   5.487   0.702   5.403
 7772SOL    HW224216   5.597   0.581   5.401
 7773SOL     OW24217   4.337   4.476   5.904
 7773SOL    HW124218   4.381   4.403   5.955
 7773SOL    HW224219   4.238   4.471   5.917
 7774SOL     OW24220   4.490   1.608   7.018
 7774SOL    HW124221   4.535   1.697   7.010
 7774SOL    HW224222   4.405   1.610   6.965
 7775SOL     OW24223   1.549   6.633   2.051
 7775SOL    HW124224   1.618   6.562   2.039
 7775SOL    HW224225   1.572   6.712   1.994
 7776SOL     OW24226   2.978   4.611   0.670
 7776SOL    HW124227   2.919   4.634   0.748
 7776SOL    HW224228   3.051   4.550   0.701
 7777SOL     OW24229   0.624   0.356   6.884
 7777SOL    HW124230   0.586   0.292   6.817
 7777SOL    HW224231   0.574   0.442   6.880
 7778SOL     OW24232   4.945   2.677   2.210
 7778SOL    HW124233   4.937   2.590   2.161
 7778SOL    HW224234   4.884   2.745   2.167
 7779SOL     OW24235   4.442   2.852   0.491
 7779SOL    HW124236   4.465   2.868   0.395
 7779SOL    HW224237   4.402   2.935   0.529
 7780SOL     OW24238   1.354   0.553   3.996
 7780SOL    HW124239   1.291   0.477   4.016
 7780SOL    HW224240   1.399   0.536   3.908
 7781SOL     OW24241   1.899   4.029   5.820
 7781SOL    HW124242   1.808   4.028   5.780
 7781SOL    HW224243   1.968   4.039   5.748
 7782SOL     OW24244   4.726   4.825   0.571
 7782SOL    HW124245   4.757   4.908   0.525
 7782SOL    HW224246   4.762   4.745   0.524
 7783SOL     OW24247   3.424   5.791   6.711
 7783SOL    HW124248   3.489   5.822   6.640
 7783SOL    HW224249   3.387   5.871   6.758
 7784SOL     OW24250   6.231   3.600   0.249
 7784SOL    HW124251   6.273   3.636   0.332
 7784SOL    HW224252   6.228   3.672   0.179
 7785SOL     OW24253   1.293   6.496   6.217
 7785SOL    HW124254   1.352   6.458   6.289
 7785SOL    HW224255   1.323   6.589   6.195
 7786SOL     OW24256   3.880   4.270   5.265
 7786SOL    HW124257   3.980   4.260   5.264
 7786SOL    HW224258   3.844   4.257   5.173
 7787SOL     OW24259   3.507   2.054   5.275
 7787SOL    HW124260   3.444   2.079   5.201
 7787SOL    HW224261   3.512   2.128   5.341
 7788SOL     OW24262   6.934   2.562   1.137
 7788SOL    HW124263   6.876   2.643   1.127
 7788SOL    HW224264   0.011   2.589   1.129
 7789SOL     OW24265   1.174   0.380   1.837
 7789SOL    HW124266   1.115   0.312   1.881
 7789SOL    HW224267   1.149   0.388   1.740
 7790SOL     OW24268   0.112   3.620   2.283
 7790SOL    HW124269   0.120   3.610   2.382
 7790SOL    HW224270   0.027   3.668   2.261
 7791SOL     OW24271   6.611   5.730   5.549
 7791SOL    HW124272   6.594   5.714   5.452
 7791SOL    HW224273   6.710   5.735   5.565
 7792SOL     OW24274   2.082   5.686   6.132
 7792SOL    HW124275   2.122   5.598   6.103
 7792SOL    HW224276   2.038   5.675   6.221
 7793SOL     OW24277   2.251   0.645   6.826
 7793SOL    HW124278   2.177   0.708   6.803
 7793SOL    HW224279   2.338   0.686   6.798
 7794SOL     OW24280   4.891   4.757   2.702
 7794SOL    HW124281   4.835   4.683   2.741
 7794SOL    HW224282   4.849   4.845   2.723
 7795SOL     OW24283   1.331   4.079   6.460
 7795SOL    HW124284   1.424   4.045   6.452
 7795SOL    HW224285   1.295   4.099   6.369
 7796SOL     OW24286   3.893   3.301   4.532
 7796SOL    HW124287   3.861   3.388   4.571
 7796SOL    HW224288   3.937   3.247   4.604
 7797SOL     OW24289   0.965   6.205   3.916
 7797SOL    HW124290   0.972   6.154   3.830
 7797SOL    HW224291   0.996   6.299   3.902
 7798SOL     OW24292   4.413   5.387   6.079
 7798SOL    HW124293   4.433   5.465   6.138
 7798SOL    HW224294   4.415   5.302   6.132
 7799SOL     OW24295   6.132   5.690   1.806
 7799SOL    HW124296   6.231   5.698   1.821
 7799SOL    HW224297   6.114   5.688   1.708
 7800SOL     OW24298   0.661   5.878   2.122
 7800SOL    HW124299   0.717   5.884   2.205
 7800SOL    HW224300   0.633   5.970   2.094
 7801SOL     OW24301   4.471   2.298   5.361
 7801SOL    HW124302   4.461   2.348   5.447
 7801SOL    HW224303   4.551   2.239   5.366
 7802SOL     OW24304   5.680   2.559   6.527
 7802SOL    HW124305   5.643   2.645   6.491
 7802SOL    HW224306   5.694   2.495   6.452
 7803SOL     OW24307   3.126   3.496   5.868
 7803SOL    HW124308   3.157   3.461   5.780
 7803SOL    HW224309   3.094   3.420   5.924
 7804SOL     OW24310   5.123   1.069   5.922
 7804SOL    HW124311   5.220   1.087   5.905
 7804SOL    HW224312   5.112   1.037   6.016
 7805SOL     OW24313   5.709   3.138   1.482
 7805SOL    HW124314   5.743   3.087   1.561
 7805SOL    HW224315   5.609   3.131   1.479
 7806SOL     OW24316   5.110   2.567   0.301
 7806SOL    HW124317   5.062   2.648   0.335
 7806SOL    HW224318   5.177   2.595   0.232
 7807SOL     OW24319   0.648   3.810   0.026
 7807SOL    HW124320   0.596   3.830   6.963
 7807SOL    HW224321   0.734   3.862   0.026
 7808SOL     OW24322   0.149   1.434   4.781
 7808SOL    HW124323   0.085   1.509   4.799
 7808SOL    HW224324   0.130   1.358   4.843
 7809SOL     OW24325   1.060   5.603   5.938
 7809SOL    HW124326   1.005   5.610   5.855
 7809SOL    HW224327   1.105   5.691   5.955
 7810SOL     OW24328   3.253   1.113   6.507
 7810SOL    HW124329   3.298   1.163   6.433
 7810SOL    HW224330   3.229   1.177   6.581
 7811SOL     OW24331   6.211   4.674   5.184
 7811SOL    HW124332   6.295   4.723   5.162
 7811SOL    HW224333   6.144   4.686   5.111
 7812SOL     OW24334   0.674   2.112   3.761
 7812SOL    HW124335   0.696   2.068   3.848
 7812SOL    HW224336   0.646   2.207   3.779
 7813SOL     OW24337   5.911   1.353   1.255
 7813SOL    HW124338   5.891   1.430   1.195
 7813SOL    HW224339   6.009   1.348   1.272
 7814SOL     OW24340   1.943   3.016   3.925
 7814SOL    HW124341   1.850   2.996   3.895
 7814SOL    HW224342   1.962   2.966   4.010
 7815SOL     OW24343   6.924   2.267   5.352
 7815SOL    HW124344   6.995   2.337   5.358
 7815SOL    HW224345   6.940   2.196   5.421
 7816SOL     OW24346   0.314   4.591   5.121
 7816SOL    HW124347   0.289   4.678   5.077
 7816SOL    HW224348   0.286   4.592   5.216
 7817SOL     OW24349   5.636   3.024   5.675
 7817SOL    HW124350   5.633   3.044   5.577
 7817SOL    HW224351   5.728   3.045   5.710
 7818SOL     OW24352   5.652   2.962   3.654
 7818SOL    HW124353   5.581   2.968   3.584
 7818SOL    HW224354   5.721   2.895   3.626
 7819SOL     OW24355   1.197   1.010   1.061
 7819SOL    HW124356   1.106   0.969   1.059
 7819SOL    HW224357   1.203   1.081   0.991
 7820SOL     OW24358   2.957   6.746   6.076
 7820SOL    HW124359   2.858   6.746   6.061
 7820SOL    HW224360   3.004   6.717   5.993
 7821SOL     OW24361   3.432   6.419   1.174
 7821SOL    HW124362   3.397   6.493   1.231
 7821SOL    HW224363   3.373   6.340   1.182
 7822SOL     OW24364   1.116   6.431   5.206
 7822SOL    HW124365   1.144   6.466   5.116
 7822SOL    HW224366   1.033   6.479   5.236
 7823SOL     OW24367   1.884   3.323   5.419
 7823SOL    HW124368   1.928   3.413   5.413
 7823SOL    HW224369   1.861   3.304   5.514
 7824SOL     OW24370   0.748   3.118   5.734
 7824SOL    HW124371   0.698   3.185   5.679
 7824SOL    HW224372   0.751   3.031   5.685
 7825SOL     OW24373   2.730   1.029   0.216
 7825SOL    HW124374   2.827   1.018   0.235
 7825SOL    HW224375   2.690   1.092   0.283
 7826SOL     OW24376   0.609   3.892   5.916
 7826SOL    HW124377   0.630   3.990   5.926
 7826SOL    HW224378   0.681   3.849   5.862
 7827SOL     OW24379   6.334   5.152   3.720
 7827SOL    HW124380   6.240   5.151   3.755
 7827SOL    HW224381   6.396   5.179   3.794
 7828SOL     OW24382   0.882   6.024   5.970
 7828SOL    HW124383   0.942   6.069   6.036
 7828SOL    HW224384   0.788   6.052   5.986
 7829SOL     OW24385   4.775   4.865   0.852
 7829SOL    HW124386   4.700   4.895   0.912
 7829SOL    HW224387   4.737   4.833   0.765
 7830SOL     OW24388   1.946   5.230   4.538
 7830SOL    HW124389   2.011   5.291   4.583
 7830SOL    HW224390   1.853   5.260   4.557
 7831SOL     OW24391   1.918   0.482   6.214
 7831SOL    HW124392   1.860   0.537   6.275
 7831SOL    HW224393   1.964   0.411   6.266
 7832SOL     OW24394   0.385   1.451   5.065
 7832SOL    HW124395   0.380   1.351   5.058
 7832SOL    HW224396   0.462   1.476   5.123
 7833SOL     OW24397   0.619   0.098   2.950
 7833SOL    HW124398   0.633   0.044   3.033
 7833SOL    HW224399   0.522   0.100   2.928
 7834SOL     OW24400   0.251   3.543   5.416
 7834SOL    HW124401   0.317   3.533   5.342
 7834SOL    HW224402   0.263   3.633   5.460
 7835SOL     OW24403   3.188   2.460   5.591
 7835SOL    HW124404   3.280   2.483   5.625
 7835SOL    HW224405   3.169   2.364   5.607
 7836SOL     OW24406   3.100   3.688   4.792
 7836SOL    HW124407   3.145   3.773   4.764
 7836SOL    HW224408   3.165   3.612   4.786
 7837SOL     OW24409   0.716   5.762   0.006
 7837SOL    HW124410   0.707   5.693   6.953
 7837SOL    HW224411   0.630   5.813   0.013
 7838SOL     OW24412   4.217   4.884   1.458
 7838SOL    HW124413   4.146   4.816   1.442
 7838SOL    HW224414   4.301   4.857   1.412
 7839SOL     OW24415   6.314   3.541   4.861
 7839SOL    HW124416   6.313   3.635   4.893
 7839SOL    HW224417   6.230   3.495   4.890
 7840SOL     OW24418   2.323   2.457   3.380
 7840SOL    HW124419   2.240   2.427   3.332
 7840SOL    HW224420   2.322   2.557   3.388
 7841SOL     OW24421   4.864   1.907   5.379
 7841SOL    HW124422   4.935   1.922   5.311
 7841SOL    HW224423   4.871   1.814   5.415
 7842SOL     OW24424   0.840   0.110   0.939
 7842SOL    HW124425   0.867   0.137   0.847
 7842SOL    HW224426   0.781   0.029   0.934
 7843SOL     OW24427   6.592   6.196   1.838
 7843SOL    HW124428   6.683   6.169   1.871
 7843SOL    HW224429   6.523   6.141   1.884
 7844SOL     OW24430   3.824   0.056   2.356
 7844SOL    HW124431   3.763   0.060   2.435
 7844SOL    HW224432   3.781   0.001   2.284
 7845SOL     OW24433   6.684   3.326   1.712
 7845SOL    HW124434   6.589   3.338   1.685
 7845SOL    HW224435   6.734   3.411   1.696
 7846SOL     OW24436   0.895   1.749   0.236
 7846SOL    HW124437   0.971   1.689   0.259
 7846SOL    HW224438   0.852   1.782   0.320
 7847SOL     OW24439   5.721   3.683   5.820
 7847SOL    HW124440   5.759   3.601   5.862
 7847SOL    HW224441   5.652   3.657   5.753
 7848SOL     OW24442   4.320   4.978   0.572
 7848SOL    HW124443   4.351   5.065   0.612
 7848SOL    HW224444   4.392   4.910   0.581
 7849SOL     OW24445   4.242   5.022   6.902
 7849SOL    HW124446   4.259   5.085   6.826
 7849SOL    HW224447   4.323   5.019   6.962
 7850SOL     OW24448   6.650   0.898   3.374
 7850SOL    HW124449   6.656   0.906   3.473
 7850SOL    HW224450   6.563   0.937   3.343
 7851SOL     OW24451   0.608   4.339   0.370
 7851SOL    HW124452   0.606   4.427   0.416
 7851SOL    HW224453   0.518   4.320   0.330
 7852SOL     OW24454   1.347   3.506   5.619
 7852SOL    HW124455   1.403   3.486   5.539
 7852SOL    HW224456   1.329   3.421   5.670
 7853SOL     OW24457   4.409   2.921   1.711
 7853SOL    HW124458   4.492   2.954   1.756
 7853SOL    HW224459   4.332   2.980   1.736
 7854SOL     OW24460   4.184   1.231   1.134
 7854SOL    HW124461   4.255   1.173   1.095
 7854SOL    HW224462   4.181   1.318   1.084
 7855SOL     OW24463   4.979   6.457   3.677
 7855SOL    HW124464   5.045   6.425   3.609
 7855SOL    HW224465   4.887   6.432   3.649
 7856SOL     OW24466   2.104   6.256   6.419
 7856SOL    HW124467   2.057   6.288   6.502
 7856SOL    HW224468   2.043   6.265   6.340
 7857SOL     OW24469   6.961   5.170   0.534
 7857SOL    HW124470   7.011   5.122   0.606
 7857SOL    HW224471   6.915   5.104   0.475
 7858SOL     OW24472   0.421   4.046   6.538
 7858SOL    HW124473   0.398   4.127   6.484
 7858SOL    HW224474   0.348   3.978   6.527
 7859SOL     OW24475   4.987   1.997   1.729
 7859SOL    HW124476   5.009   2.047   1.645
 7859SOL    HW224477   4.901   1.948   1.718
 7860SOL     OW24478   2.802   1.787   2.996
 7860SOL    HW124479   2.748   1.777   2.912
 7860SOL    HW224480   2.865   1.709   3.004
 7861SOL     OW24481   1.977   5.801   0.576
 7861SOL    HW124482   1.967   5.743   0.495
 7861SOL    HW224483   2.061   5.856   0.568
 7862SOL     OW24484   1.148   6.627   6.561
 7862SOL    HW124485   1.082   6.678   6.615
 7862SOL    HW224486   1.207   6.573   6.621
 7863SOL     OW24487   0.450   4.241   3.835
 7863SOL    HW124488   0.510   4.253   3.755
 7863SOL    HW224489   0.361   4.283   3.816
 7864SOL     OW24490   3.368   5.612   4.975
 7864SOL    HW124491   3.372   5.595   4.877
 7864SOL    HW224492   3.342   5.527   5.022
 7865SOL     OW24493   6.435   5.620   3.543
 7865SOL    HW124494   6.523   5.619   3.591
 7865SOL    HW224495   6.439   5.686   3.468
 7866SOL     OW24496   0.828   1.078   5.401
 7866SOL    HW124497   0.879   1.052   5.320
 7866SOL    HW224498   0.737   1.037   5.398
 7867SOL     OW24499   4.567   5.643   2.748
 7867SOL    HW124500   4.643   5.578   2.741
 7867SOL    HW224501   4.566   5.684   2.839
 7868SOL     OW24502   4.300   6.269   1.424
 7868SOL    HW124503   4.277   6.173   1.442
 7868SOL    HW224504   4.376   6.273   1.358
 7869SOL     OW24505   5.704   5.080   0.152
 7869SOL    HW124506   5.625   5.023   0.176
 7869SOL    HW224507   5.721   5.145   0.226
 7870SOL     OW24508   6.376   0.451   3.373
 7870SOL    HW124509   6.292   0.440   3.319
 7870SOL    HW224510   6.399   0.364   3.417
 7871SOL     OW24511   4.362   0.580   0.463
 7871SOL    HW124512   4.276   0.629   0.478
 7871SOL    HW224513   4.438   0.642   0.477
 7872SOL     OW24514   6.565   4.820   4.286
 7872SOL    HW124515   6.643   4.872   4.250
 7872SOL    HW224516   6.594   4.765   4.364
 7873SOL     OW24517   4.856   2.544   6.624
 7873SOL    HW124518   4.793   2.520   6.698
 7873SOL    HW224519   4.944   2.498   6.640
 7874SOL     OW24520   6.371   2.457   0.222
 7874SOL    HW124521   6.281   2.501   0.211
 7874SOL    HW224522   6.385   2.435   0.318
 7875SOL     OW24523   6.888   4.907   6.748
 7875SOL    HW124524   6.893   4.870   6.841
 7875SOL    HW224525   6.815   4.975   6.743
 7876SOL     OW24526   1.214   6.636   2.885
 7876SOL    HW124527   1.263   6.679   2.961
 7876SOL    HW224528   1.155   6.563   2.920
 7877SOL     OW24529   1.006   2.971   1.878
 7877SOL    HW124530   0.999   2.871   1.874
 7877SOL    HW224531   0.949   3.012   1.807
 7878SOL     OW24532   3.928   0.310   2.548
 7878SOL    HW124533   4.014   0.277   2.508
 7878SOL    HW224534   3.854   0.247   2.524
 7879SOL     OW24535   2.725   5.619   1.666
 7879SOL    HW124536   2.655   5.676   1.623
 7879SOL    HW224537   2.681   5.545   1.718
 7880SOL     OW24538   1.349   4.665   2.571
 7880SOL    HW124539   1.255   4.632   2.562
 7880SOL    HW224540   1.348   4.762   2.594
 7881SOL     OW24541   4.718   2.661   2.914
 7881SOL    HW124542   4.779   2.594   2.871
 7881SOL    HW224543   4.657   2.614   2.978
 7882SOL     OW24544   0.191   2.401   0.012
 7882SOL    HW124545   0.206   2.496   7.005
 7882SOL    HW224546   0.118   2.362   6.975
 7883SOL     OW24547   0.324   6.923   4.846
 7883SOL    HW124548   0.315   0.001   4.864
 7883SOL    HW224549   0.259   6.895   4.776
 7884SOL     OW24550   1.621   2.872   3.929
 7884SOL    HW124551   1.648   2.951   3.984
 7884SOL    HW224552   1.542   2.895   3.873
 7885SOL     OW24553   6.773   6.222   6.920
 7885SOL    HW124554   6.860   6.271   6.926
 7885SOL    HW224555   6.708   6.276   6.867
 7886SOL     OW24556   4.895   4.343   0.328
 7886SOL    HW124557   4.965   4.360   0.259
 7886SOL    HW224558   4.931   4.282   0.398
 7887SOL     OW24559   4.420   2.068   6.710
 7887SOL    HW124560   4.463   2.000   6.769
 7887SOL    HW224561   4.400   2.150   6.763
 7888SOL     OW24562   4.134   5.636   4.132
 7888SOL    HW124563   4.150   5.694   4.211
 7888SOL    HW224564   4.220   5.621   4.083
 7889SOL     OW24565   6.290   4.321   4.007
 7889SOL    HW124566   6.264   4.390   4.075
 7889SOL    HW224567   6.213   4.303   3.946
 7890SOL     OW24568   2.130   3.719   2.934
 7890SOL    HW124569   2.149   3.817   2.926
 7890SOL    HW224570   2.140   3.676   2.844
 7891SOL     OW24571   0.197   4.029   2.812
 7891SOL    HW124572   0.292   4.058   2.823
 7891SOL    HW224573   0.162   3.995   2.899
 7892SOL     OW24574   2.293   2.353   4.515
 7892SOL    HW124575   2.366   2.390   4.572
 7892SOL    HW224576   2.329   2.331   4.424
 7893SOL     OW24577   5.195   6.455   1.461
 7893SOL    HW124578   5.133   6.381   1.438
 7893SOL    HW224579   5.287   6.433   1.429
 7894SOL     OW24580   2.850   0.270   1.304
 7894SOL    HW124581   2.920   0.214   1.260
 7894SOL    HW224582   2.774   0.212   1.334
 7895SOL     OW24583   0.994   1.433   4.070
 7895SOL    HW124584   0.894   1.437   4.078
 7895SOL    HW224585   1.019   1.426   3.973
 7896SOL     OW24586   3.715   2.641   6.309
 7896SOL    HW124587   3.676   2.576   6.245
 7896SOL    HW224588   3.812   2.654   6.288
 7897SOL     OW24589   2.898   3.460   0.593
 7897SOL    HW124590   2.841   3.384   0.625
 7897SOL    HW224591   2.986   3.459   0.641
 7898SOL     OW24592   5.034   1.105   4.399
 7898SOL    HW124593   4.959   1.157   4.357
 7898SOL    HW224594   5.032   1.118   4.498
 7899SOL     OW24595   4.854   0.748   1.603
 7899SOL    HW124596   4.759   0.719   1.598
 7899SOL    HW224597   4.859   0.837   1.648
 7900SOL     OW24598   0.197   6.014   1.231
 7900SOL    HW124599   0.103   6.049   1.228
 7900SOL    HW224600   0.228   6.011   1.326
 7901SOL     OW24601   6.183   4.923   1.064
 7901SOL    HW124602   6.262   4.862   1.067
 7901SOL    HW224603   6.163   4.948   0.970
 7902SOL     OW24604   4.767   4.989   6.283
 7902SOL    HW124605   4.787   4.904   6.332
 7902SOL    HW224606   4.732   4.967   6.192
 7903SOL     OW24607   0.230   2.573   2.038
 7903SOL    HW124608   0.196   2.549   1.947
 7903SOL    HW224609   0.191   2.661   2.066
 7904SOL     OW24610   5.413   2.191   2.897
 7904SOL    HW124611   5.464   2.157   2.976
 7904SOL    HW224612   5.385   2.113   2.840
 7905SOL     OW24613   2.171   1.741   1.878
 7905SOL    HW124614   2.215   1.808   1.817
 7905SOL    HW224615   2.157   1.783   1.968
 7906SOL     OW24616   1.567   4.521   6.974
 7906SOL    HW124617   1.602   4.428   6.985
 7906SOL    HW224618   1.499   4.523   6.901
 7907SOL     OW24619   0.605   2.686   2.442
 7907SOL    HW124620   0.552   2.610   2.404
 7907SOL    HW224621   0.658   2.729   2.369
 7908SOL     OW24622   0.342   1.627   3.092
 7908SOL    HW124623   0.341   1.569   3.011
 7908SOL    HW224624   0.436   1.644   3.120
 7909SOL     OW24625   4.177   6.537   5.079
 7909SOL    HW124626   4.098   6.587   5.043
 7909SOL    HW224627   4.245   6.602   5.113
 7910SOL     OW24628   6.084   3.062   6.293
 7910SOL    HW124629   6.056   3.083   6.387
 7910SOL    HW224630   6.173   3.104   6.274
 7911SOL     OW24631   6.989   6.066   6.130
 7911SOL    HW124632   6.899   6.048   6.170
 7911SOL    HW224633   6.979   6.085   6.032
 7912SOL     OW24634   0.131   5.558   4.983
 7912SOL    HW124635   0.216   5.514   4.953
 7912SOL    HW224636   0.062   5.551   4.911
 7913SOL     OW24637   1.705   6.289   6.461
 7913SOL    HW124638   1.749   6.201   6.483
 7913SOL    HW224639   1.726   6.314   6.366
 7914SOL     OW24640   5.999   4.705   0.628
 7914SOL    HW124641   6.029   4.783   0.572
 7914SOL    HW224642   6.076   4.675   0.685
 7915SOL     OW24643   2.981   1.352   2.769
 7915SOL    HW124644   2.948   1.257   2.770
 7915SOL    HW224645   2.918   1.408   2.716
 7916SOL     OW24646   4.135   3.598   5.043
 7916SOL    HW124647   4.199   3.539   5.092
 7916SOL    HW224648   4.157   3.693   5.060
 7917SOL     OW24649   3.836   3.956   3.743
 7917SOL    HW124650   3.912   3.895   3.763
 7917SOL    HW224651   3.787   3.978   3.828
 7918SOL     OW24652   5.993   2.139   2.007
 7918SOL    HW124653   5.994   2.096   1.917
 7918SOL    HW224654   5.923   2.095   2.064
 7919SOL     OW24655   5.436   3.810   2.361
 7919SOL    HW124656   5.424   3.866   2.443
 7919SOL    HW224657   5.482   3.863   2.291
 7920SOL     OW24658   6.746   6.538   0.804
 7920SOL    HW124659   6.794   6.549   0.717
 7920SOL    HW224660   6.737   6.441   0.825
 7921SOL     OW24661   3.493   4.940   2.447
 7921SOL    HW124662   3.408   4.913   2.493
 7921SOL    HW224663   3.486   5.036   2.417
 7922SOL     OW24664   1.073   3.994   4.613
 7922SOL    HW124665   1.148   4.059   4.608
 7922SOL    HW224666   1.059   3.952   4.523
 7923SOL     OW24667   1.507   2.711   3.116
 7923SOL    HW124668   1.536   2.744   3.206
 7923SOL    HW224669   1.539   2.617   3.102
 7924SOL     OW24670   2.614   1.503   3.361
 7924SOL    HW124671   2.614   1.431   3.430
 7924SOL    HW224672   2.589   1.590   3.403
 7925SOL     OW24673   1.415   1.082   0.340
 7925SOL    HW124674   1.432   1.064   0.437
 7925SOL    HW224675   1.442   1.177   0.319
 7926SOL     OW24676   3.264   0.874   1.795
 7926SOL    HW124677   3.190   0.842   1.736
 7926SOL    HW224678   3.349   0.881   1.742
 7927SOL     OW24679   4.494   5.620   4.699
 7927SOL    HW124680   4.535   5.577   4.619
 7927SOL    HW224681   4.552   5.604   4.779
 7928SOL     OW24682   0.399   3.841   0.646
 7928SOL    HW124683   0.471   3.850   0.715
 7928SOL    HW224684   0.430   3.779   0.574
 7929SOL     OW24685   3.717   4.235   5.043
 7929SOL    HW124686   3.668   4.246   4.957
 7929SOL    HW224687   3.777   4.155   5.039
 7930SOL     OW24688   3.689   6.958   2.171
 7930SOL    HW124689   3.727   6.878   2.124
 7930SOL    HW224690   3.604   6.986   2.127
 7931SOL     OW24691   3.071   3.179   5.786
 7931SOL    HW124692   3.104   3.234   5.710
 7931SOL    HW224693   3.037   3.091   5.751
 7932SOL     OW24694   3.050   1.396   0.484
 7932SOL    HW124695   2.982   1.469   0.478
 7932SOL    HW224696   3.004   1.307   0.477
 7933SOL     OW24697   2.135   1.602   6.093
 7933SOL    HW124698   2.113   1.513   6.052
 7933SOL    HW224699   2.060   1.629   6.154
 7934SOL     OW24700   4.419   2.312   5.870
 7934SOL    HW124701   4.493   2.267   5.920
 7934SOL    HW224702   4.425   2.411   5.884
 7935SOL     OW24703   4.695   5.471   2.361
 7935SOL    HW124704   4.750   5.475   2.278
 7935SOL    HW224705   4.615   5.414   2.346
 7936SOL     OW24706   4.218   5.983   2.042
 7936SOL    HW124707   4.316   5.976   2.060
 7936SOL    HW224708   4.174   5.897   2.068
 7937SOL     OW24709   5.676   1.865   6.377
 7937SOL    HW124710   5.620   1.830   6.303
 7937SOL    HW224711   5.743   1.930   6.341
 7938SOL     OW24712   6.319   4.926   4.352
 7938SOL    HW124713   6.295   5.011   4.306
 7938SOL    HW224714   6.409   4.895   4.321
 7939SOL     OW24715   6.611   6.236   3.628
 7939SOL    HW124716   6.695   6.192   3.597
 7939SOL    HW224717   6.537   6.214   3.565
 7940SOL     OW24718   1.802   6.156   0.512
 7940SOL    HW124719   1.895   6.180   0.484
 7940SOL    HW224720   1.806   6.111   0.601
 7941SOL     OW24721   1.194   0.562   1.047
 7941SOL    HW124722   1.209   0.652   1.087
 7941SOL    HW224723   1.163   0.572   0.952
 7942SOL     OW24724   0.785   6.723   1.532
 7942SOL    HW124725   0.714   6.794   1.537
 7942SOL    HW224726   0.819   6.704   1.624
 7943SOL     OW24727   6.063   1.761   6.459
 7943SOL    HW124728   6.000   1.689   6.431
 7943SOL    HW224729   6.072   1.827   6.385
 7944SOL     OW24730   6.996   4.422   2.167
 7944SOL    HW124731   0.020   4.460   2.249
 7944SOL    HW224732   6.899   4.406   2.186
 7945SOL     OW24733   5.658   6.543   0.815
 7945SOL    HW124734   5.714   6.526   0.734
 7945SOL    HW224735   5.563   6.521   0.795
 7946SOL     OW24736   2.278   1.768   5.326
 7946SOL    HW124737   2.216   1.710   5.274
 7946SOL    HW224738   2.262   1.864   5.301
 7947SOL     OW24739   4.270   5.598   6.446
 7947SOL    HW124740   4.318   5.683   6.465
 7947SOL    HW224741   4.201   5.581   6.517
 7948SOL     OW24742   1.119   5.088   5.013
 7948SOL    HW124743   1.113   5.166   5.074
 7948SOL    HW224744   1.123   5.120   4.918
 7949SOL     OW24745   6.852   3.392   4.332
 7949SOL    HW124746   6.917   3.458   4.368
 7949SOL    HW224747   6.821   3.332   4.406
 7950SOL     OW24748   2.664   5.741   3.451
 7950SOL    HW124749   2.641   5.804   3.525
 7950SOL    HW224750   2.680   5.650   3.489
 7951SOL     OW24751   2.461   3.522   0.648
 7951SOL    HW124752   2.487   3.524   0.551
 7951SOL    HW224753   2.443   3.616   0.679
 7952SOL     OW24754   6.106   4.079   0.614
 7952SOL    HW124755   6.131   4.090   0.710
 7952SOL    HW224756   6.020   4.028   0.608
 7953SOL     OW24757   1.927   3.943   1.604
 7953SOL    HW124758   1.942   3.844   1.600
 7953SOL    HW224759   1.926   3.972   1.700
 7954SOL     OW24760   5.791   5.783   4.091
 7954SOL    HW124761   5.766   5.686   4.095
 7954SOL    HW224762   5.888   5.793   4.111
 7955SOL     OW24763   1.832   6.591   6.321
 7955SOL    HW124764   1.856   6.681   6.283
 7955SOL    HW224765   1.748   6.599   6.375
 7956SOL     OW24766   5.366   5.809   3.313
 7956SOL    HW124767   5.331   5.858   3.392
 7956SOL    HW224768   5.326   5.846   3.229
 7957SOL     OW24769   1.472   3.031   0.775
 7957SOL    HW124770   1.432   2.945   0.744
 7957SOL    HW224771   1.571   3.019   0.784
 7958SOL     OW24772   2.075   5.618   3.318
 7958SOL    HW124773   2.025   5.545   3.271
 7958SOL    HW224774   2.011   5.677   3.367
 7959SOL     OW24775   4.784   5.109   1.752
 7959SOL    HW124776   4.743   5.195   1.781
 7959SOL    HW224777   4.718   5.058   1.696
 7960SOL     OW24778   1.790   2.552   1.094
 7960SOL    HW124779   1.814   2.492   1.017
 7960SOL    HW224780   1.813   2.506   1.180
 7961SOL     OW24781   1.490   6.434   0.218
 7961SOL    HW124782   1.426   6.508   0.201
 7961SOL    HW224783   1.523   6.396   0.132
 7962SOL     OW24784   1.909   6.528   2.549
 7962SOL    HW124785   1.922   6.451   2.486
 7962SOL    HW224786   1.987   6.533   2.611
 7963SOL     OW24787   0.048   6.234   6.323
 7963SOL    HW124788   0.012   6.186   6.243
 7963SOL    HW224789   0.056   6.331   6.303
 7964SOL     OW24790   6.009   5.568   3.436
 7964SOL    HW124791   6.094   5.554   3.385
 7964SOL    HW224792   5.989   5.486   3.490
 7965SOL     OW24793   4.027   1.642   1.065
 7965SOL    HW124794   4.022   1.737   1.096
 7965SOL    HW224795   3.947   1.620   1.010
 7966SOL     OW24796   0.025   1.353   4.373
 7966SOL    HW124797   0.076   1.268   4.379
 7966SOL    HW224798   0.012   1.378   4.277
 7967SOL     OW24799   2.395   0.443   3.727
 7967SOL    HW124800   2.342   0.521   3.694
 7967SOL    HW224801   2.337   0.383   3.781
 7968SOL     OW24802   2.128   1.066   0.827
 7968SOL    HW124803   2.150   1.050   0.731
 7968SOL    HW224804   2.047   1.013   0.851
 7969SOL     OW24805   3.826   1.905   3.203
 7969SOL    HW124806   3.900   1.847   3.237
 7969SOL    HW224807   3.739   1.872   3.239
 7970SOL     OW24808   0.406   4.770   3.089
 7970SOL    HW124809   0.316   4.775   3.133
 7970SOL    HW224810   0.461   4.699   3.134
 7971SOL     OW24811   3.454   2.096   2.607
 7971SOL    HW124812   3.389   2.115   2.533
 7971SOL    HW224813   3.407   2.104   2.695
 7972SOL     OW24814   5.445   5.903   1.297
 7972SOL    HW124815   5.513   5.953   1.244
 7972SOL    HW224816   5.405   5.965   1.366
 7973SOL     OW24817   5.590   1.855   2.837
 7973SOL    HW124818   5.493   1.872   2.852
 7973SOL    HW224819   5.605   1.832   2.740
 7974SOL     OW24820   4.420   5.887   4.707
 7974SOL    HW124821   4.329   5.910   4.672
 7974SOL    HW224822   4.432   5.788   4.703
 7975SOL     OW24823   1.967   1.346   2.098
 7975SOL    HW124824   2.027   1.387   2.029
 7975SOL    HW224825   2.022   1.299   2.166
 7976SOL     OW24826   0.369   0.093   6.287
 7976SOL    HW124827   0.364   0.146   6.372
 7976SOL    HW224828   0.335   0.001   6.303
 7977SOL     OW24829   5.178   5.938   0.927
 7977SOL    HW124830   5.225   5.997   0.863
 7977SOL    HW224831   5.242   5.872   0.966
 7978SOL     OW24832   3.106   1.929   5.948
 7978SOL    HW124833   3.172   1.911   5.875
 7978SOL    HW224834   3.035   1.991   5.913
 7979SOL     OW24835   4.724   5.684   4.340
 7979SOL    HW124836   4.774   5.619   4.282
 7979SOL    HW224837   4.648   5.723   4.289
 7980SOL     OW24838   3.045   1.134   1.758
 7980SOL    HW124839   3.020   1.040   1.781
 7980SOL    HW224840   2.996   1.197   1.818
 7981SOL     OW24841   0.159   6.252   2.148
 7981SOL    HW124842   0.110   6.328   2.106
 7981SOL    HW224843   0.206   6.283   2.230
 7982SOL     OW24844   0.558   3.416   1.161
 7982SOL    HW124845   0.500   3.384   1.086
 7982SOL    HW224846   0.583   3.338   1.218
 7983SOL     OW24847   5.245   2.087   0.585
 7983SOL    HW124848   5.301   2.155   0.632
 7983SOL    HW224849   5.222   2.013   0.649
 7984SOL     OW24850   6.358   0.960   0.575
 7984SOL    HW124851   6.432   0.920   0.628
 7984SOL    HW224852   6.307   0.888   0.528
 7985SOL     OW24853   1.131   1.130   0.620
 7985SOL    HW124854   1.151   1.045   0.572
 7985SOL    HW224855   1.033   1.151   0.613
 7986SOL     OW24856   4.990   3.745   0.638
 7986SOL    HW124857   4.895   3.769   0.661
 7986SOL    HW224858   4.990   3.672   0.570
 7987SOL     OW24859   0.982   3.803   5.433
 7987SOL    HW124860   0.981   3.717   5.382
 7987SOL    HW224861   1.039   3.869   5.385
 7988SOL     OW24862   2.548   1.137   5.443
 7988SOL    HW124863   2.606   1.206   5.400
 7988SOL    HW224864   2.576   1.046   5.411
 7989SOL     OW24865   3.398   3.844   0.018
 7989SOL    HW124866   3.443   3.875   0.102
 7989SOL    HW224867   3.314   3.897   0.004
 7990SOL     OW24868   2.268   2.674   4.585
 7990SOL    HW124869   2.190   2.664   4.523
 7990SOL    HW224870   2.239   2.654   4.679
 7991SOL     OW24871   2.390   3.093   5.739
 7991SOL    HW124872   2.373   2.996   5.753
 7991SOL    HW224873   2.397   3.112   5.641
 7992SOL     OW24874   2.917   1.509   0.008
 7992SOL    HW124875   3.015   1.495   0.024
 7992SOL    HW224876   2.875   1.546   0.091
 7993SOL     OW24877   2.543   5.179   6.345
 7993SOL    HW124878   2.571   5.113   6.275
 7993SOL    HW224879   2.515   5.131   6.428
 7994SOL     OW24880   5.547   6.810   4.903
 7994SOL    HW124881   5.577   6.726   4.948
 7994SOL    HW224882   5.588   6.817   4.813
 7995SOL     OW24883   4.321   5.014   2.374
 7995SOL    HW124884   4.404   5.054   2.336
 7995SOL    HW224885   4.315   5.037   2.471
 7996SOL     OW24886   4.537   1.375   5.260
 7996SOL    HW124887   4.523   1.430   5.177
 7996SOL    HW224888   4.448   1.351   5.298
 7997SOL     OW24889   5.229   3.201   0.885
 7997SOL    HW124890   5.166   3.186   0.962
 7997SOL    HW224891   5.310   3.144   0.896
 7998SOL     OW24892   6.956   5.473   6.221
 7998SOL    HW124893   0.022   5.485   6.169
 7998SOL    HW224894   6.878   5.482   6.159
 7999SOL     OW24895   2.880   2.578   5.759
 7999SOL    HW124896   2.935   2.540   5.684
 7999SOL    HW224897   2.910   2.671   5.778
 8000SOL     OW24898   5.183   0.525   5.701
 8000SOL    HW124899   5.236   0.460   5.647
 8000SOL    HW224900   5.241   0.602   5.728
 8001SOL     OW24901   2.176   4.916   1.083
 8001SOL    HW124902   2.226   5.002   1.078
 8001SOL    HW224903   2.217   4.857   1.153
 8002SOL     OW24904   4.467   2.032   5.526
 8002SOL    HW124905   4.493   2.023   5.622
 8002SOL    HW224906   4.503   1.954   5.474
 8003SOL     OW24907   4.896   5.486   3.025
 8003SOL    HW124908   4.966   5.489   3.097
 8003SOL    HW224909   4.818   5.542   3.053
 8004SOL     OW24910   1.359   4.740   3.388
 8004SOL    HW124911   1.433   4.672   3.396
 8004SOL    HW224912   1.386   4.822   3.438
 8005SOL     OW24913   1.978   1.192   2.533
 8005SOL    HW124914   2.016   1.221   2.620
 8005SOL    HW224915   2.052   1.160   2.473
 8006SOL     OW24916   4.467   5.732   2.238
 8006SOL    HW124917   4.494   5.672   2.162
 8006SOL    HW224918   4.448   5.823   2.203
 8007SOL     OW24919   0.362   0.808   4.059
 8007SOL    HW124920   0.355   0.753   4.142
 8007SOL    HW224921   0.381   0.748   3.981
 8008SOL     OW24922   5.970   4.921   1.722
 8008SOL    HW124923   5.996   4.825   1.711
 8008SOL    HW224924   5.897   4.928   1.790
 8009SOL     OW24925   0.050   6.297   2.526
 8009SOL    HW124926   7.019   6.210   2.530
 8009SOL    HW224927   7.006   6.371   2.503
 8010SOL     OW24928   2.243   2.129   6.635
 8010SOL    HW124929   2.171   2.060   6.641
 8010SOL    HW224930   2.208   2.208   6.584
 8011SOL     OW24931   2.116   3.033   0.217
 8011SOL    HW124932   2.101   3.024   0.119
 8011SOL    HW224933   2.193   2.974   0.244
 8012SOL     OW24934   2.298   6.178   3.148
 8012SOL    HW124935   2.307   6.255   3.085
 8012SOL    HW224936   2.202   6.169   3.175
 8013SOL     OW24937   6.301   5.285   4.257
 8013SOL    HW124938   6.400   5.276   4.253
 8013SOL    HW224939   6.265   5.310   4.167
 8014SOL     OW24940   2.946   0.618   6.451
 8014SOL    HW124941   2.872   0.685   6.448
 8014SOL    HW224942   2.977   0.598   6.358
 8015SOL     OW24943   1.844   1.733   0.412
 8015SOL    HW124944   1.940   1.705   0.406
 8015SOL    HW224945   1.786   1.651   0.417
 8016SOL     OW24946   4.297   5.513   1.872
 8016SOL    HW124947   4.236   5.592   1.862
 8016SOL    HW224948   4.245   5.429   1.857
 8017SOL     OW24949   6.417   3.681   5.279
 8017SOL    HW124950   6.485   3.610   5.262
 8017SOL    HW224951   6.458   3.771   5.265
 8018SOL     OW24952   4.789   2.959   3.953
 8018SOL    HW124953   4.770   2.867   3.986
 8018SOL    HW224954   4.758   2.968   3.858
 8019SOL     OW24955   3.239   5.440   1.225
 8019SOL    HW124956   3.332   5.428   1.261
 8019SOL    HW224957   3.180   5.367   1.261
 8020SOL     OW24958   5.425   6.817   6.307
 8020SOL    HW124959   5.481   6.820   6.390
 8020SOL    HW224960   5.448   6.735   6.254
 8021SOL     OW24961   6.446   0.947   1.365
 8021SOL    HW124962   6.393   0.966   1.448
 8021SOL    HW224963   6.536   0.912   1.391
 8022SOL     OW24964   5.406   5.029   4.000
 8022SOL    HW124965   5.443   5.046   4.091
 8022SOL    HW224966   5.344   5.103   3.974
 8023SOL     OW24967   6.978   5.689   3.677
 8023SOL    HW124968   6.965   5.644   3.588
 8023SOL    HW224969   6.976   5.788   3.664
 8024SOL     OW24970   4.384   5.570   3.969
 8024SOL    HW124971   4.473   5.613   3.957
 8024SOL    HW224972   4.365   5.509   3.892
 8025SOL     OW24973   3.013   6.038   0.384
 8025SOL    HW124974   3.109   6.032   0.413
 8025SOL    HW224975   2.977   6.129   0.404
 8026SOL     OW24976   2.647   1.996   6.637
 8026SOL    HW124977   2.641   1.916   6.577
 8026SOL    HW224978   2.711   2.062   6.597
 8027SOL     OW24979   4.712   3.148   5.682
 8027SOL    HW124980   4.696   3.188   5.772
 8027SOL    HW224981   4.694   3.050   5.685
 8028SOL     OW24982   6.002   5.437   0.869
 8028SOL    HW124983   5.910   5.455   0.834
 8028SOL    HW224984   6.045   5.365   0.815
 8029SOL     OW24985   3.514   4.178   5.906
 8029SOL    HW124986   3.463   4.182   5.820
 8029SOL    HW224987   3.519   4.083   5.937
 8030SOL     OW24988   6.978   3.629   1.462
 8030SOL    HW124989   0.014   3.547   1.444
 8030SOL    HW224990   0.013   3.694   1.515
 8031SOL     OW24991   3.878   6.355   0.477
 8031SOL    HW124992   3.828   6.316   0.399
 8031SOL    HW224993   3.970   6.316   0.480
 8032SOL     OW24994   4.617   3.236   5.432
 8032SOL    HW124995   4.641   3.187   5.516
 8032SOL    HW224996   4.700   3.275   5.392
 8033SOL     OW24997   6.615   0.800   2.078
 8033SOL    HW124998   6.549   0.809   2.153
 8033SOL    HW224999   6.602   0.712   2.032
 8034SOL     OW25000   6.511   2.185   5.772
 8034SOL    HW125001   6.451   2.265   5.776
 8034SOL    HW225002   6.589   2.199   5.833
 8035SOL     OW25003   5.248   5.858   5.584
 8035SOL    HW125004   5.253   5.763   5.616
 8035SOL    HW225005   5.211   5.915   5.658
 8036SOL     OW25006   1.103   4.005   1.760
 8036SOL    HW125007   1.079   3.922   1.710
 8036SOL    HW225008   1.138   3.982   1.851
 8037SOL     OW25009   2.436   2.942   1.753
 8037SOL    HW125010   2.363   2.902   1.809
 8037SOL    HW225011   2.437   3.041   1.766
 8038SOL     OW25012   5.820   1.065   4.253
 8038SOL    HW125013   5.788   1.004   4.180
 8038SOL    HW225014   5.768   1.048   4.336
 8039SOL     OW25015   2.336   5.581   3.303
 8039SOL    HW125016   2.385   5.655   3.258
 8039SOL    HW225017   2.238   5.601   3.304
 8040SOL     OW25018   5.872   6.326   6.792
 8040SOL    HW125019   5.968   6.351   6.776
 8040SOL    HW225020   5.855   6.235   6.754
 8041SOL     OW25021   3.469   2.742   1.161
 8041SOL    HW125022   3.535   2.667   1.163
 8041SOL    HW225023   3.518   2.829   1.157
 8042SOL     OW25024   1.552   4.936   6.938
 8042SOL    HW125025   1.460   4.967   6.965
 8042SOL    HW225026   1.606   5.015   6.909
 8043SOL     OW25027   3.575   0.651   0.918
 8043SOL    HW125028   3.639   0.601   0.859
 8043SOL    HW225029   3.518   0.586   0.968
 8044SOL     OW25030   3.049   2.830   1.829
 8044SOL    HW125031   3.012   2.741   1.804
 8044SOL    HW225032   2.983   2.902   1.803
 8045SOL     OW25033   5.749   2.942   3.916
 8045SOL    HW125034   5.727   2.847   3.937
 8045SOL    HW225035   5.702   2.969   3.832
 8046SOL     OW25036   6.573   4.986   4.941
 8046SOL    HW125037   6.492   5.026   4.985
 8046SOL    HW225038   6.642   4.968   5.011
 8047SOL     OW25039   2.362   0.235   4.336
 8047SOL    HW125040   2.391   0.147   4.372
 8047SOL    HW225041   2.429   0.305   4.362
 8048SOL     OW25042   5.225   0.215   5.375
 8048SOL    HW125043   5.141   0.231   5.426
 8048SOL    HW225044   5.240   0.291   5.312
 8049SOL     OW25045   2.198   6.912   6.758
 8049SOL    HW125046   2.232   6.844   6.823
 8049SOL    HW225047   2.212   7.004   6.796
 8050SOL     OW25048   0.320   3.423   1.683
 8050SOL    HW125049   0.370   3.338   1.695
 8050SOL    HW225050   0.384   3.497   1.663
 8051SOL     OW25051   2.656   1.991   4.055
 8051SOL    HW125052   2.649   2.062   4.125
 8051SOL    HW225053   2.590   1.918   4.074
 8052SOL     OW25054   4.147   1.613   2.712
 8052SOL    HW125055   4.134   1.515   2.699
 8052SOL    HW225056   4.244   1.635   2.706
 8053SOL     OW25057   4.559   3.580   1.639
 8053SOL    HW125058   4.576   3.501   1.581
 8053SOL    HW225059   4.477   3.565   1.694
 8054SOL     OW25060   4.477   6.065   4.456
 8054SOL    HW125061   4.401   6.029   4.402
 8054SOL    HW225062   4.489   6.009   4.538
 8055SOL     OW25063   1.494   0.128   5.073
 8055SOL    HW125064   1.456   0.152   4.984
 8055SOL    HW225065   1.562   0.197   5.100
 8056SOL     OW25066   4.686   1.239   2.748
 8056SOL    HW125067   4.685   1.227   2.649
 8056SOL    HW225068   4.608   1.192   2.789
 8057SOL     OW25069   3.511   6.699   3.802
 8057SOL    HW125070   3.468   6.725   3.715
 8057SOL    HW225071   3.465   6.747   3.877
 8058SOL     OW25072   1.891   0.044   2.843
 8058SOL    HW125073   1.911   6.983   2.786
 8058SOL    HW225074   1.806   0.029   2.894
 8059SOL     OW25075   1.500   1.685   4.243
 8059SOL    HW125076   1.544   1.639   4.166
 8059SOL    HW225077   1.411   1.722   4.213
 8060SOL     OW25078   0.576   2.650   5.339
 8060SOL    HW125079   0.643   2.640   5.265
 8060SOL    HW225080   0.519   2.730   5.321
 8061SOL     OW25081   5.907   6.683   3.381
 8061SOL    HW125082   5.858   6.613   3.329
 8061SOL    HW225083   5.970   6.639   3.444
 8062SOL     OW25084   1.718   2.203   1.481
 8062SOL    HW125085   1.629   2.186   1.439
 8062SOL    HW225086   1.770   2.117   1.485
 8063SOL     OW25087   2.364   2.824   5.793
 8063SOL    HW125088   2.321   2.826   5.702
 8063SOL    HW225089   2.404   2.734   5.809
 8064SOL     OW25090   5.738   2.218   5.540
 8064SOL    HW125091   5.758   2.250   5.633
 8064SOL    HW225092   5.802   2.259   5.476
 8065SOL     OW25093   4.499   0.182   6.364
 8065SOL    HW125094   4.525   0.278   6.367
 8065SOL    HW225095   4.404   0.172   6.394
 8066SOL     OW25096   1.363   0.293   1.506
 8066SOL    HW125097   1.415   0.316   1.589
 8066SOL    HW225098   1.403   0.211   1.465
 8067SOL     OW25099   4.314   1.877   2.780
 8067SOL    HW125100   4.284   1.942   2.710
 8067SOL    HW225101   4.346   1.793   2.737
 8068SOL     OW25102   0.157   4.246   4.095
 8068SOL    HW125103   0.149   4.245   3.995
 8068SOL    HW225104   0.144   4.339   4.129
 8069SOL     OW25105   0.338   6.038   2.415
 8069SOL    HW125106   0.387   6.069   2.334
 8069SOL    HW225107   0.327   6.114   2.478
 8070SOL     OW25108   3.750   0.263   2.916
 8070SOL    HW125109   3.825   0.302   2.862
 8070SOL    HW225110   3.665   0.312   2.895
 8071SOL     OW25111   5.123   4.887   6.853
 8071SOL    HW125112   5.166   4.929   6.773
 8071SOL    HW225113   5.189   4.827   6.898
 8072SOL     OW25114   3.931   0.328   3.735
 8072SOL    HW125115   3.998   0.265   3.774
 8072SOL    HW225116   3.880   0.281   3.663
 8073SOL     OW25117   5.107   0.086   6.587
 8073SOL    HW125118   5.058   0.009   6.628
 8073SOL    HW225119   5.041   0.147   6.542
 8074SOL     OW25120   3.019   4.024   0.328
 8074SOL    HW125121   2.949   4.007   0.258
 8074SOL    HW225122   3.018   4.120   0.354
 8075SOL     OW25123   6.235   1.342   4.209
 8075SOL    HW125124   6.250   1.349   4.307
 8075SOL    HW225125   6.180   1.419   4.177
 8076SOL     OW25126   4.855   3.105   6.659
 8076SOL    HW125127   4.864   3.012   6.694
 8076SOL    HW225128   4.793   3.157   6.719
 8077SOL     OW25129   1.116   0.764   6.862
 8077SOL    HW125130   1.081   0.697   6.927
 8077SOL    HW225131   1.134   0.720   6.774
 8078SOL     OW25132   5.895   3.807   1.168
 8078SOL    HW125133   5.921   3.852   1.083
 8078SOL    HW225134   5.831   3.866   1.219
 8079SOL     OW25135   1.464   2.794   0.394
 8079SOL    HW125136   1.551   2.825   0.357
 8079SOL    HW225137   1.426   2.865   0.453
 8080SOL     OW25138   3.558   4.821   0.383
 8080SOL    HW125139   3.569   4.918   0.363
 8080SOL    HW225140   3.648   4.778   0.388
 8081SOL     OW25141   5.202   2.320   4.072
 8081SOL    HW125142   5.239   2.374   4.148
 8081SOL    HW225143   5.102   2.325   4.073
 8082SOL     OW25144   6.884   3.490   4.920
 8082SOL    HW125145   6.954   3.421   4.903
 8082SOL    HW225146   6.843   3.476   5.010
 8083SOL     OW25147   5.939   1.826   4.840
 8083SOL    HW125148   6.014   1.891   4.831
 8083SOL    HW225149   5.967   1.749   4.897
 8084SOL     OW25150   5.758   0.096   6.984
 8084SOL    HW125151   5.687   0.165   6.995
 8084SOL    HW225152   5.786   0.062   0.055
 8085SOL     OW25153   4.655   2.174   1.373
 8085SOL    HW125154   4.695   2.221   1.452
 8085SOL    HW225155   4.616   2.087   1.402
 8086SOL     OW25156   3.226   5.160   6.350
 8086SOL    HW125157   3.320   5.192   6.339
 8086SOL    HW225158   3.209   5.136   6.445
 8087SOL     OW25159   2.282   3.982   0.591
 8087SOL    HW125160   2.258   4.058   0.531
 8087SOL    HW225161   2.291   3.898   0.537
 8088SOL     OW25162   4.520   0.503   3.085
 8088SOL    HW125163   4.440   0.480   3.030
 8088SOL    HW225164   4.576   0.421   3.099
 8089SOL     OW25165   6.903   2.884   0.342
 8089SOL    HW125166   6.807   2.856   0.334
 8089SOL    HW225167   6.946   2.834   0.417
 8090SOL     OW25168   4.900   1.518   5.115
 8090SOL    HW125169   4.829   1.588   5.114
 8090SOL    HW225170   4.884   1.454   5.190
 8091SOL     OW25171   1.945   3.576   5.326
 8091SOL    HW125172   1.847   3.569   5.346
 8091SOL    HW225173   1.958   3.576   5.227
 8092SOL     OW25174   6.284   1.908   3.999
 8092SOL    HW125175   6.377   1.945   4.011
 8092SOL    HW225176   6.263   1.847   4.075
 8093SOL     OW25177   6.075   5.225   0.719
 8093SOL    HW125178   5.990   5.176   0.738
 8093SOL    HW225179   6.103   5.207   0.625
 8094SOL     OW25180   0.567   3.116   4.090
 8094SOL    HW125181   0.654   3.092   4.048
 8094SOL    HW225182   0.570   3.095   4.188
 8095SOL     OW25183   6.436   3.198   5.422
 8095SOL    HW125184   6.496   3.265   5.466
 8095SOL    HW225185   6.463   3.186   5.327
 8096SOL     OW25186   4.502   0.406   0.283
 8096SOL    HW125187   4.470   0.313   0.264
 8096SOL    HW225188   4.428   0.458   0.324
 8097SOL     OW25189   4.704   1.894   3.677
 8097SOL    HW125190   4.605   1.878   3.685
 8097SOL    HW225191   4.747   1.882   3.766
 8098SOL     OW25192   2.387   2.220   3.995
 8098SOL    HW125193   2.384   2.319   3.985
 8098SOL    HW225194   2.469   2.184   3.949
 8099SOL     OW25195   3.661   6.704   4.138
 8099SOL    HW125196   3.682   6.715   4.235
 8099SOL    HW225197   3.744   6.679   4.089
 8100SOL     OW25198   6.577   6.226   1.412
 8100SOL    HW125199   6.539   6.304   1.462
 8100SOL    HW225200   6.588   6.149   1.474
 8101SOL     OW25201   0.775   4.818   2.225
 8101SOL    HW125202   0.811   4.850   2.137
 8101SOL    HW225203   0.851   4.789   2.283
 8102SOL     OW25204   6.595   0.170   5.190
 8102SOL    HW125205   6.581   0.268   5.181
 8102SOL    HW225206   6.691   0.148   5.175
 8103SOL     OW25207   2.627   2.410   2.364
 8103SOL    HW125208   2.708   2.352   2.356
 8103SOL    HW225209   2.606   2.451   2.275
 8104SOL     OW25210   2.862   0.053   5.772
 8104SOL    HW125211   2.911   0.107   5.840
 8104SOL    HW225212   2.764   0.073   5.777
 8105SOL     OW25213   2.384   2.139   2.680
 8105SOL    HW125214   2.437   2.082   2.617
 8105SOL    HW225215   2.446   2.197   2.732
 8106SOL     OW25216   0.307   4.096   5.847
 8106SOL    HW125217   0.228   4.096   5.908
 8106SOL    HW225218   0.333   4.002   5.825
 8107SOL     OW25219   1.037   5.183   0.051
 8107SOL    HW125220   1.052   5.090   0.083
 8107SOL    HW225221   1.033   5.183   6.970
 8108SOL     OW25222   2.278   2.467   6.251
 8108SOL    HW125223   2.270   2.412   6.168
 8108SOL    HW225224   2.360   2.439   6.301
 8109SOL     OW25225   0.580   5.747   5.506
 8109SOL    HW125226   0.616   5.705   5.423
 8109SOL    HW225227   0.647   5.811   5.543
 8110SOL     OW25228   1.264   5.041   0.436
 8110SOL    HW125229   1.209   4.977   0.489
 8110SOL    HW225230   1.361   5.017   0.445
 8111SOL     OW25231   3.336   6.070   3.915
 8111SOL    HW125232   3.332   6.130   3.996
 8111SOL    HW225233   3.408   6.002   3.928
 8112SOL     OW25234   4.139   1.433   4.118
 8112SOL    HW125235   4.190   1.493   4.056
 8112SOL    HW225236   4.204   1.373   4.166
 8113SOL     OW25237   3.100   2.199   5.698
 8113SOL    HW125238   3.116   2.101   5.686
 8113SOL    HW225239   3.027   2.212   5.765
 8114SOL     OW25240   3.153   3.858   1.159
 8114SOL    HW125241   3.119   3.858   1.065
 8114SOL    HW225242   3.101   3.791   1.213
 8115SOL     OW25243   4.102   2.978   1.331
 8115SOL    HW125244   4.047   3.055   1.363
 8115SOL    HW225245   4.197   3.007   1.323
 8116SOL     OW25246   5.771   1.790   5.871
 8116SOL    HW125247   5.800   1.773   5.777
 8116SOL    HW225248   5.850   1.780   5.932
 8117SOL     OW25249   2.889   2.765   5.353
 8117SOL    HW125250   2.858   2.671   5.343
 8117SOL    HW225251   2.811   2.826   5.365
 8118SOL     OW25252   1.022   1.917   3.954
 8118SOL    HW125253   0.996   1.972   4.033
 8118SOL    HW225254   0.966   1.834   3.952
 8119SOL     OW25255   1.523   6.895   2.454
 8119SOL    HW125256   1.570   6.816   2.492
 8119SOL    HW225257   1.482   6.871   2.366
 8120SOL     OW25258   4.793   3.948   2.550
 8120SOL    HW125259   4.719   3.939   2.616
 8120SOL    HW225260   4.808   3.860   2.505
 8121SOL     OW25261   0.241   6.212   3.488
 8121SOL    HW125262   0.216   6.216   3.585
 8121SOL    HW225263   0.340   6.223   3.479
 8122SOL     OW25264   0.075   4.891   1.949
 8122SOL    HW125265   0.116   4.937   2.028
 8122SOL    HW225266   0.108   4.797   1.944
 8123SOL     OW25267   1.589   5.214   6.158
 8123SOL    HW125268   1.587   5.123   6.118
 8123SOL    HW225269   1.600   5.283   6.086
 8124SOL     OW25270   1.885   5.859   2.419
 8124SOL    HW125271   1.886   5.811   2.506
 8124SOL    HW225272   1.790   5.875   2.391
 8125SOL     OW25273   5.339   5.203   3.564
 8125SOL    HW125274   5.300   5.138   3.628
 8125SOL    HW225275   5.415   5.251   3.607
 8126SOL     OW25276   0.480   4.753   1.717
 8126SOL    HW125277   0.405   4.695   1.749
 8126SOL    HW225278   0.449   4.848   1.714
 8127SOL     OW25279   3.983   5.172   0.942
 8127SOL    HW125280   3.910   5.197   0.878
 8127SOL    HW225281   4.025   5.254   0.979
 8128SOL     OW25282   3.925   2.109   5.143
 8128SOL    HW125283   3.846   2.137   5.198
 8128SOL    HW225284   3.919   2.010   5.126
 8129SOL     OW25285   4.424   5.222   6.739
 8129SOL    HW125286   4.489   5.244   6.666
 8129SOL    HW225287   4.335   5.262   6.718
 8130SOL     OW25288   0.303   0.493   6.045
 8130SOL    HW125289   0.400   0.500   6.069
 8130SOL    HW225290   0.268   0.583   6.021
 8131SOL     OW25291   2.144   1.812   1.296
 8131SOL    HW125292   2.133   1.911   1.283
 8131SOL    HW225293   2.072   1.778   1.356
 8132SOL     OW25294   5.888   4.373   3.512
 8132SOL    HW125295   5.927   4.284   3.491
 8132SOL    HW225296   5.954   4.445   3.490
 8133SOL     OW25297   0.463   5.390   2.688
 8133SOL    HW125298   0.375   5.343   2.693
 8133SOL    HW225299   0.460   5.460   2.618
 8134SOL     OW25300   3.277   3.454   1.488
 8134SOL    HW125301   3.239   3.506   1.565
 8134SOL    HW225302   3.322   3.517   1.425
 8135SOL     OW25303   4.045   6.366   2.456
 8135SOL    HW125304   4.078   6.422   2.380
 8135SOL    HW225305   4.045   6.270   2.428
 8136SOL     OW25306   2.905   5.729   1.843
 8136SOL    HW125307   2.853   5.701   1.762
 8136SOL    HW225308   2.844   5.736   1.922
 8137SOL     OW25309   3.442   4.525   5.387
 8137SOL    HW125310   3.344   4.519   5.368
 8137SOL    HW225311   3.491   4.552   5.304
 8138SOL     OW25312   3.881   0.912   3.442
 8138SOL    HW125313   3.819   0.869   3.376
 8138SOL    HW225314   3.972   0.870   3.434
 8139SOL     OW25315   1.838   3.097   5.779
 8139SOL    HW125316   1.748   3.056   5.767
 8139SOL    HW225317   1.908   3.030   5.756
 8140SOL     OW25318   5.396   1.720   1.319
 8140SOL    HW125319   5.377   1.639   1.373
 8140SOL    HW225320   5.495   1.735   1.314
 8141SOL     OW25321   5.938   1.678   5.239
 8141SOL    HW125322   6.035   1.703   5.240
 8141SOL    HW225323   5.907   1.658   5.332
 8142SOL     OW25324   3.649   5.810   0.742
 8142SOL    HW125325   3.664   5.906   0.763
 8142SOL    HW225326   3.568   5.800   0.685
 8143SOL     OW25327   5.727   5.237   0.384
 8143SOL    HW125328   5.654   5.279   0.436
 8143SOL    HW225329   5.812   5.289   0.397
 8144SOL     OW25330   2.044   5.528   6.382
 8144SOL    HW125331   2.051   5.597   6.453
 8144SOL    HW225332   2.108   5.454   6.400
 8145SOL     OW25333   4.747   5.431   5.314
 8145SOL    HW125334   4.842   5.434   5.286
 8145SOL    HW225335   4.741   5.417   5.413
 8146SOL     OW25336   6.825   6.190   4.808
 8146SOL    HW125337   6.755   6.159   4.872
 8146SOL    HW225338   6.843   6.287   4.824
 8147SOL     OW25339   2.306   6.811   4.669
 8147SOL    HW125340   2.214   6.818   4.630
 8147SOL    HW225341   2.308   6.737   4.737
 8148SOL     OW25342   5.587   4.870   0.775
 8148SOL    HW125343   5.625   4.786   0.735
 8148SOL    HW225344   5.603   4.871   0.873
 8149SOL     OW25345   1.445   6.602   4.919
 8149SOL    HW125346   1.487   6.552   4.995
 8149SOL    HW225347   1.437   6.699   4.942
 8150SOL     OW25348   0.025   4.582   0.561
 8150SOL    HW125349   0.029   4.681   0.548
 8150SOL    HW225350   0.097   4.554   0.623
 8151SOL     OW25351   6.353   4.103   2.236
 8151SOL    HW125352   6.449   4.074   2.232
 8151SOL    HW225353   6.298   4.045   2.177
 8152SOL     OW25354   4.804   1.870   4.209
 8152SOL    HW125355   4.764   1.779   4.198
 8152SOL    HW225356   4.896   1.861   4.247
 8153SOL     OW25357   0.340   1.933   0.672
 8153SOL    HW125358   0.372   1.868   0.741
 8153SOL    HW225359   0.317   2.020   0.716
 8154SOL     OW25360   0.040   0.322   4.124
 8154SOL    HW125361   0.066   0.336   4.220
 8154SOL    HW225362   0.073   0.233   4.093
 8155SOL     OW25363   1.064   4.584   4.763
 8155SOL    HW125364   0.979   4.548   4.803
 8155SOL    HW225365   1.046   4.674   4.723
 8156SOL     OW25366   1.314   3.953   0.596
 8156SOL    HW125367   1.329   3.951   0.497
 8156SOL    HW225368   1.372   3.885   0.640
 8157SOL     OW25369   6.498   4.703   5.193
 8157SOL    HW125370   6.574   4.768   5.192
 8157SOL    HW225371   6.528   4.615   5.229
 8158SOL     OW25372   6.101   5.180   6.090
 8158SOL    HW125373   6.028   5.137   6.037
 8158SOL    HW225374   6.130   5.263   6.045
 8159SOL     OW25375   2.192   6.453   5.240
 8159SOL    HW125376   2.140   6.392   5.180
 8159SOL    HW225377   2.134   6.487   5.313
 8160SOL     OW25378   5.095   2.975   2.859
 8160SOL    HW125379   5.055   2.975   2.951
 8160SOL    HW225380   5.181   3.025   2.860
 8161SOL     OW25381   0.216   2.357   1.306
 8161SOL    HW125382   0.117   2.344   1.300
 8161SOL    HW225383   0.241   2.442   1.259
 8162SOL     OW25384   0.199   6.319   5.421
 8162SOL    HW125385   0.182   6.361   5.331
 8162SOL    HW225386   0.223   6.223   5.409
 8163SOL     OW25387   3.844   4.979   5.672
 8163SOL    HW125388   3.833   4.957   5.575
 8163SOL    HW225389   3.864   5.077   5.681
 8164SOL     OW25390   5.709   2.080   0.154
 8164SOL    HW125391   5.636   2.078   0.222
 8164SOL    HW225392   5.797   2.097   0.199
 8165SOL     OW25393   0.930   2.731   5.840
 8165SOL    HW125394   0.839   2.690   5.835
 8165SOL    HW225395   0.953   2.772   5.752
 8166SOL     OW25396   3.264   2.075   4.407
 8166SOL    HW125397   3.180   2.128   4.405
 8166SOL    HW225398   3.242   1.977   4.404
 8167SOL     OW25399   1.767   2.572   2.307
 8167SOL    HW125400   1.763   2.587   2.208
 8167SOL    HW225401   1.823   2.492   2.326
 8168SOL     OW25402   1.183   5.880   3.036
 8168SOL    HW125403   1.233   5.908   3.118
 8168SOL    HW225404   1.239   5.900   2.955
 8169SOL     OW25405   5.221   4.804   6.482
 8169SOL    HW125406   5.150   4.785   6.414
 8169SOL    HW225407   5.268   4.889   6.457
 8170SOL     OW25408   0.022   4.989   3.441
 8170SOL    HW125409   6.989   4.922   3.388
 8170SOL    HW225410   0.080   4.940   3.507
 8171SOL     OW25411   1.800   1.720   1.698
 8171SOL    HW125412   1.853   1.804   1.714
 8171SOL    HW225413   1.711   1.744   1.659
 8172SOL     OW25414   1.635   5.247   0.583
 8172SOL    HW125415   1.544   5.259   0.622
 8172SOL    HW225416   1.639   5.161   0.533
 8173SOL     OW25417   5.787   0.294   1.598
 8173SOL    HW125418   5.820   0.388   1.593
 8173SOL    HW225419   5.846   0.235   1.542
 8174SOL     OW25420   2.403   6.731   4.204
 8174SOL    HW125421   2.475   6.662   4.200
 8174SOL    HW225422   2.419   6.799   4.132
 8175SOL     OW25423   0.966   2.181   6.554
 8175SOL    HW125424   0.893   2.129   6.509
 8175SOL    HW225425   0.926   2.244   6.620
 8176SOL     OW25426   2.818   4.420   0.260
 8176SOL    HW125427   2.787   4.447   0.351
 8176SOL    HW225428   2.752   4.355   0.221
 8177SOL     OW25429   3.286   1.160   2.395
 8177SOL    HW125430   3.196   1.201   2.381
 8177SOL    HW225431   3.327   1.137   2.307
 8178SOL     OW25432   2.560   6.473   1.192
 8178SOL    HW125433   2.549   6.471   1.093
 8178SOL    HW225434   2.475   6.504   1.234
 8179SOL     OW25435   6.214   6.859   4.189
 8179SOL    HW125436   6.168   6.795   4.250
 8179SOL    HW225437   6.148   6.927   4.156
 8180SOL     OW25438   4.395   5.906   0.999
 8180SOL    HW125439   4.447   5.920   1.083
 8180SOL    HW225440   4.456   5.877   0.926
 8181SOL     OW25441   6.564   0.668   6.437
 8181SOL    HW125442   6.601   0.575   6.425
 8181SOL    HW225443   6.624   0.719   6.498
 8182SOL     OW25444   3.603   3.400   3.125
 8182SOL    HW125445   3.599   3.361   3.033
 8182SOL    HW225446   3.532   3.469   3.136
 8183SOL     OW25447   0.301   0.163   5.316
 8183SOL    HW125448   0.328   0.133   5.408
 8183SOL    HW225449   0.378   0.209   5.272
 8184SOL     OW25450   0.287   5.852   4.757
 8184SOL    HW125451   0.253   5.785   4.690
 8184SOL    HW225452   0.242   5.838   4.845
 8185SOL     OW25453   0.186   6.413   4.848
 8185SOL    HW125454   0.123   6.484   4.880
 8185SOL    HW225455   0.220   6.361   4.927
 8186SOL     OW25456   1.427   5.794   6.939
 8186SOL    HW125457   1.390   5.814   0.010
 8186SOL    HW225458   1.453   5.880   6.895
 8187SOL     OW25459   1.419   5.973   4.450
 8187SOL    HW125460   1.370   5.951   4.534
 8187SOL    HW225461   1.355   5.971   4.373
 8188SOL     OW25462   1.614   2.883   2.700
 8188SOL    HW125463   1.632   2.812   2.631
 8188SOL    HW225464   1.684   2.953   2.696
 8189SOL     OW25465   6.690   5.421   4.042
 8189SOL    HW125466   6.778   5.374   4.051
 8189SOL    HW225467   6.682   5.491   4.112
 8190SOL     OW25468   5.428   3.653   2.836
 8190SOL    HW125469   5.521   3.681   2.814
 8190SOL    HW225470   5.370   3.663   2.755
 8191SOL     OW25471   5.186   5.156   0.877
 8191SOL    HW125472   5.113   5.140   0.944
 8191SOL    HW225473   5.151   5.137   0.785
 8192SOL     OW25474   6.835   5.799   2.525
 8192SOL    HW125475   6.810   5.884   2.572
 8192SOL    HW225476   6.934   5.797   2.511
 8193SOL     OW25477   0.954   4.844   4.697
 8193SOL    HW125478   1.005   4.930   4.696
 8193SOL    HW225479   0.858   4.862   4.678
 8194SOL     OW25480   5.311   0.043   2.290
 8194SOL    HW125481   5.330   6.973   2.332
 8194SOL    HW225482   5.342   0.116   2.351
 8195SOL     OW25483   6.653   6.783   3.364
 8195SOL    HW125484   6.657   6.767   3.265
 8195SOL    HW225485   6.688   6.703   3.412
 8196SOL     OW25486   4.876   6.991   2.870
 8196SOL    HW125487   4.902   0.056   2.824
 8196SOL    HW225488   4.886   7.002   2.969
 8197SOL     OW25489   4.077   1.055   3.145
 8197SOL    HW125490   3.980   1.036   3.126
 8197SOL    HW225491   4.088   1.082   3.241
 8198SOL     OW25492   2.099   5.423   0.031
 8198SOL    HW125493   2.181   5.454   0.079
 8198SOL    HW225494   2.094   5.467   6.961
 8199SOL     OW25495   5.929   3.032   0.269
 8199SOL    HW125496   5.939   3.101   0.340
 8199SOL    HW225497   5.832   3.012   0.254
 8200SOL     OW25498   5.987   4.623   7.000
 8200SOL    HW125499   5.908   4.684   7.007
 8200SOL    HW225500   5.981   4.552   0.051
 8201SOL     OW25501   5.566   1.245   5.473
 8201SOL    HW125502   5.642   1.300   5.439
 8201SOL    HW225503   5.524   1.292   5.551
 8202SOL     OW25504   0.380   5.776   2.086
 8202SOL    HW125505   0.328   5.780   2.171
 8202SOL    HW225506   0.475   5.801   2.103
 8203SOL     OW25507   1.122   2.942   0.423
 8203SOL    HW125508   1.147   3.034   0.454
 8203SOL    HW225509   1.106   2.884   0.502
 8204SOL     OW25510   1.803   3.863   0.525
 8204SOL    HW125511   1.854   3.894   0.445
 8204SOL    HW225512   1.844   3.780   0.561
 8205SOL     OW25513   7.019   4.225   6.376
 8205SOL    HW125514   6.920   4.220   6.389
 8205SOL    HW225515   0.027   4.168   6.299
 8206SOL     OW25516   3.370   1.167   0.913
 8206SOL    HW125517   3.375   1.068   0.929
 8206SOL    HW225518   3.403   1.216   0.994
 8207SOL     OW25519   3.988   3.492   4.310
 8207SOL    HW125520   3.902   3.479   4.359
 8207SOL    HW225521   4.040   3.406   4.312
 8208SOL     OW25522   3.290   0.246   5.905
 8208SOL    HW125523   3.307   0.226   5.809
 8208SOL    HW225524   3.357   0.197   5.962
 8209SOL     OW25525   5.760   2.361   3.610
 8209SOL    HW125526   5.662   2.350   3.627
 8209SOL    HW225527   5.799   2.424   3.677
 8210SOL     OW25528   1.590   1.890   6.299
 8210SOL    HW125529   1.583   1.830   6.218
 8210SOL    HW225530   1.630   1.977   6.272
 8211SOL     OW25531   3.518   4.687   1.380
 8211SOL    HW125532   3.468   4.601   1.382
 8211SOL    HW225533   3.616   4.669   1.385
 8212SOL     OW25534   1.759   3.503   3.134
 8212SOL    HW125535   1.764   3.404   3.149
 8212SOL    HW225536   1.663   3.533   3.139
 8213SOL     OW25537   6.515   4.563   0.958
 8213SOL    HW125538   6.582   4.624   0.915
 8213SOL    HW225539   6.551   4.470   0.959
 8214SOL     OW25540   4.815   2.991   3.671
 8214SOL    HW125541   4.826   2.905   3.621
 8214SOL    HW225542   4.845   3.067   3.613
 8215SOL     OW25543   3.579   4.866   1.674
 8215SOL    HW125544   3.575   4.787   1.736
 8215SOL    HW225545   3.544   4.840   1.584
 8216SOL     OW25546   5.444   2.905   4.335
 8216SOL    HW125547   5.389   2.872   4.413
 8216SOL    HW225548   5.532   2.938   4.368
 8217SOL     OW25549   2.371   5.917   0.199
 8217SOL    HW125550   2.395   5.951   0.290
 8217SOL    HW225551   2.277   5.884   0.199
 8218SOL     OW25552   4.750   1.717   0.206
 8218SOL    HW125553   4.665   1.681   0.245
 8218SOL    HW225554   4.816   1.733   0.279
 8219SOL     OW25555   5.285   2.654   0.102
 8219SOL    HW125556   5.365   2.597   0.083
 8219SOL    HW225557   5.316   2.744   0.133
 8220SOL     OW25558   3.992   3.652   1.492
 8220SOL    HW125559   4.047   3.597   1.555
 8220SOL    HW225560   3.899   3.659   1.527
 8221SOL     OW25561   5.525   3.836   3.761
 8221SOL    HW125562   5.572   3.760   3.716
 8221SOL    HW225563   5.429   3.811   3.776
 8222SOL     OW25564   5.866   0.855   2.879
 8222SOL    HW125565   5.802   0.833   2.806
 8222SOL    HW225566   5.888   0.953   2.875
 8223SOL     OW25567   0.959   3.972   0.103
 8223SOL    HW125568   0.934   4.058   0.148
 8223SOL    HW225569   1.020   3.992   0.026
 8224SOL     OW25570   0.754   3.698   2.469
 8224SOL    HW125571   0.673   3.684   2.411
 8224SOL    HW225572   0.832   3.649   2.430
 8225SOL     OW25573   4.906   0.853   0.863
 8225SOL    HW125574   4.811   0.843   0.834
 8225SOL    HW225575   4.909   0.879   0.959
 8226SOL     OW25576   3.909   0.356   6.940
 8226SOL    HW125577   3.898   0.449   6.906
 8226SOL    HW225578   3.827   0.328   6.990
 8227SOL     OW25579   5.741   3.999   3.435
 8227SOL    HW125580   5.763   4.082   3.382
 8227SOL    HW225581   5.670   4.020   3.501
 8228SOL     OW25582   0.264   1.534   3.685
 8228SOL    HW125583   0.197   1.573   3.749
 8228SOL    HW225584   0.232   1.549   3.591
 8229SOL     OW25585   5.483   5.426   6.805
 8229SOL    HW125586   5.457   5.467   6.718
 8229SOL    HW225587   5.416   5.451   6.875
 8230SOL     OW25588   5.045   0.167   3.524
 8230SOL    HW125589   5.024   0.083   3.474
 8230SOL    HW225590   5.143   0.187   3.517
 8231SOL     OW25591   3.867   5.915   1.274
 8231SOL    HW125592   3.940   5.921   1.205
 8231SOL    HW225593   3.833   6.007   1.294
 8232SOL     OW25594   2.487   1.468   0.370
 8232SOL    HW125595   2.433   1.461   0.286
 8232SOL    HW225596   2.466   1.389   0.428
 8233SOL     OW25597   0.833   5.707   6.101
 8233SOL    HW125598   0.885   5.652   6.036
 8233SOL    HW225599   0.775   5.771   6.051
 8234SOL     OW25600   2.028   3.548   6.868
 8234SOL    HW125601   1.991   3.553   6.961
 8234SOL    HW225602   1.959   3.511   6.806
 8235SOL     OW25603   4.442   2.761   6.649
 8235SOL    HW125604   4.466   2.693   6.718
 8235SOL    HW225605   4.455   2.722   6.557
 8236SOL     OW25606   6.246   2.059   1.837
 8236SOL    HW125607   6.254   2.009   1.923
 8236SOL    HW225608   6.157   2.041   1.796
 8237SOL     OW25609   3.641   6.099   5.441
 8237SOL    HW125610   3.610   6.194   5.437
 8237SOL    HW225611   3.719   6.092   5.502
 8238SOL     OW25612   0.642   0.802   6.012
 8238SOL    HW125613   0.595   0.842   6.090
 8238SOL    HW225614   0.736   0.837   6.008
 8239SOL     OW25615   5.220   1.480   6.578
 8239SOL    HW125616   5.126   1.475   6.543
 8239SOL    HW225617   5.236   1.405   6.642
 8240SOL     OW25618   3.705   3.191   2.888
 8240SOL    HW125619   3.754   3.229   2.810
 8240SOL    HW225620   3.737   3.097   2.904
 8241SOL     OW25621   4.650   6.160   1.120
 8241SOL    HW125622   4.683   6.245   1.079
 8241SOL    HW225623   4.710   6.085   1.095
 8242SOL     OW25624   1.482   4.583   5.292
 8242SOL    HW125625   1.544   4.558   5.366
 8242SOL    HW225626   1.524   4.562   5.204
 8243SOL     OW25627   0.548   3.359   4.886
 8243SOL    HW125628   0.503   3.439   4.846
 8243SOL    HW225629   0.495   3.326   4.965
 8244SOL     OW25630   2.999   5.481   5.335
 8244SOL    HW125631   3.070   5.426   5.292
 8244SOL    HW225632   2.913   5.430   5.335
 8245SOL     OW25633   4.432   4.153   1.059
 8245SOL    HW125634   4.462   4.072   1.110
 8245SOL    HW225635   4.507   4.219   1.054
 8246SOL     OW25636   5.214   3.031   4.895
 8246SOL    HW125637   5.216   3.111   4.836
 8246SOL    HW225638   5.194   2.950   4.841
 8247SOL     OW25639   1.359   6.220   6.954
 8247SOL    HW125640   1.321   6.310   6.977
 8247SOL    HW225641   1.347   6.203   6.856
 8248SOL     OW25642   6.983   4.550   3.612
 8248SOL    HW125643   0.026   4.627   3.621
 8248SOL    HW225644   6.953   4.541   3.517
 8249SOL     OW25645   0.677   5.289   3.071
 8249SOL    HW125646   0.725   5.332   3.147
 8249SOL    HW225647   0.693   5.341   2.987
 8250SOL     OW25648   3.024   3.090   2.770
 8250SOL    HW125649   2.968   3.169   2.793
 8250SOL    HW225650   2.985   3.042   2.692
 8251SOL     OW25651   5.562   0.814   4.600
 8251SOL    HW125652   5.635   0.749   4.623
 8251SOL    HW225653   5.526   0.854   4.685
 8252SOL     OW25654   0.870   4.067   4.099
 8252SOL    HW125655   0.903   4.132   4.168
 8252SOL    HW225656   0.911   3.977   4.116
 8253SOL     OW25657   3.288   3.063   5.884
 8253SOL    HW125658   3.321   3.011   5.806
 8253SOL    HW225659   3.202   3.108   5.860
 8254SOL     OW25660   5.121   5.191   2.707
 8254SOL    HW125661   5.204   5.241   2.730
 8254SOL    HW225662   5.048   5.216   2.771
 8255SOL     OW25663   3.771   5.139   3.453
 8255SOL    HW125664   3.782   5.051   3.408
 8255SOL    HW225665   3.678   5.146   3.489
 8256SOL     OW25666   5.119   2.217   3.124
 8256SOL    HW125667   5.114   2.117   3.119
 8256SOL    HW225668   5.044   2.257   3.071
 8257SOL     OW25669   6.335   4.176   4.446
 8257SOL    HW125670   6.402   4.163   4.372
 8257SOL    HW225671   6.316   4.088   4.489
 8258SOL     OW25672   5.291   2.279   7.014
 8258SOL    HW125673   5.382   2.256   6.978
 8258SOL    HW225674   5.255   2.201   0.046
 8259SOL     OW25675   4.927   0.509   0.512
 8259SOL    HW125676   4.976   0.560   0.582
 8259SOL    HW225677   4.985   0.435   0.478
 8260SOL     OW25678   3.185   5.673   6.556
 8260SOL    HW125679   3.222   5.644   6.467
 8260SOL    HW225680   3.260   5.684   6.621
 8261SOL     OW25681   5.104   1.415   1.665
 8261SOL    HW125682   5.101   1.490   1.731
 8261SOL    HW225683   5.032   1.349   1.686
 8262SOL     OW25684   6.442   2.771   1.545
 8262SOL    HW125685   6.425   2.797   1.640
 8262SOL    HW225686   6.403   2.681   1.527
 8263SOL     OW25687   5.991   1.690   0.384
 8263SOL    HW125688   6.069   1.667   0.325
 8263SOL    HW225689   5.986   1.626   0.460
 8264SOL     OW25690   1.060   4.106   1.339
 8264SOL    HW125691   1.103   4.082   1.252
 8264SOL    HW225692   1.131   4.118   1.409
 8265SOL     OW25693   1.976   0.704   2.713
 8265SOL    HW125694   2.044   0.715   2.641
 8265SOL    HW225695   2.010   0.745   2.798
 8266SOL     OW25696   2.864   0.777   2.556
 8266SOL    HW125697   2.839   0.726   2.638
 8266SOL    HW225698   2.928   0.850   2.579
 8267SOL     OW25699   6.943   3.651   1.207
 8267SOL    HW125700   6.848   3.677   1.193
 8267SOL    HW225701   6.960   3.641   1.305
 8268SOL     OW25702   2.421   4.501   6.992
 8268SOL    HW125703   2.502   4.508   6.934
 8268SOL    HW225704   2.344   4.548   6.949
 8269SOL     OW25705   5.564   2.178   6.925
 8269SOL    HW125706   5.583   2.116   6.849
 8269SOL    HW225707   5.601   2.139   7.010
 8270SOL     OW25708   2.374   6.158   4.320
 8270SOL    HW125709   2.373   6.104   4.403
 8270SOL    HW225710   2.280   6.167   4.285
 8271SOL     OW25711   0.472   2.248   2.615
 8271SOL    HW125712   0.402   2.267   2.546
 8271SOL    HW225713   0.498   2.152   2.610
 8272SOL     OW25714   3.186   1.160   4.056
 8272SOL    HW125715   3.129   1.134   4.134
 8272SOL    HW225716   3.279   1.125   4.068
 8273SOL     OW25717   1.766   6.417   1.952
 8273SOL    HW125718   1.825   6.488   1.988
 8273SOL    HW225719   1.811   6.328   1.959
 8274SOL     OW25720   5.246   3.805   3.748
 8274SOL    HW125721   5.256   3.707   3.730
 8274SOL    HW225722   5.155   3.823   3.785
 8275SOL     OW25723   5.980   2.404   0.304
 8275SOL    HW125724   6.043   2.480   0.287
 8275SOL    HW225725   5.920   2.392   0.225
 8276SOL     OW25726   0.698   2.125   2.864
 8276SOL    HW125727   0.798   2.135   2.863
 8276SOL    HW225728   0.669   2.080   2.779
 8277SOL     OW25729   0.216   1.204   0.534
 8277SOL    HW125730   0.209   1.271   0.461
 8277SOL    HW225731   0.276   1.129   0.506
 8278SOL     OW25732   1.121   2.577   0.578
 8278SOL    HW125733   1.144   2.596   0.482
 8278SOL    HW225734   1.096   2.662   0.624
 8279SOL     OW25735   0.318   5.944   3.756
 8279SOL    HW125736   0.398   5.983   3.801
 8279SOL    HW225737   0.342   5.855   3.717
 8280SOL     OW25738   2.988   2.655   6.047
 8280SOL    HW125739   3.028   2.579   5.996
 8280SOL    HW225740   3.034   2.740   6.021
 8281SOL     OW25741   4.014   5.120   2.305
 8281SOL    HW125742   3.916   5.110   2.288
 8281SOL    HW225743   4.064   5.045   2.263
 8282SOL     OW25744   5.882   2.904   6.230
 8282SOL    HW125745   5.801   2.944   6.272
 8282SOL    HW225746   5.961   2.962   6.250
 8283SOL     OW25747   2.252   2.997   6.263
 8283SOL    HW125748   2.260   3.097   6.272
 8283SOL    HW225749   2.213   2.975   6.173
 8284SOL     OW25750   6.588   4.533   1.672
 8284SOL    HW125751   6.593   4.612   1.732
 8284SOL    HW225752   6.618   4.451   1.722
 8285SOL     OW25753   3.530   2.862   3.473
 8285SOL    HW125754   3.526   2.828   3.379
 8285SOL    HW225755   3.607   2.925   3.482
 8286SOL     OW25756   0.509   3.026   6.967
 8286SOL    HW125757   0.474   3.011   6.875
 8286SOL    HW225758   0.606   3.050   6.962
 8287SOL     OW25759   1.677   0.013   4.338
 8287SOL    HW125760   1.699   6.941   4.374
 8287SOL    HW225761   1.760   0.068   4.332
 8288SOL     OW25762   2.966   1.538   2.985
 8288SOL    HW125763   2.904   1.498   3.052
 8288SOL    HW225764   2.975   1.476   2.907
 8289SOL     OW25765   0.744   6.644   6.786
 8289SOL    HW125766   0.711   6.737   6.772
 8289SOL    HW225767   0.836   6.635   6.748
 8290SOL     OW25768   6.327   1.972   0.961
 8290SOL    HW125769   6.280   2.035   0.899
 8290SOL    HW225770   6.381   2.024   1.027
 8291SOL     OW25771   3.862   0.361   0.985
 8291SOL    HW125772   3.942   0.302   0.974
 8291SOL    HW225773   3.804   0.325   1.059
 8292SOL     OW25774   2.520   0.736   6.019
 8292SOL    HW125775   2.603   0.742   5.964
 8292SOL    HW225776   2.533   0.667   6.091
 8293SOL     OW25777   5.990   5.268   5.319
 8293SOL    HW125778   6.081   5.283   5.357
 8293SOL    HW225779   5.937   5.353   5.324
 8294SOL     OW25780   6.045   2.848   0.084
 8294SOL    HW125781   6.021   2.928   0.139
 8294SOL    HW225782   6.090   2.878   7.019
 8295SOL     OW25783   5.554   2.426   6.757
 8295SOL    HW125784   5.562   2.336   6.714
 8295SOL    HW225785   5.631   2.484   6.730
 8296SOL     OW25786   6.974   5.097   5.340
 8296SOL    HW125787   6.927   5.134   5.421
 8296SOL    HW225788   0.050   5.078   5.363
 8297SOL     OW25789   1.145   3.633   4.013
 8297SOL    HW125790   1.133   3.687   3.930
 8297SOL    HW225791   1.240   3.640   4.044
 8298SOL     OW25792   4.690   1.794   1.918
 8298SOL    HW125793   4.770   1.782   1.977
 8298SOL    HW225794   4.647   1.882   1.938
 8299SOL     OW25795   5.550   1.793   1.908
 8299SOL    HW125796   5.519   1.700   1.888
 8299SOL    HW225797   5.472   1.855   1.913
 8300SOL     OW25798   1.686   5.490   2.946
 8300SOL    HW125799   1.764   5.543   2.979
 8300SOL    HW225800   1.638   5.450   3.024
 8301SOL     OW25801   2.960   1.550   5.886
 8301SOL    HW125802   2.973   1.633   5.832
 8301SOL    HW225803   2.864   1.523   5.882
 8302SOL     OW25804   5.823   5.829   5.796
 8302SOL    HW125805   5.922   5.842   5.799
 8302SOL    HW225806   5.788   5.818   5.889
 8303SOL     OW25807   0.529   0.064   7.012
 8303SOL    HW125808   0.598   0.095   0.058
 8303SOL    HW225809   0.546   0.108   6.923
 8304SOL     OW25810   0.068   2.973   0.593
 8304SOL    HW125811   0.098   3.026   0.514
 8304SOL    HW225812   0.119   2.887   0.597
 8305SOL     OW25813   3.027   5.107   2.642
 8305SOL    HW125814   2.946   5.136   2.592
 8305SOL    HW225815   3.000   5.072   2.732
 8306SOL     OW25816   2.060   2.693   3.930
 8306SOL    HW125817   1.983   2.669   3.869
 8306SOL    HW225818   2.123   2.753   3.880
 8307SOL     OW25819   3.751   6.390   0.905
 8307SOL    HW125820   3.688   6.386   0.828
 8307SOL    HW225821   3.707   6.352   0.986
 8308SOL     OW25822   2.476   0.805   2.333
 8308SOL    HW125823   2.438   0.820   2.424
 8308SOL    HW225824   2.562   0.755   2.340
 8309SOL     OW25825   5.407   6.659   2.190
 8309SOL    HW125826   5.480   6.618   2.245
 8309SOL    HW225827   5.444   6.688   2.102
 8310SOL     OW25828   5.892   4.842   6.801
 8310SOL    HW125829   5.883   4.845   6.900
 8310SOL    HW225830   5.847   4.760   6.765
 8311SOL     OW25831   6.614   0.284   6.448
 8311SOL    HW125832   6.707   0.281   6.410
 8311SOL    HW225833   6.619   0.296   6.547
 8312SOL     OW25834   4.850   6.325   1.708
 8312SOL    HW125835   4.821   6.420   1.699
 8312SOL    HW225836   4.793   6.266   1.651
 8313SOL     OW25837   3.778   1.537   2.733
 8313SOL    HW125838   3.844   1.524   2.807
 8313SOL    HW225839   3.692   1.493   2.758
 8314SOL     OW25840   0.062   6.966   3.829
 8314SOL    HW125841   0.006   6.906   3.886
 8314SOL    HW225842   0.126   6.910   3.776
 8315SOL     OW25843   4.760   4.762   0.111
 8315SOL    HW125844   4.757   4.733   0.207
 8315SOL    HW225845   4.841   4.819   0.097
 8316SOL     OW25846   3.005   5.425   6.655
 8316SOL    HW125847   2.936   5.431   6.727
 8316SOL    HW225848   3.017   5.514   6.612
 8317SOL     OW25849   2.591   4.863   1.456
 8317SOL    HW125850   2.525   4.846   1.529
 8317SOL    HW225851   2.654   4.786   1.450
 8318SOL     OW25852   3.259   1.525   5.742
 8318SOL    HW125853   3.334   1.538   5.677
 8318SOL    HW225854   3.282   1.568   5.829
 8319SOL     OW25855   2.495   0.654   5.276
 8319SOL    HW125856   2.423   0.634   5.342
 8319SOL    HW225857   2.482   0.598   5.194
 8320SOL     OW25858   3.713   5.324   1.072
 8320SOL    HW125859   3.784   5.278   1.125
 8320SOL    HW225860   3.684   5.266   0.996
 8321SOL     OW25861   6.270   0.760   1.282
 8321SOL    HW125862   6.325   0.837   1.315
 8321SOL    HW225863   6.192   0.795   1.230
 8322SOL     OW25864   5.133   6.446   0.877
 8322SOL    HW125865   5.184   6.363   0.900
 8322SOL    HW225866   5.183   6.526   0.911
 8323SOL     OW25867   1.339   0.624   1.980
 8323SOL    HW125868   1.305   0.716   1.961
 8323SOL    HW225869   1.421   0.629   2.037
 8324SOL     OW25870   0.034   0.678   2.448
 8324SOL    HW125871   0.028   0.611   2.522
 8324SOL    HW225872   6.961   0.713   2.428
 8325SOL     OW25873   3.714   3.963   4.889
 8325SOL    HW125874   3.722   3.929   4.983
 8325SOL    HW225875   3.761   3.901   4.827
 8326SOL     OW25876   4.203   3.282   6.276
 8326SOL    HW125877   4.106   3.259   6.271
 8326SOL    HW225878   4.243   3.240   6.358
 8327SOL     OW25879   4.548   2.149   6.045
 8327SOL    HW125880   4.596   2.200   6.116
 8327SOL    HW225881   4.523   2.059   6.081
 8328SOL     OW25882   1.987   2.489   3.515
 8328SOL    HW125883   2.020   2.574   3.556
 8328SOL    HW225884   2.065   2.431   3.491
 8329SOL     OW25885   0.666   2.954   4.849
 8329SOL    HW125886   0.607   2.887   4.805
 8329SOL    HW225887   0.727   2.907   4.912
 8330SOL     OW25888   2.362   6.882   0.461
 8330SOL    HW125889   2.389   6.890   0.557
 8330SOL    HW225890   2.283   6.820   0.453
 8331SOL     OW25891   2.450   0.016   0.917
 8331SOL    HW125892   2.396   0.100   0.925
 8331SOL    HW225893   2.499   7.018   1.003
 8332SOL     OW25894   4.483   6.216   3.513
 8332SOL    HW125895   4.481   6.315   3.502
 8332SOL    HW225896   4.390   6.183   3.530
 8333SOL     OW25897   1.933   4.846   5.383
 8333SOL    HW125898   1.937   4.848   5.483
 8333SOL    HW225899   1.958   4.755   5.351
 8334SOL     OW25900   6.391   0.228   3.522
 8334SOL    HW125901   6.439   0.250   3.607
 8334SOL    HW225902   6.396   0.129   3.505
 8335SOL     OW25903   6.502   6.201   5.250
 8335SOL    HW125904   6.497   6.296   5.220
 8335SOL    HW225905   6.555   6.196   5.335
 8336SOL     OW25906   1.054   1.796   2.898
 8336SOL    HW125907   1.039   1.697   2.905
 8336SOL    HW225908   1.028   1.840   2.984
 8337SOL     OW25909   6.297   6.577   2.254
 8337SOL    HW125910   6.208   6.603   2.215
 8337SOL    HW225911   6.329   6.493   2.211
 8338SOL     OW25912   2.217   5.529   0.690
 8338SOL    HW125913   2.198   5.600   0.757
 8338SOL    HW225914   2.308   5.542   0.651
 8339SOL     OW25915   4.914   1.000   2.979
 8339SOL    HW125916   4.907   1.094   3.011
 8339SOL    HW225917   4.928   0.939   3.057
 8340SOL     OW25918   4.845   3.901   1.527
 8340SOL    HW125919   4.878   3.995   1.515
 8340SOL    HW225920   4.847   3.878   1.625
 8341SOL     OW25921   2.193   0.286   0.747
 8341SOL    HW125922   2.203   0.314   0.651
 8341SOL    HW225923   2.280   0.249   0.780
 8342SOL     OW25924   5.454   6.959   1.347
 8342SOL    HW125925   5.467   0.014   1.281
 8342SOL    HW225926   5.357   6.948   1.366
 8343SOL     OW25927   0.109   4.580   5.306
 8343SOL    HW125928   0.040   4.600   5.237
 8343SOL    HW225929   0.133   4.665   5.355
 8344SOL     OW25930   3.688   0.013   5.132
 8344SOL    HW125931   3.724   6.941   5.151
 8344SOL    HW225932   3.638   0.011   5.045
 8345SOL     OW25933   6.127   1.276   3.299
 8345SOL    HW125934   6.093   1.346   3.236
 8345SOL    HW225935   6.194   1.315   3.361
 8346SOL     OW25936   4.213   5.354   2.246
 8346SOL    HW125937   4.296   5.361   2.302
 8346SOL    HW225938   4.133   5.358   2.306
 8347SOL     OW25939   3.174   5.233   4.667
 8347SOL    HW125940   3.227   5.154   4.700
 8347SOL    HW225941   3.236   5.309   4.650
 8348SOL     OW25942   2.162   0.424   0.477
 8348SOL    HW125943   2.221   0.420   0.396
 8348SOL    HW225944   2.169   0.514   0.519
 8349SOL     OW25945   5.943   4.764   2.298
 8349SOL    HW125946   6.002   4.835   2.337
 8349SOL    HW225947   5.860   4.807   2.261
 8350SOL     OW25948   6.529   0.858   5.161
 8350SOL    HW125949   6.559   0.893   5.072
 8350SOL    HW225950   6.446   0.804   5.150
 8351SOL     OW25951   3.296   6.754   2.566
 8351SOL    HW125952   3.264   6.692   2.495
 8351SOL    HW225953   3.392   6.734   2.586
 8352SOL     OW25954   6.289   6.000   1.494
 8352SOL    HW125955   6.281   6.066   1.420
 8352SOL    HW225956   6.385   5.984   1.515
 8353SOL     OW25957   2.112   3.727   2.165
 8353SOL    HW125958   2.161   3.653   2.119
 8353SOL    HW225959   2.129   3.813   2.118
 8354SOL     OW25960   3.134   0.741   0.649
 8354SOL    HW125961   3.114   0.727   0.746
 8354SOL    HW225962   3.218   0.693   0.625
 8355SOL     OW25963   2.955   1.656   0.927
 8355SOL    HW125964   2.892   1.608   0.989
 8355SOL    HW225965   2.902   1.708   0.860
 8356SOL     OW25966   2.941   5.177   0.187
 8356SOL    HW125967   2.903   5.263   0.220
 8356SOL    HW225968   2.962   5.118   0.265
 8357SOL     OW25969   4.235   6.031   3.225
 8357SOL    HW125970   4.156   6.030   3.164
 8357SOL    HW225971   4.271   5.938   3.235
 8358SOL     OW25972   3.176   1.891   4.788
 8358SOL    HW125973   3.163   1.817   4.854
 8358SOL    HW225974   3.132   1.974   4.822
 8359SOL     OW25975   3.633   4.956   4.131
 8359SOL    HW125976   3.654   4.959   4.229
 8359SOL    HW225977   3.536   4.973   4.117
 8360SOL     OW25978   4.419   0.761   3.121
 8360SOL    HW125979   4.474   0.824   3.065
 8360SOL    HW225980   4.450   0.667   3.105
 8361SOL     OW25981   1.352   0.420   2.973
 8361SOL    HW125982   1.382   0.501   2.923
 8361SOL    HW225983   1.267   0.441   3.022
 8362SOL     OW25984   2.830   3.211   0.683
 8362SOL    HW125985   2.876   3.131   0.721
 8362SOL    HW225986   2.738   3.218   0.720
 8363SOL     OW25987   0.806   3.504   1.655
 8363SOL    HW125988   0.818   3.602   1.638
 8363SOL    HW225989   0.892   3.466   1.691
 8364SOL     OW25990   6.673   4.847   5.566
 8364SOL    HW125991   6.763   4.804   5.576
 8364SOL    HW225992   6.678   4.917   5.495
 8365SOL     OW25993   1.475   3.648   5.857
 8365SOL    HW125994   1.424   3.706   5.921
 8365SOL    HW225995   1.411   3.585   5.812
 8366SOL     OW25996   2.647   0.133   2.041
 8366SOL    HW125997   2.593   0.217   2.043
 8366SOL    HW225998   2.693   0.120   2.129
 8367SOL     OW25999   5.096   5.714   3.693
 8367SOL    HW126000   5.010   5.695   3.739
 8367SOL    HW226001   5.112   5.644   3.623
 8368SOL     OW26002   3.430   5.901   6.331
 8368SOL    HW126003   3.495   5.922   6.258
 8368SOL    HW226004   3.399   5.807   6.322
 8369SOL     OW26005   2.304   1.510   0.943
 8369SOL    HW126006   2.262   1.547   1.026
 8369SOL    HW226007   2.373   1.442   0.968
 8370SOL     OW26008   2.350   1.279   0.725
 8370SOL    HW126009   2.278   1.345   0.702
 8370SOL    HW226010   2.314   1.213   0.791
 8371SOL     OW26011   1.218   2.213   0.250
 8371SOL    HW126012   1.245   2.154   0.326
 8371SOL    HW226013   1.122   2.238   0.259
 8372SOL     OW26014   6.219   0.758   0.323
 8372SOL    HW126015   6.127   0.790   0.302
 8372SOL    HW226016   6.280   0.836   0.334
 8373SOL     OW26017   1.477   6.850   4.383
 8373SOL    HW126018   1.519   6.938   4.360
 8373SOL    HW226019   1.382   6.848   4.352
 8374SOL     OW26020   6.810   1.248   5.897
 8374SOL    HW126021   6.895   1.217   5.855
 8374SOL    HW226022   6.732   1.215   5.844
 8375SOL     OW26023   4.226   0.933   6.588
 8375SOL    HW126024   4.193   0.920   6.682
 8375SOL    HW226025   4.233   0.844   6.543
 8376SOL     OW26026   4.287   0.685   3.998
 8376SOL    HW126027   4.278   0.692   4.097
 8376SOL    HW226028   4.215   0.625   3.962
 8377SOL     OW26029   5.305   4.987   1.072
 8377SOL    HW126030   5.282   5.034   0.987
 8377SOL    HW226031   5.390   5.024   1.109
 8378SOL     OW26032   4.749   2.539   3.642
 8378SOL    HW126033   4.656   2.558   3.610
 8378SOL    HW226034   4.808   2.617   3.621
 8379SOL     OW26035   5.371   2.954   2.445
 8379SOL    HW126036   5.325   2.910   2.522
 8379SOL    HW226037   5.410   2.885   2.385
 8380SOL     OW26038   5.880   1.710   3.606
 8380SOL    HW126039   5.789   1.684   3.640
 8380SOL    HW226040   5.935   1.745   3.681
 8381SOL     OW26041   1.829   5.416   4.229
 8381SOL    HW126042   1.907   5.478   4.236
 8381SOL    HW226043   1.861   5.321   4.223
 8382SOL     OW26044   0.577   4.595   2.453
 8382SOL    HW126045   0.564   4.502   2.418
 8382SOL    HW226046   0.544   4.661   2.385
 8383SOL     OW26047   3.453   1.567   5.537
 8383SOL    HW126048   3.482   1.497   5.471
 8383SOL    HW226049   3.472   1.658   5.500
 8384SOL     OW26050   0.588   6.971   1.451
 8384SOL    HW126051   0.524   6.989   1.376
 8384SOL    HW226052   0.676   7.014   1.431
 8385SOL     OW26053   4.430   1.627   1.340
 8385SOL    HW126054   4.334   1.607   1.319
 8385SOL    HW226055   4.477   1.656   1.256
 8386SOL     OW26056   0.335   3.000   1.885
 8386SOL    HW126057   0.336   3.083   1.940
 8386SOL    HW226058   0.313   3.022   1.790
 8387SOL     OW26059   0.475   1.644   1.711
 8387SOL    HW126060   0.536   1.719   1.686
 8387SOL    HW226061   0.381   1.677   1.717
 8388SOL     OW26062   1.275   6.871   2.704
 8388SOL    HW126063   1.251   6.846   2.610
 8388SOL    HW226064   1.316   6.793   2.750
 8389SOL     OW26065   6.165   3.158   3.634
 8389SOL    HW126066   6.243   3.196   3.681
 8389SOL    HW226067   6.130   3.224   3.567
 8390SOL     OW26068   6.295   1.964   6.892
 8390SOL    HW126069   6.277   2.035   6.960
 8390SOL    HW226070   6.393   1.943   6.890
 8391SOL     OW26071   6.280   0.318   1.036
 8391SOL    HW126072   6.314   0.260   1.111
 8391SOL    HW226073   6.293   0.271   0.949
 8392SOL     OW26074   3.633   2.872   4.709
 8392SOL    HW126075   3.573   2.823   4.773
 8392SOL    HW226076   3.652   2.963   4.745
 8393SOL     OW26077   5.472   6.999   0.879
 8393SOL    HW126078   5.532   0.059   0.886
 8393SOL    HW226079   5.523   6.920   0.845
 8394SOL     OW26080   5.697   2.859   2.974
 8394SOL    HW126081   5.610   2.809   2.982
 8394SOL    HW226082   5.769   2.807   3.019
 8395SOL     OW26083   1.923   0.844   5.176
 8395SOL    HW126084   1.998   0.779   5.184
 8395SOL    HW226085   1.887   0.864   5.267
 8396SOL     OW26086   4.941   5.451   4.170
 8396SOL    HW126087   4.959   5.436   4.073
 8396SOL    HW226088   4.888   5.375   4.207
 8397SOL     OW26089   5.927   6.446   2.828
 8397SOL    HW126090   5.880   6.418   2.911
 8397SOL    HW226091   5.861   6.457   2.754
 8398SOL     OW26092   5.834   1.610   6.422
 8398SOL    HW126093   5.847   1.589   6.519
 8398SOL    HW226094   5.774   1.690   6.413
 8399SOL     OW26095   0.491   4.347   2.384
 8399SOL    HW126096   0.447   4.279   2.443
 8399SOL    HW226097   0.433   4.365   2.304
 8400SOL     OW26098   1.261   0.894   4.480
 8400SOL    HW126099   1.312   0.891   4.566
 8400SOL    HW226100   1.257   0.988   4.446
 8401SOL     OW26101   1.739   0.383   5.814
 8401SOL    HW126102   1.770   0.450   5.882
 8401SOL    HW226103   1.814   0.361   5.752
 8402SOL     OW26104   2.857   0.623   6.122
 8402SOL    HW126105   2.812   0.538   6.149
 8402SOL    HW226106   2.810   0.663   6.044
 8403SOL     OW26107   5.814   4.983   5.700
 8403SOL    HW126108   5.722   4.954   5.726
 8403SOL    HW226109   5.810   5.035   5.615
 8404SOL     OW26110   1.414   1.347   0.320
 8404SOL    HW126111   1.391   1.405   0.242
 8404SOL    HW226112   1.358   1.373   0.399
 8405SOL     OW26113   3.845   6.964   5.689
 8405SOL    HW126114   3.855   6.914   5.603
 8405SOL    HW226115   3.919   6.937   5.751
 8406SOL     OW26116   6.245   0.817   6.096
 8406SOL    HW126117   6.305   0.894   6.116
 8406SOL    HW226118   6.193   0.793   6.179
 8407SOL     OW26119   4.752   0.704   5.116
 8407SOL    HW126120   4.720   0.767   5.045
 8407SOL    HW226121   4.849   0.687   5.104
 8408SOL     OW26122   3.896   2.198   1.463
 8408SOL    HW126123   3.963   2.125   1.445
 8408SOL    HW226124   3.919   2.243   1.549
 8409SOL     OW26125   4.592   2.397   1.805
 8409SOL    HW126126   4.617   2.492   1.788
 8409SOL    HW226127   4.495   2.391   1.828
 8410SOL     OW26128   0.159   1.813   1.323
 8410SOL    HW126129   0.059   1.818   1.321
 8410SOL    HW226130   0.188   1.725   1.284
 8411SOL     OW26131   0.872   5.828   1.033
 8411SOL    HW126132   0.833   5.736   1.042
 8411SOL    HW226133   0.941   5.842   1.104
 8412SOL     OW26134   2.636   2.609   0.184
 8412SOL    HW126135   2.730   2.603   0.152
 8412SOL    HW226136   2.592   2.691   0.145
 8413SOL     OW26137   3.933   5.834   4.856
 8413SOL    HW126138   3.962   5.889   4.778
 8413SOL    HW226139   3.864   5.768   4.827
 8414SOL     OW26140   2.104   0.010   0.968
 8414SOL    HW126141   2.078   0.014   0.871
 8414SOL    HW226142   2.080   0.097   1.012
 8415SOL     OW26143   3.660   1.564   6.202
 8415SOL    HW126144   3.627   1.471   6.219
 8415SOL    HW226145   3.606   1.629   6.256
 8416SOL     OW26146   0.285   2.189   4.874
 8416SOL    HW126147   0.339   2.119   4.828
 8416SOL    HW226148   0.205   2.211   4.818
 8417SOL     OW26149   1.949   3.378   6.306
 8417SOL    HW126150   1.949   3.299   6.368
 8417SOL    HW226151   1.973   3.348   6.214
 8418SOL     OW26152   6.562   6.220   2.446
 8418SOL    HW126153   6.577   6.255   2.354
 8418SOL    HW226154   6.471   6.245   2.478
 8419SOL     OW26155   3.333   1.594   4.473
 8419SOL    HW126156   3.342   1.605   4.572
 8419SOL    HW226157   3.423   1.576   4.433
 8420SOL     OW26158   3.934   1.206   2.227
 8420SOL    HW126159   3.988   1.291   2.225
 8420SOL    HW226160   3.869   1.206   2.151
 8421SOL     OW26161   4.871   0.211   6.467
 8421SOL    HW126162   4.820   0.295   6.448
 8421SOL    HW226163   4.807   0.139   6.496
 8422SOL     OW26164   5.089   1.845   4.319
 8422SOL    HW126165   5.117   1.750   4.330
 8422SOL    HW226166   5.163   1.896   4.275
 8423SOL     OW26167   6.440   5.727   0.040
 8423SOL    HW126168   6.533   5.694   0.025
 8423SOL    HW226169   6.408   5.696   0.129
 8424SOL     OW26170   2.885   0.172   5.443
 8424SOL    HW126171   2.934   0.086   5.459
 8424SOL    HW226172   2.912   0.210   5.355
 8425SOL     OW26173   3.772   3.147   2.237
 8425SOL    HW126174   3.675   3.170   2.230
 8425SOL    HW226175   3.782   3.053   2.270
 8426SOL     OW26176   3.828   3.059   1.621
 8426SOL    HW126177   3.781   3.141   1.589
 8426SOL    HW226178   3.811   3.048   1.719
 8427SOL     OW26179   4.165   3.530   2.850
 8427SOL    HW126180   4.165   3.619   2.895
 8427SOL    HW226181   4.142   3.541   2.753
 8428SOL     OW26182   5.604   0.401   1.781
 8428SOL    HW126183   5.531   0.427   1.717
 8428SOL    HW226184   5.671   0.343   1.734
 8429SOL     OW26185   3.179   5.970   5.515
 8429SOL    HW126186   3.120   6.034   5.563
 8429SOL    HW226187   3.128   5.887   5.493
 8430SOL     OW26188   5.528   6.693   5.454
 8430SOL    HW126189   5.509   6.784   5.418
 8430SOL    HW226190   5.454   6.665   5.515
 8431SOL     OW26191   2.595   3.369   6.154
 8431SOL    HW126192   2.687   3.341   6.180
 8431SOL    HW226193   2.574   3.334   6.063
 8432SOL     OW26194   6.679   5.161   5.506
 8432SOL    HW126195   6.747   5.215   5.556
 8432SOL    HW226196   6.653   5.210   5.423
 8433SOL     OW26197   4.900   1.806   1.082
 8433SOL    HW126198   4.983   1.783   1.132
 8433SOL    HW226199   4.821   1.794   1.141
 8434SOL     OW26200   2.742   6.345   4.645
 8434SOL    HW126201   2.725   6.288   4.725
 8434SOL    HW226202   2.772   6.286   4.569
 8435SOL     OW26203   6.480   1.608   3.164
 8435SOL    HW126204   6.543   1.561   3.102
 8435SOL    HW226205   6.404   1.646   3.112
 8436SOL     OW26206   2.171   5.195   2.951
 8436SOL    HW126207   2.137   5.156   2.865
 8436SOL    HW226208   2.138   5.289   2.960
 8437SOL     OW26209   1.731   5.904   0.430
 8437SOL    HW126210   1.720   6.003   0.439
 8437SOL    HW226211   1.808   5.873   0.486
 8438SOL     OW26212   0.919   4.225   2.452
 8438SOL    HW126213   0.930   4.181   2.540
 8438SOL    HW226214   1.007   4.261   2.421
 8439SOL     OW26215   5.958   4.167   2.544
 8439SOL    HW126216   5.906   4.086   2.518
 8439SOL    HW226217   5.991   4.156   2.638
 8440SOL     OW26218   1.635   1.848   2.411
 8440SOL    HW126219   1.556   1.876   2.357
 8440SOL    HW226220   1.696   1.927   2.425
 8441SOL     OW26221   0.107   2.668   6.454
 8441SOL    HW126222   0.121   2.763   6.426
 8441SOL    HW226223   0.189   2.615   6.435
 8442SOL     OW26224   3.833   2.646   6.555
 8442SOL    HW126225   3.927   2.678   6.539
 8442SOL    HW226226   3.781   2.652   6.469
 8443SOL     OW26227   2.086   4.066   2.994
 8443SOL    HW126228   2.164   4.047   3.052
 8443SOL    HW226229   2.116   4.079   2.899
 8444SOL     OW26230   5.362   5.304   4.939
 8444SOL    HW126231   5.267   5.315   4.967
 8444SOL    HW226232   5.422   5.355   5.002
 8445SOL     OW26233   4.343   6.497   6.341
 8445SOL    HW126234   4.378   6.537   6.256
 8445SOL    HW226235   4.299   6.409   6.321
 8446SOL     OW26236   6.522   6.095   4.659
 8446SOL    HW126237   6.427   6.069   4.644
 8446SOL    HW226238   6.527   6.169   4.726
 8447SOL     OW26239   3.205   1.820   4.383
 8447SOL    HW126240   3.247   1.733   4.406
 8447SOL    HW226241   3.142   1.808   4.306
 8448SOL     OW26242   3.546   6.745   2.783
 8448SOL    HW126243   3.546   6.838   2.820
 8448SOL    HW226244   3.571   6.681   2.856
 8449SOL     OW26245   1.287   2.746   4.117
 8449SOL    HW126246   1.200   2.777   4.079
 8449SOL    HW226247   1.325   2.817   4.176
 8450SOL     OW26248   6.710   1.100   0.677
 8450SOL    HW126249   6.809   1.113   0.681
 8450SOL    HW226250   6.689   1.002   0.674
 8451SOL     OW26251   4.089   2.503   0.540
 8451SOL    HW126252   4.012   2.513   0.603
 8451SOL    HW226253   4.142   2.423   0.566
 8452SOL     OW26254   5.302   0.779   5.800
 8452SOL    HW126255   5.378   0.804   5.740
 8452SOL    HW226256   5.335   0.717   5.871
 8453SOL     OW26257   0.284   0.660   0.383
 8453SOL    HW126258   0.313   0.609   0.464
 8453SOL    HW226259   0.365   0.692   0.334
 8454SOL     OW26260   6.196   5.837   6.966
 8454SOL    HW126261   6.274   5.782   6.995
 8454SOL    HW226262   6.225   5.931   6.951
 8455SOL     OW26263   6.143   0.856   2.940
 8455SOL    HW126264   6.140   0.917   3.018
 8455SOL    HW226265   6.057   0.862   2.890
 8456SOL     OW26266   6.808   0.674   2.297
 8456SOL    HW126267   6.856   0.634   2.219
 8456SOL    HW226268   6.720   0.628   2.310
 8457SOL     OW26269   6.312   6.892   4.867
 8457SOL    HW126270   6.371   6.819   4.902
 8457SOL    HW226271   6.326   6.975   4.920
 8458SOL     OW26272   1.255   6.632   0.227
 8458SOL    HW126273   1.267   6.634   0.326
 8458SOL    HW226274   1.176   6.688   0.201
 8459SOL     OW26275   0.522   5.971   2.873
 8459SOL    HW126276   0.600   5.947   2.930
 8459SOL    HW226277   0.470   6.045   2.916
 8460SOL     OW26278   3.970   3.091   3.685
 8460SOL    HW126279   3.948   3.164   3.620
 8460SOL    HW226280   4.064   3.102   3.717
 8461SOL     OW26281   6.369   3.431   3.732
 8461SOL    HW126282   6.277   3.431   3.769
 8461SOL    HW226283   6.433   3.397   3.801
 8462SOL     OW26284   2.476   2.606   1.908
 8462SOL    HW126285   2.547   2.578   1.973
 8462SOL    HW226286   2.387   2.602   1.953
 8463SOL     OW26287   6.711   0.340   1.664
 8463SOL    HW126288   6.692   0.423   1.613
 8463SOL    HW226289   6.724   0.362   1.761
 8464SOL     OW26290   6.754   0.941   4.480
 8464SOL    HW126291   6.756   0.867   4.413
 8464SOL    HW226292   6.671   0.996   4.468
 8465SOL     OW26293   2.306   1.146   0.996
 8465SOL    HW126294   2.278   1.150   1.092
 8465SOL    HW226295   2.234   1.105   0.941
 8466SOL     OW26296   0.796   6.771   4.332
 8466SOL    HW126297   0.784   6.845   4.265
 8466SOL    HW226298   0.861   6.704   4.296
 8467SOL     OW26299   4.274   5.643   1.054
 8467SOL    HW126300   4.355   5.618   1.108
 8467SOL    HW226301   4.292   5.728   1.005
 8468SOL     OW26302   4.261   2.775   0.128
 8468SOL    HW126303   4.223   2.718   0.201
 8468SOL    HW226304   4.358   2.757   0.117
 8469SOL     OW26305   4.807   2.261   5.389
 8469SOL    HW126306   4.785   2.219   5.478
 8469SOL    HW226307   4.863   2.197   5.335
 8470SOL     OW26308   1.961   2.859   0.036
 8470SOL    HW126309   1.929   2.803   0.112
 8470SOL    HW226310   2.055   2.833   0.012
 8471SOL     OW26311   3.965   1.499   4.977
 8471SOL    HW126312   3.887   1.517   4.916
 8471SOL    HW226313   4.043   1.556   4.949
 8472SOL     OW26314   1.433   6.166   3.054
 8472SOL    HW126315   1.459   6.214   3.137
 8472SOL    HW226316   1.510   6.111   3.021
 8473SOL     OW26317   6.651   5.853   6.720
 8473SOL    HW126318   6.729   5.916   6.713
 8473SOL    HW226319   6.579   5.882   6.658
 8474SOL     OW26320   4.344   5.730   0.220
 8474SOL    HW126321   4.281   5.687   0.156
 8474SOL    HW226322   4.438   5.708   0.195
 8475SOL     OW26323   5.248   1.632   2.821
 8475SOL    HW126324   5.164   1.594   2.861
 8475SOL    HW226325   5.228   1.668   2.730
 8476SOL     OW26326   4.605   0.248   3.089
 8476SOL    HW126327   4.684   0.280   3.035
 8476SOL    HW226328   4.601   0.148   3.084
 8477SOL     OW26329   3.206   0.479   3.135
 8477SOL    HW126330   3.288   0.431   3.167
 8477SOL    HW226331   3.125   0.433   3.170
 8478SOL     OW26332   1.536   0.754   5.959
 8478SOL    HW126333   1.454   0.775   6.013
 8478SOL    HW226334   1.530   0.799   5.870
 8479SOL     OW26335   5.107   0.698   2.360
 8479SOL    HW126336   5.071   0.605   2.350
 8479SOL    HW226337   5.199   0.694   2.401
 8480SOL     OW26338   1.785   0.834   1.875
 8480SOL    HW126339   1.803   0.928   1.903
 8480SOL    HW226340   1.738   0.786   1.949
 8481SOL     OW26341   3.914   0.221   5.656
 8481SOL    HW126342   3.985   0.211   5.725
 8481SOL    HW226343   3.902   0.134   5.607
 8482SOL     OW26344   6.825   0.630   1.288
 8482SOL    HW126345   6.925   0.632   1.285
 8482SOL    HW226346   6.789   0.699   1.224
 8483SOL     OW26347   5.064   6.337   1.930
 8483SOL    HW126348   5.077   6.418   1.873
 8483SOL    HW226349   5.109   6.352   2.019
 8484SOL     OW26350   6.558   4.610   5.637
 8484SOL    HW126351   6.611   4.692   5.616
 8484SOL    HW226352   6.462   4.626   5.613
 8485SOL     OW26353   2.343   3.268   6.308
 8485SOL    HW126354   2.432   3.310   6.288
 8485SOL    HW226355   2.275   3.306   6.246
 8486SOL     OW26356   4.423   0.658   2.598
 8486SOL    HW126357   4.456   0.585   2.658
 8486SOL    HW226358   4.487   0.734   2.598
 8487SOL     OW26359   4.199   0.458   0.901
 8487SOL    HW126360   4.170   0.505   0.984
 8487SOL    HW226361   4.270   0.511   0.856
 8488SOL     OW26362   6.890   3.681   5.570
 8488SOL    HW126363   6.909   3.627   5.488
 8488SOL    HW226364   6.837   3.762   5.544
 8489SOL     OW26365   3.179   6.815   3.355
 8489SOL    HW126366   3.121   6.863   3.289
 8489SOL    HW226367   3.123   6.756   3.413
 8490SOL     OW26368   3.938   4.921   2.810
 8490SOL    HW126369   4.014   4.870   2.770
 8490SOL    HW226370   3.852   4.888   2.770
 8491SOL     OW26371   0.818   0.844   1.455
 8491SOL    HW126372   0.729   0.798   1.447
 8491SOL    HW226373   0.885   0.798   1.397
 8492SOL     OW26374   5.868   3.844   4.772
 8492SOL    HW126375   5.916   3.912   4.716
 8492SOL    HW226376   5.770   3.863   4.773
 8493SOL     OW26377   3.818   2.971   0.710
 8493SOL    HW126378   3.720   2.949   0.701
 8493SOL    HW226379   3.872   2.906   0.657
 8494SOL     OW26380   3.477   6.320   6.568
 8494SOL    HW126381   3.409   6.279   6.507
 8494SOL    HW226382   3.430   6.365   6.644
 8495SOL     OW26383   0.591   2.870   6.283
 8495SOL    HW126384   0.571   2.780   6.244
 8495SOL    HW226385   0.639   2.859   6.370
 8496SOL     OW26386   1.214   2.325   3.745
 8496SOL    HW126387   1.155   2.382   3.802
 8496SOL    HW226388   1.177   2.233   3.741
 8497SOL     OW26389   5.780   3.779   3.925
 8497SOL    HW126390   5.684   3.786   3.898
 8497SOL    HW226391   5.836   3.765   3.843
 8498SOL     OW26392   6.702   0.836   1.473
 8498SOL    HW126393   6.749   0.757   1.433
 8498SOL    HW226394   6.665   0.811   1.562
 8499SOL     OW26395   6.834   4.397   0.469
 8499SOL    HW126396   6.808   4.321   0.528
 8499SOL    HW226397   6.902   4.454   0.515
 8500SOL     OW26398   2.146   0.613   5.192
 8500SOL    HW126399   2.232   0.595   5.238
 8500SOL    HW226400   2.159   0.605   5.093
 8501SOL     OW26401   2.948   3.915   6.203
 8501SOL    HW126402   2.893   3.901   6.121
 8501SOL    HW226403   2.905   3.868   6.280
 8502SOL     OW26404   0.763   6.391   1.183
 8502SOL    HW126405   0.802   6.340   1.107
 8502SOL    HW226406   0.693   6.335   1.229
 8503SOL     OW26407   4.061   5.467   3.225
 8503SOL    HW126408   4.007   5.537   3.178
 8503SOL    HW226409   4.001   5.393   3.256
 8504SOL     OW26410   1.861   4.895   3.169
 8504SOL    HW126411   1.805   4.928   3.245
 8504SOL    HW226412   1.865   4.966   3.098
 8505SOL     OW26413   4.251   1.708   3.001
 8505SOL    HW126414   4.235   1.772   2.927
 8505SOL    HW226415   4.164   1.669   3.031
 8506SOL     OW26416   0.678   5.508   6.881
 8506SOL    HW126417   0.609   5.466   6.823
 8506SOL    HW226418   0.769   5.491   6.842
 8507SOL     OW26419   1.751   0.387   4.336
 8507SOL    HW126420   1.826   0.408   4.273
 8507SOL    HW226421   1.665   0.381   4.286
 8508SOL     OW26422   0.424   3.610   5.738
 8508SOL    HW126423   0.467   3.661   5.664
 8508SOL    HW226424   0.376   3.673   5.799
 8509SOL     OW26425   6.381   2.341   4.692
 8509SOL    HW126426   6.384   2.280   4.771
 8509SOL    HW226427   6.451   2.412   4.701
 8510SOL     OW26428   5.256   0.171   2.674
 8510SOL    HW126429   5.274   0.076   2.648
 8510SOL    HW226430   5.167   0.177   2.719
 8511SOL     OW26431   6.707   5.571   1.423
 8511SOL    HW126432   6.718   5.472   1.435
 8511SOL    HW226433   6.719   5.594   1.326
 8512SOL     OW26434   4.092   2.865   1.077
 8512SOL    HW126435   4.123   2.899   1.166
 8512SOL    HW226436   3.996   2.889   1.063
 8513SOL     OW26437   0.544   3.012   0.699
 8513SOL    HW126438   0.450   3.038   0.676
 8513SOL    HW226439   0.606   3.086   0.673
 8514SOL     OW26440   2.221   2.978   4.817
 8514SOL    HW126441   2.136   3.020   4.850
 8514SOL    HW226442   2.291   2.984   4.888
 8515SOL     OW26443   3.190   1.420   7.014
 8515SOL    HW126444   3.217   1.492   6.950
 8515SOL    HW226445   3.212   1.331   6.975
 8516SOL     OW26446   6.616   3.472   5.250
 8516SOL    HW126447   6.580   3.436   5.164
 8516SOL    HW226448   6.701   3.425   5.273
 8517SOL     OW26449   1.461   1.946   5.588
 8517SOL    HW126450   1.462   1.895   5.675
 8517SOL    HW226451   1.396   2.021   5.595
 8518SOL     OW26452   5.513   4.895   0.209
 8518SOL    HW126453   5.549   4.810   0.169
 8518SOL    HW226454   5.513   4.887   0.309
 8519SOL     OW26455   0.637   3.793   0.780
 8519SOL    HW126456   0.642   3.701   0.741
 8519SOL    HW226457   0.729   3.831   0.786
 8520SOL     OW26458   3.461   3.665   6.315
 8520SOL    HW126459   3.398   3.734   6.279
 8520SOL    HW226460   3.542   3.660   6.256
 8521SOL     OW26461   2.280   6.932   4.324
 8521SOL    HW126462   2.369   6.977   4.321
 8521SOL    HW226463   2.287   6.841   4.285
 8522SOL     OW26464   0.463   0.481   0.150
 8522SOL    HW126465   0.402   0.436   0.215
 8522SOL    HW226466   0.556   0.482   0.186
 8523SOL     OW26467   4.077   2.008   1.371
 8523SOL    HW126468   4.049   1.928   1.424
 8523SOL    HW226469   4.172   2.031   1.391
 8524SOL     OW26470   2.623   6.151   5.345
 8524SOL    HW126471   2.604   6.236   5.296
 8524SOL    HW226472   2.548   6.086   5.330
 8525SOL     OW26473   6.410   2.794   3.059
 8525SOL    HW126474   6.316   2.784   3.091
 8525SOL    HW226475   6.434   2.715   3.002
 8526SOL     OW26476   0.418   4.514   6.806
 8526SOL    HW126477   0.403   4.425   6.764
 8526SOL    HW226478   0.468   4.573   6.742
 8527SOL     OW26479   2.517   0.963   6.229
 8527SOL    HW126480   2.498   0.878   6.179
 8527SOL    HW226481   2.551   1.032   6.165
 8528SOL     OW26482   5.577   0.324   0.384
 8528SOL    HW126483   5.569   0.226   0.368
 8528SOL    HW226484   5.557   0.343   0.481
 8529SOL     OW26485   1.010   6.343   6.706
 8529SOL    HW126486   0.994   6.249   6.735
 8529SOL    HW226487   1.108   6.362   6.708
 8530SOL     OW26488   3.867   4.021   3.086
 8530SOL    HW126489   3.921   3.949   3.130
 8530SOL    HW226490   3.869   4.103   3.143
 8531SOL     OW26491   6.869   5.736   3.017
 8531SOL    HW126492   6.862   5.822   2.967
 8531SOL    HW226493   6.870   5.660   2.952
 8532SOL     OW26494   3.386   5.281   0.329
 8532SOL    HW126495   3.336   5.210   0.279
 8532SOL    HW226496   3.379   5.262   0.427
 8533SOL     OW26497   2.608   5.801   5.170
 8533SOL    HW126498   2.589   5.888   5.123
 8533SOL    HW226499   2.664   5.819   5.251
 8534SOL     OW26500   1.923   3.673   1.816
 8534SOL    HW126501   1.844   3.685   1.755
 8534SOL    HW226502   1.962   3.582   1.802
 8535SOL     OW26503   6.485   0.004   2.176
 8535SOL    HW126504   6.477   6.924   2.179
 8535SOL    HW226505   6.458   0.043   2.264
 8536SOL     OW26506   1.751   1.114   3.870
 8536SOL    HW126507   1.814   1.083   3.799
 8536SOL    HW226508   1.763   1.059   3.953
 8537SOL     OW26509   5.885   1.118   2.836
 8537SOL    HW126510   5.795   1.133   2.795
 8537SOL    HW226511   5.944   1.198   2.820
 8538SOL     OW26512   0.635   2.294   6.589
 8538SOL    HW126513   0.643   2.382   6.541
 8538SOL    HW226514   0.685   2.299   6.675
 8539SOL     OW26515   5.169   3.331   2.363
 8539SOL    HW126516   5.238   3.401   2.382
 8539SOL    HW226517   5.082   3.375   2.341
 8540SOL     OW26518   4.243   0.023   0.891
 8540SOL    HW126519   4.224   6.955   0.847
 8540SOL    HW226520   4.161   0.054   0.940
 8541SOL     OW26521   1.501   3.127   3.596
 8541SOL    HW126522   1.527   3.203   3.655
 8541SOL    HW226523   1.409   3.095   3.620
 8542SOL     OW26524   2.752   4.539   6.177
 8542SOL    HW126525   2.779   4.569   6.085
 8542SOL    HW226526   2.702   4.612   6.222
 8543SOL     OW26527   3.861   2.449   6.733
 8543SOL    HW126528   3.839   2.535   6.686
 8543SOL    HW226529   3.853   2.462   6.832
 8544SOL     OW26530   5.547   1.920   4.147
 8544SOL    HW126531   5.577   1.966   4.063
 8544SOL    HW226532   5.601   1.954   4.224
 8545SOL     OW26533   4.255   6.901   5.580
 8545SOL    HW126534   4.241   6.997   5.556
 8545SOL    HW226535   4.208   6.843   5.514
 8546SOL     OW26536   4.112   2.280   6.665
 8546SOL    HW126537   4.085   2.376   6.669
 8546SOL    HW226538   4.203   2.273   6.624
 8547SOL     OW26539   1.735   4.549   2.231
 8547SOL    HW126540   1.643   4.587   2.245
 8547SOL    HW226541   1.794   4.620   2.192
 8548SOL     OW26542   5.978   2.527   5.578
 8548SOL    HW126543   6.077   2.514   5.577
 8548SOL    HW226544   5.942   2.508   5.670
 8549SOL     OW26545   5.152   2.784   5.059
 8549SOL    HW126546   5.129   2.730   5.141
 8549SOL    HW226547   5.174   2.877   5.086
 8550SOL     OW26548   1.778   4.197   5.547
 8550SOL    HW126549   1.748   4.257   5.621
 8550SOL    HW226550   1.878   4.192   5.547
 8551SOL     OW26551   2.102   4.557   1.221
 8551SOL    HW126552   2.161   4.636   1.242
 8551SOL    HW226553   2.070   4.516   1.306
 8552SOL     OW26554   3.097   6.958   4.286
 8552SOL    HW126555   3.065   6.944   4.380
 8552SOL    HW226556   3.130   6.872   4.249
 8553SOL     OW26557   6.344   5.616   0.259
 8553SOL    HW126558   6.377   5.566   0.339
 8553SOL    HW226559   6.301   5.701   0.288
 8554SOL     OW26560   5.685   3.769   0.480
 8554SOL    HW126561   5.658   3.784   0.385
 8554SOL    HW226562   5.679   3.672   0.502
 8555SOL     OW26563   1.772   6.302   4.301
 8555SOL    HW126564   1.868   6.329   4.289
 8555SOL    HW226565   1.724   6.315   4.214
 8556SOL     OW26566   5.501   0.380   5.132
 8556SOL    HW126567   5.580   0.423   5.176
 8556SOL    HW226568   5.502   0.400   5.034
 8557SOL     OW26569   6.487   1.471   1.003
 8557SOL    HW126570   6.446   1.402   0.943
 8557SOL    HW226571   6.455   1.562   0.976
 8558SOL     OW26572   1.700   4.603   2.798
 8558SOL    HW126573   1.788   4.633   2.836
 8558SOL    HW226574   1.705   4.604   2.698
 8559SOL     OW26575   0.846   1.308   4.630
 8559SOL    HW126576   0.872   1.329   4.536
 8559SOL    HW226577   0.771   1.369   4.658
 8560SOL     OW26578   6.727   2.766   6.747
 8560SOL    HW126579   6.629   2.788   6.756
 8560SOL    HW226580   6.737   2.681   6.697
 8561SOL     OW26581   4.945   5.890   6.363
 8561SOL    HW126582   4.847   5.868   6.364
 8561SOL    HW226583   4.972   5.918   6.270
 8562SOL     OW26584   3.826   0.483   4.201
 8562SOL    HW126585   3.840   0.524   4.291
 8562SOL    HW226586   3.772   0.545   4.145
 8563SOL     OW26587   2.692   3.178   6.528
 8563SOL    HW126588   2.775   3.123   6.526
 8563SOL    HW226589   2.613   3.118   6.512
 8564SOL     OW26590   0.613   5.513   3.488
 8564SOL    HW126591   0.552   5.535   3.412
 8564SOL    HW226592   0.635   5.597   3.538
 8565SOL     OW26593   3.443   0.961   1.176
 8565SOL    HW126594   3.466   0.875   1.222
 8565SOL    HW226595   3.420   0.943   1.081
 8566SOL     OW26596   1.515   4.189   4.420
 8566SOL    HW126597   1.474   4.202   4.330
 8566SOL    HW226598   1.567   4.270   4.446
 8567SOL     OW26599   5.455   6.591   6.118
 8567SOL    HW126600   5.499   6.633   6.038
 8567SOL    HW226601   5.489   6.498   6.129
 8568SOL     OW26602   5.446   6.858   0.523
 8568SOL    HW126603   5.387   6.850   0.603
 8568SOL    HW226604   5.471   6.767   0.490
 8569SOL     OW26605   2.954   0.634   5.354
 8569SOL    HW126606   2.942   0.728   5.325
 8569SOL    HW226607   2.891   0.575   5.303
 8570SOL     OW26608   6.685   3.460   6.516
 8570SOL    HW126609   6.629   3.411   6.584
 8570SOL    HW226610   6.625   3.502   6.448
 8571SOL     OW26611   6.520   4.787   5.924
 8571SOL    HW126612   6.438   4.731   5.914
 8571SOL    HW226613   6.600   4.734   5.895
 8572SOL     OW26614   2.933   4.946   6.561
 8572SOL    HW126615   2.913   5.037   6.525
 8572SOL    HW226616   2.972   4.955   6.653
 8573SOL     OW26617   3.558   5.998   4.326
 8573SOL    HW126618   3.590   5.936   4.254
 8573SOL    HW226619   3.538   6.088   4.286
 8574SOL     OW26620   1.151   3.989   4.266
 8574SOL    HW126621   1.160   3.915   4.333
 8574SOL    HW226622   1.103   4.066   4.308
 8575SOL     OW26623   2.849   3.586   6.116
 8575SOL    HW126624   2.880   3.658   6.178
 8575SOL    HW226625   2.878   3.497   6.150
 8576SOL     OW26626   2.135   0.675   0.615
 8576SOL    HW126627   2.040   0.701   0.596
 8576SOL    HW226628   2.166   0.721   0.699
 8577SOL     OW26629   6.380   5.743   4.688
 8577SOL    HW126630   6.303   5.684   4.664
 8577SOL    HW226631   6.463   5.708   4.646
 8578SOL     OW26632   4.553   0.751   4.069
 8578SOL    HW126633   4.549   0.733   4.167
 8578SOL    HW226634   4.466   0.725   4.027
 8579SOL     OW26635   0.344   4.518   2.702
 8579SOL    HW126636   0.296   4.606   2.696
 8579SOL    HW226637   0.369   4.488   2.610
 8580SOL     OW26638   2.370   5.559   6.068
 8580SOL    HW126639   2.384   5.461   6.081
 8580SOL    HW226640   2.347   5.577   5.972
 8581SOL     OW26641   3.561   3.759   0.284
 8581SOL    HW126642   3.543   3.661   0.299
 8581SOL    HW226643   3.548   3.808   0.370
 8582SOL     OW26644   3.758   4.868   6.955
 8582SOL    HW126645   3.707   4.801   7.008
 8582SOL    HW226646   3.854   4.865   6.980
 8583SOL     OW26647   5.422   0.090   4.786
 8583SOL    HW126648   5.437   0.051   4.696
 8583SOL    HW226649   5.489   0.162   4.803
 8584SOL     OW26650   0.448   5.743   6.131
 8584SOL    HW126651   0.500   5.809   6.186
 8584SOL    HW226652   0.400   5.680   6.192
 8585SOL     OW26653   1.507   1.280   0.730
 8585SOL    HW126654   1.432   1.337   0.695
 8585SOL    HW226655   1.593   1.306   0.685
 8586SOL     OW26656   3.684   5.150   3.780
 8586SOL    HW126657   3.609   5.196   3.733
 8586SOL    HW226658   3.648   5.079   3.840
 8587SOL     OW26659   6.734   1.697   1.219
 8587SOL    HW126660   6.789   1.691   1.302
 8587SOL    HW226661   6.644   1.735   1.242
 8588SOL     OW26662   4.017   3.033   6.661
 8588SOL    HW126663   4.046   2.985   6.744
 8588SOL    HW226664   3.921   3.012   6.642
 8589SOL     OW26665   2.502   1.836   3.723
 8589SOL    HW126666   2.550   1.910   3.676
 8589SOL    HW226667   2.463   1.773   3.656
 8590SOL     OW26668   5.601   4.120   5.352
 8590SOL    HW126669   5.502   4.138   5.350
 8590SOL    HW226670   5.637   4.143   5.442
 8591SOL     OW26671   0.577   2.701   0.589
 8591SOL    HW126672   0.596   2.778   0.650
 8591SOL    HW226673   0.519   2.635   0.637
 8592SOL     OW26674   6.565   6.493   6.825
 8592SOL    HW126675   6.554   6.568   6.760
 8592SOL    HW226676   6.597   6.412   6.777
 8593SOL     OW26677   0.564   4.973   3.438
 8593SOL    HW126678   0.533   4.987   3.344
 8593SOL    HW226679   0.496   5.012   3.501
 8594SOL     OW26680   4.097   3.537   2.598
 8594SOL    HW126681   4.175   3.506   2.544
 8594SOL    HW226682   4.016   3.546   2.540
 8595SOL     OW26683   1.685   2.948   1.793
 8595SOL    HW126684   1.642   2.895   1.720
 8595SOL    HW226685   1.758   3.005   1.753
 8596SOL     OW26686   6.711   3.967   2.721
 8596SOL    HW126687   6.804   4.000   2.707
 8596SOL    HW226688   6.647   4.044   2.712
 8597SOL     OW26689   2.022   1.775   0.922
 8597SOL    HW126690   2.119   1.791   0.939
 8597SOL    HW226691   1.975   1.760   1.009
 8598SOL     OW26692   6.196   2.874   1.808
 8598SOL    HW126693   6.180   2.777   1.828
 8598SOL    HW226694   6.294   2.892   1.805
 8599SOL     OW26695   0.920   2.299   0.793
 8599SOL    HW126696   0.909   2.202   0.769
 8599SOL    HW226697   1.011   2.330   0.766
 8600SOL     OW26698   0.009   2.466   5.904
 8600SOL    HW126699   0.043   2.381   5.944
 8600SOL    HW226700   0.067   2.542   5.933
 8601SOL     OW26701   0.950   0.538   5.126
 8601SOL    HW126702   0.871   0.528   5.187
 8601SOL    HW226703   0.926   0.505   5.035
 8602SOL     OW26704   0.975   6.370   2.659
 8602SOL    HW126705   0.911   6.340   2.730
 8602SOL    HW226706   0.964   6.313   2.578
 8603SOL     OW26707   4.910   3.644   2.177
 8603SOL    HW126708   4.881   3.740   2.183
 8603SOL    HW226709   4.967   3.633   2.095
 8604SOL     OW26710   6.043   1.669   3.347
 8604SOL    HW126711   5.975   1.669   3.420
 8604SOL    HW226712   6.133   1.650   3.387
 8605SOL     OW26713   2.661   5.350   1.762
 8605SOL    HW126714   2.758   5.324   1.769
 8605SOL    HW226715   2.631   5.339   1.667
 8606SOL     OW26716   3.829   5.284   4.367
 8606SOL    HW126717   3.740   5.244   4.385
 8606SOL    HW226718   3.881   5.224   4.306
 8607SOL     OW26719   2.921   6.190   7.000
 8607SOL    HW126720   2.836   6.226   0.020
 8607SOL    HW226721   2.914   6.091   6.989
 8608SOL     OW26722   5.672   6.447   2.660
 8608SOL    HW126723   5.679   6.350   2.636
 8608SOL    HW226724   5.628   6.497   2.586
 8609SOL     OW26725   5.755   0.303   5.758
 8609SOL    HW126726   5.833   0.348   5.802
 8609SOL    HW226727   5.776   0.286   5.661
 8610SOL     OW26728   6.459   6.479   5.159
 8610SOL    HW126729   6.552   6.505   5.185
 8610SOL    HW226730   6.394   6.539   5.205
 8611SOL     OW26731   1.489   1.829   2.669
 8611SOL    HW126732   1.437   1.749   2.699
 8611SOL    HW226733   1.583   1.802   2.651
 8612SOL     OW26734   5.174   3.218   4.523
 8612SOL    HW126735   5.244   3.238   4.454
 8612SOL    HW226736   5.092   3.183   4.479
 8613SOL     OW26737   1.404   0.619   0.510
 8613SOL    HW126738   1.341   0.556   0.555
 8613SOL    HW226739   1.402   0.603   0.411
 8614SOL     OW26740   1.577   3.047   3.349
 8614SOL    HW126741   1.554   2.950   3.351
 8614SOL    HW226742   1.574   3.084   3.442
 8615SOL     OW26743   4.945   1.669   6.220
 8615SOL    HW126744   4.909   1.753   6.181
 8615SOL    HW226745   4.960   1.681   6.318
 8616SOL     OW26746   1.196   3.377   0.697
 8616SOL    HW126747   1.170   3.463   0.740
 8616SOL    HW226748   1.208   3.307   0.768
 8617SOL     OW26749   6.331   3.024   0.579
 8617SOL    HW126750   6.320   2.977   0.666
 8617SOL    HW226751   6.301   2.965   0.505
 8618SOL     OW26752   3.269   1.366   2.844
 8618SOL    HW126753   3.295   1.415   2.927
 8618SOL    HW226754   3.171   1.377   2.828
 8619SOL     OW26755   3.681   6.696   0.589
 8619SOL    HW126756   3.741   6.710   0.667
 8619SOL    HW226757   3.643   6.603   0.592
 8620SOL     OW26758   6.030   6.100   3.953
 8620SOL    HW126759   6.123   6.069   3.971
 8620SOL    HW226760   6.017   6.110   3.855
 8621SOL     OW26761   4.821   0.967   3.712
 8621SOL    HW126762   4.839   1.057   3.752
 8621SOL    HW226763   4.796   0.902   3.785
 8622SOL     OW26764   5.377   4.998   6.388
 8622SOL    HW126765   5.344   4.989   6.294
 8622SOL    HW226766   5.462   4.946   6.397
 8623SOL     OW26767   5.767   1.982   3.534
 8623SOL    HW126768   5.787   2.063   3.479
 8623SOL    HW226769   5.839   1.913   3.521
 8624SOL     OW26770   6.139   2.886   3.618
 8624SOL    HW126771   6.236   2.906   3.603
 8624SOL    HW226772   6.084   2.966   3.593
 8625SOL     OW26773   3.688   1.206   6.618
 8625SOL    HW126774   3.640   1.279   6.570
 8625SOL    HW226775   3.784   1.231   6.630
 8626SOL     OW26776   3.250   3.749   1.766
 8626SOL    HW126777   3.228   3.652   1.760
 8626SOL    HW226778   3.195   3.799   1.699
 8627SOL     OW26779   2.914   0.215   6.792
 8627SOL    HW126780   2.881   0.123   6.816
 8627SOL    HW226781   2.863   0.283   6.844
 8628SOL     OW26782   6.340   0.932   1.658
 8628SOL    HW126783   6.439   0.914   1.657
 8628SOL    HW226784   6.291   0.845   1.666
 8629SOL     OW26785   1.277   5.976   3.285
 8629SOL    HW126786   1.344   5.910   3.253
 8629SOL    HW226787   1.317   6.033   3.357
 8630SOL     OW26788   5.023   4.930   4.149
 8630SOL    HW126789   5.052   4.994   4.220
 8630SOL    HW226790   4.988   4.981   4.071
 8631SOL     OW26791   3.978   6.730   3.358
 8631SOL    HW126792   4.077   6.715   3.366
 8631SOL    HW226793   3.943   6.761   3.447
 8632SOL     OW26794   3.161   0.733   3.047
 8632SOL    HW126795   3.175   0.638   3.075
 8632SOL    HW226796   3.152   0.738   2.948
 8633SOL     OW26797   6.448   6.399   2.810
 8633SOL    HW126798   6.473   6.472   2.874
 8633SOL    HW226799   6.398   6.438   2.733
 8634SOL     OW26800   6.247   6.224   1.896
 8634SOL    HW126801   6.221   6.313   1.933
 8634SOL    HW226802   6.260   6.231   1.797
 8635SOL     OW26803   6.171   3.897   6.019
 8635SOL    HW126804   6.071   3.906   6.024
 8635SOL    HW226805   6.213   3.959   6.085
 8636SOL     OW26806   5.700   4.875   1.063
 8636SOL    HW126807   5.771   4.805   1.075
 8636SOL    HW226808   5.717   4.950   1.127
 8637SOL     OW26809   0.807   0.542   2.157
 8637SOL    HW126810   0.712   0.553   2.127
 8637SOL    HW226811   0.869   0.581   2.088
 8638SOL     OW26812   6.202   4.613   1.191
 8638SOL    HW126813   6.176   4.659   1.276
 8638SOL    HW226814   6.265   4.671   1.140
 8639SOL     OW26815   6.166   2.656   3.107
 8639SOL    HW126816   6.200   2.584   3.047
 8639SOL    HW226817   6.067   2.648   3.117
 8640SOL     OW26818   4.898   6.033   1.597
 8640SOL    HW126819   4.927   5.938   1.598
 8640SOL    HW226820   4.805   6.039   1.560
 8641SOL     OW26821   5.131   4.849   3.662
 8641SOL    HW126822   5.105   4.875   3.569
 8641SOL    HW226823   5.222   4.886   3.682
 8642SOL     OW26824   4.462   1.343   0.891
 8642SOL    HW126825   4.374   1.386   0.913
 8642SOL    HW226826   4.453   1.292   0.806
 8643SOL     OW26827   4.846   6.854   7.018
 8643SOL    HW126828   4.927   6.897   0.037
 8643SOL    HW226829   4.770   6.919   7.019
 8644SOL     OW26830   6.202   3.022   5.481
 8644SOL    HW126831   6.295   3.000   5.449
 8644SOL    HW226832   6.208   3.064   5.572
 8645SOL     OW26833   6.302   3.695   1.980
 8645SOL    HW126834   6.374   3.650   1.926
 8645SOL    HW226835   6.254   3.626   2.034
 8646SOL     OW26836   4.634   6.107   0.663
 8646SOL    HW126837   4.640   6.204   0.687
 8646SOL    HW226838   4.572   6.096   0.585
 8647SOL     OW26839   5.018   5.216   2.023
 8647SOL    HW126840   5.098   5.223   2.082
 8647SOL    HW226841   5.014   5.294   1.961
 8648SOL     OW26842   6.296   0.398   4.152
 8648SOL    HW126843   6.345   0.312   4.167
 8648SOL    HW226844   6.198   0.381   4.152
 8649SOL     OW26845   6.567   3.762   5.959
 8649SOL    HW126846   6.658   3.783   5.925
 8649SOL    HW226847   6.508   3.733   5.883
 8650SOL     OW26848   0.608   5.704   1.713
 8650SOL    HW126849   0.703   5.679   1.696
 8650SOL    HW226850   0.562   5.723   1.626
 8651SOL     OW26851   4.349   3.498   1.328
 8651SOL    HW126852   4.272   3.550   1.293
 8651SOL    HW226853   4.420   3.560   1.362
 8652SOL     OW26854   0.854   2.531   4.533
 8652SOL    HW126855   0.856   2.432   4.551
 8652SOL    HW226856   0.939   2.559   4.489
 8653SOL     OW26857   5.147   3.093   6.409
 8653SOL    HW126858   5.110   3.170   6.462
 8653SOL    HW226859   5.222   3.125   6.351
 8654SOL     OW26860   1.558   4.520   1.594
 8654SOL    HW126861   1.463   4.548   1.604
 8654SOL    HW226862   1.615   4.572   1.659
 8655SOL     OW26863   5.462   6.129   2.908
 8655SOL    HW126864   5.501   6.149   2.998
 8655SOL    HW226865   5.401   6.050   2.915
 8656SOL     OW26866   6.461   2.133   1.646
 8656SOL    HW126867   6.462   2.228   1.676
 8656SOL    HW226868   6.412   2.077   1.713
 8657SOL     OW26869   2.611   4.778   0.607
 8657SOL    HW126870   2.673   4.788   0.685
 8657SOL    HW226871   2.614   4.860   0.551
 8658SOL     OW26872   1.087   5.860   5.610
 8658SOL    HW126873   1.054   5.947   5.647
 8658SOL    HW226874   1.035   5.838   5.527
 8659SOL     OW26875   3.796   6.905   4.639
 8659SOL    HW126876   3.813   6.856   4.553
 8659SOL    HW226877   3.813   7.002   4.626
 8660SOL     OW26878   4.802   4.596   0.422
 8660SOL    HW126879   4.836   4.508   0.388
 8660SOL    HW226880   4.880   4.656   0.441
 8661SOL     OW26881   6.530   2.967   2.085
 8661SOL    HW126882   6.616   3.015   2.065
 8661SOL    HW226883   6.494   2.998   2.173
 8662SOL     OW26884   0.389   1.207   6.916
 8662SOL    HW126885   0.409   1.115   6.882
 8662SOL    HW226886   0.469   1.242   6.965
 8663SOL     OW26887   2.713   5.747   1.035
 8663SOL    HW126888   2.634   5.801   1.005
 8663SOL    HW226889   2.795   5.803   1.031
 8664SOL     OW26890   4.518   4.421   1.322
 8664SOL    HW126891   4.496   4.450   1.415
 8664SOL    HW226892   4.460   4.470   1.257
 8665SOL     OW26893   5.253   5.362   4.323
 8665SOL    HW126894   5.342   5.394   4.355
 8665SOL    HW226895   5.181   5.421   4.358
 8666SOL     OW26896   6.683   4.714   4.535
 8666SOL    HW126897   6.686   4.614   4.531
 8666SOL    HW226898   6.659   4.743   4.628
 8667SOL     OW26899   5.489   2.451   3.321
 8667SOL    HW126900   5.422   2.451   3.247
 8667SOL    HW226901   5.462   2.515   3.392
 8668SOL     OW26902   3.440   1.005   5.478
 8668SOL    HW126903   3.518   0.944   5.485
 8668SOL    HW226904   3.357   0.956   5.505
 8669SOL     OW26905   3.537   6.812   6.364
 8669SOL    HW126906   3.587   6.756   6.431
 8669SOL    HW226907   3.550   6.909   6.386
 8670SOL     OW26908   4.436   4.551   2.446
 8670SOL    HW126909   4.456   4.518   2.354
 8670SOL    HW226910   4.348   4.598   2.446
 8671SOL     OW26911   5.763   5.799   1.818
 8671SOL    HW126912   5.808   5.712   1.797
 8671SOL    HW226913   5.805   5.839   1.899
 8672SOL     OW26914   3.904   4.979   4.587
 8672SOL    HW126915   3.905   5.078   4.598
 8672SOL    HW226916   3.950   4.936   4.665
 8673SOL     OW26917   4.757   2.217   6.682
 8673SOL    HW126918   4.851   2.251   6.689
 8673SOL    HW226919   4.732   2.173   6.768
 8674SOL     OW26920   0.601   6.730   2.585
 8674SOL    HW126921   0.610   6.788   2.504
 8674SOL    HW226922   0.640   6.777   2.664
 8675SOL     OW26923   2.403   1.795   2.316
 8675SOL    HW126924   2.500   1.818   2.322
 8675SOL    HW226925   2.349   1.876   2.339
 8676SOL     OW26926   4.739   1.385   3.971
 8676SOL    HW126927   4.654   1.414   3.928
 8676SOL    HW226928   4.722   1.303   4.026
 8677SOL     OW26929   1.947   3.708   5.695
 8677SOL    HW126930   2.024   3.644   5.700
 8677SOL    HW226931   1.882   3.688   5.768
 8678SOL     OW26932   1.072   0.281   6.066
 8678SOL    HW126933   1.020   0.365   6.082
 8678SOL    HW226934   1.040   0.210   6.129
 8679SOL     OW26935   6.027   2.167   4.590
 8679SOL    HW126936   5.964   2.201   4.521
 8679SOL    HW226937   6.005   2.209   4.678
 8680SOL     OW26938   0.909   3.146   6.810
 8680SOL    HW126939   0.880   3.221   6.750
 8680SOL    HW226940   0.870   3.160   6.901
 8681SOL     OW26941   4.270   4.124   1.343
 8681SOL    HW126942   4.366   4.124   1.317
 8681SOL    HW226943   4.261   4.148   1.440
 8682SOL     OW26944   1.548   5.920   2.975
 8682SOL    HW126945   1.480   5.925   2.902
 8682SOL    HW226946   1.618   5.853   2.951
 8683SOL     OW26947   4.969   3.507   0.070
 8683SOL    HW126948   5.010   3.570   0.136
 8683SOL    HW226949   5.023   3.423   0.067
 8684SOL     OW26950   6.485   2.560   3.666
 8684SOL    HW126951   6.441   2.611   3.593
 8684SOL    HW226952   6.417   2.505   3.715
 8685SOL     OW26953   0.011   2.051   5.506
 8685SOL    HW126954   0.104   2.038   5.473
 8685SOL    HW226955   6.984   1.962   5.512
 8686SOL     OW26956   6.399   1.134   4.194
 8686SOL    HW126957   6.355   1.045   4.179
 8686SOL    HW226958   6.341   1.207   4.156
 8687SOL     OW26959   3.531   0.997   2.785
 8687SOL    HW126960   3.433   0.977   2.787
 8687SOL    HW226961   3.583   0.912   2.776
 8688SOL     OW26962   0.680   6.524   2.212
 8688SOL    HW126963   0.671   6.473   2.127
 8688SOL    HW226964   0.771   6.563   2.218
 8689SOL     OW26965   5.121   4.296   1.675
 8689SOL    HW126966   5.145   4.282   1.579
 8689SOL    HW226967   5.101   4.207   1.717
 8690SOL     OW26968   1.649   0.670   2.101
 8690SOL    HW126969   1.724   0.646   2.163
 8690SOL    HW226970   1.589   0.737   2.145
 8691SOL     OW26971   5.951   1.279   6.952
 8691SOL    HW126972   5.915   1.257   0.024
 8691SOL    HW226973   5.963   1.194   6.900
 8692SOL     OW26974   1.539   1.478   3.724
 8692SOL    HW126975   1.495   1.392   3.696
 8692SOL    HW226976   1.613   1.458   3.789
 8693SOL     OW26977   5.568   2.279   6.430
 8693SOL    HW126978   5.512   2.360   6.412
 8693SOL    HW226979   5.631   2.264   6.353
 8694SOL     OW26980   4.087   0.034   6.639
 8694SOL    HW126981   4.031   6.983   6.596
 8694SOL    HW226982   4.060   0.045   6.735
 8695SOL     OW26983   4.411   3.894   5.286
 8695SOL    HW126984   4.422   3.965   5.356
 8695SOL    HW226985   4.373   3.812   5.328
 8696SOL     OW26986   2.071   5.407   0.506
 8696SOL    HW126987   2.008   5.470   0.458
 8696SOL    HW226988   2.126   5.459   0.571
 8697SOL     OW26989   5.189   5.327   6.480
 8697SOL    HW126990   5.122   5.259   6.451
 8697SOL    HW226991   5.147   5.388   6.548
 8698SOL     OW26992   5.690   5.516   5.109
 8698SOL    HW126993   5.785   5.499   5.080
 8698SOL    HW226994   5.649   5.585   5.050
 8699SOL     OW26995   1.966   1.091   4.265
 8699SOL    HW126996   2.022   1.089   4.348
 8699SOL    HW226997   2.022   1.123   4.189
 8700SOL     OW26998   2.655   1.871   6.018
 8700SOL    HW126999   2.683   1.955   5.971
 8700SOL    HW227000   2.615   1.894   6.107
 8701SOL     OW27001   1.043   0.865   3.348
 8701SOL    HW127002   1.057   0.964   3.337
 8701SOL    HW227003   1.089   0.834   3.432
 8702SOL     OW27004   4.946   6.706   6.503
 8702SOL    HW127005   5.044   6.726   6.493
 8702SOL    HW227006   4.936   6.614   6.541
 8703SOL     OW27007   1.292   4.599   1.623
 8703SOL    HW127008   1.241   4.520   1.657
 8703SOL    HW227009   1.289   4.600   1.523
 8704SOL     OW27010   1.119   4.536   2.354
 8704SOL    HW127011   1.065   4.553   2.272
 8704SOL    HW227012   1.189   4.468   2.334
 8705SOL     OW27013   4.661   6.209   4.313
 8705SOL    HW127014   4.584   6.163   4.356
 8705SOL    HW227015   4.707   6.268   4.380
 8706SOL     OW27016   4.800   0.685   6.162
 8706SOL    HW127017   4.848   0.646   6.084
 8706SOL    HW227018   4.737   0.617   6.200
 8707SOL     OW27019   4.234   1.864   5.928
 8707SOL    HW127020   4.273   1.889   6.017
 8707SOL    HW227021   4.176   1.938   5.894
 8708SOL     OW27022   4.158   1.648   1.337
 8708SOL    HW127023   4.070   1.627   1.293
 8708SOL    HW227024   4.144   1.719   1.406
 8709SOL     OW27025   5.288   3.624   6.847
 8709SOL    HW127026   5.241   3.536   6.853
 8709SOL    HW227027   5.257   3.673   6.765
 8710SOL     OW27028   6.456   3.704   4.164
 8710SOL    HW127029   6.399   3.634   4.121
 8710SOL    HW227030   6.533   3.660   4.210
 8711SOL     OW27031   1.620   1.463   4.396
 8711SOL    HW127032   1.630   1.392   4.325
 8711SOL    HW227033   1.607   1.552   4.352
 8712SOL     OW27034   3.287   0.347   6.864
 8712SOL    HW127035   3.229   0.391   6.933
 8712SOL    HW227036   3.269   0.387   6.774
 8713SOL     OW27037   6.163   4.384   3.204
 8713SOL    HW127038   6.099   4.432   3.143
 8713SOL    HW227039   6.256   4.395   3.170
 8714SOL     OW27040   1.913   1.495   3.717
 8714SOL    HW127041   1.960   1.473   3.632
 8714SOL    HW227042   1.904   1.595   3.726
 8715SOL     OW27043   5.402   0.717   2.411
 8715SOL    HW127044   5.421   0.811   2.440
 8715SOL    HW227045   5.442   0.701   2.321
 8716SOL     OW27046   0.713   0.788   2.609
 8716SOL    HW127047   0.658   0.717   2.565
 8716SOL    HW227048   0.664   0.876   2.604
 8717SOL     OW27049   4.419   3.836   1.103
 8717SOL    HW127050   4.421   3.780   1.020
 8717SOL    HW227051   4.510   3.840   1.143
 8718SOL     OW27052   6.847   2.751   5.786
 8718SOL    HW127053   6.841   2.657   5.750
 8718SOL    HW227054   6.931   2.793   5.752
 8719SOL     OW27055   6.506   0.889   5.894
 8719SOL    HW127056   6.474   0.952   5.965
 8719SOL    HW227057   6.583   0.836   5.928
 8720SOL     OW27058   4.900   3.181   5.140
 8720SOL    HW127059   4.995   3.174   5.169
 8720SOL    HW227060   4.888   3.131   5.054
 8721SOL     OW27061   6.850   0.686   5.160
 8721SOL    HW127062   6.918   0.613   5.155
 8721SOL    HW227063   6.870   0.745   5.238
 8722SOL     OW27064   3.168   2.658   0.787
 8722SOL    HW127065   3.105   2.698   0.854
 8722SOL    HW227066   3.120   2.588   0.734
 8723SOL     OW27067   0.648   6.260   0.497
 8723SOL    HW127068   0.644   6.217   0.587
 8723SOL    HW227069   0.743   6.258   0.464
 8724SOL     OW27070   4.961   5.682   6.643
 8724SOL    HW127071   4.907   5.647   6.567
 8724SOL    HW227072   5.058   5.662   6.627
 8725SOL     OW27073   2.823   6.534   0.850
 8725SOL    HW127074   2.905   6.490   0.888
 8725SOL    HW227075   2.758   6.464   0.820
 8726SOL     OW27076   0.067   0.577   1.118
 8726SOL    HW127077   0.068   0.620   1.027
 8726SOL    HW227078   0.098   0.483   1.110
 8727SOL     OW27079   5.481   6.389   1.445
 8727SOL    HW127080   5.495   6.475   1.494
 8727SOL    HW227081   5.557   6.373   1.383
 8728SOL     OW27082   2.460   5.869   5.555
 8728SOL    HW127083   2.497   5.776   5.565
 8728SOL    HW227084   2.436   5.884   5.459
 8729SOL     OW27085   4.700   5.821   4.103
 8729SOL    HW127086   4.603   5.829   4.080
 8729SOL    HW227087   4.745   5.910   4.094
 8730SOL     OW27088   6.390   6.225   0.975
 8730SOL    HW127089   6.364   6.226   0.878
 8730SOL    HW227090   6.473   6.279   0.987
 8731SOL     OW27091   0.645   1.997   2.622
 8731SOL    HW127092   0.697   1.922   2.661
 8731SOL    HW227093   0.685   2.023   2.534
 8732SOL     OW27094   6.829   6.072   1.908
 8732SOL    HW127095   6.881   6.149   1.871
 8732SOL    HW227096   6.884   5.989   1.903
 8733SOL     OW27097   6.911   0.790   0.592
 8733SOL    HW127098   6.885   0.749   0.504
 8733SOL    HW227099   6.833   0.839   0.630
 8734SOL     OW27100   6.454   6.477   0.765
 8734SOL    HW127101   6.452   6.531   0.848
 8734SOL    HW227102   6.500   6.528   0.692
 8735SOL     OW27103   0.951   2.935   6.077
 8735SOL    HW127104   0.988   2.849   6.041
 8735SOL    HW227105   0.950   3.004   6.004
 8736SOL     OW27106   0.223   4.947   5.899
 8736SOL    HW127107   0.175   4.981   5.818
 8736SOL    HW227108   0.163   4.885   5.950
 8737SOL     OW27109   4.178   5.784   6.788
 8737SOL    HW127110   4.090   5.781   6.742
 8737SOL    HW227111   4.212   5.691   6.802
 8738SOL     OW27112   1.039   4.190   5.428
 8738SOL    HW127113   1.121   4.208   5.482
 8738SOL    HW227114   0.959   4.189   5.488
 8739SOL     OW27115   1.484   3.384   5.403
 8739SOL    HW127116   1.567   3.434   5.380
 8739SOL    HW227117   1.431   3.367   5.320
 8740SOL     OW27118   1.543   6.297   0.473
 8740SOL    HW127119   1.638   6.266   0.472
 8740SOL    HW227120   1.517   6.328   0.381
 8741SOL     OW27121   1.360   3.572   1.874
 8741SOL    HW127122   1.448   3.613   1.896
 8741SOL    HW227123   1.350   3.565   1.775
 8742SOL     OW27124   4.705   5.350   1.956
 8742SOL    HW127125   4.722   5.303   2.043
 8742SOL    HW227126   4.786   5.403   1.931
 8743SOL     OW27127   2.800   5.144   2.475
 8743SOL    HW127128   2.793   5.083   2.396
 8743SOL    HW227129   2.784   5.239   2.445
 8744SOL     OW27130   2.900   3.432   5.507
 8744SOL    HW127131   2.967   3.372   5.550
 8744SOL    HW227132   2.939   3.523   5.496
 8745SOL     OW27133   5.290   1.992   6.283
 8745SOL    HW127134   5.317   1.897   6.296
 8745SOL    HW227135   5.305   2.042   6.369
 8746SOL     OW27136   5.362   3.182   4.318
 8746SOL    HW127137   5.400   3.093   4.344
 8746SOL    HW227138   5.413   3.255   4.365
 8747SOL     OW27139   0.707   1.488   3.994
 8747SOL    HW127140   0.718   1.444   3.905
 8747SOL    HW227141   0.644   1.435   4.050
 8748SOL     OW27142   3.108   0.177   6.580
 8748SOL    HW127143   3.105   0.079   6.560
 8748SOL    HW227144   3.059   0.195   6.665
 8749SOL     OW27145   3.992   1.718   3.308
 8749SOL    HW127146   3.912   1.672   3.346
 8749SOL    HW227147   4.047   1.653   3.256
 8750SOL     OW27148   1.932   0.451   4.811
 8750SOL    HW127149   1.881   0.509   4.874
 8750SOL    HW227150   1.968   0.506   4.736
 8751SOL     OW27151   2.158   6.474   2.680
 8751SOL    HW127152   2.226   6.403   2.661
 8751SOL    HW227153   2.111   6.452   2.766
 8752SOL     OW27154   2.272   0.896   6.338
 8752SOL    HW127155   2.345   0.943   6.290
 8752SOL    HW227156   2.204   0.863   6.272
 8753SOL     OW27157   5.404   1.617   5.076
 8753SOL    HW127158   5.326   1.625   5.015
 8753SOL    HW227159   5.449   1.706   5.085
 8754SOL     OW27160   1.807   1.131   5.913
 8754SOL    HW127161   1.795   1.206   5.848
 8754SOL    HW227162   1.905   1.114   5.927
 8755SOL     OW27163   2.051   1.989   0.417
 8755SOL    HW127164   1.952   1.986   0.431
 8755SOL    HW227165   2.070   2.041   0.334
 8756SOL     OW27166   2.802   5.366   4.646
 8756SOL    HW127167   2.775   5.321   4.731
 8756SOL    HW227168   2.786   5.305   4.569
 8757SOL     OW27169   3.172   5.131   3.422
 8757SOL    HW127170   3.252   5.074   3.436
 8757SOL    HW227171   3.200   5.227   3.420
 8758SOL     OW27172   5.082   6.776   2.777
 8758SOL    HW127173   5.004   6.828   2.812
 8758SOL    HW227174   5.126   6.728   2.853
 8759SOL     OW27175   5.591   0.447   6.216
 8759SOL    HW127176   5.580   0.422   6.120
 8759SOL    HW227177   5.576   0.546   6.226
 8760SOL     OW27178   1.875   2.927   3.458
 8760SOL    HW127179   1.895   2.974   3.373
 8760SOL    HW227180   1.777   2.906   3.463
 8761SOL     OW27181   5.262   6.089   1.740
 8761SOL    HW127182   5.298   6.034   1.665
 8761SOL    HW227183   5.275   6.040   1.826
 8762SOL     OW27184   1.287   4.918   1.311
 8762SOL    HW127185   1.356   4.854   1.275
 8762SOL    HW227186   1.294   4.921   1.411
 8763SOL     OW27187   0.113   5.826   6.879
 8763SOL    HW127188   0.202   5.823   6.834
 8763SOL    HW227189   0.041   5.799   6.815
 8764SOL     OW27190   3.108   2.274   6.122
 8764SOL    HW127191   3.165   2.335   6.067
 8764SOL    HW227192   3.080   2.321   6.206
 8765SOL     OW27193   5.887   0.809   4.767
 8765SOL    HW127194   5.838   0.725   4.745
 8765SOL    HW227195   5.852   0.845   4.854
 8766SOL     OW27196   2.341   4.349   2.333
 8766SOL    HW127197   2.367   4.443   2.354
 8766SOL    HW227198   2.368   4.328   2.239
 8767SOL     OW27199   4.223   0.385   4.850
 8767SOL    HW127200   4.265   0.305   4.808
 8767SOL    HW227201   4.291   0.434   4.904
 8768SOL     OW27202   0.412   4.113   0.825
 8768SOL    HW127203   0.381   4.040   0.765
 8768SOL    HW227204   0.466   4.179   0.773
 8769SOL     OW27205   1.747   0.834   6.241
 8769SOL    HW127206   1.754   0.924   6.285
 8769SOL    HW227207   1.817   0.826   6.170
 8770SOL     OW27208   5.953   1.598   2.663
 8770SOL    HW127209   5.942   1.666   2.590
 8770SOL    HW227210   5.939   1.642   2.752
 8771SOL     OW27211   2.883   3.275   5.048
 8771SOL    HW127212   2.968   3.222   5.055
 8771SOL    HW227213   2.825   3.235   4.978
 8772SOL     OW27214   6.732   6.698   6.615
 8772SOL    HW127215   6.715   6.746   6.701
 8772SOL    HW227216   6.741   6.765   6.541
 8773SOL     OW27217   2.722   1.790   3.285
 8773SOL    HW127218   2.741   1.812   3.189
 8773SOL    HW227219   2.645   1.846   3.317
 8774SOL     OW27220   1.499   0.880   0.054
 8774SOL    HW127221   1.528   0.889   0.149
 8774SOL    HW227222   1.579   0.874   7.014
 8775SOL     OW27223   6.414   6.302   4.235
 8775SOL    HW127224   6.393   6.204   4.246
 8775SOL    HW227225   6.470   6.314   4.153
 8776SOL     OW27226   3.282   3.608   5.489
 8776SOL    HW127227   3.232   3.637   5.408
 8776SOL    HW227228   3.376   3.643   5.484
 8777SOL     OW27229   6.356   5.374   2.844
 8777SOL    HW127230   6.320   5.281   2.840
 8777SOL    HW227231   6.286   5.438   2.813
 8778SOL     OW27232   1.203   3.252   2.887
 8778SOL    HW127233   1.239   3.184   2.823
 8778SOL    HW227234   1.125   3.214   2.936
 8779SOL     OW27235   1.781   4.643   1.139
 8779SOL    HW127236   1.874   4.608   1.146
 8779SOL    HW227237   1.717   4.576   1.178
 8780SOL     OW27238   1.857   5.670   5.500
 8780SOL    HW127239   1.849   5.702   5.406
 8780SOL    HW227240   1.779   5.612   5.521
 8781SOL     OW27241   1.567   2.319   2.260
 8781SOL    HW127242   1.515   2.374   2.195
 8781SOL    HW227243   1.581   2.227   2.223
 8782SOL     OW27244   5.525   1.304   3.823
 8782SOL    HW127245   5.479   1.364   3.888
 8782SOL    HW227246   5.522   1.210   3.857
 8783SOL     OW27247   5.895   2.758   5.951
 8783SOL    HW127248   5.926   2.761   6.046
 8783SOL    HW227249   5.806   2.805   5.944
 8784SOL     OW27250   5.570   3.841   5.992
 8784SOL    HW127251   5.472   3.841   6.009
 8784SOL    HW227252   5.604   3.747   5.986
 8785SOL     OW27253   5.342   3.952   6.284
 8785SOL    HW127254   5.337   3.874   6.221
 8785SOL    HW227255   5.256   3.961   6.333
 8786SOL     OW27256   1.872   6.074   6.512
 8786SOL    HW127257   1.914   6.058   6.601
 8786SOL    HW227258   1.935   6.047   6.440
 8787SOL     OW27259   1.316   2.845   6.684
 8787SOL    HW127260   1.293   2.830   6.780
 8787SOL    HW227261   1.378   2.774   6.653
 8788SOL     OW27262   1.406   1.746   5.189
 8788SOL    HW127263   1.449   1.662   5.156
 8788SOL    HW227264   1.477   1.806   5.226
 8789SOL     OW27265   6.546   1.207   0.216
 8789SOL    HW127266   6.642   1.185   0.232
 8789SOL    HW227267   6.497   1.205   0.303
 8790SOL     OW27268   4.095   1.520   6.440
 8790SOL    HW127269   4.039   1.555   6.366
 8790SOL    HW227270   4.109   1.592   6.509
 8791SOL     OW27271   5.347   6.145   5.022
 8791SOL    HW127272   5.347   6.244   5.031
 8791SOL    HW227273   5.257   6.109   5.050
 8792SOL     OW27274   5.274   6.924   2.653
 8792SOL    HW127275   5.221   6.860   2.709
 8792SOL    HW227276   5.287   6.885   2.562
 8793SOL     OW27277   1.131   4.725   3.248
 8793SOL    HW127278   1.216   4.724   3.301
 8793SOL    HW227279   1.053   4.714   3.309
 8794SOL     OW27280   2.915   6.879   2.578
 8794SOL    HW127281   2.999   6.913   2.535
 8794SOL    HW227282   2.863   6.955   2.615
 8795SOL     OW27283   2.954   6.433   4.818
 8795SOL    HW127284   2.859   6.447   4.849
 8795SOL    HW227285   2.969   6.336   4.800
 8796SOL     OW27286   4.687   2.295   4.335
 8796SOL    HW127287   4.603   2.252   4.302
 8796SOL    HW227288   4.711   2.257   4.425
 8797SOL     OW27289   0.240   5.501   6.638
 8797SOL    HW127290   0.221   5.465   6.547
 8797SOL    HW227291   0.331   5.543   6.639
 8798SOL     OW27292   3.220   3.420   5.136
 8798SOL    HW127293   3.262   3.462   5.056
 8798SOL    HW227294   3.178   3.491   5.193
 8799SOL     OW27295   3.631   0.943   2.228
 8799SOL    HW127296   3.532   0.949   2.211
 8799SOL    HW227297   3.646   0.924   2.325
 8800SOL     OW27298   4.027   3.785   0.752
 8800SOL    HW127299   3.964   3.853   0.715
 8800SOL    HW227300   3.981   3.696   0.756
 8801SOL     OW27301   2.886   6.422   5.524
 8801SOL    HW127302   2.913   6.518   5.535
 8801SOL    HW227303   2.859   6.385   5.613
 8802SOL     OW27304   1.465   6.413   1.421
 8802SOL    HW127305   1.387   6.416   1.483
 8802SOL    HW227306   1.458   6.486   1.354
 8803SOL     OW27307   3.691   5.981   2.285
 8803SOL    HW127308   3.702   6.078   2.261
 8803SOL    HW227309   3.754   5.926   2.232
 8804SOL     OW27310   3.014   0.559   1.481
 8804SOL    HW127311   3.088   0.552   1.414
 8804SOL    HW227312   3.028   0.493   1.554
 8805SOL     OW27313   0.230   0.148   3.716
 8805SOL    HW127314   0.175   0.068   3.744
 8805SOL    HW227315   0.192   0.230   3.758
 8806SOL     OW27316   2.064   4.742   6.622
 8806SOL    HW127317   2.006   4.662   6.602
 8806SOL    HW227318   2.008   4.813   6.664
 8807SOL     OW27319   1.901   4.934   6.758
 8807SOL    HW127320   1.941   4.999   6.823
 8807SOL    HW227321   1.875   4.850   6.806
 8808SOL     OW27322   6.106   2.658   0.882
 8808SOL    HW127323   6.098   2.744   0.931
 8808SOL    HW227324   6.106   2.675   0.783
 8809SOL     OW27325   6.283   4.679   6.950
 8809SOL    HW127326   6.197   4.638   6.982
 8809SOL    HW227327   6.267   4.724   6.862
 8810SOL     OW27328   5.014   1.537   4.066
 8810SOL    HW127329   5.007   1.544   4.165
 8810SOL    HW227330   4.931   1.496   4.029
 8811SOL     OW27331   0.688   0.856   3.272
 8811SOL    HW127332   0.729   0.863   3.363
 8811SOL    HW227333   0.744   0.907   3.206
 8812SOL     OW27334   2.952   1.122   7.007
 8812SOL    HW127335   3.010   1.171   0.053
 8812SOL    HW227336   2.963   1.162   6.916
 8813SOL     OW27337   0.737   5.605   1.141
 8813SOL    HW127338   0.811   5.538   1.147
 8813SOL    HW227339   0.649   5.559   1.153
 8814SOL     OW27340   5.527   0.018   6.036
 8814SOL    HW127341   5.458   0.087   6.058
 8814SOL    HW227342   5.513   7.004   5.943
 8815SOL     OW27343   6.237   4.517   3.490
 8815SOL    HW127344   6.228   4.452   3.414
 8815SOL    HW227345   6.322   4.570   3.478
 8816SOL     OW27346   0.801   5.612   2.469
 8816SOL    HW127347   0.806   5.513   2.452
 8816SOL    HW227348   0.878   5.639   2.527
 8817SOL     OW27349   2.173   3.824   5.191
 8817SOL    HW127350   2.243   3.893   5.170
 8817SOL    HW227351   2.156   3.769   5.110
 8818SOL     OW27352   6.724   4.819   5.164
 8818SOL    HW127353   6.802   4.763   5.135
 8818SOL    HW227354   6.754   4.915   5.173
 8819SOL     OW27355   0.420   1.160   4.938
 8819SOL    HW127356   0.513   1.194   4.953
 8819SOL    HW227357   0.401   1.159   4.840
 8820SOL     OW27358   1.091   2.604   3.042
 8820SOL    HW127359   1.134   2.638   3.125
 8820SOL    HW227360   1.159   2.554   2.987
 8821SOL     OW27361   1.251   6.856   6.866
 8821SOL    HW127362   1.178   6.795   6.835
 8821SOL    HW227363   1.282   6.827   6.957
 8822SOL     OW27364   1.079   2.521   3.886
 8822SOL    HW127365   1.043   2.492   3.974
 8822SOL    HW227366   1.082   2.621   3.883
 8823SOL     OW27367   2.608   5.535   0.898
 8823SOL    HW127368   2.632   5.452   0.947
 8823SOL    HW227369   2.654   5.613   0.941
 8824SOL     OW27370   5.181   4.117   1.330
 8824SOL    HW127371   5.240   4.085   1.404
 8824SOL    HW227372   5.088   4.129   1.365
 8825SOL     OW27373   2.477   2.154   6.795
 8825SOL    HW127374   2.391   2.147   6.746
 8825SOL    HW227375   2.546   2.098   6.749
 8826SOL     OW27376   5.326   0.154   1.536
 8826SOL    HW127377   5.286   0.155   1.445
 8826SOL    HW227378   5.336   0.248   1.569
 8827SOL     OW27379   6.589   1.445   3.905
 8827SOL    HW127380   6.567   1.351   3.928
 8827SOL    HW227381   6.515   1.485   3.851
 8828SOL     OW27382   1.667   5.949   3.439
 8828SOL    HW127383   1.707   6.011   3.372
 8828SOL    HW227384   1.570   5.972   3.452
 8829SOL     OW27385   0.447   0.453   1.215
 8829SOL    HW127386   0.441   0.529   1.150
 8829SOL    HW227387   0.440   0.488   1.308
 8830SOL     OW27388   1.568   1.388   1.005
 8830SOL    HW127389   1.495   1.451   0.979
 8830SOL    HW227390   1.578   1.318   0.934
 8831SOL     OW27391   0.085   0.544   1.595
 8831SOL    HW127392   0.024   0.467   1.576
 8831SOL    HW227393   0.086   0.606   1.517
 8832SOL     OW27394   6.583   0.813   1.726
 8832SOL    HW127395   6.635   0.887   1.768
 8832SOL    HW227396   6.606   0.727   1.772
 8833SOL     OW27397   0.705   5.240   1.788
 8833SOL    HW127398   0.671   5.150   1.811
 8833SOL    HW227399   0.705   5.298   1.869
 8834SOL     OW27400   6.578   4.386   4.187
 8834SOL    HW127401   6.551   4.290   4.181
 8834SOL    HW227402   6.536   4.437   4.112
 8835SOL     OW27403   0.642   1.449   0.712
 8835SOL    HW127404   0.565   1.492   0.758
 8835SOL    HW227405   0.616   1.357   0.682
 8836SOL     OW27406   4.731   1.806   1.644
 8836SOL    HW127407   4.820   1.776   1.610
 8836SOL    HW227408   4.713   1.763   1.732
 8837SOL     OW27409   0.345   2.659   2.271
 8837SOL    HW127410   0.325   2.615   2.183
 8837SOL    HW227411   0.391   2.746   2.255
 8838SOL     OW27412   1.338   6.895   3.460
 8838SOL    HW127413   1.299   6.987   3.469
 8838SOL    HW227414   1.286   6.831   3.517
 8839SOL     OW27415   5.798   5.045   4.772
 8839SOL    HW127416   5.700   5.057   4.785
 8839SOL    HW227417   5.837   4.999   4.852
 8840SOL     OW27418   4.476   0.512   1.879
 8840SOL    HW127419   4.408   0.454   1.924
 8840SOL    HW227420   4.477   0.492   1.781
 8841SOL     OW27421   3.952   6.961   3.216
 8841SOL    HW127422   3.930   6.886   3.278
 8841SOL    HW227423   3.989   0.019   3.269
 8842SOL     OW27424   1.789   1.503   1.975
 8842SOL    HW127425   1.850   1.434   2.014
 8842SOL    HW227426   1.843   1.569   1.923
 8843SOL     OW27427   6.835   2.895   4.032
 8843SOL    HW127428   6.821   2.853   4.121
 8843SOL    HW227429   6.812   2.830   3.959
 8844SOL     OW27430   5.975   2.066   6.828
 8844SOL    HW127431   6.075   2.064   6.824
 8844SOL    HW227432   5.938   2.004   6.759
 8845SOL     OW27433   5.083   2.421   6.895
 8845SOL    HW127434   5.175   2.393   6.924
 8845SOL    HW227435   5.080   2.521   6.886
 8846SOL     OW27436   3.030   4.957   4.278
 8846SOL    HW127437   3.035   4.976   4.376
 8846SOL    HW227438   2.991   4.865   4.264
 8847SOL     OW27439   0.885   1.502   3.430
 8847SOL    HW127440   0.834   1.420   3.406
 8847SOL    HW227441   0.885   1.513   3.530
 8848SOL     OW27442   0.531   1.406   3.577
 8848SOL    HW127443   0.466   1.469   3.619
 8848SOL    HW227444   0.521   1.408   3.478
 8849SOL     OW27445   3.428   7.019   1.090
 8849SOL    HW127446   3.407   0.032   1.182
 8849SOL    HW227447   3.364   0.040   1.025
 8850SOL     OW27448   3.254   1.791   0.021
 8850SOL    HW127449   3.287   1.712   6.990
 8850SOL    HW227450   3.199   1.849   6.980
 8851SOL     OW27451   2.079   3.716   1.505
 8851SOL    HW127452   2.052   3.631   1.460
 8851SOL    HW227453   2.171   3.707   1.543
 8852SOL     OW27454   1.176   2.571   4.677
 8852SOL    HW127455   1.131   2.519   4.605
 8852SOL    HW227456   1.270   2.540   4.687
 8853SOL     OW27457   4.849   0.383   1.597
 8853SOL    HW127458   4.754   0.364   1.574
 8853SOL    HW227459   4.855   0.412   1.693
 8854SOL     OW27460   6.776   2.502   5.027
 8854SOL    HW127461   6.842   2.513   4.953
 8854SOL    HW227462   6.807   2.552   5.108
 8855SOL     OW27463   5.063   4.679   1.149
 8855SOL    HW127464   5.091   4.637   1.236
 8855SOL    HW227465   5.137   4.668   1.082
 8856SOL     OW27466   6.329   0.967   5.694
 8856SOL    HW127467   6.301   1.051   5.739
 8856SOL    HW227468   6.416   0.936   5.733
 8857SOL     OW27469   0.169   2.106   6.198
 8857SOL    HW127470   0.212   2.035   6.143
 8857SOL    HW227471   0.132   2.067   6.282
 8858SOL     OW27472   6.615   5.444   4.959
 8858SOL    HW127473   6.589   5.372   4.895
 8858SOL    HW227474   6.566   5.431   5.045
 8859SOL     OW27475   0.335   5.808   3.095
 8859SOL    HW127476   0.396   5.849   3.162
 8859SOL    HW227477   0.265   5.874   3.069
 8860SOL     OW27478   6.455   2.653   2.773
 8860SOL    HW127479   6.402   2.569   2.769
 8860SOL    HW227480   6.459   2.695   2.683
 8861SOL     OW27481   2.990   2.655   1.275
 8861SOL    HW127482   3.011   2.742   1.321
 8861SOL    HW227483   3.075   2.608   1.253
 8862SOL     OW27484   4.402   4.689   4.733
 8862SOL    HW127485   4.488   4.738   4.749
 8862SOL    HW227486   4.377   4.637   4.814
 8863SOL     OW27487   1.729   3.683   1.627
 8863SOL    HW127488   1.647   3.739   1.623
 8863SOL    HW227489   1.712   3.595   1.583
 8864SOL     OW27490   6.684   1.671   4.670
 8864SOL    HW127491   6.619   1.732   4.716
 8864SOL    HW227492   6.670   1.676   4.571
 8865SOL     OW27493   2.809   1.643   0.212
 8865SOL    HW127494   2.740   1.712   0.193
 8865SOL    HW227495   2.780   1.586   0.289
 8866SOL     OW27496   6.312   0.027   1.900
 8866SOL    HW127497   6.386   0.015   1.834
 8866SOL    HW227498   6.312   0.121   1.934
 8867SOL     OW27499   5.934   2.402   3.215
 8867SOL    HW127500   5.884   2.379   3.132
 8867SOL    HW227501   5.883   2.472   3.267
 8868SOL     OW27502   0.580   2.860   3.574
 8868SOL    HW127503   0.604   2.862   3.671
 8868SOL    HW227504   0.594   2.951   3.535
 8869SOL     OW27505   4.302   0.147   3.460
 8869SOL    HW127506   4.323   0.112   3.369
 8869SOL    HW227507   4.347   0.235   3.474
 8870SOL     OW27508   0.848   0.607   1.811
 8870SOL    HW127509   0.837   0.704   1.790
 8870SOL    HW227510   0.916   0.597   1.884
 8871SOL     OW27511   0.050   6.718   0.875
 8871SOL    HW127512   6.982   6.763   0.892
 8871SOL    HW227513   0.099   6.765   0.802
 8872SOL     OW27514   6.656   4.766   3.845
 8872SOL    HW127515   6.689   4.824   3.919
 8872SOL    HW227516   6.646   4.672   3.877
 8873SOL     OW27517   1.585   1.774   3.329
 8873SOL    HW127518   1.615   1.698   3.271
 8873SOL    HW227519   1.609   1.754   3.424
 8874SOL     OW27520   2.719   6.179   0.391
 8874SOL    HW127521   2.733   6.265   0.440
 8874SOL    HW227522   2.731   6.102   0.454
 8875SOL     OW27523   6.505   2.798   4.214
 8875SOL    HW127524   6.425   2.809   4.155
 8875SOL    HW227525   6.559   2.720   4.183
 8876SOL     OW27526   5.176   6.874   0.403
 8876SOL    HW127527   5.219   6.852   0.491
 8876SOL    HW227528   5.231   6.942   0.355
 8877SOL     OW27529   1.138   4.385   1.688
 8877SOL    HW127530   1.166   4.303   1.639
 8877SOL    HW227531   1.129   4.365   1.785
 8878SOL     OW27532   4.873   3.630   2.483
 8878SOL    HW127533   4.943   3.681   2.433
 8878SOL    HW227534   4.833   3.561   2.422
 8879SOL     OW27535   6.804   4.557   4.040
 8879SOL    HW127536   6.856   4.472   4.046
 8879SOL    HW227537   6.707   4.537   4.033
 8880SOL     OW27538   3.762   1.722   2.364
 8880SOL    HW127539   3.734   1.818   2.370
 8880SOL    HW227540   3.859   1.717   2.341
 8881SOL     OW27541   3.886   5.263   2.685
 8881SOL    HW127542   3.788   5.241   2.679
 8881SOL    HW227543   3.927   5.213   2.761
 8882SOL     OW27544   3.983   1.746   0.380
 8882SOL    HW127545   4.010   1.715   0.471
 8882SOL    HW227546   3.901   1.697   0.351
 8883SOL     OW27547   0.750   6.578   2.956
 8883SOL    HW127548   0.712   6.596   3.047
 8883SOL    HW227549   0.694   6.623   2.887
 8884SOL     OW27550   4.604   1.805   6.032
 8884SOL    HW127551   4.646   1.715   6.045
 8884SOL    HW227552   4.534   1.798   5.961
 8885SOL     OW27553   5.830   5.091   0.773
 8885SOL    HW127554   5.738   5.128   0.790
 8885SOL    HW227555   5.849   5.017   0.837
 8886SOL     OW27556   4.503   6.420   0.375
 8886SOL    HW127557   4.557   6.501   0.351
 8886SOL    HW227558   4.513   6.351   0.304
 8887SOL     OW27559   3.982   0.616   2.001
 8887SOL    HW127560   4.044   0.695   1.995
 8887SOL    HW227561   3.989   0.562   1.917
 8888SOL     OW27562   3.718   1.938   1.923
 8888SOL    HW127563   3.713   1.972   1.829
 8888SOL    HW227564   3.692   2.011   1.986
 8889SOL     OW27565   1.617   4.296   6.659
 8889SOL    HW127566   1.673   4.262   6.583
 8889SOL    HW227567   1.597   4.393   6.645
 8890SOL     OW27568   1.797   5.547   6.827
 8890SOL    HW127569   1.783   5.449   6.811
 8890SOL    HW227570   1.787   5.597   6.741
 8891SOL     OW27571   5.615   3.593   5.350
 8891SOL    HW127572   5.674   3.518   5.320
 8891SOL    HW227573   5.640   3.676   5.302
 8892SOL     OW27574   2.463   5.117   5.188
 8892SOL    HW127575   2.501   5.040   5.136
 8892SOL    HW227576   2.379   5.087   5.235
 8893SOL     OW27577   0.558   4.431   5.688
 8893SOL    HW127578   0.637   4.428   5.628
 8893SOL    HW227579   0.476   4.405   5.637
 8894SOL     OW27580   5.729   2.361   1.424
 8894SOL    HW127581   5.645   2.410   1.402
 8894SOL    HW227582   5.712   2.262   1.418
 8895SOL     OW27583   0.127   3.629   1.764
 8895SOL    HW127584   0.149   3.542   1.721
 8895SOL    HW227585   0.211   3.671   1.799
 8896SOL     OW27586   0.711   0.757   3.600
 8896SOL    HW127587   0.778   0.725   3.668
 8896SOL    HW227588   0.623   0.712   3.617
 8897SOL     OW27589   1.342   5.138   4.724
 8897SOL    HW127590   1.377   5.119   4.816
 8897SOL    HW227591   1.419   5.155   4.662
 8898SOL     OW27592   5.903   5.262   2.983
 8898SOL    HW127593   5.863   5.186   2.933
 8898SOL    HW227594   5.963   5.227   3.055
 8899SOL     OW27595   2.421   4.839   1.711
 8899SOL    HW127596   2.493   4.874   1.771
 8899SOL    HW227597   2.332   4.863   1.747
 8900SOL     OW27598   4.395   1.814   4.762
 8900SOL    HW127599   4.400   1.849   4.668
 8900SOL    HW227600   4.475   1.756   4.780
 8901SOL     OW27601   1.428   4.732   5.772
 8901SOL    HW127602   1.399   4.646   5.729
 8901SOL    HW227603   1.452   4.715   5.868
 8902SOL     OW27604   0.875   4.406   6.738
 8902SOL    HW127605   0.793   4.399   6.681
 8902SOL    HW227606   0.944   4.461   6.691
 8903SOL     OW27607   0.576   0.594   4.088
 8903SOL    HW127608   0.625   0.605   4.175
 8903SOL    HW227609   0.505   0.525   4.099
 8904SOL     OW27610   6.842   1.319   2.591
 8904SOL    HW127611   6.866   1.223   2.604
 8904SOL    HW227612   6.779   1.328   2.513
 8905SOL     OW27613   1.784   5.107   1.372
 8905SOL    HW127614   1.836   5.124   1.288
 8905SOL    HW227615   1.757   5.010   1.375
 8906SOL     OW27616   6.327   0.727   6.637
 8906SOL    HW127617   6.415   0.772   6.621
 8906SOL    HW227618   6.341   0.640   6.684
 8907SOL     OW27619   2.714   2.966   5.356
 8907SOL    HW127620   2.650   2.982   5.281
 8907SOL    HW227621   2.688   3.025   5.433
 8908SOL     OW27622   1.465   5.653   5.523
 8908SOL    HW127623   1.532   5.582   5.502
 8908SOL    HW227624   1.509   5.743   5.517
 8909SOL     OW27625   2.379   6.253   1.938
 8909SOL    HW127626   2.333   6.337   1.908
 8909SOL    HW227627   2.428   6.212   1.860
 8910SOL     OW27628   0.927   0.604   3.741
 8910SOL    HW127629   0.951   0.688   3.789
 8910SOL    HW227630   1.011   0.553   3.719
 8911SOL     OW27631   4.658   2.716   3.981
 8911SOL    HW127632   4.619   2.671   4.062
 8911SOL    HW227633   4.642   2.659   3.900
 8912SOL     OW27634   3.555   3.100   3.234
 8912SOL    HW127635   3.643   3.065   3.266
 8912SOL    HW227636   3.566   3.195   3.204
 8913SOL     OW27637   4.712   5.395   0.803
 8913SOL    HW127638   4.645   5.355   0.865
 8913SOL    HW227639   4.799   5.408   0.850
 8914SOL     OW27640   4.995   5.107   5.020
 8914SOL    HW127641   5.029   5.083   5.111
 8914SOL    HW227642   5.024   5.200   4.996
 8915SOL     OW27643   2.564   0.991   3.188
 8915SOL    HW127644   2.583   0.894   3.174
 8915SOL    HW227645   2.553   1.009   3.286
 8916SOL     OW27646   6.406   0.083   2.420
 8916SOL    HW127647   6.319   0.047   2.387
 8916SOL    HW227648   6.402   0.096   2.519
 8917SOL     OW27649   5.940   2.617   0.490
 8917SOL    HW127650   5.949   2.521   0.466
 8917SOL    HW227651   5.847   2.648   0.469
 8918SOL     OW27652   1.651   3.213   3.107
 8918SOL    HW127653   1.605   3.158   3.176
 8918SOL    HW227654   1.584   3.258   3.049
 8919SOL     OW27655   6.470   2.272   3.098
 8919SOL    HW127656   6.555   2.220   3.089
 8919SOL    HW227657   6.420   2.270   3.011
 8920SOL     OW27658   1.149   1.580   0.610
 8920SOL    HW127659   1.143   1.594   0.511
 8920SOL    HW227660   1.164   1.668   0.655
 8921SOL     OW27661   0.814   2.399   1.356
 8921SOL    HW127662   0.777   2.385   1.265
 8921SOL    HW227663   0.818   2.312   1.405
 8922SOL     OW27664   2.933   5.116   3.314
 8922SOL    HW127665   3.022   5.125   3.357
 8922SOL    HW227666   2.894   5.206   3.297
 8923SOL     OW27667   2.430   1.927   3.301
 8923SOL    HW127668   2.475   1.931   3.212
 8923SOL    HW227669   2.410   2.020   3.333
 8924SOL     OW27670   6.253   5.176   4.775
 8924SOL    HW127671   6.279   5.123   4.694
 8924SOL    HW227672   6.262   5.273   4.755
 8925SOL     OW27673   0.555   6.300   3.794
 8925SOL    HW127674   0.469   6.348   3.776
 8925SOL    HW227675   0.576   6.305   3.892
 8926SOL     OW27676   5.881   2.617   6.696
 8926SOL    HW127677   5.827   2.575   6.624
 8926SOL    HW227678   5.977   2.590   6.686
 8927SOL     OW27679   1.099   1.849   6.061
 8927SOL    HW127680   1.156   1.929   6.039
 8927SOL    HW227681   1.016   1.879   6.107
 8928SOL     OW27682   0.595   6.614   5.080
 8928SOL    HW127683   0.615   6.516   5.076
 8928SOL    HW227684   0.614   6.655   4.991
 8929SOL     OW27685   6.670   1.268   3.497
 8929SOL    HW127686   6.665   1.172   3.525
 8929SOL    HW227687   6.766   1.295   3.491
 8930SOL     OW27688   2.272   5.278   2.619
 8930SOL    HW127689   2.297   5.228   2.702
 8930SOL    HW227690   2.337   5.352   2.603
 8931SOL     OW27691   4.483   3.158   0.204
 8931SOL    HW127692   4.555   3.089   0.196
 8931SOL    HW227693   4.513   3.231   0.265
 8932SOL     OW27694   0.493   3.724   2.373
 8932SOL    HW127695   0.457   3.770   2.454
 8932SOL    HW227696   0.434   3.646   2.350
 8933SOL     OW27697   5.007   2.427   5.887
 8933SOL    HW127698   5.089   2.483   5.897
 8933SOL    HW227699   4.930   2.485   5.862
 8934SOL     OW27700   2.621   6.030   2.485
 8934SOL    HW127701   2.619   5.934   2.512
 8934SOL    HW227702   2.547   6.047   2.420
 8935SOL     OW27703   0.008   5.668   6.400
 8935SOL    HW127704   7.009   5.593   6.337
 8935SOL    HW227705   0.087   5.721   6.367
 8936SOL     OW27706   4.239   3.348   0.825
 8936SOL    HW127707   4.209   3.259   0.858
 8936SOL    HW227708   4.268   3.339   0.729
 8937SOL     OW27709   6.977   1.156   6.451
 8937SOL    HW127710   6.984   1.249   6.488
 8937SOL    HW227711   0.013   1.149   6.368
 8938SOL     OW27712   4.957   5.453   1.864
 8938SOL    HW127713   4.943   5.550   1.885
 8938SOL    HW227714   5.033   5.443   1.800
 8939SOL     OW27715   5.285   1.969   4.188
 8939SOL    HW127716   5.243   1.973   4.097
 8939SOL    HW227717   5.382   1.945   4.179
 8940SOL     OW27718   5.291   6.813   2.398
 8940SOL    HW127719   5.332   6.763   2.322
 8940SOL    HW227720   5.210   6.764   2.430
 8941SOL     OW27721   3.873   2.198   0.068
 8941SOL    HW127722   3.907   2.205   0.162
 8941SOL    HW227723   3.950   2.196   0.004
 8942SOL     OW27724   1.309   2.422   5.938
 8942SOL    HW127725   1.374   2.469   5.878
 8942SOL    HW227726   1.216   2.437   5.904
 8943SOL     OW27727   4.956   3.483   0.929
 8943SOL    HW127728   4.999   3.481   0.839
 8943SOL    HW227729   4.859   3.457   0.920
 8944SOL     OW27730   4.593   5.069   1.184
 8944SOL    HW127731   4.529   5.101   1.254
 8944SOL    HW227732   4.687   5.088   1.213
 8945SOL     OW27733   2.327   1.252   3.378
 8945SOL    HW127734   2.419   1.267   3.415
 8945SOL    HW227735   2.261   1.309   3.426
 8946SOL     OW27736   3.657   0.613   5.036
 8946SOL    HW127737   3.591   0.604   5.111
 8946SOL    HW227738   3.675   0.709   5.020
 8947SOL     OW27739   3.788   3.481   5.586
 8947SOL    HW127740   3.775   3.547   5.660
 8947SOL    HW227741   3.733   3.400   5.603
 8948SOL     OW27742   5.183   4.599   3.531
 8948SOL    HW127743   5.155   4.691   3.560
 8948SOL    HW227744   5.224   4.552   3.609
 8949SOL     OW27745   1.767   5.596   6.337
 8949SOL    HW127746   1.761   5.599   6.237
 8949SOL    HW227747   1.846   5.541   6.364
 8950SOL     OW27748   4.761   3.001   4.656
 8950SOL    HW127749   4.803   2.912   4.637
 8950SOL    HW227750   4.662   2.995   4.642
 8951SOL     OW27751   3.126   2.015   5.412
 8951SOL    HW127752   3.117   1.962   5.327
 8951SOL    HW227753   3.035   2.038   5.447
 8952SOL     OW27754   5.820   6.688   3.658
 8952SOL    HW127755   5.851   6.678   3.564
 8952SOL    HW227756   5.845   6.779   3.692
 8953SOL     OW27757   1.206   5.139   5.964
 8953SOL    HW127758   1.296   5.117   5.925
 8953SOL    HW227759   1.206   5.234   5.995
 8954SOL     OW27760   2.359   6.724   6.310
 8954SOL    HW127761   2.347   6.667   6.392
 8954SOL    HW227762   2.350   6.821   6.336
 8955SOL     OW27763   6.694   3.592   4.279
 8955SOL    HW127764   6.703   3.644   4.364
 8955SOL    HW227765   6.737   3.502   4.290
 8956SOL     OW27766   1.086   0.347   4.018
 8956SOL    HW127767   1.025   0.276   4.052
 8956SOL    HW227768   1.053   0.436   4.048
 8957SOL     OW27769   3.291   6.458   1.728
 8957SOL    HW127770   3.292   6.511   1.813
 8957SOL    HW227771   3.198   6.449   1.694
 8958SOL     OW27772   3.242   0.503   5.013
 8958SOL    HW127773   3.164   0.554   5.048
 8958SOL    HW227774   3.243   0.412   5.054
 8959SOL     OW27775   4.010   4.960   6.650
 8959SOL    HW127776   3.944   5.034   6.636
 8959SOL    HW227777   3.964   4.883   6.694
 8960SOL     OW27778   4.319   5.554   0.731
 8960SOL    HW127779   4.272   5.482   0.680
 8960SOL    HW227780   4.388   5.597   0.672
 8961SOL     OW27781   0.637   2.759   4.521
 8961SOL    HW127782   0.715   2.816   4.547
 8961SOL    HW227783   0.669   2.665   4.503
 8962SOL     OW27784   4.520   0.272   3.810
 8962SOL    HW127785   4.588   0.291   3.740
 8962SOL    HW227786   4.431   0.309   3.781
 8963SOL     OW27787   1.506   1.009   4.108
 8963SOL    HW127788   1.484   0.943   4.180
 8963SOL    HW227789   1.589   0.979   4.060
 8964SOL     OW27790   0.584   2.862   3.158
 8964SOL    HW127791   0.584   2.796   3.233
 8964SOL    HW227792   0.601   2.815   3.071
 8965SOL     OW27793   1.903   5.073   1.643
 8965SOL    HW127794   1.851   5.086   1.558
 8965SOL    HW227795   1.859   5.125   1.716
 8966SOL     OW27796   3.816   2.121   4.824
 8966SOL    HW127797   3.905   2.079   4.803
 8966SOL    HW227798   3.830   2.199   4.885
 8967SOL     OW27799   5.432   6.443   0.667
 8967SOL    HW127800   5.461   6.367   0.609
 8967SOL    HW227801   5.338   6.429   0.696
 8968SOL     OW27802   6.290   3.962   3.962
 8968SOL    HW127803   6.334   4.039   3.915
 8968SOL    HW227804   6.346   3.880   3.952
 8969SOL     OW27805   6.451   6.966   4.099
 8969SOL    HW127806   6.483   6.921   4.016
 8969SOL    HW227807   6.378   6.912   4.140
 8970SOL     OW27808   3.064   2.841   1.471
 8970SOL    HW127809   2.980   2.888   1.499
 8970SOL    HW227810   3.084   2.767   1.536
 8971SOL     OW27811   3.605   6.583   2.991
 8971SOL    HW127812   3.558   6.590   3.079
 8971SOL    HW227813   3.622   6.487   2.969
 8972SOL     OW27814   5.255   0.451   5.240
 8972SOL    HW127815   5.346   0.413   5.221
 8972SOL    HW227816   5.207   0.465   5.153
 8973SOL     OW27817   1.907   4.517   6.603
 8973SOL    HW127818   1.932   4.508   6.700
 8973SOL    HW227819   1.808   4.511   6.594
 8974SOL     OW27820   0.287   2.603   4.204
 8974SOL    HW127821   0.267   2.568   4.295
 8974SOL    HW227822   0.279   2.529   4.137
 8975SOL     OW27823   3.461   0.895   6.000
 8975SOL    HW127824   3.523   0.913   6.076
 8975SOL    HW227825   3.511   0.904   5.913
 8976SOL     OW27826   1.777   5.873   4.010
 8976SOL    HW127827   1.690   5.921   4.020
 8976SOL    HW227828   1.773   5.813   3.930
 8977SOL     OW27829   5.396   1.517   0.003
 8977SOL    HW127830   5.322   1.466   0.046
 8977SOL    HW227831   5.470   1.453   6.999
 8978SOL     OW27832   5.788   4.809   1.506
 8978SOL    HW127833   5.717   4.768   1.448
 8978SOL    HW227834   5.864   4.839   1.449
 8979SOL     OW27835   0.934   4.645   5.256
 8979SOL    HW127836   0.958   4.693   5.172
 8979SOL    HW227837   1.013   4.644   5.318
 8980SOL     OW27838   2.932   3.289   3.739
 8980SOL    HW127839   2.980   3.311   3.824
 8980SOL    HW227840   2.922   3.190   3.731
 8981SOL     OW27841   2.838   2.048   5.379
 8981SOL    HW127842   2.753   2.003   5.351
 8981SOL    HW227843   2.857   2.124   5.317
 8982SOL     OW27844   3.285   5.283   0.842
 8982SOL    HW127845   3.210   5.225   0.875
 8982SOL    HW227846   3.372   5.245   0.874
 8983SOL     OW27847   4.997   4.450   0.669
 8983SOL    HW127848   4.994   4.360   0.713
 8983SOL    HW227849   4.938   4.514   0.719
 8984SOL     OW27850   1.665   6.529   3.276
 8984SOL    HW127851   1.630   6.438   3.294
 8984SOL    HW227852   1.648   6.554   3.181
 8985SOL     OW27853   2.944   3.328   6.209
 8985SOL    HW127854   3.034   3.305   6.247
 8985SOL    HW227855   2.896   3.244   6.183
 8986SOL     OW27856   2.697   6.083   1.944
 8986SOL    HW127857   2.696   6.156   2.012
 8986SOL    HW227858   2.728   5.998   1.987
 8987SOL     OW27859   5.135   6.620   2.549
 8987SOL    HW127860   5.044   6.591   2.520
 8987SOL    HW227861   5.128   6.685   2.624
 8988SOL     OW27862   0.603   4.534   4.971
 8988SOL    HW127863   0.520   4.477   4.967
 8988SOL    HW227864   0.596   4.598   5.047
 8989SOL     OW27865   2.536   2.405   6.877
 8989SOL    HW127866   2.523   2.317   6.833
 8989SOL    HW227867   2.603   2.396   6.950
 8990SOL     OW27868   0.343   5.094   4.650
 8990SOL    HW127869   0.324   5.130   4.559
 8990SOL    HW227870   0.347   4.994   4.647
 8991SOL     OW27871   1.087   2.648   4.959
 8991SOL    HW127872   1.121   2.606   4.874
 8991SOL    HW227873   1.039   2.578   5.013
 8992SOL     OW27874   6.309   1.872   1.634
 8992SOL    HW127875   6.277   1.912   1.720
 8992SOL    HW227876   6.253   1.907   1.558
 8993SOL     OW27877   4.572   2.173   0.974
 8993SOL    HW127878   4.552   2.241   0.904
 8993SOL    HW227879   4.551   2.210   1.065
 8994SOL     OW27880   1.906   5.677   2.643
 8994SOL    HW127881   1.940   5.603   2.585
 8994SOL    HW227882   1.912   5.649   2.739
 8995SOL     OW27883   0.270   0.190   1.306
 8995SOL    HW127884   0.248   0.169   1.402
 8995SOL    HW227885   0.325   0.273   1.302
 8996SOL     OW27886   4.508   5.386   5.466
 8996SOL    HW127887   4.452   5.393   5.549
 8996SOL    HW227888   4.473   5.449   5.397
 8997SOL     OW27889   5.853   0.271   5.013
 8997SOL    HW127890   5.781   0.208   4.986
 8997SOL    HW227891   5.822   0.327   5.089
 8998SOL     OW27892   6.827   3.918   4.935
 8998SOL    HW127893   6.752   3.980   4.957
 8998SOL    HW227894   6.873   3.891   5.020
 8999SOL     OW27895   4.079   5.675   6.213
 8999SOL    HW127896   4.122   5.708   6.129
 8999SOL    HW227897   4.149   5.658   6.282
 9000SOL     OW27898   0.936   4.240   1.047
 9000SOL    HW127899   0.918   4.145   1.071
 9000SOL    HW227900   0.849   4.287   1.028
 9001SOL     OW27901   1.456   5.775   0.888
 9001SOL    HW127902   1.538   5.770   0.830
 9001SOL    HW227903   1.438   5.685   0.927
 9002SOL     OW27904   6.609   5.618   6.259
 9002SOL    HW127905   6.635   5.714   6.259
 9002SOL    HW227906   6.647   5.573   6.179
 9003SOL     OW27907   4.867   6.526   0.804
 9003SOL    HW127908   4.964   6.522   0.828
 9003SOL    HW227909   4.856   6.524   0.705
 9004SOL     OW27910   6.520   4.909   2.420
 9004SOL    HW127911   6.524   4.964   2.337
 9004SOL    HW227912   6.596   4.845   2.421
 9005SOL     OW27913   4.814   1.006   4.627
 9005SOL    HW127914   4.719   1.001   4.595
 9005SOL    HW227915   4.869   0.937   4.581
 9006SOL     OW27916   3.758   6.232   0.250
 9006SOL    HW127917   3.733   6.135   0.244
 9006SOL    HW227918   3.815   6.256   0.172
 9007SOL     OW27919   0.092   0.646   3.171
 9007SOL    HW127920   0.125   0.586   3.245
 9007SOL    HW227921   0.003   0.613   3.140
 9008SOL     OW27922   6.789   5.332   2.066
 9008SOL    HW127923   6.736   5.247   2.057
 9008SOL    HW227924   6.867   5.316   2.127
 9009SOL     OW27925   3.437   6.761   2.118
 9009SOL    HW127926   3.525   6.721   2.095
 9009SOL    HW227927   3.365   6.721   2.061
 9010SOL     OW27928   2.002   5.357   4.931
 9010SOL    HW127929   2.061   5.356   4.850
 9010SOL    HW227930   2.025   5.279   4.990
 9011SOL     OW27931   2.445   2.152   2.184
 9011SOL    HW127932   2.534   2.151   2.138
 9011SOL    HW227933   2.376   2.187   2.121
 9012SOL     OW27934   2.402   6.314   6.974
 9012SOL    HW127935   2.426   6.219   6.994
 9012SOL    HW227936   2.426   6.336   6.880
 9013SOL     OW27937   1.960   0.425   4.165
 9013SOL    HW127938   2.054   0.454   4.148
 9013SOL    HW227939   1.924   0.380   4.083
 9014SOL     OW27940   5.479   3.484   3.515
 9014SOL    HW127941   5.466   3.385   3.513
 9014SOL    HW227942   5.553   3.507   3.578
 9015SOL     OW27943   3.986   6.581   6.075
 9015SOL    HW127944   3.912   6.612   6.016
 9015SOL    HW227945   4.070   6.629   6.050
 9016SOL     OW27946   4.935   4.487   6.220
 9016SOL    HW127947   4.904   4.525   6.134
 9016SOL    HW227948   4.885   4.403   6.240
 9017SOL     OW27949   2.634   0.045   5.502
 9017SOL    HW127950   2.590   7.014   5.428
 9017SOL    HW227951   2.715   0.092   5.467
 9018SOL     OW27952   3.548   5.201   0.612
 9018SOL    HW127953   3.630   5.147   0.595
 9018SOL    HW227954   3.470   5.160   0.565
 9019SOL     OW27955   0.748   3.662   4.830
 9019SOL    HW127956   0.842   3.696   4.822
 9019SOL    HW227957   0.692   3.702   4.757
 9020SOL     OW27958   5.643   4.929   3.703
 9020SOL    HW127959   5.621   4.844   3.749
 9020SOL    HW227960   5.656   5.002   3.771
 9021SOL     OW27961   0.169   1.108   4.382
 9021SOL    HW127962   0.096   1.051   4.345
 9021SOL    HW227963   0.257   1.075   4.347
 9022SOL     OW27964   4.591   3.781   6.933
 9022SOL    HW127965   4.647   3.705   6.969
 9022SOL    HW227966   4.633   3.868   6.958
 9023SOL     OW27967   0.045   5.019   1.037
 9023SOL    HW127968   0.123   5.078   1.057
 9023SOL    HW227969   0.057   4.931   1.082
 9024SOL     OW27970   2.389   4.591   6.138
 9024SOL    HW127971   2.453   4.660   6.102
 9024SOL    HW227972   2.337   4.631   6.214
 9025SOL     OW27973   0.549   6.173   1.521
 9025SOL    HW127974   0.521   6.183   1.426
 9025SOL    HW227975   0.497   6.098   1.563
 9026SOL     OW27976   6.039   1.070   6.811
 9026SOL    HW127977   6.121   1.114   6.777
 9026SOL    HW227978   5.986   1.033   6.735
 9027SOL     OW27979   0.208   4.097   3.227
 9027SOL    HW127980   0.161   4.139   3.150
 9027SOL    HW227981   0.289   4.047   3.195
 9028SOL     OW27982   3.303   4.896   6.943
 9028SOL    HW127983   3.258   4.983   6.924
 9028SOL    HW227984   3.402   4.906   6.928
 9029SOL     OW27985   4.267   6.307   4.972
 9029SOL    HW127986   4.224   6.394   4.994
 9029SOL    HW227987   4.204   6.232   4.993
 9030SOL     OW27988   2.833   2.247   2.320
 9030SOL    HW127989   2.864   2.166   2.371
 9030SOL    HW227990   2.879   2.251   2.232
 9031SOL     OW27991   5.344   6.860   5.143
 9031SOL    HW127992   5.427   6.896   5.099
 9031SOL    HW227993   5.345   6.760   5.139
 9032SOL     OW27994   4.997   3.010   0.970
 9032SOL    HW127995   4.960   3.074   0.903
 9032SOL    HW227996   5.097   3.016   0.971
 9033SOL     OW27997   1.289   5.983   2.824
 9033SOL    HW127998   1.277   6.081   2.836
 9033SOL    HW227999   1.267   5.958   2.730
 9034SOL     OW28000   4.269   6.889   5.043
 9034SOL    HW128001   4.201   6.845   4.984
 9034SOL    HW228002   4.326   6.819   5.087
 9035SOL     OW28003   2.978   5.065   5.931
 9035SOL    HW128004   2.951   5.155   5.968
 9035SOL    HW228005   3.054   5.029   5.985
 9036SOL     OW28006   0.136   5.383   5.266
 9036SOL    HW128007   0.182   5.433   5.340
 9036SOL    HW228008   0.205   5.339   5.209
 9037SOL     OW28009   0.090   0.666   2.168
 9037SOL    HW128010   0.070   0.668   2.266
 9037SOL    HW228011   0.032   0.732   2.121
 9038SOL     OW28012   3.750   3.483   5.313
 9038SOL    HW128013   3.660   3.447   5.289
 9038SOL    HW228014   3.760   3.486   5.413
 9039SOL     OW28015   4.429   6.131   6.410
 9039SOL    HW128016   4.358   6.105   6.344
 9039SOL    HW228017   4.497   6.188   6.365
 9040SOL     OW28018   2.108   2.165   1.894
 9040SOL    HW128019   2.189   2.109   1.914
 9040SOL    HW228020   2.050   2.169   1.976
 9041SOL     OW28021   6.069   2.228   2.897
 9041SOL    HW128022   6.104   2.194   2.984
 9041SOL    HW228023   5.992   2.171   2.868
 9042SOL     OW28024   5.838   5.614   6.503
 9042SOL    HW128025   5.779   5.641   6.579
 9042SOL    HW228026   5.895   5.537   6.531
 9043SOL     OW28027   2.861   2.990   1.555
 9043SOL    HW128028   2.805   2.946   1.625
 9043SOL    HW228029   2.826   3.082   1.537
 9044SOL     OW28030   1.943   0.616   0.010
 9044SOL    HW128031   1.987   0.674   6.960
 9044SOL    HW228032   1.897   0.674   0.077
 9045SOL     OW28033   3.339   0.623   3.813
 9045SOL    HW128034   3.300   0.589   3.898
 9045SOL    HW228035   3.314   0.563   3.737
 9046SOL     OW28036   3.917   3.578   2.267
 9046SOL    HW128037   3.994   3.519   2.290
 9046SOL    HW228038   3.901   3.644   2.341
 9047SOL     OW28039   0.759   4.737   5.841
 9047SOL    HW128040   0.820   4.805   5.802
 9047SOL    HW228041   0.687   4.782   5.894
 9048SOL     OW28042   0.071   1.968   5.168
 9048SOL    HW128043   0.125   2.051   5.183
 9048SOL    HW228044   0.070   1.948   5.070
 9049SOL     OW28045   1.224   6.809   5.256
 9049SOL    HW128046   1.269   6.771   5.337
 9049SOL    HW228047   1.261   6.900   5.237
 9050SOL     OW28048   1.164   4.346   0.276
 9050SOL    HW128049   1.103   4.422   0.299
 9050SOL    HW228050   1.243   4.381   0.226
 9051SOL     OW28051   2.135   0.526   1.633
 9051SOL    HW128052   2.127   0.604   1.695
 9051SOL    HW228053   2.078   0.451   1.667
 9052SOL     OW28054   2.113   3.005   6.519
 9052SOL    HW128055   2.112   2.928   6.582
 9052SOL    HW228056   2.204   3.014   6.478
 9053SOL     OW28057   0.727   1.268   0.289
 9053SOL    HW128058   0.693   1.183   0.329
 9053SOL    HW228059   0.675   1.345   0.326
 9054SOL     OW28060   1.583   5.638   3.372
 9054SOL    HW128061   1.628   5.715   3.418
 9054SOL    HW228062   1.610   5.553   3.416
 9055SOL     OW28063   0.892   2.546   6.121
 9055SOL    HW128064   0.931   2.604   6.192
 9055SOL    HW228065   0.808   2.586   6.087
 9056SOL     OW28066   4.947   1.442   4.325
 9056SOL    HW128067   4.878   1.490   4.379
 9056SOL    HW228068   5.028   1.426   4.381
 9057SOL     OW28069   4.672   1.486   3.635
 9057SOL    HW128070   4.621   1.479   3.721
 9057SOL    HW228071   4.731   1.566   3.638
 9058SOL     OW28072   2.193   6.999   5.910
 9058SOL    HW128073   2.132   7.013   5.988
 9058SOL    HW228074   2.148   0.010   5.827
 9059SOL     OW28075   1.787   2.320   3.656
 9059SOL    HW128076   1.716   2.385   3.682
 9059SOL    HW228077   1.870   2.369   3.629
 9060SOL     OW28078   5.409   2.595   5.084
 9060SOL    HW128079   5.337   2.602   5.154
 9060SOL    HW228080   5.413   2.501   5.050
 9061SOL     OW28081   2.121   4.669   3.642
 9061SOL    HW128082   2.070   4.604   3.585
 9061SOL    HW228083   2.113   4.641   3.738
 9062SOL     OW28084   1.480   6.182   1.858
 9062SOL    HW128085   1.386   6.154   1.839
 9062SOL    HW228086   1.515   6.235   1.781
 9063SOL     OW28087   3.330   1.447   1.628
 9063SOL    HW128088   3.311   1.532   1.677
 9063SOL    HW228089   3.268   1.439   1.550
 9064SOL     OW28090   4.228   3.964   6.768
 9064SOL    HW128091   4.176   3.890   6.810
 9064SOL    HW228092   4.297   3.997   6.832
 9065SOL     OW28093   2.945   0.836   1.163
 9065SOL    HW128094   2.967   0.754   1.216
 9065SOL    HW228095   2.848   0.837   1.141
 9066SOL     OW28096   4.747   6.610   0.012
 9066SOL    HW128097   4.789   6.701   0.013
 9066SOL    HW228098   4.789   6.555   6.959
 9067SOL     OW28099   0.670   0.267   1.856
 9067SOL    HW128100   0.644   0.360   1.882
 9067SOL    HW228101   0.745   0.271   1.790
 9068SOL     OW28102   1.217   5.997   6.277
 9068SOL    HW128103   1.316   5.996   6.268
 9068SOL    HW228104   1.192   6.044   6.362
 9069SOL     OW28105   1.241   2.143   5.613
 9069SOL    HW128106   1.193   2.098   5.689
 9069SOL    HW228107   1.176   2.165   5.541
 9070SOL     OW28108   1.018   4.215   4.360
 9070SOL    HW128109   0.920   4.212   4.381
 9070SOL    HW228110   1.057   4.301   4.393
 9071SOL     OW28111   5.086   5.356   6.962
 9071SOL    HW128112   5.039   5.348   6.874
 9071SOL    HW228113   5.154   5.282   6.970
 9072SOL     OW28114   5.180   4.507   0.489
 9072SOL    HW128115   5.216   4.416   0.468
 9072SOL    HW228116   5.104   4.499   0.554
 9073SOL     OW28117   1.941   0.100   1.331
 9073SOL    HW128118   1.860   0.088   1.274
 9073SOL    HW228119   1.965   0.013   1.374
 9074SOL     OW28120   0.542   0.774   1.473
 9074SOL    HW128121   0.514   0.679   1.486
 9074SOL    HW228122   0.472   0.835   1.509
 9075SOL     OW28123   6.891   0.216   1.288
 9075SOL    HW128124   6.823   0.281   1.255
 9075SOL    HW228125   6.859   0.122   1.272
 9076SOL     OW28126   1.010   2.688   5.268
 9076SOL    HW128127   1.042   2.694   5.173
 9076SOL    HW228128   1.036   2.599   5.306
 9077SOL     OW28129   6.009   5.827   2.008
 9077SOL    HW128130   6.049   5.768   1.939
 9077SOL    HW228131   5.936   5.778   2.056
 9078SOL     OW28132   4.698   2.950   5.212
 9078SOL    HW128133   4.720   3.042   5.243
 9078SOL    HW228134   4.779   2.892   5.221
 9079SOL     OW28135   2.077   6.740   5.395
 9079SOL    HW128136   2.005   6.809   5.386
 9079SOL    HW228137   2.076   6.703   5.488
 9080SOL     OW28138   4.624   0.691   0.118
 9080SOL    HW128139   4.589   0.621   0.056
 9080SOL    HW228140   4.711   0.660   0.157
 9081SOL     OW28141   5.515   7.000   3.855
 9081SOL    HW128142   5.430   6.992   3.802
 9081SOL    HW228143   5.504   0.051   3.925
 9082SOL     OW28144   2.208   0.565   2.072
 9082SOL    HW128145   2.165   0.592   2.157
 9082SOL    HW228146   2.287   0.624   2.054
 9083SOL     OW28147   4.071   5.270   3.525
 9083SOL    HW128148   4.151   5.292   3.469
 9083SOL    HW228149   4.012   5.206   3.475
 9084SOL     OW28150   3.654   3.558   2.215
 9084SOL    HW128151   3.599   3.518   2.288
 9084SOL    HW228152   3.749   3.566   2.246
 9085SOL     OW28153   1.243   1.820   0.680
 9085SOL    HW128154   1.222   1.906   0.724
 9085SOL    HW228155   1.295   1.837   0.596
 9086SOL     OW28156   6.875   3.390   0.344
 9086SOL    HW128157   6.863   3.292   0.328
 9086SOL    HW228158   6.930   3.405   0.426
 9087SOL     OW28159   5.285   3.603   2.050
 9087SOL    HW128160   5.381   3.601   2.021
 9087SOL    HW228161   5.245   3.512   2.037
 9088SOL     OW28162   6.388   4.706   2.589
 9088SOL    HW128163   6.305   4.762   2.584
 9088SOL    HW228164   6.463   4.754   2.544
 9089SOL     OW28165   3.782   1.056   5.928
 9089SOL    HW128166   3.879   1.053   5.904
 9089SOL    HW228167   3.766   1.130   5.993
 9090SOL     OW28168   7.008   2.029   3.901
 9090SOL    HW128169   6.919   1.985   3.893
 9090SOL    HW228170   7.016   2.101   3.832
 9091SOL     OW28171   4.463   3.009   5.825
 9091SOL    HW128172   4.433   3.079   5.760
 9091SOL    HW228173   4.400   3.006   5.902
 9092SOL     OW28174   0.025   3.841   5.886
 9092SOL    HW128175   0.027   3.934   5.851
 9092SOL    HW228176   6.953   3.802   5.871
 9093SOL     OW28177   2.387   6.366   4.804
 9093SOL    HW128178   2.456   6.340   4.872
 9093SOL    HW228179   2.411   6.325   4.716
 9094SOL     OW28180   1.739   4.095   0.674
 9094SOL    HW128181   1.792   4.029   0.620
 9094SOL    HW228182   1.737   4.066   0.769
 9095SOL     OW28183   0.232   0.246   6.116
 9095SOL    HW128184   0.250   0.344   6.102
 9095SOL    HW228185   0.305   0.206   6.170
 9096SOL     OW28186   6.396   5.567   3.972
 9096SOL    HW128187   6.390   5.483   3.918
 9096SOL    HW228188   6.488   5.604   3.968
 9097SOL     OW28189   0.602   3.759   0.479
 9097SOL    HW128190   0.566   3.770   0.386
 9097SOL    HW228191   0.636   3.847   0.512
 9098SOL     OW28192   1.923   5.690   4.482
 9098SOL    HW128193   1.994   5.621   4.494
 9098SOL    HW228194   1.931   5.732   4.392
 9099SOL     OW28195   2.630   1.615   6.157
 9099SOL    HW128196   2.537   1.581   6.165
 9099SOL    HW228197   2.632   1.693   6.095
 9100SOL     OW28198   1.671   4.784   4.848
 9100SOL    HW128199   1.647   4.878   4.825
 9100SOL    HW228200   1.659   4.769   4.946
 9101SOL     OW28201   6.515   1.815   1.395
 9101SOL    HW128202   6.503   1.898   1.450
 9101SOL    HW228203   6.510   1.735   1.454
 9102SOL     OW28204   3.124   0.782   2.781
 9102SOL    HW128205   3.150   0.845   2.708
 9102SOL    HW228206   3.115   0.690   2.743
 9103SOL     OW28207   6.093   0.451   1.193
 9103SOL    HW128208   6.123   0.465   1.287
 9103SOL    HW228209   6.158   0.392   1.145
 9104SOL     OW28210   5.296   2.575   5.873
 9104SOL    HW128211   5.309   2.673   5.865
 9104SOL    HW228212   5.285   2.535   5.782
 9105SOL     OW28213   2.999   1.019   0.301
 9105SOL    HW128214   3.034   0.993   0.391
 9105SOL    HW228215   3.051   1.097   0.266
 9106SOL     OW28216   2.590   3.047   6.247
 9106SOL    HW128217   2.521   3.104   6.202
 9106SOL    HW228218   2.681   3.073   6.215
 9107SOL     OW28219   3.929   0.607   1.137
 9107SOL    HW128220   3.986   0.536   1.178
 9107SOL    HW228221   3.875   0.567   1.063
 9108SOL     OW28222   6.154   6.550   5.533
 9108SOL    HW128223   6.221   6.620   5.555
 9108SOL    HW228224   6.196   6.480   5.476
 9109SOL     OW28225   5.363   3.736   3.259
 9109SOL    HW128226   5.330   3.830   3.256
 9109SOL    HW228227   5.455   3.734   3.300
 9110SOL     OW28228   1.160   6.550   2.492
 9110SOL    HW128229   1.138   6.523   2.398
 9110SOL    HW228230   1.116   6.487   2.556
 9111SOL     OW28231   4.659   2.878   5.696
 9111SOL    HW128232   4.654   2.778   5.706
 9111SOL    HW228233   4.580   2.919   5.740
 9112SOL     OW28234   0.761   4.696   1.769
 9112SOL    HW128235   0.661   4.704   1.762
 9112SOL    HW228236   0.786   4.599   1.769
 9113SOL     OW28237   5.524   0.428   4.847
 9113SOL    HW128238   5.432   0.422   4.810
 9113SOL    HW228239   5.591   0.408   4.775
 9114SOL     OW28240   0.155   1.072   6.281
 9114SOL    HW128241   0.193   0.986   6.315
 9114SOL    HW228242   0.183   1.086   6.186
 9115SOL     OW28243   5.399   3.855   4.433
 9115SOL    HW128244   5.496   3.845   4.457
 9115SOL    HW228245   5.392   3.878   4.336
 9116SOL     OW28246   0.421   5.485   4.118
 9116SOL    HW128247   0.481   5.409   4.143
 9116SOL    HW228248   0.476   5.561   4.082
 9117SOL     OW28249   2.018   6.820   0.053
 9117SOL    HW128250   1.948   6.878   0.094
 9117SOL    HW228251   2.107   6.865   0.060
 9118SOL     OW28252   6.795   5.241   0.964
 9118SOL    HW128253   6.858   5.307   1.007
 9118SOL    HW228254   6.847   5.181   0.902
 9119SOL     OW28255   3.738   1.932   0.650
 9119SOL    HW128256   3.779   2.010   0.603
 9119SOL    HW228257   3.788   1.849   0.626
 9120SOL     OW28258   6.767   4.393   5.133
 9120SOL    HW128259   6.821   4.319   5.174
 9120SOL    HW228260   6.700   4.425   5.200
 9121SOL     OW28261   4.838   1.184   4.915
 9121SOL    HW128262   4.844   1.120   4.839
 9121SOL    HW228263   4.827   1.277   4.881
 9122SOL     OW28264   0.153   1.476   1.897
 9122SOL    HW128265   0.121   1.393   1.852
 9122SOL    HW228266   0.247   1.463   1.928
 9123SOL     OW28267   0.626   6.183   4.858
 9123SOL    HW128268   0.642   6.225   4.948
 9123SOL    HW228269   0.591   6.091   4.871
 9124SOL     OW28270   3.133   5.785   0.956
 9124SOL    HW128271   3.092   5.862   1.006
 9124SOL    HW228272   3.079   5.702   0.973
 9125SOL     OW28273   4.896   6.691   1.983
 9125SOL    HW128274   4.919   6.778   1.939
 9125SOL    HW228275   4.806   6.661   1.952
 9126SOL     OW28276   3.585   5.077   0.292
 9126SOL    HW128277   3.676   5.112   0.270
 9126SOL    HW228278   3.515   5.134   0.248
 9127SOL     OW28279   6.177   4.352   5.795
 9127SOL    HW128280   6.097   4.377   5.850
 9127SOL    HW228281   6.155   4.363   5.698
 9128SOL     OW28282   5.540   3.687   6.810
 9128SOL    HW128283   5.559   3.725   6.719
 9128SOL    HW228284   5.445   3.655   6.813
 9129SOL     OW28285   0.722   2.774   1.704
 9129SOL    HW128286   0.676   2.801   1.788
 9129SOL    HW228287   0.750   2.855   1.653
 9130SOL     OW28288   2.846   4.125   5.918
 9130SOL    HW128289   2.901   4.048   5.950
 9130SOL    HW228290   2.750   4.109   5.941
 9131SOL     OW28291   6.199   3.164   0.951
 9131SOL    HW128292   6.235   3.096   0.887
 9131SOL    HW228293   6.233   3.144   1.043
 9132SOL     OW28294   0.844   4.377   4.077
 9132SOL    HW128295   0.940   4.406   4.079
 9132SOL    HW228296   0.824   4.322   4.158
 9133SOL     OW28297   5.133   6.285   0.156
 9133SOL    HW128298   5.139   6.222   0.079
 9133SOL    HW228299   5.224   6.295   0.198
 9134SOL     OW28300   4.867   4.365   0.040
 9134SOL    HW128301   4.810   4.304   0.094
 9134SOL    HW228302   4.822   4.383   6.972
 9135SOL     OW28303   6.918   5.458   2.513
 9135SOL    HW128304   6.988   5.488   2.577
 9135SOL    HW228305   6.827   5.472   2.553
 9136SOL     OW28306   0.557   4.913   6.802
 9136SOL    HW128307   0.493   4.845   6.837
 9136SOL    HW228308   0.630   4.866   6.752
 9137SOL     OW28309   5.431   5.447   5.861
 9137SOL    HW128310   5.366   5.388   5.910
 9137SOL    HW228311   5.485   5.391   5.798
 9138SOL     OW28312   1.576   3.871   6.046
 9138SOL    HW128313   1.583   3.804   6.121
 9138SOL    HW228314   1.666   3.881   6.003
 9139SOL     OW28315   0.417   6.859   0.849
 9139SOL    HW128316   0.388   6.794   0.920
 9139SOL    HW228317   0.356   6.850   0.770
 9140SOL     OW28318   0.477   4.051   3.114
 9140SOL    HW128319   0.469   4.089   3.022
 9140SOL    HW228320   0.570   4.067   3.148
 9141SOL     OW28321   0.258   5.800   4.230
 9141SOL    HW128322   0.222   5.737   4.160
 9141SOL    HW228323   0.346   5.835   4.200
 9142SOL     OW28324   1.742   5.258   3.330
 9142SOL    HW128325   1.694   5.304   3.405
 9142SOL    HW228326   1.692   5.273   3.244
 9143SOL     OW28327   5.128   3.148   2.584
 9143SOL    HW128328   5.173   3.059   2.573
 9143SOL    HW228329   5.148   3.205   2.505
 9144SOL     OW28330   2.215   4.721   5.380
 9144SOL    HW128331   2.246   4.646   5.438
 9144SOL    HW228332   2.206   4.688   5.286
 9145SOL     OW28333   2.782   5.864   6.708
 9145SOL    HW128334   2.852   5.924   6.668
 9145SOL    HW228335   2.772   5.782   6.650
 9146SOL     OW28336   5.281   1.587   4.469
 9146SOL    HW128337   5.331   1.639   4.399
 9146SOL    HW228338   5.273   1.492   4.440
 9147SOL     OW28339   4.339   6.999   6.188
 9147SOL    HW128340   4.266   6.942   6.226
 9147SOL    HW228341   4.348   0.063   6.243
 9148SOL     OW28342   3.660   5.625   2.426
 9148SOL    HW128343   3.621   5.550   2.373
 9148SOL    HW228344   3.601   5.705   2.419
 9149SOL     OW28345   1.271   3.889   1.481
 9149SOL    HW128346   1.251   3.876   1.384
 9149SOL    HW228347   1.192   3.861   1.536
 9150SOL     OW28348   3.878   3.600   6.651
 9150SOL    HW128349   3.879   3.688   6.603
 9150SOL    HW228350   3.813   3.604   6.727
 9151SOL     OW28351   2.169   3.875   3.530
 9151SOL    HW128352   2.214   3.962   3.548
 9151SOL    HW228353   2.109   3.852   3.606
 9152SOL     OW28354   1.902   5.512   1.900
 9152SOL    HW128355   1.853   5.463   1.828
 9152SOL    HW228356   1.987   5.464   1.920
 9153SOL     OW28357   0.665   3.553   0.643
 9153SOL    HW128358   0.650   3.609   0.561
 9153SOL    HW228359   0.618   3.465   0.632
 9154SOL     OW28360   4.456   5.537   3.163
 9154SOL    HW128361   4.461   5.457   3.103
 9154SOL    HW228362   4.397   5.517   3.241
 9155SOL     OW28363   0.376   6.474   2.686
 9155SOL    HW128364   0.444   6.503   2.618
 9155SOL    HW228365   0.333   6.555   2.726
 9156SOL     OW28366   6.599   4.398   5.818
 9156SOL    HW128367   6.596   4.461   5.740
 9156SOL    HW228368   6.533   4.428   5.887
 9157SOL     OW28369   2.004   4.792   5.083
 9157SOL    HW128370   1.928   4.741   5.125
 9157SOL    HW228371   1.998   4.888   5.110
 9158SOL     OW28372   6.927   2.342   4.071
 9158SOL    HW128373   6.936   2.413   4.141
 9158SOL    HW228374   6.947   2.381   3.981
 9159SOL     OW28375   2.294   0.905   3.425
 9159SOL    HW128376   2.300   1.005   3.430
 9159SOL    HW228377   2.333   0.865   3.508
 9160SOL     OW28378   0.424   3.371   6.445
 9160SOL    HW128379   0.435   3.335   6.538
 9160SOL    HW228380   0.480   3.318   6.382
 9161SOL     OW28381   5.615   3.094   2.814
 9161SOL    HW128382   5.610   3.193   2.820
 9161SOL    HW228383   5.699   3.062   2.860
 9162SOL     OW28384   5.714   2.326   1.900
 9162SOL    HW128385   5.802   2.354   1.862
 9162SOL    HW228386   5.714   2.227   1.915
 9163SOL     OW28387   1.495   3.653   3.168
 9163SOL    HW128388   1.527   3.681   3.077
 9163SOL    HW228389   1.396   3.643   3.166
 9164SOL     OW28390   4.233   0.970   0.746
 9164SOL    HW128391   4.152   0.917   0.720
 9164SOL    HW228392   4.245   0.966   0.845
 9165SOL     OW28393   6.705   0.275   6.742
 9165SOL    HW128394   6.801   0.293   6.760
 9165SOL    HW228395   6.677   0.193   6.792
 9166SOL     OW28396   4.130   5.733   2.147
 9166SOL    HW128397   4.062   5.698   2.211
 9166SOL    HW228398   4.205   5.667   2.138
 9167SOL     OW28399   0.546   2.249   4.947
 9167SOL    HW128400   0.457   2.223   4.911
 9167SOL    HW228401   0.545   2.246   5.047
 9168SOL     OW28402   6.042   6.074   4.682
 9168SOL    HW128403   6.119   6.119   4.727
 9168SOL    HW228404   5.988   6.141   4.632
 9169SOL     OW28405   5.692   5.821   0.297
 9169SOL    HW128406   5.728   5.841   0.206
 9169SOL    HW228407   5.740   5.743   0.336
 9170SOL     OW28408   1.345   0.029   5.267
 9170SOL    HW128409   1.384   0.064   5.182
 9170SOL    HW228410   1.417   0.014   5.334
 9171SOL     OW28411   4.726   5.812   6.653
 9171SOL    HW128412   4.676   5.850   6.731
 9171SOL    HW228413   4.818   5.786   6.683
 9172SOL     OW28414   5.392   0.606   5.963
 9172SOL    HW128415   5.334   0.576   6.039
 9172SOL    HW228416   5.470   0.545   5.954
 9173SOL     OW28417   6.095   4.216   6.703
 9173SOL    HW128418   6.066   4.300   6.749
 9173SOL    HW228419   6.171   4.175   6.753
 9174SOL     OW28420   5.875   4.883   0.058
 9174SOL    HW128421   5.813   4.961   0.060
 9174SOL    HW228422   5.868   4.832   0.144
 9175SOL     OW28423   2.115   0.901   1.502
 9175SOL    HW128424   2.138   0.993   1.468
 9175SOL    HW228425   2.170   0.833   1.453
 9176SOL     OW28426   1.403   6.811   2.218
 9176SOL    HW128427   1.448   6.741   2.163
 9176SOL    HW228428   1.391   6.894   2.163
 9177SOL     OW28429   0.486   5.690   3.701
 9177SOL    HW128430   0.434   5.618   3.656
 9177SOL    HW228431   0.475   5.683   3.800
 9178SOL     OW28432   0.959   3.233   1.058
 9178SOL    HW128433   1.021   3.205   0.985
 9178SOL    HW228434   0.911   3.316   1.030
 9179SOL     OW28435   3.874   5.997   2.627
 9179SOL    HW128436   3.875   6.030   2.721
 9179SOL    HW228437   3.783   5.959   2.606
 9180SOL     OW28438   0.652   1.306   4.964
 9180SOL    HW128439   0.727   1.328   4.902
 9180SOL    HW228440   0.634   1.384   5.024
 9181SOL     OW28441   3.093   1.721   2.797
 9181SOL    HW128442   3.175   1.771   2.770
 9181SOL    HW228443   3.104   1.687   2.891
 9182SOL     OW28444   6.690   1.339   2.817
 9182SOL    HW128445   6.609   1.395   2.799
 9182SOL    HW228446   6.736   1.318   2.731
 9183SOL     OW28447   3.445   1.846   5.503
 9183SOL    HW128448   3.451   1.867   5.600
 9183SOL    HW228449   3.416   1.927   5.453
 9184SOL     OW28450   2.931   6.070   0.781
 9184SOL    HW128451   2.891   6.046   0.693
 9184SOL    HW228452   3.029   6.090   0.769
 9185SOL     OW28453   0.626   1.482   5.182
 9185SOL    HW128454   0.632   1.417   5.258
 9185SOL    HW228455   0.718   1.508   5.153
 9186SOL     OW28456   5.276   6.669   5.870
 9186SOL    HW128457   5.335   6.649   5.792
 9186SOL    HW228458   5.327   6.654   5.955
 9187SOL     OW28459   5.188   3.576   1.356
 9187SOL    HW128460   5.188   3.495   1.297
 9187SOL    HW228461   5.105   3.629   1.342
 9188SOL     OW28462   1.120   1.027   2.496
 9188SOL    HW128463   1.098   1.012   2.592
 9188SOL    HW228464   1.036   1.041   2.444
 9189SOL     OW28465   2.882   0.750   6.841
 9189SOL    HW128466   2.914   0.656   6.852
 9189SOL    HW228467   2.920   0.807   6.914
 9190SOL     OW28468   3.623   0.848   5.788
 9190SOL    HW128469   3.697   0.904   5.823
 9190SOL    HW228470   3.633   0.838   5.689
 9191SOL     OW28471   5.050   0.103   1.598
 9191SOL    HW128472   5.001   0.189   1.616
 9191SOL    HW228473   5.102   0.112   1.513
 9192SOL     OW28474   4.215   4.772   3.673
 9192SOL    HW128475   4.238   4.864   3.641
 9192SOL    HW228476   4.119   4.752   3.652
 9193SOL     OW28477   4.142   3.664   2.073
 9193SOL    HW128478   4.080   3.589   2.096
 9193SOL    HW228479   4.210   3.674   2.145
 9194SOL     OW28480   2.716   5.506   3.577
 9194SOL    HW128481   2.640   5.448   3.606
 9194SOL    HW228482   2.784   5.510   3.650
 9195SOL     OW28483   0.384   3.310   3.428
 9195SOL    HW128484   0.336   3.245   3.487
 9195SOL    HW228485   0.322   3.385   3.404
 9196SOL     OW28486   5.711   5.452   3.033
 9196SOL    HW128487   5.799   5.414   3.005
 9196SOL    HW228488   5.678   5.402   3.114
 9197SOL     OW28489   4.352   2.234   6.418
 9197SOL    HW128490   4.329   2.328   6.392
 9197SOL    HW228491   4.270   2.177   6.415
 9198SOL     OW28492   6.630   2.426   4.525
 9198SOL    HW128493   6.675   2.345   4.563
 9198SOL    HW228494   6.583   2.401   4.440
 9199SOL     OW28495   0.963   3.712   0.213
 9199SOL    HW128496   0.956   3.809   0.190
 9199SOL    HW228497   0.965   3.658   0.129
 9200SOL     OW28498   4.521   5.982   2.066
 9200SOL    HW128499   4.588   6.026   2.126
 9200SOL    HW228500   4.527   6.023   1.975
 9201SOL     OW28501   0.179   2.746   2.459
 9201SOL    HW128502   0.240   2.696   2.397
 9201SOL    HW228503   0.118   2.682   2.505
 9202SOL     OW28504   2.041   6.045   3.228
 9202SOL    HW128505   2.031   6.118   3.296
 9202SOL    HW228506   2.051   5.958   3.275
 9203SOL     OW28507   5.120   2.012   0.323
 9203SOL    HW128508   5.099   2.105   0.292
 9203SOL    HW228509   5.152   2.015   0.418
 9204SOL     OW28510   4.899   4.135   1.384
 9204SOL    HW128511   4.902   4.101   1.290
 9204SOL    HW228512   4.831   4.207   1.392
 9205SOL     OW28513   4.415   2.770   0.853
 9205SOL    HW128514   4.467   2.782   0.938
 9205SOL    HW228515   4.438   2.681   0.812
 9206SOL     OW28516   6.695   0.433   5.245
 9206SOL    HW128517   6.788   0.470   5.241
 9206SOL    HW228518   6.652   0.444   5.156
 9207SOL     OW28519   6.062   6.190   0.858
 9207SOL    HW128520   5.966   6.216   0.852
 9207SOL    HW228521   6.117   6.253   0.803
 9208SOL     OW28522   6.035   4.235   1.622
 9208SOL    HW128523   6.007   4.239   1.718
 9208SOL    HW228524   6.115   4.175   1.613
 9209SOL     OW28525   4.967   0.861   4.458
 9209SOL    HW128526   5.018   0.779   4.429
 9209SOL    HW228527   4.993   0.938   4.401
 9210SOL     OW28528   1.836   6.834   0.510
 9210SOL    HW128529   1.871   6.784   0.431
 9210SOL    HW228530   1.807   6.925   0.481
 9211SOL     OW28531   5.377   1.113   6.147
 9211SOL    HW128532   5.362   1.046   6.075
 9211SOL    HW228533   5.361   1.205   6.112
 9212SOL     OW28534   5.954   3.798   6.500
 9212SOL    HW128535   6.027   3.731   6.488
 9212SOL    HW228536   5.994   3.889   6.510
 9213SOL     OW28537   0.416   5.556   3.304
 9213SOL    HW128538   0.432   5.573   3.207
 9213SOL    HW228539   0.340   5.492   3.315
 9214SOL     OW28540   1.725   1.357   5.694
 9214SOL    HW128541   1.713   1.284   5.626
 9214SOL    HW228542   1.794   1.421   5.661
 9215SOL     OW28543   6.936   4.019   3.979
 9215SOL    HW128544   7.017   3.965   4.004
 9215SOL    HW228545   6.859   3.992   4.037
 9216SOL     OW28546   1.667   0.001   3.407
 9216SOL    HW128547   1.670   0.067   3.332
 9216SOL    HW228548   1.693   6.930   3.373
 9217SOL     OW28549   3.667   2.722   0.540
 9217SOL    HW128550   3.590   2.668   0.506
 9217SOL    HW228551   3.715   2.764   0.464
 9218SOL     OW28552   5.033   5.728   5.858
 9218SOL    HW128553   5.129   5.755   5.862
 9218SOL    HW228554   4.976   5.810   5.864
 9219SOL     OW28555   3.928   3.361   5.843
 9219SOL    HW128556   3.881   3.328   5.761
 9219SOL    HW228557   3.871   3.342   5.924
 9220SOL     OW28558   0.767   6.618   3.501
 9220SOL    HW128559   0.731   6.624   3.594
 9220SOL    HW228560   0.690   6.620   3.436
 9221SOL     OW28561   2.577   1.388   2.232
 9221SOL    HW128562   2.581   1.362   2.328
 9221SOL    HW228563   2.485   1.418   2.209
 9222SOL     OW28564   2.463   5.874   3.326
 9222SOL    HW128565   2.543   5.833   3.370
 9222SOL    HW228566   2.387   5.877   3.391
 9223SOL     OW28567   6.142   2.007   4.877
 9223SOL    HW128568   6.118   2.100   4.847
 9223SOL    HW228569   6.241   1.998   4.882
 9224SOL     OW28570   1.840   5.943   2.769
 9224SOL    HW128571   1.886   5.869   2.720
 9224SOL    HW228572   1.900   5.977   2.841
 9225SOL     OW28573   0.233   6.071   5.378
 9225SOL    HW128574   0.192   6.043   5.291
 9225SOL    HW228575   0.186   6.024   5.453
 9226SOL     OW28576   0.783   6.737   4.905
 9226SOL    HW128577   0.870   6.777   4.934
 9226SOL    HW228578   0.730   6.805   4.855
 9227SOL     OW28579   4.192   2.893   0.732
 9227SOL    HW128580   4.258   2.818   0.734
 9227SOL    HW228581   4.157   2.908   0.825
 9228SOL     OW28582   3.515   3.857   4.268
 9228SOL    HW128583   3.580   3.781   4.267
 9228SOL    HW228584   3.565   3.943   4.260
 9229SOL     OW28585   0.529   6.274   1.254
 9229SOL    HW128586   0.527   6.267   1.154
 9229SOL    HW228587   0.436   6.294   1.287
 9230SOL     OW28588   3.569   6.852   5.727
 9230SOL    HW128589   3.645   6.883   5.671
 9230SOL    HW228590   3.548   6.920   5.798
 9231SOL     OW28591   5.521   6.203   1.660
 9231SOL    HW128592   5.448   6.163   1.716
 9231SOL    HW228593   5.487   6.285   1.614
 9232SOL     OW28594   1.021   5.058   1.991
 9232SOL    HW128595   0.943   5.056   1.929
 9232SOL    HW228596   1.106   5.066   1.939
 9233SOL     OW28597   1.188   0.305   5.838
 9233SOL    HW128598   1.288   0.294   5.841
 9233SOL    HW228599   1.148   0.264   5.920
 9234SOL     OW28600   3.146   4.058   0.091
 9234SOL    HW128601   3.169   4.086   0.184
 9234SOL    HW228602   3.192   4.119   0.026
 9235SOL     OW28603   1.654   2.303   2.513
 9235SOL    HW128604   1.662   2.327   2.416
 9235SOL    HW228605   1.557   2.303   2.540
 9236SOL     OW28606   1.590   4.054   6.390
 9236SOL    HW128607   1.593   4.011   6.300
 9236SOL    HW228608   1.670   4.113   6.402
 9237SOL     OW28609   6.652   5.879   3.678
 9237SOL    HW128610   6.573   5.850   3.624
 9237SOL    HW228611   6.621   5.929   3.759
 9238SOL     OW28612   1.982   2.809   5.025
 9238SOL    HW128613   2.045   2.799   5.102
 9238SOL    HW228614   1.986   2.903   4.990
 9239SOL     OW28615   2.308   5.945   6.310
 9239SOL    HW128616   2.210   5.965   6.317
 9239SOL    HW228617   2.351   6.010   6.247
 9240SOL     OW28618   3.768   1.552   4.791
 9240SOL    HW128619   3.746   1.632   4.734
 9240SOL    HW228620   3.747   1.469   4.741
 9241SOL     OW28621   4.996   6.215   6.907
 9241SOL    HW128622   5.036   6.141   6.960
 9241SOL    HW228623   5.049   6.229   6.824
 9242SOL     OW28624   2.500   2.809   0.079
 9242SOL    HW128625   2.439   2.734   0.054
 9242SOL    HW228626   2.449   2.879   0.129
 9243SOL     OW28627   2.261   6.942   0.197
 9243SOL    HW128628   2.300   6.946   0.289
 9243SOL    HW228629   2.235   0.014   0.167
 9244SOL     OW28630   3.028   6.603   6.338
 9244SOL    HW128631   3.055   6.671   6.269
 9244SOL    HW228632   3.099   6.533   6.346
 9245SOL     OW28633   0.314   3.896   3.582
 9245SOL    HW128634   0.283   3.817   3.635
 9245SOL    HW228635   0.325   3.975   3.642
 9246SOL     OW28636   5.073   1.770   6.505
 9246SOL    HW128637   5.172   1.755   6.511
 9246SOL    HW228638   5.054   1.867   6.494
 9247SOL     OW28639   2.943   6.287   2.788
 9247SOL    HW128640   2.950   6.374   2.741
 9247SOL    HW228641   2.864   6.236   2.754
 9248SOL     OW28642   3.002   0.209   6.297
 9248SOL    HW128643   3.037   0.133   6.242
 9248SOL    HW228644   3.063   0.225   6.374
 9249SOL     OW28645   3.158   1.771   0.283
 9249SOL    HW128646   3.168   1.803   0.189
 9249SOL    HW228647   3.129   1.675   0.283
 9250SOL     OW28648   1.044   3.437   1.783
 9250SOL    HW128649   1.107   3.360   1.776
 9250SOL    HW228650   1.054   3.481   1.872
 9251SOL     OW28651   4.177   1.422   0.933
 9251SOL    HW128652   4.161   1.360   0.856
 9251SOL    HW228653   4.129   1.509   0.915
 9252SOL     OW28654   5.668   1.436   4.744
 9252SOL    HW128655   5.680   1.436   4.844
 9252SOL    HW228656   5.597   1.502   4.720
 9253SOL     OW28657   2.552   5.293   3.713
 9253SOL    HW128658   2.561   5.194   3.711
 9253SOL    HW228659   2.535   5.323   3.807
 9254SOL     OW28660   6.350   5.659   2.181
 9254SOL    HW128661   6.446   5.640   2.202
 9254SOL    HW228662   6.341   5.752   2.147
 9255SOL     OW28663   0.506   3.225   1.771
 9255SOL    HW128664   0.599   3.261   1.767
 9255SOL    HW228665   0.468   3.241   1.862
 9256SOL     OW28666   1.642   6.325   0.903
 9256SOL    HW128667   1.591   6.372   0.830
 9256SOL    HW228668   1.600   6.235   0.918
 9257SOL     OW28669   6.511   6.587   5.600
 9257SOL    HW128670   6.468   6.573   5.689
 9257SOL    HW228671   6.506   6.503   5.547
 9258SOL     OW28672   4.980   3.592   3.002
 9258SOL    HW128673   5.078   3.583   3.017
 9258SOL    HW228674   4.957   3.564   2.909
 9259SOL     OW28675   1.036   3.229   6.193
 9259SOL    HW128676   0.981   3.210   6.112
 9259SOL    HW228677   1.125   3.185   6.183
 9260SOL     OW28678   5.064   4.800   5.165
 9260SOL    HW128679   5.122   4.881   5.161
 9260SOL    HW228680   5.110   4.723   5.120
 9261SOL     OW28681   1.256   2.728   1.057
 9261SOL    HW128682   1.300   2.723   0.967
 9261SOL    HW228683   1.175   2.669   1.057
 9262SOL     OW28684   6.362   6.310   6.070
 9262SOL    HW128685   6.401   6.402   6.063
 9262SOL    HW228686   6.274   6.307   6.023
 9263SOL     OW28687   2.446   4.481   2.628
 9263SOL    HW128688   2.359   4.482   2.678
 9263SOL    HW228689   2.434   4.523   2.538
 9264SOL     OW28690   6.003   3.638   5.337
 9264SOL    HW128691   5.997   3.713   5.270
 9264SOL    HW228692   5.997   3.676   5.429
 9265SOL     OW28693   4.169   0.263   1.783
 9265SOL    HW128694   4.227   0.259   1.864
 9265SOL    HW228695   4.227   0.272   1.702
 9266SOL     OW28696   6.886   4.654   1.044
 9266SOL    HW128697   6.913   4.715   1.119
 9266SOL    HW228698   6.800   4.686   1.005
 9267SOL     OW28699   6.760   1.253   3.070
 9267SOL    HW128700   6.774   1.328   3.135
 9267SOL    HW228701   6.786   1.284   2.978
 9268SOL     OW28702   0.133   0.239   0.848
 9268SOL    HW128703   0.121   0.213   0.944
 9268SOL    HW228704   0.217   0.198   0.813
 9269SOL     OW28705   3.611   6.124   1.425
 9269SOL    HW128706   3.523   6.166   1.446
 9269SOL    HW228707   3.621   6.040   1.479
 9270SOL     OW28708   1.857   1.284   5.363
 9270SOL    HW128709   1.917   1.204   5.361
 9270SOL    HW228710   1.909   1.365   5.390
 9271SOL     OW28711   1.326   4.942   5.636
 9271SOL    HW128712   1.365   5.033   5.651
 9271SOL    HW228713   1.375   4.875   5.691
 9272SOL     OW28714   6.447   6.670   6.268
 9272SOL    HW128715   6.475   6.643   6.175
 9272SOL    HW228716   6.390   6.752   6.263
 9273SOL     OW28717   6.553   3.917   3.446
 9273SOL    HW128718   6.557   3.969   3.531
 9273SOL    HW228719   6.478   3.953   3.389
 9274SOL     OW28720   6.945   3.206   1.357
 9274SOL    HW128721   6.882   3.271   1.315
 9274SOL    HW228722   7.011   3.256   1.413
 9275SOL     OW28723   4.494   1.793   0.514
 9275SOL    HW128724   4.546   1.797   0.599
 9275SOL    HW228725   4.431   1.716   0.517
 9276SOL     OW28726   1.109   4.144   0.691
 9276SOL    HW128727   1.201   4.172   0.720
 9276SOL    HW228728   1.115   4.100   0.602
 9277SOL     OW28729   3.478   6.205   3.195
 9277SOL    HW128730   3.547   6.276   3.178
 9277SOL    HW228731   3.512   6.117   3.162
 9278SOL     OW28732   1.325   6.764   4.689
 9278SOL    HW128733   1.362   6.674   4.711
 9278SOL    HW228734   1.357   6.793   4.598
 9279SOL     OW28735   4.030   6.148   2.146
 9279SOL    HW128736   4.096   6.084   2.107
 9279SOL    HW228737   4.012   6.123   2.241
 9280SOL     OW28738   1.554   4.264   1.879
 9280SOL    HW128739   1.538   4.225   1.789
 9280SOL    HW228740   1.593   4.193   1.939
 9281SOL     OW28741   1.313   5.703   0.475
 9281SOL    HW128742   1.311   5.625   0.413
 9281SOL    HW228743   1.395   5.697   0.533
 9282SOL     OW28744   1.945   0.988   3.687
 9282SOL    HW128745   1.915   0.898   3.717
 9282SOL    HW228746   1.937   0.994   3.587
 9283SOL     OW28747   5.602   4.916   6.485
 9283SOL    HW128748   5.590   4.956   6.576
 9283SOL    HW228749   5.605   4.816   6.492
 9284SOL     OW28750   3.948   6.162   1.683
 9284SOL    HW128751   3.875   6.107   1.725
 9284SOL    HW228752   3.925   6.179   1.587
 9285SOL     OW28753   6.942   5.647   3.393
 9285SOL    HW128754   7.011   5.699   3.342
 9285SOL    HW228755   6.855   5.650   3.344
 9286SOL     OW28756   5.402   5.894   1.579
 9286SOL    HW128757   5.376   5.798   1.566
 9286SOL    HW228758   5.502   5.902   1.580
 9287SOL     OW28759   4.377   4.061   0.812
 9287SOL    HW128760   4.357   4.104   0.900
 9287SOL    HW228761   4.312   3.986   0.796
 9288SOL     OW28762   3.350   0.797   3.217
 9288SOL    HW128763   3.269   0.780   3.160
 9288SOL    HW228764   3.335   0.757   3.308
 9289SOL     OW28765   4.234   5.951   2.333
 9289SOL    HW128766   4.224   5.902   2.420
 9289SOL    HW228767   4.197   5.895   2.259
 9290SOL     OW28768   5.525   0.524   3.918
 9290SOL    HW128769   5.450   0.468   3.952
 9290SOL    HW228770   5.490   0.595   3.857
 9291SOL     OW28771   0.217   5.070   5.442
 9291SOL    HW128772   0.285   5.048   5.373
 9291SOL    HW228773   0.262   5.111   5.522
 9292SOL     OW28774   2.009   2.151   6.949
 9292SOL    HW128775   2.000   2.085   6.875
 9292SOL    HW228776   1.924   2.205   6.956
 9293SOL     OW28777   4.061   1.240   6.045
 9293SOL    HW128778   4.094   1.327   6.008
 9293SOL    HW228779   4.128   1.205   6.110
 9294SOL     OW28780   5.337   6.307   6.101
 9294SOL    HW128781   5.294   6.221   6.130
 9294SOL    HW228782   5.424   6.318   6.150
 9295SOL     OW28783   6.119   0.165   2.985
 9295SOL    HW128784   6.135   0.071   2.956
 9295SOL    HW228785   6.030   0.196   2.952
 9296SOL     OW28786   2.681   3.191   5.580
 9296SOL    HW128787   2.634   3.252   5.516
 9296SOL    HW228788   2.733   3.246   5.646
 9297SOL     OW28789   6.913   5.510   1.881
 9297SOL    HW128790   6.990   5.544   1.935
 9297SOL    HW228791   6.866   5.438   1.930
 9298SOL     OW28792   6.618   4.811   6.860
 9298SOL    HW128793   6.592   4.756   6.781
 9298SOL    HW228794   6.713   4.792   6.885
 9299SOL     OW28795   3.488   2.119   4.254
 9299SOL    HW128796   3.536   2.204   4.274
 9299SOL    HW228797   3.419   2.102   4.325
 9300SOL     OW28798   2.525   5.901   6.003
 9300SOL    HW128799   2.504   5.925   6.098
 9300SOL    HW228800   2.442   5.911   5.948
 9301SOL     OW28801   0.121   3.304   4.022
 9301SOL    HW128802   0.207   3.266   3.987
 9301SOL    HW228803   0.059   3.229   4.045
 9302SOL     OW28804   2.826   5.964   3.918
 9302SOL    HW128805   2.804   5.968   4.016
 9302SOL    HW228806   2.766   6.026   3.868
 9303SOL     OW28807   3.234   4.176   6.795
 9303SOL    HW128808   3.194   4.085   6.800
 9303SOL    HW228809   3.313   4.174   6.734
 9304SOL     OW28810   6.160   5.907   6.460
 9304SOL    HW128811   6.205   5.840   6.520
 9304SOL    HW228812   6.123   5.982   6.516
 9305SOL     OW28813   2.544   1.660   0.885
 9305SOL    HW128814   2.467   1.598   0.897
 9305SOL    HW228815   2.574   1.657   0.790
 9306SOL     OW28816   6.593   6.337   3.906
 9306SOL    HW128817   6.537   6.420   3.912
 9306SOL    HW228818   6.592   6.303   3.812
 9307SOL     OW28819   1.640   4.335   0.699
 9307SOL    HW128820   1.708   4.398   0.736
 9307SOL    HW228821   1.682   4.245   0.684
 9308SOL     OW28822   2.427   3.199   0.932
 9308SOL    HW128823   2.379   3.286   0.938
 9308SOL    HW228824   2.383   3.131   0.991
 9309SOL     OW28825   3.495   5.222   6.330
 9309SOL    HW128826   3.515   5.293   6.263
 9309SOL    HW228827   3.548   5.140   6.309
 9310SOL     OW28828   6.457   6.566   6.017
 9310SOL    HW128829   6.532   6.578   5.951
 9310SOL    HW228830   6.372   6.599   5.977
 9311SOL     OW28831   5.335   4.769   6.983
 9311SOL    HW128832   5.420   4.782   6.932
 9311SOL    HW228833   5.357   4.741   0.058
 9312SOL     OW28834   6.350   3.452   4.108
 9312SOL    HW128835   6.280   3.398   4.061
 9312SOL    HW228836   6.434   3.399   4.114
 9313SOL     OW28837   0.325   0.159   1.878
 9313SOL    HW128838   0.402   0.156   1.941
 9313SOL    HW228839   0.286   0.251   1.878
 9314SOL     OW28840   5.614   4.612   1.405
 9314SOL    HW128841   5.578   4.646   1.318
 9314SOL    HW228842   5.540   4.568   1.457
 9315SOL     OW28843   5.232   5.477   5.370
 9315SOL    HW128844   5.310   5.539   5.375
 9315SOL    HW228845   5.152   5.519   5.412
 9316SOL     OW28846   5.686   5.623   6.783
 9316SOL    HW128847   5.632   5.539   6.779
 9316SOL    HW228848   5.652   5.680   6.858
 9317SOL     OW28849   2.784   6.590   2.970
 9317SOL    HW128850   2.860   6.615   3.031
 9317SOL    HW228851   2.751   6.671   2.923
 9318SOL     OW28852   3.437   0.165   3.733
 9318SOL    HW128853   3.426   0.231   3.807
 9318SOL    HW228854   3.492   0.088   3.766
 9319SOL     OW28855   3.977   2.283   0.744
 9319SOL    HW128856   4.071   2.292   0.777
 9319SOL    HW228857   3.932   2.372   0.745
 9320SOL     OW28858   6.727   0.047   6.944
 9320SOL    HW128859   6.635   0.085   6.957
 9320SOL    HW228860   6.752   7.012   0.005
 9321SOL     OW28861   1.344   2.567   4.326
 9321SOL    HW128862   1.306   2.623   4.252
 9321SOL    HW228863   1.430   2.606   4.358
 9322SOL     OW28864   5.218   3.616   0.702
 9322SOL    HW128865   5.135   3.667   0.724
 9322SOL    HW228866   5.246   3.636   0.608
 9323SOL     OW28867   0.830   2.846   5.027
 9323SOL    HW128868   0.924   2.876   5.008
 9323SOL    HW228869   0.832   2.765   5.085
 9324SOL     OW28870   0.886   4.079   1.558
 9324SOL    HW128871   0.962   4.115   1.613
 9324SOL    HW228872   0.913   4.076   1.462
 9325SOL     OW28873   0.152   4.307   2.697
 9325SOL    HW128874   0.126   4.232   2.758
 9325SOL    HW228875   0.231   4.355   2.735
 9326SOL     OW28876   3.779   4.891   1.122
 9326SOL    HW128877   3.789   4.981   1.165
 9326SOL    HW228878   3.862   4.837   1.136
 9327SOL     OW28879   1.778   1.990   3.171
 9327SOL    HW128880   1.733   1.942   3.247
 9327SOL    HW228881   1.784   1.929   3.092
 9328SOL     OW28882   0.944   0.390   3.430
 9328SOL    HW128883   0.906   0.475   3.395
 9328SOL    HW228884   1.014   0.411   3.498
 9329SOL     OW28885   1.573   4.928   6.097
 9329SOL    HW128886   1.664   4.888   6.086
 9329SOL    HW228887   1.528   4.887   6.177
 9330SOL     OW28888   0.681   6.198   0.762
 9330SOL    HW128889   0.755   6.190   0.828
 9330SOL    HW228890   0.623   6.276   0.787
 9331SOL     OW28891   2.552   5.339   4.907
 9331SOL    HW128892   2.471   5.294   4.868
 9331SOL    HW228893   2.626   5.273   4.916
 9332SOL     OW28894   6.297   5.908   0.365
 9332SOL    HW128895   6.378   5.923   0.308
 9332SOL    HW228896   6.215   5.937   0.315
 9333SOL     OW28897   1.120   5.470   0.878
 9333SOL    HW128898   1.104   5.529   0.800
 9333SOL    HW228899   1.201   5.502   0.928
 9334SOL     OW28900   0.228   6.620   0.314
 9334SOL    HW128901   0.251   6.532   0.357
 9334SOL    HW228902   0.290   6.690   0.348
 9335SOL     OW28903   0.095   3.706   0.844
 9335SOL    HW128904   0.162   3.740   0.910
 9335SOL    HW228905   0.084   3.771   0.769
 9336SOL     OW28906   4.172   5.559   5.503
 9336SOL    HW128907   4.166   5.546   5.404
 9336SOL    HW228908   4.101   5.623   5.533
 9337SOL     OW28909   2.971   1.929   4.564
 9337SOL    HW128910   3.047   1.964   4.508
 9337SOL    HW228911   2.992   1.835   4.592
 9338SOL     OW28912   4.353   0.033   1.464
 9338SOL    HW128913   4.304   6.967   1.478
 9338SOL    HW228914   4.388   0.067   1.552
 9339SOL     OW28915   0.305   3.434   4.445
 9339SOL    HW128916   0.386   3.488   4.422
 9339SOL    HW228917   0.282   3.446   4.542
 9340SOL     OW28918   2.711   4.659   2.262
 9340SOL    HW128919   2.729   4.651   2.164
 9340SOL    HW228920   2.615   4.682   2.276
 9341SOL     OW28921   5.080   5.752   1.656
 9341SOL    HW128922   5.034   5.767   1.743
 9341SOL    HW228923   5.160   5.694   1.670
 9342SOL     OW28924   2.956   0.238   4.885
 9342SOL    HW128925   2.989   0.295   4.810
 9342SOL    HW228926   2.934   0.147   4.850
 9343SOL     OW28927   5.549   3.926   1.140
 9343SOL    HW128928   5.553   3.936   1.041
 9343SOL    HW228929   5.589   4.007   1.183
 9344SOL     OW28930   5.302   6.430   5.035
 9344SOL    HW128931   5.267   6.471   4.950
 9344SOL    HW228932   5.370   6.491   5.075
 9345SOL     OW28933   6.896   4.909   6.058
 9345SOL    HW128934   6.857   5.001   6.063
 9345SOL    HW228935   6.866   4.863   5.974
 9346SOL     OW28936   5.150   0.939   2.139
 9346SOL    HW128937   5.063   0.983   2.119
 9346SOL    HW228938   5.135   0.862   2.202
 9347SOL     OW28939   4.502   6.709   2.253
 9347SOL    HW128940   4.423   6.721   2.192
 9347SOL    HW228941   4.540   6.617   2.240
 9348SOL     OW28942   2.492   5.213   2.037
 9348SOL    HW128943   2.478   5.309   2.016
 9348SOL    HW228944   2.500   5.202   2.136
 9349SOL     OW28945   0.445   4.751   1.323
 9349SOL    HW128946   0.489   4.691   1.389
 9349SOL    HW228947   0.438   4.843   1.360
 9350SOL     OW28948   6.342   0.504   6.764
 9350SOL    HW128949   6.436   0.498   6.796
 9350SOL    HW228950   6.331   0.449   6.682
 9351SOL     OW28951   4.383   4.037   6.369
 9351SOL    HW128952   4.301   4.046   6.426
 9351SOL    HW228953   4.401   3.941   6.352
 9352SOL     OW28954   2.560   1.707   6.940
 9352SOL    HW128955   2.628   1.770   6.903
 9352SOL    HW228956   2.564   1.708   0.020
 9353SOL     OW28957   0.935   3.210   2.237
 9353SOL    HW128958   0.922   3.217   2.336
 9353SOL    HW228959   1.030   3.226   2.214
 9354SOL     OW28960   5.794   1.969   2.211
 9354SOL    HW128961   5.825   1.874   2.215
 9354SOL    HW228962   5.820   2.017   2.294
 9355SOL     OW28963   0.418   1.958   1.929
 9355SOL    HW128964   0.349   1.925   1.865
 9355SOL    HW228965   0.373   1.987   2.014
 9356SOL     OW28966   4.390   2.422   2.036
 9356SOL    HW128967   4.304   2.411   2.084
 9356SOL    HW228968   4.448   2.342   2.052
 9357SOL     OW28969   1.984   4.519   6.889
 9357SOL    HW128970   2.074   4.563   6.877
 9357SOL    HW228971   1.995   4.437   6.945
 9358SOL     OW28972   5.477   4.243   3.215
 9358SOL    HW128973   5.426   4.317   3.170
 9358SOL    HW228974   5.482   4.164   3.154
 9359SOL     OW28975   3.927   5.340   5.300
 9359SOL    HW128976   4.007   5.381   5.255
 9359SOL    HW228977   3.949   5.246   5.327
 9360SOL     OW28978   0.918   0.300   5.460
 9360SOL    HW128979   0.925   0.393   5.497
 9360SOL    HW228980   1.000   0.248   5.485
 9361SOL     OW28981   1.306   1.423   2.465
 9361SOL    HW128982   1.326   1.349   2.529
 9361SOL    HW228983   1.296   1.386   2.373
 9362SOL     OW28984   1.242   1.655   3.110
 9362SOL    HW128985   1.272   1.750   3.117
 9362SOL    HW228986   1.193   1.630   3.193
 9363SOL     OW28987   1.183   6.268   2.439
 9363SOL    HW128988   1.249   6.235   2.507
 9363SOL    HW228989   1.119   6.194   2.416
 9364SOL     OW28990   5.500   4.274   0.854
 9364SOL    HW128991   5.437   4.244   0.782
 9364SOL    HW228992   5.455   4.263   0.943
 9365SOL     OW28993   2.401   1.552   4.279
 9365SOL    HW128994   2.457   1.472   4.299
 9365SOL    HW228995   2.346   1.576   4.359
 9366SOL     OW28996   3.045   1.494   1.546
 9366SOL    HW128997   3.105   1.457   1.475
 9366SOL    HW228998   3.003   1.418   1.596
 9367SOL     OW28999   5.189   6.828   4.344
 9367SOL    HW129000   5.154   6.911   4.386
 9367SOL    HW229001   5.139   6.811   4.258
 9368SOL     OW29002   5.678   2.942   0.833
 9368SOL    HW129003   5.725   2.929   0.919
 9368SOL    HW229004   5.722   2.886   0.762
 9369SOL     OW29005   0.273   2.035   5.434
 9369SOL    HW129006   0.320   2.117   5.403
 9369SOL    HW229007   0.331   1.985   5.498
 9370SOL     OW29008   5.496   5.519   2.098
 9370SOL    HW129009   5.566   5.455   2.065
 9370SOL    HW229010   5.495   5.600   2.040
 9371SOL     OW29011   1.938   6.705   0.295
 9371SOL    HW129012   1.860   6.644   0.281
 9371SOL    HW229013   1.976   6.732   0.206
 9372SOL     OW29014   5.464   5.406   0.640
 9372SOL    HW129015   5.396   5.416   0.712
 9372SOL    HW229016   5.433   5.335   0.575
 9373SOL     OW29017   4.832   2.700   4.225
 9373SOL    HW129018   4.920   2.652   4.218
 9373SOL    HW229019   4.759   2.633   4.241
 9374SOL     OW29020   5.473   4.035   6.903
 9374SOL    HW129021   5.479   3.938   6.924
 9374SOL    HW229022   5.452   4.047   6.806
 9375SOL     OW29023   6.429   6.697   4.419
 9375SOL    HW129024   6.486   6.646   4.482
 9375SOL    HW229025   6.472   6.785   4.399
 9376SOL     OW29026   2.818   3.413   1.876
 9376SOL    HW129027   2.839   3.511   1.870
 9376SOL    HW229028   2.743   3.399   1.941
 9377SOL     OW29029   6.888   4.310   4.014
 9377SOL    HW129030   6.861   4.238   4.078
 9377SOL    HW229031   6.898   4.271   3.922
 9378SOL     OW29032   4.127   6.034   1.383
 9378SOL    HW129033   4.163   6.016   1.291
 9378SOL    HW229034   4.060   6.108   1.379
 9379SOL     OW29035   4.559   4.630   5.161
 9379SOL    HW129036   4.536   4.703   5.225
 9379SOL    HW229037   4.476   4.600   5.114
 9380SOL     OW29038   6.925   5.540   5.423
 9380SOL    HW129039   6.844   5.483   5.407
 9380SOL    HW229040   7.004   5.498   5.380
 9381SOL     OW29041   1.030   0.663   0.077
 9381SOL    HW129042   0.936   0.633   0.058
 9381SOL    HW229043   1.028   0.742   0.139
 9382SOL     OW29044   5.752   2.329   2.197
 9382SOL    HW129045   5.751   2.367   2.104
 9382SOL    HW229046   5.677   2.264   2.207
 9383SOL     OW29047   6.853   5.464   6.791
 9383SOL    HW129048   6.791   5.408   6.845
 9383SOL    HW229049   6.866   5.423   6.701
 9384SOL     OW29050   3.603   0.050   2.592
 9384SOL    HW129051   3.602   0.035   2.691
 9384SOL    HW229052   3.598   6.981   2.545
 9385SOL     OW29053   3.846   6.084   3.555
 9385SOL    HW129054   3.886   6.127   3.636
 9385SOL    HW229055   3.780   6.014   3.584
 9386SOL     OW29056   3.370   6.772   5.184
 9386SOL    HW129057   3.470   6.784   5.183
 9386SOL    HW229058   3.329   6.833   5.117
 9387SOL     OW29059   4.836   5.943   0.597
 9387SOL    HW129060   4.799   5.892   0.519
 9387SOL    HW229061   4.774   6.018   0.620
 9388SOL     OW29062   6.329   6.933   1.541
 9388SOL    HW129063   6.377   6.888   1.465
 9388SOL    HW229064   6.386   7.009   1.574
 9389SOL     OW29065   3.258   1.177   0.647
 9389SOL    HW129066   3.289   1.264   0.608
 9389SOL    HW229067   3.305   1.162   0.734
 9390SOL     OW29068   3.600   6.113   0.773
 9390SOL    HW129069   3.641   6.097   0.862
 9390SOL    HW229070   3.534   6.188   0.780
 9391SOL     OW29071   5.797   0.458   3.841
 9391SOL    HW129072   5.700   0.463   3.868
 9391SOL    HW229073   5.825   0.362   3.838
 9392SOL     OW29074   0.752   6.773   5.240
 9392SOL    HW129075   0.725   6.868   5.253
 9392SOL    HW229076   0.690   6.729   5.175
 9393SOL     OW29077   4.592   1.775   5.422
 9393SOL    HW129078   4.518   1.711   5.400
 9393SOL    HW229079   4.664   1.728   5.472
 9394SOL     OW29080   6.323   1.692   2.226
 9394SOL    HW129081   6.422   1.708   2.223
 9394SOL    HW229082   6.290   1.674   2.134
 9395SOL     OW29083   1.817   2.934   6.849
 9395SOL    HW129084   1.831   3.024   6.807
 9395SOL    HW229085   1.876   2.924   6.929
 9396SOL     OW29086   0.501   1.043   5.591
 9396SOL    HW129087   0.574   0.976   5.585
 9396SOL    HW229088   0.539   1.134   5.603
 9397SOL     OW29089   1.671   1.995   1.155
 9397SOL    HW129090   1.672   1.914   1.213
 9397SOL    HW229091   1.601   2.058   1.187
 9398SOL     OW29092   2.425   1.738   1.577
 9398SOL    HW129093   2.352   1.677   1.546
 9398SOL    HW229094   2.508   1.685   1.593
 9399SOL     OW29095   0.096   0.778   5.299
 9399SOL    HW129096   0.114   0.876   5.284
 9399SOL    HW229097   0.182   0.731   5.317
 9400SOL     OW29098   3.983   1.423   3.699
 9400SOL    HW129099   3.957   1.516   3.673
 9400SOL    HW229100   4.068   1.398   3.653
 9401SOL     OW29101   3.905   6.610   4.009
 9401SOL    HW129102   3.985   6.660   3.973
 9401SOL    HW229103   3.923   6.512   4.007
 9402SOL     OW29104   2.689   4.942   5.873
 9402SOL    HW129105   2.788   4.949   5.887
 9402SOL    HW229106   2.653   5.029   5.841
 9403SOL     OW29107   5.943   0.247   4.428
 9403SOL    HW129108   5.868   0.294   4.382
 9403SOL    HW229109   5.908   0.196   4.506
 9404SOL     OW29110   1.808   4.620   5.194
 9404SOL    HW129111   1.793   4.569   5.278
 9404SOL    HW229112   1.721   4.630   5.145
 9405SOL     OW29113   0.438   0.676   1.051
 9405SOL    HW129114   0.470   0.745   1.117
 9405SOL    HW229115   0.352   0.706   1.011
 9406SOL     OW29116   6.282   1.672   4.722
 9406SOL    HW129117   6.325   1.592   4.765
 9406SOL    HW229118   6.199   1.696   4.773
 9407SOL     OW29119   3.421   5.517   3.504
 9407SOL    HW129120   3.409   5.470   3.417
 9407SOL    HW229121   3.490   5.590   3.493
 9408SOL     OW29122   3.663   2.257   6.805
 9408SOL    HW129123   3.726   2.179   6.808
 9408SOL    HW229124   3.715   2.342   6.799
 9409SOL     OW29125   6.284   3.842   3.677
 9409SOL    HW129126   6.266   3.817   3.772
 9409SOL    HW229127   6.350   3.916   3.674
 9410SOL     OW29128   4.308   6.745   1.673
 9410SOL    HW129129   4.292   6.809   1.748
 9410SOL    HW229130   4.404   6.718   1.673
 9411SOL     OW29131   5.750   4.894   2.171
 9411SOL    HW129132   5.653   4.876   2.157
 9411SOL    HW229133   5.793   4.917   2.083
 9412SOL     OW29134   6.654   2.080   3.391
 9412SOL    HW129135   6.643   1.986   3.358
 9412SOL    HW229136   6.564   2.124   3.396
 9413SOL     OW29137   3.682   5.646   3.450
 9413SOL    HW129138   3.755   5.670   3.385
 9413SOL    HW229139   3.705   5.560   3.495
 9414SOL     OW29140   2.290   0.252   2.210
 9414SOL    HW129141   2.245   0.290   2.128
 9414SOL    HW229142   2.381   0.292   2.219
 9415SOL     OW29143   1.072   0.176   2.010
 9415SOL    HW129144   0.994   0.114   1.998
 9415SOL    HW229145   1.079   0.203   2.106
 9416SOL     OW29146   1.259   2.008   1.327
 9416SOL    HW129147   1.293   2.012   1.421
 9416SOL    HW229148   1.178   2.066   1.319
 9417SOL     OW29149   1.141   0.309   4.549
 9417SOL    HW129150   1.063   0.250   4.571
 9417SOL    HW229151   1.225   0.264   4.577
 9418SOL     OW29152   4.102   4.270   0.750
 9418SOL    HW129153   4.119   4.195   0.686
 9418SOL    HW229154   4.125   4.240   0.843
 9419SOL     OW29155   2.258   5.691   4.024
 9419SOL    HW129156   2.277   5.627   3.949
 9419SOL    HW229157   2.343   5.735   4.054
 9420SOL     OW29158   1.714   0.179   3.203
 9420SOL    HW129159   1.702   0.150   3.108
 9420SOL    HW229160   1.806   0.156   3.234
 9421SOL     OW29161   1.496   4.886   5.401
 9421SOL    HW129162   1.444   4.900   5.485
 9421SOL    HW229163   1.482   4.792   5.368
 9422SOL     OW29164   3.819   1.310   2.997
 9422SOL    HW129165   3.734   1.354   2.969
 9422SOL    HW229166   3.798   1.227   3.048
 9423SOL     OW29167   4.534   7.012   4.904
 9423SOL    HW129168   4.556   0.084   4.940
 9423SOL    HW229169   4.445   6.983   4.941
 9424SOL     OW29170   3.022   5.459   3.199
 9424SOL    HW129171   2.945   5.433   3.257
 9424SOL    HW229172   3.099   5.397   3.216
 9425SOL     OW29173   0.849   5.353   2.416
 9425SOL    HW129174   0.907   5.280   2.452
 9425SOL    HW229175   0.899   5.403   2.345
 9426SOL     OW29176   3.607   6.048   0.498
 9426SOL    HW129177   3.587   6.138   0.458
 9426SOL    HW229178   3.594   6.052   0.597
 9427SOL     OW29179   2.522   5.136   4.140
 9427SOL    HW129180   2.613   5.123   4.178
 9427SOL    HW229181   2.455   5.143   4.214
 9428SOL     OW29182   4.589   6.445   2.156
 9428SOL    HW129183   4.514   6.387   2.186
 9428SOL    HW229184   4.592   6.447   2.056
 9429SOL     OW29185   0.361   3.704   2.859
 9429SOL    HW129186   0.268   3.693   2.823
 9429SOL    HW229187   0.366   3.667   2.951
 9430SOL     OW29188   6.432   6.701   1.642
 9430SOL    HW129189   6.419   6.675   1.738
 9430SOL    HW229190   6.345   6.731   1.603
 9431SOL     OW29191   6.587   4.503   0.570
 9431SOL    HW129192   6.643   4.431   0.528
 9431SOL    HW229193   6.645   4.578   0.601
 9432SOL     OW29194   6.684   6.697   4.060
 9432SOL    HW129195   6.628   6.630   4.010
 9432SOL    HW229196   6.685   6.783   4.010
 9433SOL     OW29197   2.774   5.477   4.331
 9433SOL    HW129198   2.844   5.409   4.352
 9433SOL    HW229199   2.690   5.453   4.380
 9434SOL     OW29200   6.487   4.625   3.463
 9434SOL    HW129201   6.544   4.609   3.543
 9434SOL    HW229202   6.543   4.668   3.391
 9435SOL     OW29203   2.661   2.480   5.889
 9435SOL    HW129204   2.728   2.504   5.819
 9435SOL    HW229205   2.667   2.545   5.965
 9436SOL     OW29206   3.845   2.040   5.620
 9436SOL    HW129207   3.755   2.033   5.663
 9436SOL    HW229208   3.844   1.993   5.532
 9437SOL     OW29209   0.460   6.138   4.395
 9437SOL    HW129210   0.549   6.162   4.434
 9437SOL    HW229211   0.441   6.197   4.316
 9438SOL     OW29212   0.263   6.272   1.471
 9438SOL    HW129213   0.263   6.173   1.461
 9438SOL    HW229214   0.263   6.296   1.568
 9439SOL     OW29215   1.964   3.196   1.254
 9439SOL    HW129216   2.007   3.137   1.322
 9439SOL    HW229217   1.906   3.141   1.194
 9440SOL     OW29218   3.241   5.844   3.638
 9440SOL    HW129219   3.180   5.882   3.708
 9440SOL    HW229220   3.257   5.912   3.567
 9441SOL     OW29221   1.226   5.424   5.696
 9441SOL    HW129222   1.265   5.516   5.694
 9441SOL    HW229223   1.154   5.419   5.765
 9442SOL     OW29224   1.042   3.232   1.333
 9442SOL    HW129225   1.017   3.213   1.238
 9442SOL    HW229226   1.069   3.328   1.341
 9443SOL     OW29227   1.381   1.963   1.048
 9443SOL    HW129228   1.367   1.971   1.147
 9443SOL    HW229229   1.292   1.952   1.003
 9444SOL     OW29230   1.455   4.352   5.416
 9444SOL    HW129231   1.551   4.328   5.401
 9444SOL    HW229232   1.428   4.422   5.350
 9445SOL     OW29233   6.010   1.997   1.756
 9445SOL    HW129234   5.987   2.039   1.668
 9445SOL    HW229235   5.939   1.932   1.781
 9446SOL     OW29236   5.623   4.657   0.123
 9446SOL    HW129237   5.696   4.664   0.191
 9446SOL    HW229238   5.585   4.564   0.125
 9447SOL     OW29239   6.017   0.850   2.023
 9447SOL    HW129240   5.926   0.893   2.021
 9447SOL    HW229241   6.016   0.767   1.969
 9448SOL     OW29242   6.064   6.263   0.243
 9448SOL    HW129243   6.052   6.167   0.220
 9448SOL    HW229244   6.160   6.288   0.232
 9449SOL     OW29245   5.921   5.466   4.947
 9449SOL    HW129246   5.964   5.430   4.864
 9449SOL    HW229247   5.991   5.483   5.016
 9450SOL     OW29248   1.968   6.081   3.917
 9450SOL    HW129249   1.970   6.162   3.977
 9450SOL    HW229250   1.919   6.007   3.964
 9451SOL     OW29251   4.146   3.859   5.143
 9451SOL    HW129252   4.084   3.881   5.218
 9451SOL    HW229253   4.239   3.884   5.168
 9452SOL     OW29254   3.705   4.376   0.621
 9452SOL    HW129255   3.748   4.403   0.535
 9452SOL    HW229256   3.664   4.456   0.664
 9453SOL     OW29257   3.870   6.207   1.413
 9453SOL    HW129258   3.771   6.197   1.418
 9453SOL    HW229259   3.893   6.301   1.389
 9454SOL     OW29260   2.335   2.079   5.944
 9454SOL    HW129261   2.330   1.988   5.985
 9454SOL    HW229262   2.375   2.073   5.853
 9455SOL     OW29263   1.765   2.337   1.968
 9455SOL    HW129264   1.745   2.335   1.870
 9455SOL    HW229265   1.686   2.375   2.017
 9456SOL     OW29266   1.405   3.124   0.157
 9456SOL    HW129267   1.384   3.086   0.248
 9456SOL    HW229268   1.419   3.049   0.092
 9457SOL     OW29269   6.070   4.040   0.167
 9457SOL    HW129270   6.062   3.962   0.104
 9457SOL    HW229271   6.085   4.006   0.260
 9458SOL     OW29272   1.042   5.739   3.931
 9458SOL    HW129273   0.971   5.798   3.892
 9458SOL    HW229274   1.068   5.670   3.863
 9459SOL     OW29275   4.171   6.315   0.560
 9459SOL    HW129276   4.126   6.228   0.580
 9459SOL    HW229277   4.225   6.343   0.639
 9460SOL     OW29278   1.758   3.739   5.505
 9460SOL    HW129279   1.669   3.760   5.546
 9460SOL    HW229280   1.814   3.689   5.571
 9461SOL     OW29281   1.439   0.335   2.684
 9461SOL    HW129282   1.362   0.321   2.621
 9461SOL    HW229283   1.405   0.340   2.778
 9462SOL     OW29284   0.541   3.244   3.785
 9462SOL    HW129285   0.545   3.344   3.788
 9462SOL    HW229286   0.447   3.213   3.796
 9463SOL     OW29287   5.227   2.433   6.122
 9463SOL    HW129288   5.224   2.338   6.089
 9463SOL    HW229289   5.271   2.491   6.053
 9464SOL     OW29290   4.127   6.638   6.478
 9464SOL    HW129291   4.159   6.666   6.569
 9464SOL    HW229292   4.203   6.599   6.427
 9465SOL     OW29293   4.252   6.212   4.317
 9465SOL    HW129294   4.225   6.119   4.292
 9465SOL    HW229295   4.313   6.209   4.395
 9466SOL     OW29296   3.391   1.865   6.774
 9466SOL    HW129297   3.456   1.895   6.844
 9466SOL    HW229298   3.300   1.901   6.794
 9467SOL     OW29299   1.476   3.150   2.284
 9467SOL    HW129300   1.556   3.135   2.227
 9467SOL    HW229301   1.393   3.148   2.227
 9468SOL     OW29302   0.686   2.286   6.217
 9468SOL    HW129303   0.586   2.295   6.209
 9468SOL    HW229304   0.719   2.348   6.288
 9469SOL     OW29305   0.638   4.266   2.645
 9469SOL    HW129306   0.603   4.294   2.555
 9469SOL    HW229307   0.684   4.178   2.636
 9470SOL     OW29308   6.694   3.645   2.073
 9470SOL    HW129309   6.644   3.668   1.989
 9470SOL    HW229310   6.788   3.618   2.050
 9471SOL     OW29311   6.853   2.494   5.687
 9471SOL    HW129312   6.803   2.415   5.650
 9471SOL    HW229313   6.912   2.464   5.762
 9472SOL     OW29314   6.719   2.273   5.180
 9472SOL    HW129315   6.802   2.260   5.235
 9472SOL    HW229316   6.730   2.354   5.122
 9473SOL     OW29317   2.408   4.974   5.580
 9473SOL    HW129318   2.437   4.883   5.553
 9473SOL    HW229319   2.327   5.000   5.527
 9474SOL     OW29320   3.924   5.718   3.985
 9474SOL    HW129321   3.959   5.804   3.948
 9474SOL    HW229322   3.992   5.677   4.046
 9475SOL     OW29323   2.210   3.359   1.216
 9475SOL    HW129324   2.264   3.343   1.299
 9475SOL    HW229325   2.122   3.311   1.224
 9476SOL     OW29326   2.625   3.463   5.502
 9476SOL    HW129327   2.725   3.468   5.499
 9476SOL    HW229328   2.589   3.450   5.409
 9477SOL     OW29329   0.966   2.287   0.337
 9477SOL    HW129330   0.927   2.368   0.381
 9477SOL    HW229331   0.955   2.208   0.397
 9478SOL     OW29332   5.512   3.616   6.326
 9478SOL    HW129333   5.460   3.648   6.247
 9478SOL    HW229334   5.604   3.655   6.324
 9479SOL     OW29335   5.496   4.657   5.111
 9479SOL    HW129336   5.500   4.558   5.123
 9479SOL    HW229337   5.478   4.677   5.014
 9480SOL     OW29338   6.808   3.193   6.404
 9480SOL    HW129339   6.777   3.152   6.318
 9480SOL    HW229340   6.752   3.273   6.426
 9481SOL     OW29341   0.477   2.628   2.664
 9481SOL    HW129342   0.540   2.567   2.713
 9481SOL    HW229343   0.524   2.671   2.588
 9482SOL     OW29344   4.602   0.997   2.153
 9482SOL    HW129345   4.556   0.995   2.065
 9482SOL    HW229346   4.604   0.905   2.192
 9483SOL     OW29347   1.845   0.826   0.581
 9483SOL    HW129348   1.764   0.777   0.547
 9483SOL    HW229349   1.831   0.925   0.570
 9484SOL     OW29350   6.126   0.101   3.648
 9484SOL    HW129351   6.191   0.149   3.708
 9484SOL    HW229352   6.120   0.148   3.560
 9485SOL     OW29353   0.170   0.015   3.093
 9485SOL    HW129354   0.172   6.948   3.144
 9485SOL    HW229355   0.149   0.090   3.156
 9486SOL     OW29356   3.067   0.260   2.139
 9486SOL    HW129357   3.110   0.170   2.150
 9486SOL    HW229358   3.022   0.265   2.050
 9487SOL     OW29359   3.504   2.839   3.211
 9487SOL    HW129360   3.493   2.935   3.237
 9487SOL    HW229361   3.566   2.833   3.133
 9488SOL     OW29362   1.750   0.433   1.647
 9488SOL    HW129363   1.787   0.448   1.739
 9488SOL    HW229364   1.681   0.503   1.627
 9489SOL     OW29365   2.779   4.576   0.488
 9489SOL    HW129366   2.849   4.592   0.557
 9489SOL    HW229367   2.696   4.627   0.511
 9490SOL     OW29368   4.829   1.331   0.213
 9490SOL    HW129369   4.798   1.383   0.292
 9490SOL    HW229370   4.811   1.383   0.129
 9491SOL     OW29371   5.396   6.080   6.286
 9491SOL    HW129372   5.360   5.988   6.300
 9491SOL    HW229373   5.496   6.076   6.287
 9492SOL     OW29374   2.469   5.286   1.244
 9492SOL    HW129375   2.498   5.193   1.266
 9492SOL    HW229376   2.479   5.344   1.325
 9493SOL     OW29377   5.355   6.468   2.474
 9493SOL    HW129378   5.273   6.510   2.513
 9493SOL    HW229379   5.428   6.536   2.467
 9494SOL     OW29380   3.721   3.351   6.600
 9494SOL    HW129381   3.722   3.287   6.677
 9494SOL    HW229382   3.789   3.422   6.616
 9495SOL     OW29383   5.355   2.618   4.536
 9495SOL    HW129384   5.284   2.615   4.607
 9495SOL    HW229385   5.445   2.605   4.578
 9496SOL     OW29386   6.521   4.531   6.952
 9496SOL    HW129387   6.546   4.449   6.899
 9496SOL    HW229388   6.422   4.546   6.946
 9497SOL     OW29389   1.287   6.290   6.000
 9497SOL    HW129390   1.330   6.353   6.064
 9497SOL    HW229391   1.206   6.250   6.042
 9498SOL     OW29392   4.695   6.764   6.608
 9498SOL    HW129393   4.670   6.756   6.705
 9498SOL    HW229394   4.794   6.761   6.599
 9499SOL     OW29395   4.760   4.009   5.751
 9499SOL    HW129396   4.789   3.936   5.812
 9499SOL    HW229397   4.693   4.067   5.797
 9500SOL     OW29398   4.592   5.864   0.798
 9500SOL    HW129399   4.601   5.954   0.756
 9500SOL    HW229400   4.682   5.824   0.812
 9501SOL     OW29401   3.268   1.642   5.090
 9501SOL    HW129402   3.226   1.558   5.124
 9501SOL    HW229403   3.365   1.642   5.112
 9502SOL     OW29404   3.717   3.243   5.992
 9502SOL    HW129405   3.659   3.303   6.047
 9502SOL    HW229406   3.703   3.263   5.895
 9503SOL     OW29407   1.097   6.891   1.864
 9503SOL    HW129408   1.163   6.943   1.918
 9503SOL    HW229409   1.034   6.955   1.818
 9504SOL     OW29410   0.292   2.798   0.570
 9504SOL    HW129411   0.287   2.813   0.471
 9504SOL    HW229412   0.359   2.726   0.589
 9505SOL     OW29413   4.942   3.142   3.088
 9505SOL    HW129414   4.865   3.112   3.032
 9505SOL    HW229415   4.928   3.238   3.114
 9506SOL     OW29416   6.353   2.435   1.347
 9506SOL    HW129417   6.445   2.421   1.310
 9506SOL    HW229418   6.303   2.500   1.290
 9507SOL     OW29419   1.321   2.964   5.272
 9507SOL    HW129420   1.346   3.023   5.348
 9507SOL    HW229421   1.401   2.910   5.244
 9508SOL     OW29422   4.618   1.138   5.462
 9508SOL    HW129423   4.715   1.125   5.481
 9508SOL    HW229424   4.605   1.220   5.406
 9509SOL     OW29425   3.709   6.959   6.047
 9509SOL    HW129426   3.731   6.946   5.950
 9509SOL    HW229427   3.645   6.888   6.077
 9510SOL     OW29428   6.891   4.260   2.906
 9510SOL    HW129429   6.909   4.218   2.994
 9510SOL    HW229430   6.802   4.306   2.908
 9511SOL     OW29431   1.954   1.679   1.451
 9511SOL    HW129432   1.930   1.597   1.399
 9511SOL    HW229433   1.896   1.684   1.533
 9512SOL     OW29434   1.708   3.999   5.380
 9512SOL    HW129435   1.737   4.077   5.436
 9512SOL    HW229436   1.773   3.924   5.390
 9513SOL     OW29437   2.615   4.583   4.301
 9513SOL    HW129438   2.556   4.536   4.236
 9513SOL    HW229439   2.575   4.578   4.392
 9514SOL     OW29440   3.087   2.727   5.540
 9514SOL    HW129441   3.018   2.734   5.468
 9514SOL    HW229442   3.121   2.633   5.544
 9515SOL     OW29443   2.276   5.530   5.803
 9515SOL    HW129444   2.251   5.617   5.760
 9515SOL    HW229445   2.231   5.455   5.755
 9516SOL     OW29446   6.191   4.237   4.808
 9516SOL    HW129447   6.162   4.158   4.755
 9516SOL    HW229448   6.219   4.310   4.745
 9517SOL     OW29449   0.965   5.154   2.717
 9517SOL    HW129450   0.946   5.252   2.721
 9517SOL    HW229451   0.879   5.103   2.711
 9518SOL     OW29452   1.035   2.828   5.595
 9518SOL    HW129453   1.065   2.918   5.624
 9518SOL    HW229454   1.105   2.786   5.538
 9519SOL     OW29455   3.210   3.620   3.512
 9519SOL    HW129456   3.144   3.576   3.573
 9519SOL    HW229457   3.213   3.570   3.425
 9520SOL     OW29458   4.963   1.124   6.552
 9520SOL    HW129459   4.967   1.215   6.510
 9520SOL    HW229460   4.896   1.124   6.626
 9521SOL     OW29461   4.050   1.199   1.368
 9521SOL    HW129462   4.102   1.226   1.287
 9521SOL    HW229463   4.055   1.271   1.437
 9522SOL     OW29464   3.816   6.988   1.021
 9522SOL    HW129465   3.776   6.918   0.961
 9522SOL    HW229466   3.835   6.947   1.111
 9523SOL     OW29467   2.570   4.725   4.725
 9523SOL    HW129468   2.662   4.749   4.756
 9523SOL    HW229469   2.521   4.679   4.800
 9524SOL     OW29470   1.712   3.769   0.179
 9524SOL    HW129471   1.801   3.767   0.225
 9524SOL    HW229472   1.722   3.736   0.086
 9525SOL     OW29473   2.417   3.125   6.519
 9525SOL    HW129474   2.381   3.193   6.582
 9525SOL    HW229475   2.403   3.156   6.425
 9526SOL     OW29476   5.293   4.894   6.121
 9526SOL    HW129477   5.304   4.800   6.155
 9526SOL    HW229478   5.240   4.892   6.036
 9527SOL     OW29479   3.562   6.511   4.363
 9527SOL    HW129480   3.494   6.437   4.365
 9527SOL    HW229481   3.609   6.515   4.451
 9528SOL     OW29482   4.919   2.496   0.851
 9528SOL    HW129483   4.928   2.530   0.758
 9528SOL    HW229484   4.895   2.399   0.850
 9529SOL     OW29485   5.843   0.304   2.485
 9529SOL    HW129486   5.807   0.301   2.392
 9529SOL    HW229487   5.793   0.371   2.538
 9530SOL     OW29488   1.111   5.517   3.755
 9530SOL    HW129489   1.210   5.511   3.749
 9530SOL    HW229490   1.075   5.436   3.802
 9531SOL     OW29491   3.388   6.210   1.600
 9531SOL    HW129492   3.365   6.285   1.662
 9531SOL    HW229493   3.421   6.132   1.653
 9532SOL     OW29494   6.991   5.059   4.635
 9532SOL    HW129495   0.062   5.069   4.594
 9532SOL    HW229496   6.942   4.985   4.591
 9533SOL     OW29497   0.721   4.137   3.862
 9533SOL    HW129498   0.672   4.051   3.844
 9533SOL    HW229499   0.778   4.126   3.943
 9534SOL     OW29500   4.849   5.845   3.837
 9534SOL    HW129501   4.811   5.798   3.757
 9534SOL    HW229502   4.785   5.914   3.868
 9535SOL     OW29503   0.290   1.622   4.261
 9535SOL    HW129504   0.291   1.720   4.241
 9535SOL    HW229505   0.284   1.608   4.360
 9536SOL     OW29506   3.787   3.745   5.485
 9536SOL    HW129507   3.859   3.713   5.423
 9536SOL    HW229508   3.826   3.764   5.575
 9537SOL     OW29509   0.050   0.769   4.227
 9537SOL    HW129510   7.016   0.707   4.170
 9537SOL    HW229511   0.139   0.728   4.247
 9538SOL     OW29512   5.507   0.889   5.195
 9538SOL    HW129513   5.513   0.789   5.190
 9538SOL    HW229514   5.588   0.929   5.152
 9539SOL     OW29515   3.879   3.986   2.181
 9539SOL    HW129516   3.960   3.983   2.122
 9539SOL    HW229517   3.908   3.995   2.276
 9540SOL     OW29518   4.267   4.649   2.928
 9540SOL    HW129519   4.227   4.727   2.880
 9540SOL    HW229520   4.317   4.592   2.864
 9541SOL     OW29521   1.523   5.640   5.871
 9541SOL    HW129522   1.592   5.712   5.866
 9541SOL    HW229523   1.443   5.665   5.816
 9542SOL     OW29524   6.301   3.765   2.958
 9542SOL    HW129525   6.372   3.694   2.963
 9542SOL    HW229526   6.258   3.762   2.868
 9543SOL     OW29527   2.282   0.580   5.459
 9543SOL    HW129528   2.318   0.572   5.551
 9543SOL    HW229529   2.282   0.491   5.415
 9544SOL     OW29530   6.309   3.103   4.514
 9544SOL    HW129531   6.295   3.084   4.611
 9544SOL    HW229532   6.293   3.201   4.496
 9545SOL     OW29533   6.607   4.317   1.861
 9545SOL    HW129534   6.508   4.329   1.859
 9545SOL    HW229535   6.628   4.222   1.887
 9546SOL     OW29536   2.994   2.690   1.003
 9546SOL    HW129537   3.040   2.698   1.092
 9546SOL    HW229538   2.917   2.626   1.011
 9547SOL     OW29539   3.958   0.597   3.333
 9547SOL    HW129540   4.029   0.653   3.288
 9547SOL    HW229541   3.870   0.644   3.325
 9548SOL     OW29542   0.872   4.988   5.754
 9548SOL    HW129543   0.790   4.956   5.706
 9548SOL    HW229544   0.909   5.068   5.708
 9549SOL     OW29545   4.799   0.976   1.741
 9549SOL    HW129546   4.867   1.035   1.785
 9549SOL    HW229547   4.739   0.938   1.811
 9550SOL     OW29548   6.693   2.692   1.393
 9550SOL    HW129549   6.625   2.742   1.446
 9550SOL    HW229550   6.780   2.692   1.442
 9551SOL     OW29551   5.957   3.102   6.553
 9551SOL    HW129552   5.993   3.017   6.593
 9551SOL    HW229553   5.997   3.180   6.602
 9552SOL     OW29554   2.736   1.879   6.870
 9552SOL    HW129555   2.764   1.958   6.925
 9552SOL    HW229556   2.691   1.911   6.786
 9553SOL     OW29557   5.550   1.269   6.866
 9553SOL    HW129558   5.636   1.283   6.818
 9553SOL    HW229559   5.478   1.247   6.800
 9554SOL     OW29560   2.581   1.141   4.654
 9554SOL    HW129561   2.612   1.213   4.717
 9554SOL    HW229562   2.517   1.181   4.588
 9555SOL     OW29563   0.585   6.360   2.866
 9555SOL    HW129564   0.561   6.432   2.800
 9555SOL    HW229565   0.502   6.315   2.897
 9556SOL     OW29566   2.091   4.219   6.449
 9556SOL    HW129567   2.148   4.195   6.528
 9556SOL    HW229568   2.103   4.316   6.428
 9557SOL     OW29569   6.090   0.730   0.920
 9557SOL    HW129570   6.064   0.762   1.011
 9557SOL    HW229571   6.103   0.808   0.860
 9558SOL     OW29572   4.798   6.019   5.446
 9558SOL    HW129573   4.850   6.103   5.462
 9558SOL    HW229574   4.748   6.027   5.361
 9559SOL     OW29575   2.302   4.288   0.111
 9559SOL    HW129576   2.325   4.350   0.036
 9559SOL    HW229577   2.293   4.341   0.196
 9560SOL     OW29578   2.574   0.488   1.887
 9560SOL    HW129579   2.636   0.565   1.872
 9560SOL    HW229580   2.487   0.507   1.842
 9561SOL     OW29581   6.955   1.105   0.136
 9561SOL    HW129582   6.926   1.094   0.231
 9561SOL    HW229583   0.016   1.048   0.119
 9562SOL     OW29584   2.016   6.049   2.948
 9562SOL    HW129585   2.043   6.031   3.042
 9562SOL    HW229586   2.085   6.106   2.904
 9563SOL     OW29587   0.707   5.758   6.676
 9563SOL    HW129588   0.752   5.685   6.726
 9563SOL    HW229589   0.753   5.771   6.587
 9564SOL     OW29590   1.234   1.205   0.847
 9564SOL    HW129591   1.330   1.234   0.840
 9564SOL    HW229592   1.202   1.172   0.758
 9565SOL     OW29593   1.842   2.244   4.399
 9565SOL    HW129594   1.846   2.286   4.308
 9565SOL    HW229595   1.896   2.298   4.463
 9566SOL     OW29596   2.868   0.466   6.956
 9566SOL    HW129597   2.963   0.467   6.988
 9566SOL    HW229598   2.806   0.448   0.013
 9567SOL     OW29599   0.278   4.462   1.071
 9567SOL    HW129600   0.181   4.436   1.065
 9567SOL    HW229601   0.325   4.400   1.133
 9568SOL     OW29602   4.439   1.787   5.783
 9568SOL    HW129603   4.352   1.810   5.826
 9568SOL    HW229604   4.423   1.718   5.712
 9569SOL     OW29605   6.008   0.334   2.019
 9569SOL    HW129606   6.043   0.278   2.094
 9569SOL    HW229607   5.979   0.274   1.944
 9570SOL     OW29608   0.967   3.567   2.391
 9570SOL    HW129609   0.937   3.534   2.301
 9570SOL    HW229610   1.055   3.526   2.414
 9571SOL     OW29611   1.811   1.370   6.342
 9571SOL    HW129612   1.820   1.335   6.435
 9571SOL    HW229613   1.881   1.439   6.324
 9572SOL     OW29614   2.217   4.763   4.464
 9572SOL    HW129615   2.176   4.680   4.425
 9572SOL    HW229616   2.303   4.740   4.509
 9573SOL     OW29617   5.592   0.049   4.540
 9573SOL    HW129618   5.583   0.028   4.443
 9573SOL    HW229619   5.620   6.986   4.590
 9574SOL     OW29620   4.638   2.641   0.626
 9574SOL    HW129621   4.541   2.655   0.640
 9574SOL    HW229622   4.690   2.702   0.686
 9575SOL     OW29623   5.378   6.984   1.790
 9575SOL    HW129624   5.309   0.037   1.792
 9575SOL    HW229625   5.456   7.014   1.735
 9576SOL     OW29626   1.211   1.151   5.329
 9576SOL    HW129627   1.209   1.103   5.417
 9576SOL    HW229628   1.121   1.143   5.286
 9577SOL     OW29629   6.998   5.194   3.209
 9577SOL    HW129630   0.077   5.212   3.205
 9577SOL    HW229631   6.982   5.118   3.272
 9578SOL     OW29632   2.098   3.295   3.100
 9578SOL    HW129633   2.072   3.315   3.006
 9578SOL    HW229634   2.181   3.240   3.101
 9579SOL     OW29635   5.463   5.135   2.351
 9579SOL    HW129636   5.465   5.233   2.328
 9579SOL    HW229637   5.378   5.115   2.400
 9580SOL     OW29638   4.979   3.812   3.860
 9580SOL    HW129639   4.988   3.853   3.951
 9580SOL    HW229640   4.951   3.717   3.870
 9581SOL     OW29641   5.016   2.005   6.322
 9581SOL    HW129642   5.086   1.996   6.250
 9581SOL    HW229643   5.030   2.091   6.371
 9582SOL     OW29644   4.455   6.679   5.134
 9582SOL    HW129645   4.464   6.614   5.209
 9582SOL    HW229646   4.493   6.638   5.051
 9583SOL     OW29647   3.051   5.393   1.579
 9583SOL    HW129648   3.139   5.433   1.602
 9583SOL    HW229649   3.004   5.453   1.513
 9584SOL     OW29650   2.503   5.422   4.426
 9584SOL    HW129651   2.523   5.339   4.477
 9584SOL    HW229652   2.431   5.404   4.359
 9585SOL     OW29653   4.481   6.654   0.701
 9585SOL    HW129654   4.571   6.692   0.725
 9585SOL    HW229655   4.462   6.672   0.605
 9586SOL     OW29656   3.318   5.381   3.254
 9586SOL    HW129657   3.413   5.364   3.229
 9586SOL    HW229658   3.289   5.470   3.218
 9587SOL     OW29659   3.710   6.548   0.008
 9587SOL    HW129660   3.763   6.601   6.961
 9587SOL    HW229661   3.749   6.456   0.015
 9588SOL     OW29662   6.707   5.975   0.035
 9588SOL    HW129663   6.684   5.891   7.006
 9588SOL    HW229664   6.753   6.038   6.991
 9589SOL     OW29665   1.289   1.667   6.248
 9589SOL    HW129666   1.199   1.699   6.218
 9589SOL    HW229667   1.359   1.732   6.221
 9590SOL     OW29668   6.017   0.731   1.191
 9590SOL    HW129669   5.962   0.744   1.274
 9590SOL    HW229670   6.049   0.637   1.187
 9591SOL     OW29671   4.943   0.897   6.798
 9591SOL    HW129672   4.920   0.993   6.783
 9591SOL    HW229673   4.900   0.866   6.883
 9592SOL     OW29674   2.254   5.872   5.969
 9592SOL    HW129675   2.241   5.790   5.914
 9592SOL    HW229676   2.202   5.865   6.054
 9593SOL     OW29677   2.114   2.193   3.783
 9593SOL    HW129678   2.118   2.290   3.805
 9593SOL    HW229679   2.041   2.150   3.835
 9594SOL     OW29680   0.128   6.454   3.387
 9594SOL    HW129681   0.146   6.358   3.404
 9594SOL    HW229682   0.047   6.463   3.328
 9595SOL     OW29683   0.089   3.561   3.416
 9595SOL    HW129684   0.140   3.643   3.390
 9595SOL    HW229685   0.114   3.534   3.509
 9596SOL     OW29686   1.885   6.653   0.723
 9596SOL    HW129687   1.866   6.719   0.650
 9596SOL    HW229688   1.953   6.692   0.786
 9597SOL     OW29689   1.321   3.701   2.323
 9597SOL    HW129690   1.269   3.779   2.360
 9597SOL    HW229691   1.400   3.735   2.272
 9598SOL     OW29692   2.354   4.322   3.815
 9598SOL    HW129693   2.278   4.341   3.753
 9598SOL    HW229694   2.381   4.407   3.861
 9599SOL     OW29695   4.594   0.277   4.717
 9599SOL    HW129696   4.655   0.278   4.796
 9599SOL    HW229697   4.628   0.212   4.649
 9600SOL     OW29698   4.029   1.061   0.452
 9600SOL    HW129699   3.941   1.108   0.460
 9600SOL    HW229700   4.023   0.972   0.496
 9601SOL     OW29701   0.563   3.323   0.309
 9601SOL    HW129702   0.578   3.402   0.250
 9601SOL    HW229703   0.637   3.256   0.295
 9602SOL     OW29704   4.347   4.357   5.631
 9602SOL    HW129705   4.379   4.411   5.709
 9602SOL    HW229706   4.340   4.415   5.550
 9603SOL     OW29707   5.288   6.936   5.668
 9603SOL    HW129708   5.296   6.851   5.719
 9603SOL    HW229709   5.193   6.948   5.638
 9604SOL     OW29710   4.789   6.788   1.165
 9604SOL    HW129711   4.769   6.848   1.242
 9604SOL    HW229712   4.873   6.737   1.185
 9605SOL     OW29713   5.158   4.765   1.786
 9605SOL    HW129714   5.247   4.756   1.741
 9605SOL    HW229715   5.130   4.861   1.786
 9606SOL     OW29716   1.458   1.824   6.679
 9606SOL    HW129717   1.432   1.909   6.634
 9606SOL    HW229718   1.394   1.751   6.652
 9607SOL     OW29719   1.885   2.569   7.015
 9607SOL    HW129720   1.919   2.511   6.941
 9607SOL    HW229721   1.796   2.606   6.990
 9608SOL     OW29722   6.217   2.350   4.478
 9608SOL    HW129723   6.153   2.274   4.470
 9608SOL    HW229724   6.277   2.335   4.557
 9609SOL     OW29725   5.046   3.328   0.671
 9609SOL    HW129726   5.129   3.311   0.725
 9609SOL    HW229727   5.069   3.386   0.592
 9610SOL     OW29728   1.198   4.784   2.981
 9610SOL    HW129729   1.280   4.779   2.924
 9610SOL    HW229730   1.219   4.837   3.063
 9611SOL     OW29731   2.431   0.836   0.676
 9611SOL    HW129732   2.491   0.776   0.624
 9611SOL    HW229733   2.482   0.917   0.705
 9612SOL     OW29734   0.204   1.897   3.665
 9612SOL    HW129735   0.197   1.982   3.717
 9612SOL    HW229736   0.300   1.879   3.643
 9613SOL     OW29737   6.223   4.462   4.241
 9613SOL    HW129738   6.160   4.539   4.231
 9613SOL    HW229739   6.172   4.380   4.266
 9614SOL     OW29740   4.035   2.190   3.043
 9614SOL    HW129741   4.117   2.134   3.040
 9614SOL    HW229742   3.993   2.194   2.952
 9615SOL     OW29743   1.427   4.284   1.244
 9615SOL    HW129744   1.500   4.219   1.219
 9615SOL    HW229745   1.341   4.235   1.253
 9616SOL     OW29746   4.539   3.866   6.105
 9616SOL    HW129747   4.495   3.846   6.192
 9616SOL    HW229748   4.545   3.782   6.051
 9617SOL     OW29749   1.582   3.422   2.722
 9617SOL    HW129750   1.567   3.349   2.655
 9617SOL    HW229751   1.512   3.492   2.712
 9618SOL     OW29752   2.256   2.422   0.420
 9618SOL    HW129753   2.222   2.365   0.495
 9618SOL    HW229754   2.350   2.395   0.398
 9619SOL     OW29755   2.329   0.126   6.852
 9619SOL    HW129756   2.290   0.123   6.944
 9619SOL    HW229757   2.424   0.095   6.855
 9620SOL     OW29758   5.645   1.085   5.035
 9620SOL    HW129759   5.630   1.108   4.939
 9620SOL    HW229760   5.620   1.163   5.092
 9621SOL     OW29761   1.687   3.907   3.246
 9621SOL    HW129762   1.752   3.834   3.269
 9621SOL    HW229763   1.606   3.898   3.304
 9622SOL     OW29764   4.359   0.082   0.010
 9622SOL    HW129765   4.383   7.009   6.999
 9622SOL    HW229766   4.285   0.117   6.972
 9623SOL     OW29767   1.678   3.406   6.868
 9623SOL    HW129768   1.589   3.417   6.913
 9623SOL    HW229769   1.669   3.427   6.771
 9624SOL     OW29770   6.528   3.175   3.571
 9624SOL    HW129771   6.475   3.112   3.515
 9624SOL    HW229772   6.568   3.126   3.648
 9625SOL     OW29773   5.874   6.055   1.453
 9625SOL    HW129774   5.837   5.981   1.510
 9625SOL    HW229775   5.903   6.018   1.365
 9626SOL     OW29776   3.792   0.702   0.223
 9626SOL    HW129777   3.846   0.632   0.176
 9626SOL    HW229778   3.848   0.785   0.234
 9627SOL     OW29779   1.061   0.461   0.339
 9627SOL    HW129780   1.038   0.387   0.402
 9627SOL    HW229781   1.161   0.468   0.331
 9628SOL     OW29782   3.781   6.751   1.974
 9628SOL    HW129783   3.741   6.703   1.896
 9628SOL    HW229784   3.857   6.808   1.942
 9629SOL     OW29785   2.440   0.322   1.088
 9629SOL    HW129786   2.460   0.372   1.173
 9629SOL    HW229787   2.341   0.321   1.073
 9630SOL     OW29788   0.413   2.237   6.199
 9630SOL    HW129789   0.407   2.279   6.108
 9630SOL    HW229790   0.338   2.172   6.210
 9631SOL     OW29791   0.001   5.778   0.268
 9631SOL    HW129792   6.935   5.792   0.218
 9631SOL    HW229793   0.025   5.680   0.266
 9632SOL     OW29794   1.607   5.902   2.637
 9632SOL    HW129795   1.690   5.933   2.684
 9632SOL    HW229796   1.583   5.811   2.669
 9633SOL     OW29797   0.249   5.154   6.679
 9633SOL    HW129798   0.150   5.149   6.663
 9633SOL    HW229799   0.296   5.091   6.618
 9634SOL     OW29800   0.180   5.920   5.667
 9634SOL    HW129801   0.093   5.879   5.694
 9634SOL    HW229802   0.211   5.880   5.581
 9635SOL     OW29803   6.783   6.127   5.576
 9635SOL    HW129804   6.816   6.078   5.495
 9635SOL    HW229805   6.705   6.078   5.615
 9636SOL     OW29806   4.292   1.570   0.436
 9636SOL    HW129807   4.270   1.473   0.450
 9636SOL    HW229808   4.372   1.577   0.377
 9637SOL     OW29809   2.402   0.852   6.628
 9637SOL    HW129810   2.498   0.850   6.655
 9637SOL    HW229811   2.391   0.906   6.545
 9638SOL     OW29812   6.748   2.452   6.657
 9638SOL    HW129813   6.652   2.438   6.680
 9638SOL    HW229814   6.803   2.444   6.740
 9639SOL     OW29815   3.469   0.552   2.617
 9639SOL    HW129816   3.380   0.563   2.662
 9639SOL    HW229817   3.456   0.509   2.528
 9640SOL     OW29818   1.387   1.910   3.192
 9640SOL    HW129819   1.412   1.994   3.144
 9640SOL    HW229820   1.466   1.874   3.241
 9641SOL     OW29821   5.396   5.615   6.210
 9641SOL    HW129822   5.482   5.591   6.254
 9641SOL    HW229823   5.404   5.600   6.111
 9642SOL     OW29824   3.256   6.362   3.255
 9642SOL    HW129825   3.333   6.300   3.240
 9642SOL    HW229826   3.236   6.411   3.170
 9643SOL     OW29827   4.137   4.790   2.681
 9643SOL    HW129828   4.110   4.734   2.603
 9643SOL    HW229829   4.230   4.823   2.668
 9644SOL     OW29830   2.566   0.999   0.885
 9644SOL    HW129831   2.470   1.005   0.912
 9644SOL    HW229832   2.616   0.945   0.952
 9645SOL     OW29833   2.749   5.337   5.322
 9645SOL    HW129834   2.775   5.244   5.300
 9645SOL    HW229835   2.689   5.373   5.250
 9646SOL     OW29836   3.303   5.340   3.815
 9646SOL    HW129837   3.210   5.315   3.788
 9646SOL    HW229838   3.309   5.340   3.915
 9647SOL     OW29839   6.566   3.033   6.244
 9647SOL    HW129840   6.555   3.092   6.163
 9647SOL    HW229841   6.646   2.975   6.231
 9648SOL     OW29842   4.290   3.761   0.849
 9648SOL    HW129843   4.281   3.694   0.922
 9648SOL    HW229844   4.199   3.784   0.813
 9649SOL     OW29845   2.115   4.931   1.745
 9649SOL    HW129846   2.164   5.018   1.758
 9649SOL    HW229847   2.019   4.950   1.723
 9650SOL     OW29848   1.569   0.673   1.295
 9650SOL    HW129849   1.526   0.750   1.341
 9650SOL    HW229850   1.520   0.589   1.318
 9651SOL     OW29851   0.614   1.725   0.195
 9651SOL    HW129852   0.622   1.817   0.158
 9651SOL    HW229853   0.706   1.687   0.208
 9652SOL     OW29854   1.375   4.878   1.642
 9652SOL    HW129855   1.355   4.780   1.641
 9652SOL    HW229856   1.436   4.898   1.720
 9653SOL     OW29857   6.108   5.994   4.368
 9653SOL    HW129858   6.018   5.966   4.401
 9653SOL    HW229859   6.170   6.005   4.445
 9654SOL     OW29860   2.086   3.154   2.396
 9654SOL    HW129861   2.132   3.098   2.465
 9654SOL    HW229862   2.097   3.251   2.420
 9655SOL     OW29863   6.322   1.884   0.259
 9655SOL    HW129864   6.239   1.933   0.233
 9655SOL    HW229865   6.395   1.949   0.275
 9656SOL     OW29866   2.303   1.686   2.844
 9656SOL    HW129867   2.283   1.607   2.902
 9656SOL    HW229868   2.351   1.755   2.897
 9657SOL     OW29869   0.241   0.478   4.941
 9657SOL    HW129870   0.173   0.410   4.967
 9657SOL    HW229871   0.195   0.555   4.896
 9658SOL     OW29872   5.981   0.975   2.508
 9658SOL    HW129873   5.967   0.892   2.561
 9658SOL    HW229874   5.899   0.993   2.453
 9659SOL     OW29875   1.497   4.764   6.746
 9659SOL    HW129876   1.514   4.834   6.815
 9659SOL    HW229877   1.467   4.680   6.790
 9660SOL     OW29878   1.071   4.882   0.583
 9660SOL    HW129879   1.096   4.789   0.608
 9660SOL    HW229880   0.972   4.887   0.568
 9661SOL     OW29881   4.067   0.708   0.473
 9661SOL    HW129882   4.045   0.615   0.445
 9661SOL    HW229883   4.030   0.725   0.565
 9662SOL     OW29884   5.480   2.315   4.019
 9662SOL    HW129885   5.491   2.310   3.919
 9662SOL    HW229886   5.383   2.317   4.042
 9663SOL     OW29887   3.149   5.824   2.409
 9663SOL    HW129888   3.244   5.831   2.378
 9663SOL    HW229889   3.139   5.871   2.497
 9664SOL     OW29890   3.239   6.158   1.380
 9664SOL    HW129891   3.258   6.061   1.395
 9664SOL    HW229892   3.272   6.211   1.458
 9665SOL     OW29893   5.695   4.301   3.682
 9665SOL    HW129894   5.761   4.343   3.620
 9665SOL    HW229895   5.630   4.247   3.630
 9666SOL     OW29896   5.929   4.774   4.762
 9666SOL    HW129897   5.848   4.756   4.818
 9666SOL    HW229898   5.940   4.701   4.695
 9667SOL     OW29899   2.919   3.537   3.277
 9667SOL    HW129900   2.896   3.633   3.294
 9667SOL    HW229901   2.900   3.483   3.358
 9668SOL     OW29902   0.372   1.909   5.216
 9668SOL    HW129903   0.295   1.899   5.153
 9668SOL    HW229904   0.338   1.945   5.304
 9669SOL     OW29905   1.941   6.720   6.796
 9669SOL    HW129906   1.877   6.798   6.798
 9669SOL    HW229907   2.002   6.726   6.875
 9670SOL     OW29908   6.649   4.079   6.782
 9670SOL    HW129909   6.704   4.014   6.728
 9670SOL    HW229910   6.673   4.070   6.879
 9671SOL     OW29911   6.734   1.443   7.019
 9671SOL    HW129912   6.817   1.438   6.964
 9671SOL    HW229913   6.757   1.479   0.090
 9672SOL     OW29914   0.364   6.808   5.512
 9672SOL    HW129915   0.397   6.761   5.431
 9672SOL    HW229916   0.306   6.746   5.566
 9673SOL     OW29917   2.102   2.636   5.954
 9673SOL    HW129918   2.056   2.578   6.022
 9673SOL    HW229919   2.201   2.623   5.960
 9674SOL     OW29920   2.576   6.308   2.121
 9674SOL    HW129921   2.635   6.381   2.088
 9674SOL    HW229922   2.497   6.299   2.061
 9675SOL     OW29923   6.773   2.209   2.239
 9675SOL    HW129924   6.728   2.137   2.185
 9675SOL    HW229925   6.801   2.171   2.327
 9676SOL     OW29926   6.857   2.764   4.540
 9676SOL    HW129927   6.759   2.752   4.553
 9676SOL    HW229928   6.895   2.816   4.617
 9677SOL     OW29929   1.884   3.350   5.691
 9677SOL    HW129930   1.858   3.432   5.741
 9677SOL    HW229931   1.838   3.271   5.731
 9678SOL     OW29932   3.827   3.487   2.930
 9678SOL    HW129933   3.824   3.543   2.847
 9678SOL    HW229934   3.745   3.429   2.933
 9679SOL     OW29935   0.588   3.801   1.046
 9679SOL    HW129936   0.599   3.789   0.947
 9679SOL    HW229937   0.608   3.896   1.070
 9680SOL     OW29938   4.507   5.345   2.813
 9680SOL    HW129939   4.578   5.406   2.779
 9680SOL    HW229940   4.427   5.351   2.754
 9681SOL     OW29941   0.771   0.468   3.936
 9681SOL    HW129942   0.685   0.511   3.962
 9681SOL    HW229943   0.810   0.516   3.858
 9682SOL     OW29944   0.931   4.258   2.116
 9682SOL    HW129945   0.892   4.196   2.184
 9682SOL    HW229946   0.889   4.349   2.127
 9683SOL     OW29947   4.190   0.099   5.161
 9683SOL    HW129948   4.208   0.008   5.124
 9683SOL    HW229949   4.103   0.133   5.126
 9684SOL     OW29950   0.842   4.332   3.420
 9684SOL    HW129951   0.932   4.348   3.379
 9684SOL    HW229952   0.789   4.270   3.363
 9685SOL     OW29953   1.680   1.766   6.526
 9685SOL    HW129954   1.647   1.819   6.448
 9685SOL    HW229955   1.622   1.783   6.605
 9686SOL     OW29956   5.934   2.560   2.049
 9686SOL    HW129957   5.884   2.623   2.108
 9686SOL    HW229958   5.996   2.505   2.104
 9687SOL     OW29959   3.102   1.046   4.650
 9687SOL    HW129960   3.067   1.136   4.677
 9687SOL    HW229961   3.183   1.023   4.704
 9688SOL     OW29962   5.518   1.664   4.287
 9688SOL    HW129963   5.529   1.723   4.366
 9688SOL    HW229964   5.549   1.712   4.205
 9689SOL     OW29965   2.692   5.391   5.580
 9689SOL    HW129966   2.695   5.366   5.483
 9689SOL    HW229967   2.659   5.485   5.589
 9690SOL     OW29968   6.520   3.752   0.208
 9690SOL    HW129969   6.487   3.781   0.298
 9690SOL    HW229970   6.565   3.663   0.216
 9691SOL     OW29971   1.435   4.921   0.997
 9691SOL    HW129972   1.380   4.997   1.032
 9691SOL    HW229973   1.376   4.845   0.972
 9692SOL     OW29974   2.982   5.379   0.566
 9692SOL    HW129975   3.003   5.282   0.571
 9692SOL    HW229976   2.941   5.409   0.653
 9693SOL     OW29977   5.956   5.375   1.558
 9693SOL    HW129978   5.899   5.436   1.503
 9693SOL    HW229979   5.943   5.281   1.526
 9694SOL     OW29980   0.928   1.451   0.296
 9694SOL    HW129981   0.915   1.489   0.387
 9694SOL    HW229982   0.857   1.383   0.278
 9695SOL     OW29983   6.440   4.845   0.062
 9695SOL    HW129984   6.521   4.855   0.005
 9695SOL    HW229985   6.385   4.769   0.027
 9696SOL     OW29986   4.054   4.010   0.103
 9696SOL    HW129987   3.960   4.040   0.120
 9696SOL    HW229988   4.116   4.086   0.120
 9697SOL     OW29989   0.392   5.911   6.520
 9697SOL    HW129990   0.337   5.871   6.592
 9697SOL    HW229991   0.340   5.984   6.475
 9698SOL     OW29992   4.793   1.640   5.588
 9698SOL    HW129993   4.881   1.676   5.621
 9698SOL    HW229994   4.763   1.566   5.648
 9699SOL     OW29995   1.416   2.527   6.557
 9699SOL    HW129996   1.456   2.444   6.519
 9699SOL    HW229997   1.317   2.513   6.568
 9700SOL     OW29998   3.769   2.990   3.558
 9700SOL    HW129999   3.852   2.994   3.613
 9700SOL    HW230000   3.792   3.000   3.461
 9701SOL     OW30001   4.409   4.725   4.060
 9701SOL    HW130002   4.343   4.726   4.136
 9701SOL    HW230003   4.475   4.651   4.075
 9702SOL     OW30004   5.284   0.413   0.376
 9702SOL    HW130005   5.269   0.435   0.473
 9702SOL    HW230006   5.348   0.336   0.369
 9703SOL     OW30007   2.710   5.993   4.542
 9703SOL    HW130008   2.701   5.924   4.614
 9703SOL    HW230009   2.795   6.043   4.555
 9704SOL     OW30010   2.507   1.760   4.121
 9704SOL    HW130011   2.485   1.689   4.188
 9704SOL    HW230012   2.535   1.717   4.035
 9705SOL     OW30013   3.658   4.124   0.675
 9705SOL    HW130014   3.701   4.214   0.671
 9705SOL    HW230015   3.653   4.093   0.770
 9706SOL     OW30016   0.115   2.491   3.488
 9706SOL    HW130017   0.134   2.474   3.392
 9706SOL    HW230018   0.021   2.467   3.509
 9707SOL     OW30019   3.303   5.490   1.614
 9707SOL    HW130020   3.296   5.465   1.711
 9707SOL    HW230021   3.389   5.453   1.577
 9708SOL     OW30022   1.627   1.839   1.537
 9708SOL    HW130023   1.556   1.882   1.593
 9708SOL    HW230024   1.584   1.792   1.460
 9709SOL     OW30025   1.687   6.254   3.610
 9709SOL    HW130026   1.621   6.295   3.672
 9709SOL    HW230027   1.703   6.159   3.636
 9710SOL     OW30028   1.301   0.168   3.455
 9710SOL    HW130029   1.395   0.173   3.488
 9710SOL    HW230030   1.238   0.187   3.531
 9711SOL     OW30031   1.922   3.079   6.322
 9711SOL    HW130032   1.972   3.037   6.398
 9711SOL    HW230033   1.933   3.024   6.239
 9712SOL     OW30034   5.007   3.476   4.591
 9712SOL    HW130035   5.105   3.496   4.583
 9712SOL    HW230036   4.985   3.458   4.687
 9713SOL     OW30037   0.157   5.427   3.411
 9713SOL    HW130038   0.177   5.346   3.357
 9713SOL    HW230039   0.075   5.472   3.375
 9714SOL     OW30040   2.585   1.993   2.511
 9714SOL    HW130041   2.537   2.032   2.432
 9714SOL    HW230042   2.682   1.984   2.489
 9715SOL     OW30043   5.708   5.818   6.074
 9715SOL    HW130044   5.643   5.766   6.018
 9715SOL    HW230045   5.738   5.762   6.151
 9716SOL     OW30046   3.130   0.770   6.212
 9716SOL    HW130047   3.073   0.703   6.166
 9716SOL    HW230048   3.222   0.733   6.224
 9717SOL     OW30049   5.668   5.308   3.292
 9717SOL    HW130050   5.591   5.353   3.336
 9717SOL    HW230051   5.739   5.288   3.360
 9718SOL     OW30052   5.760   2.765   1.845
 9718SOL    HW130053   5.707   2.693   1.889
 9718SOL    HW230054   5.838   2.789   1.902
 9719SOL     OW30055   0.259   1.323   0.271
 9719SOL    HW130056   0.285   1.237   0.226
 9719SOL    HW230057   0.327   1.393   0.248
 9720SOL     OW30058   0.912   0.606   0.739
 9720SOL    HW130059   0.937   0.672   0.811
 9720SOL    HW230060   0.847   0.540   0.776
 9721SOL     OW30061   0.368   2.384   3.567
 9721SOL    HW130062   0.298   2.449   3.536
 9721SOL    HW230063   0.452   2.398   3.515
 9722SOL     OW30064   0.286   0.174   4.846
 9722SOL    HW130065   0.242   0.167   4.756
 9722SOL    HW230066   0.297   0.271   4.870
 9723SOL     OW30067   6.539   0.212   4.088
 9723SOL    HW130068   6.545   0.119   4.122
 9723SOL    HW230069   6.599   0.271   4.142
 9724SOL     OW30070   3.929   2.565   1.584
 9724SOL    HW130071   3.941   2.654   1.628
 9724SOL    HW230072   3.835   2.558   1.550
 9725SOL     OW30073   3.895   2.999   5.912
 9725SOL    HW130074   3.901   3.078   5.973
 9725SOL    HW230075   3.831   2.932   5.951
 9726SOL     OW30076   4.728   5.891   4.699
 9726SOL    HW130077   4.781   5.877   4.615
 9726SOL    HW230078   4.630   5.888   4.677
 9727SOL     OW30079   0.734   0.669   6.833
 9727SOL    HW130080   0.741   0.652   6.931
 9727SOL    HW230081   0.641   0.650   6.802
 9728SOL     OW30082   3.070   6.098   6.276
 9728SOL    HW130083   3.025   6.178   6.317
 9728SOL    HW230084   3.057   6.019   6.335
 9729SOL     OW30085   3.379   5.286   2.646
 9729SOL    HW130086   3.329   5.272   2.561
 9729SOL    HW230087   3.473   5.252   2.636
 9730SOL     OW30088   5.228   3.842   2.664
 9730SOL    HW130089   5.155   3.904   2.695
 9730SOL    HW230090   5.200   3.747   2.677
 9731SOL     OW30091   5.042   4.770   0.723
 9731SOL    HW130092   4.991   4.754   0.808
 9731SOL    HW230093   5.120   4.708   0.719
 9732SOL     OW30094   4.959   6.627   4.918
 9732SOL    HW130095   4.926   6.634   5.012
 9732SOL    HW230096   4.881   6.625   4.856
 9733SOL     OW30097   4.819   4.779   4.254
 9733SOL    HW130098   4.857   4.697   4.297
 9733SOL    HW230099   4.889   4.823   4.197
 9734SOL     OW30100   6.383   2.255   6.065
 9734SOL    HW130101   6.371   2.347   6.029
 9734SOL    HW230102   6.330   2.190   6.011
 9735SOL     OW30103   2.888   5.139   0.881
 9735SOL    HW130104   2.891   5.228   0.835
 9735SOL    HW230105   2.965   5.132   0.945
 9736SOL     OW30106   3.692   1.797   1.503
 9736SOL    HW130107   3.652   1.716   1.461
 9736SOL    HW230108   3.663   1.879   1.452
 9737SOL     OW30109   4.147   1.448   4.616
 9737SOL    HW130110   4.151   1.506   4.698
 9737SOL    HW230111   4.127   1.505   4.536
 9738SOL     OW30112   2.528   0.369   2.150
 9738SOL    HW130113   2.520   0.424   2.067
 9738SOL    HW230114   2.607   0.400   2.203
 9739SOL     OW30115   5.151   4.457   2.467
 9739SOL    HW130116   5.179   4.552   2.483
 9739SOL    HW230117   5.232   4.402   2.444
 9740SOL     OW30118   6.907   2.975   3.026
 9740SOL    HW130119   6.883   2.878   3.026
 9740SOL    HW230120   6.882   3.015   3.114
 9741SOL     OW30121   3.578   1.967   2.375
 9741SOL    HW130122   3.531   1.972   2.463
 9741SOL    HW230123   3.515   1.991   2.301
 9742SOL     OW30124   3.807   1.606   3.449
 9742SOL    HW130125   3.754   1.545   3.509
 9742SOL    HW230126   3.756   1.691   3.436
 9743SOL     OW30127   1.192   1.049   5.572
 9743SOL    HW130128   1.214   0.952   5.570
 9743SOL    HW230129   1.256   1.096   5.633
 9744SOL     OW30130   2.621   0.085   1.261
 9744SOL    HW130131   2.616   0.116   1.166
 9744SOL    HW230132   2.539   0.113   1.310
 9745SOL     OW30133   0.788   0.848   4.843
 9745SOL    HW130134   0.745   0.914   4.905
 9745SOL    HW230135   0.831   0.898   4.767
 9746SOL     OW30136   6.034   6.883   4.539
 9746SOL    HW130137   6.045   6.827   4.457
 9746SOL    HW230138   6.122   6.925   4.562
 9747SOL     OW30139   6.801   0.100   6.125
 9747SOL    HW130140   6.842   0.191   6.128
 9747SOL    HW230141   6.812   0.056   6.214
 9748SOL     OW30142   1.933   4.483   4.985
 9748SOL    HW130143   1.894   4.391   4.991
 9748SOL    HW230144   1.887   4.543   5.050
 9749SOL     OW30145   0.430   5.157   4.893
 9749SOL    HW130146   0.517   5.108   4.895
 9749SOL    HW230147   0.380   5.133   4.809
 9750SOL     OW30148   2.397   5.498   2.519
 9750SOL    HW130149   2.325   5.540   2.574
 9750SOL    HW230150   2.486   5.514   2.563
 9751SOL     OW30151   1.186   2.106   0.667
 9751SOL    HW130152   1.208   2.203   0.682
 9751SOL    HW230153   1.096   2.086   0.704
 9752SOL     OW30154   3.374   6.658   5.793
 9752SOL    HW130155   3.438   6.713   5.739
 9752SOL    HW230156   3.420   6.622   5.874
 9753SOL     OW30157   0.013   0.067   6.964
 9753SOL    HW130158   6.971   0.028   0.014
 9753SOL    HW230159   0.090   0.113   7.009
 9754SOL     OW30160   0.107   3.556   6.673
 9754SOL    HW130161   0.018   3.587   6.640
 9754SOL    HW230162   0.099   3.463   6.708
 9755SOL     OW30163   4.135   5.688   4.976
 9755SOL    HW130164   4.053   5.724   4.931
 9755SOL    HW230165   4.137   5.720   5.071
 9756SOL     OW30166   4.572   3.074   6.380
 9756SOL    HW130167   4.668   3.046   6.377
 9756SOL    HW230168   4.562   3.164   6.337
 9757SOL     OW30169   6.013   0.722   4.065
 9757SOL    HW130170   6.080   0.761   4.002
 9757SOL    HW230171   5.924   0.716   4.021
 9758SOL     OW30172   3.415   0.996   0.187
 9758SOL    HW130173   3.457   0.906   0.175
 9758SOL    HW230174   3.421   1.023   0.283
 9759SOL     OW30175   3.053   6.404   1.952
 9759SOL    HW130176   2.983   6.434   2.017
 9759SOL    HW230177   3.044   6.456   1.867
 9760SOL     OW30178   5.165   4.003   6.480
 9760SOL    HW130179   5.096   4.071   6.502
 9760SOL    HW230180   5.135   3.913   6.512
 9761SOL     OW30181   4.795   5.490   2.738
 9761SOL    HW130182   4.838   5.448   2.658
 9761SOL    HW230183   4.863   5.498   2.812
 9762SOL     OW30184   3.357   0.935   2.212
 9762SOL    HW130185   3.292   0.968   2.144
 9762SOL    HW230186   3.344   0.837   2.226
 9763SOL     OW30187   2.050   1.979   1.689
 9763SOL    HW130188   2.050   2.062   1.743
 9763SOL    HW230189   2.144   1.943   1.683
 9764SOL     OW30190   0.327   2.370   3.991
 9764SOL    HW130191   0.394   2.296   3.980
 9764SOL    HW230192   0.372   2.458   3.971
 9765SOL     OW30193   0.455   0.859   5.827
 9765SOL    HW130194   0.532   0.857   5.891
 9765SOL    HW230195   0.473   0.925   5.754
 9766SOL     OW30196   2.440   0.788   2.059
 9766SOL    HW130197   2.447   0.818   2.154
 9766SOL    HW230198   2.480   0.858   2.000
 9767SOL     OW30199   4.409   0.266   5.198
 9767SOL    HW130200   4.322   0.218   5.185
 9767SOL    HW230201   4.391   0.359   5.229
 9768SOL     OW30202   4.303   2.116   2.968
 9768SOL    HW130203   4.362   2.188   3.005
 9768SOL    HW230204   4.358   2.042   2.931
 9769SOL     OW30205   0.665   2.196   0.588
 9769SOL    HW130206   0.624   2.278   0.548
 9769SOL    HW230207   0.603   2.158   0.657
 9770SOL     OW30208   0.631   3.012   5.370
 9770SOL    HW130209   0.624   2.987   5.273
 9770SOL    HW230210   0.655   3.108   5.378
 9771SOL     OW30211   1.690   6.354   4.044
 9771SOL    HW130212   1.782   6.360   4.006
 9771SOL    HW230213   1.642   6.440   4.029
 9772SOL     OW30214   5.852   6.656   1.536
 9772SOL    HW130215   5.780   6.721   1.509
 9772SOL    HW230216   5.814   6.564   1.535
 9773SOL     OW30217   5.050   5.370   3.757
 9773SOL    HW130218   5.088   5.463   3.759
 9773SOL    HW230219   4.959   5.371   3.799
 9774SOL     OW30220   6.812   5.362   4.412
 9774SOL    HW130221   6.817   5.362   4.512
 9774SOL    HW230222   6.899   5.392   4.374
 9775SOL     OW30223   2.735   1.686   4.778
 9775SOL    HW130224   2.820   1.656   4.735
 9775SOL    HW230225   2.753   1.768   4.833
 9776SOL     OW30226   0.698   4.774   4.408
 9776SOL    HW130227   0.769   4.707   4.385
 9776SOL    HW230228   0.627   4.729   4.461
 9777SOL     OW30229   4.781   5.791   6.049
 9777SOL    HW130230   4.810   5.696   6.044
 9777SOL    HW230231   4.804   5.829   6.138
 9778SOL     OW30232   3.444   0.826   4.953
 9778SOL    HW130233   3.374   0.839   5.024
 9778SOL    HW230234   3.534   0.850   4.990
 9779SOL     OW30235   3.477   2.307   6.592
 9779SOL    HW130236   3.555   2.285   6.651
 9779SOL    HW230237   3.466   2.236   6.523
 9780SOL     OW30238   1.609   3.631   1.285
 9780SOL    HW130239   1.663   3.608   1.366
 9780SOL    HW230240   1.587   3.729   1.287
 9781SOL     OW30241   0.571   6.912   4.135
 9781SOL    HW130242   0.545   6.833   4.078
 9781SOL    HW230243   0.546   6.894   4.230
 9782SOL     OW30244   6.035   0.052   1.227
 9782SOL    HW130245   6.008   0.012   1.140
 9782SOL    HW230246   6.131   0.081   1.222
 9783SOL     OW30247   6.298   6.778   3.527
 9783SOL    HW130248   6.293   6.864   3.476
 9783SOL    HW230249   6.394   6.756   3.546
 9784SOL     OW30250   4.569   0.563   4.730
 9784SOL    HW130251   4.591   0.625   4.655
 9784SOL    HW230252   4.568   0.469   4.695
 9785SOL     OW30253   1.125   1.883   0.924
 9785SOL    HW130254   1.156   1.795   0.887
 9785SOL    HW230255   1.106   1.874   1.022
 9786SOL     OW30256   1.800   0.282   3.514
 9786SOL    HW130257   1.830   0.229   3.594
 9786SOL    HW230258   1.864   0.266   3.438
 9787SOL     OW30259   5.844   4.047   1.381
 9787SOL    HW130260   5.825   4.133   1.429
 9787SOL    HW230261   5.894   4.066   1.296
 9788SOL     OW30262   0.357   6.991   6.620
 9788SOL    HW130263   0.268   6.996   6.666
 9788SOL    HW230264   0.350   6.929   6.542
 9789SOL     OW30265   1.718   4.377   4.549
 9789SOL    HW130266   1.760   4.287   4.565
 9789SOL    HW230267   1.771   4.447   4.598
 9790SOL     OW30268   0.154   0.895   3.828
 9790SOL    HW130269   0.081   0.878   3.762
 9790SOL    HW230270   0.202   0.809   3.847
 9791SOL     OW30271   1.062   2.565   0.939
 9791SOL    HW130272   0.976   2.513   0.942
 9791SOL    HW230273   1.139   2.503   0.951
 9792SOL     OW30274   4.559   5.580   2.026
 9792SOL    HW130275   4.641   5.523   2.029
 9792SOL    HW230276   4.497   5.546   1.955
 9793SOL     OW30277   5.731   6.202   2.302
 9793SOL    HW130278   5.765   6.284   2.257
 9793SOL    HW230279   5.653   6.226   2.360
 9794SOL     OW30280   3.472   4.002   6.818
 9794SOL    HW130281   3.450   3.939   6.892
 9794SOL    HW230282   3.388   4.029   6.770
 9795SOL     OW30283   2.120   4.922   2.942
 9795SOL    HW130284   2.046   4.989   2.936
 9795SOL    HW230285   2.204   4.961   2.906
 9796SOL     OW30286   4.086   4.908   6.324
 9796SOL    HW130287   3.997   4.872   6.298
 9796SOL    HW230288   4.122   4.855   6.401
 9797SOL     OW30289   6.192   3.221   5.254
 9797SOL    HW130290   6.216   3.156   5.326
 9797SOL    HW230291   6.230   3.311   5.276
 9798SOL     OW30292   3.559   1.362   2.187
 9798SOL    HW130293   3.579   1.359   2.285
 9798SOL    HW230294   3.470   1.404   2.172
 9799SOL     OW30295   4.134   3.442   3.308
 9799SOL    HW130296   4.103   3.530   3.344
 9799SOL    HW230297   4.131   3.374   3.381
 9800SOL     OW30298   4.042   6.927   0.467
 9800SOL    HW130299   4.004   6.889   0.551
 9800SOL    HW230300   4.124   6.877   0.441
 9801SOL     OW30301   5.953   4.870   1.268
 9801SOL    HW130302   6.034   4.817   1.242
 9801SOL    HW230303   5.957   4.961   1.226
 9802SOL     OW30304   0.823   5.847   2.338
 9802SOL    HW130305   0.835   5.916   2.410
 9802SOL    HW230306   0.819   5.756   2.379
 9803SOL     OW30307   5.610   0.234   6.345
 9803SOL    HW130308   5.540   0.194   6.404
 9803SOL    HW230309   5.575   0.318   6.304
 9804SOL     OW30310   4.658   5.588   3.931
 9804SOL    HW130311   4.687   5.589   3.835
 9804SOL    HW230312   4.716   5.651   3.983
 9805SOL     OW30313   3.595   4.075   0.927
 9805SOL    HW130314   3.660   4.032   0.989
 9805SOL    HW230315   3.583   4.171   0.952
 9806SOL     OW30316   0.082   1.307   2.344
 9806SOL    HW130317   0.008   1.250   2.310
 9806SOL    HW230318   0.110   1.275   2.435
 9807SOL     OW30319   2.182   3.410   0.927
 9807SOL    HW130320   2.198   3.385   1.022
 9807SOL    HW230321   2.105   3.358   0.891
 9808SOL     OW30322   2.511   2.281   3.036
 9808SOL    HW130323   2.484   2.372   3.068
 9808SOL    HW230324   2.430   2.223   3.030
 9809SOL     OW30325   0.331   7.012   4.465
 9809SOL    HW130326   0.384   0.071   4.433
 9809SOL    HW230327   0.392   6.932   4.474
 9810SOL     OW30328   4.941   1.556   2.833
 9810SOL    HW130329   4.906   1.564   2.740
 9810SOL    HW230330   4.925   1.464   2.867
 9811SOL     OW30331   1.377   0.825   3.351
 9811SOL    HW130332   1.367   0.907   3.295
 9811SOL    HW230333   1.437   0.759   3.305
 9812SOL     OW30334   5.587   2.800   6.444
 9812SOL    HW130335   5.562   2.863   6.369
 9812SOL    HW230336   5.505   2.755   6.479
 9813SOL     OW30337   6.304   4.450   0.566
 9813SOL    HW130338   6.398   4.480   0.547
 9813SOL    HW230339   6.279   4.477   0.658
 9814SOL     OW30340   6.457   1.501   6.057
 9814SOL    HW130341   6.383   1.569   6.059
 9814SOL    HW230342   6.417   1.410   6.050
 9815SOL     OW30343   6.852   5.041   2.255
 9815SOL    HW130344   6.869   4.984   2.335
 9815SOL    HW230345   6.894   5.131   2.268
 9816SOL     OW30346   6.788   2.051   4.986
 9816SOL    HW130347   6.781   2.114   5.063
 9816SOL    HW230348   6.882   2.051   4.951
 9817SOL     OW30349   2.432   1.875   0.449
 9817SOL    HW130350   2.381   1.842   0.528
 9817SOL    HW230351   2.392   1.962   0.418
 9818SOL     OW30352   0.188   6.895   2.666
 9818SOL    HW130353   0.267   6.945   2.630
 9818SOL    HW230354   0.153   6.833   2.596
 9819SOL     OW30355   5.875   1.282   4.958
 9819SOL    HW130356   5.938   1.317   4.888
 9819SOL    HW230357   5.833   1.197   4.925
 9820SOL     OW30358   3.482   0.341   6.407
 9820SOL    HW130359   3.571   0.312   6.440
 9820SOL    HW230360   3.494   0.400   6.327
 9821SOL     OW30361   4.933   4.174   6.530
 9821SOL    HW130362   4.873   4.249   6.558
 9821SOL    HW230363   4.911   4.092   6.582
 9822SOL     OW30364   3.606   6.472   3.708
 9822SOL    HW130365   3.537   6.404   3.731
 9822SOL    HW230366   3.579   6.560   3.747
 9823SOL     OW30367   4.285   5.443   3.373
 9823SOL    HW130368   4.288   5.508   3.449
 9823SOL    HW230369   4.199   5.454   3.324
 9824SOL     OW30370   1.347   6.019   5.642
 9824SOL    HW130371   1.249   6.035   5.644
 9824SOL    HW230372   1.394   6.096   5.685
 9825SOL     OW30373   0.770   6.350   4.448
 9825SOL    HW130374   0.835   6.408   4.496
 9825SOL    HW230375   0.695   6.326   4.510
 9826SOL     OW30376   1.715   5.825   5.842
 9826SOL    HW130377   1.730   5.845   5.745
 9826SOL    HW230378   1.800   5.840   5.892
 9827SOL     OW30379   1.352   4.703   2.128
 9827SOL    HW130380   1.405   4.629   2.086
 9827SOL    HW230381   1.272   4.723   2.071
 9828SOL     OW30382   4.895   2.343   4.125
 9828SOL    HW130383   4.908   2.244   4.113
 9828SOL    HW230384   4.828   2.358   4.198
 9829SOL     OW30385   5.390   3.890   5.469
 9829SOL    HW130386   5.390   3.850   5.378
 9829SOL    HW230387   5.467   3.953   5.479
 9830SOL     OW30388   5.855   1.074   3.260
 9830SOL    HW130389   5.912   1.068   3.178
 9830SOL    HW230390   5.889   1.008   3.328
 9831SOL     OW30391   0.873   5.047   1.497
 9831SOL    HW130392   0.801   5.082   1.437
 9831SOL    HW230393   0.831   5.000   1.575
 9832SOL     OW30394   5.347   5.704   5.155
 9832SOL    HW130395   5.308   5.765   5.223
 9832SOL    HW230396   5.418   5.648   5.197
 9833SOL     OW30397   3.517   2.866   4.277
 9833SOL    HW130398   3.528   2.772   4.246
 9833SOL    HW230399   3.420   2.884   4.296
 9834SOL     OW30400   3.632   5.907   6.522
 9834SOL    HW130401   3.721   5.898   6.477
 9834SOL    HW230402   3.561   5.923   6.453
 9835SOL     OW30403   3.599   3.205   3.584
 9835SOL    HW130404   3.635   3.297   3.566
 9835SOL    HW230405   3.667   3.137   3.555
 9836SOL     OW30406   6.774   2.837   6.242
 9836SOL    HW130407   6.818   2.759   6.197
 9836SOL    HW230408   6.818   2.854   6.330
 9837SOL     OW30409   6.245   0.943   4.494
 9837SOL    HW130410   6.291   0.857   4.514
 9837SOL    HW230411   6.190   0.934   4.411
 9838SOL     OW30412   0.646   5.916   0.719
 9838SOL    HW130413   0.652   6.016   0.721
 9838SOL    HW230414   0.572   5.886   0.779
 9839SOL     OW30415   4.020   6.352   3.983
 9839SOL    HW130416   4.111   6.327   3.949
 9839SOL    HW230417   3.953   6.336   3.911
 9840SOL     OW30418   6.158   2.345   6.487
 9840SOL    HW130419   6.234   2.307   6.435
 9840SOL    HW230420   6.192   2.392   6.568
 9841SOL     OW30421   0.093   5.657   2.005
 9841SOL    HW130422   0.180   5.706   2.009
 9841SOL    HW230423   0.081   5.604   2.089
 9842SOL     OW30424   4.108   0.328   0.179
 9842SOL    HW130425   4.121   0.418   0.137
 9842SOL    HW230426   4.046   0.273   0.124
 9843SOL     OW30427   0.614   0.178   0.642
 9843SOL    HW130428   0.588   0.216   0.553
 9843SOL    HW230429   0.531   0.154   0.693
 9844SOL     OW30430   5.611   1.160   4.769
 9844SOL    HW130431   5.632   1.257   4.756
 9844SOL    HW230432   5.525   1.138   4.724
 9845SOL     OW30433   1.303   3.472   2.462
 9845SOL    HW130434   1.318   3.403   2.391
 9845SOL    HW230435   1.311   3.563   2.422
 9846SOL     OW30436   6.182   2.480   2.907
 9846SOL    HW130437   6.152   2.389   2.933
 9846SOL    HW230438   6.119   2.518   2.839
 9847SOL     OW30439   3.926   4.151   6.878
 9847SOL    HW130440   4.018   4.110   6.877
 9847SOL    HW230441   3.858   4.079   6.889
 9848SOL     OW30442   3.204   3.381   5.616
 9848SOL    HW130443   3.242   3.327   5.541
 9848SOL    HW230444   3.195   3.476   5.587
 9849SOL     OW30445   1.550   1.551   2.126
 9849SOL    HW130446   1.549   1.465   2.176
 9849SOL    HW230447   1.635   1.558   2.073
 9850SOL     OW30448   1.823   0.690   4.042
 9850SOL    HW130449   1.918   0.677   4.070
 9850SOL    HW230450   1.766   0.619   4.083
 9851SOL     OW30451   3.280   5.715   4.071
 9851SOL    HW130452   3.295   5.684   3.977
 9851SOL    HW230453   3.186   5.694   4.098
 9852SOL     OW30454   2.617   0.568   6.842
 9852SOL    HW130455   2.697   0.566   6.902
 9852SOL    HW230456   2.633   0.510   6.762
 9853SOL     OW30457   0.236   4.055   4.269
 9853SOL    HW130458   0.170   4.026   4.338
 9853SOL    HW230459   0.190   4.114   4.202
 9854SOL     OW30460   6.465   3.955   0.055
 9854SOL    HW130461   6.504   3.872   0.093
 9854SOL    HW230462   6.533   4.028   0.056
 9855SOL     OW30463   0.616   6.566   0.591
 9855SOL    HW130464   0.702   6.522   0.565
 9855SOL    HW230465   0.579   6.522   0.673
 9856SOL     OW30466   5.023   4.740   3.170
 9856SOL    HW130467   5.113   4.721   3.210
 9856SOL    HW230468   4.975   4.654   3.154
 9857SOL     OW30469   4.653   6.839   5.485
 9857SOL    HW130470   4.715   6.882   5.551
 9857SOL    HW230471   4.639   6.899   5.407
 9858SOL     OW30472   6.872   5.518   2.814
 9858SOL    HW130473   6.775   5.501   2.798
 9858SOL    HW230474   6.900   5.479   2.901
 9859SOL     OW30475   0.377   6.209   2.940
 9859SOL    HW130476   0.311   6.279   2.913
 9859SOL    HW230477   0.365   6.188   3.038
 9860SOL     OW30478   1.280   3.439   3.394
 9860SOL    HW130479   1.301   3.366   3.328
 9860SOL    HW230480   1.365   3.475   3.432
 9861SOL     OW30481   4.087   2.257   4.360
 9861SOL    HW130482   4.105   2.254   4.261
 9861SOL    HW230483   4.105   2.167   4.399
 9862SOL     OW30484   1.698   2.697   6.880
 9862SOL    HW130485   1.649   2.688   6.793
 9862SOL    HW230486   1.758   2.777   6.876
 9863SOL     OW30487   3.756   5.986   1.835
 9863SOL    HW130488   3.810   5.938   1.904
 9863SOL    HW230489   3.673   6.022   1.876
 9864SOL     OW30490   2.974   6.095   5.258
 9864SOL    HW130491   3.071   6.076   5.245
 9864SOL    HW230492   2.959   6.194   5.255
 9865SOL     OW30493   2.588   4.993   6.154
 9865SOL    HW130494   2.614   4.954   6.066
 9865SOL    HW230495   2.575   4.920   6.221
 9866SOL     OW30496   0.412   5.643   5.700
 9866SOL    HW130497   0.475   5.712   5.665
 9866SOL    HW230498   0.406   5.568   5.634
 9867SOL     OW30499   5.213   1.434   2.533
 9867SOL    HW130500   5.224   1.426   2.434
 9867SOL    HW230501   5.180   1.526   2.555
 9868SOL     OW30502   2.175   4.769   3.198
 9868SOL    HW130503   2.139   4.812   3.115
 9868SOL    HW230504   2.149   4.673   3.199
 9869SOL     OW30505   5.638   1.570   2.642
 9869SOL    HW130506   5.632   1.664   2.608
 9869SOL    HW230507   5.730   1.535   2.629
 9870SOL     OW30508   2.203   2.913   2.819
 9870SOL    HW130509   2.126   2.928   2.881
 9870SOL    HW230510   2.286   2.896   2.873
 9871SOL     OW30511   6.010   5.077   3.179
 9871SOL    HW130512   6.104   5.106   3.196
 9871SOL    HW230513   5.977   5.022   3.256
 9872SOL     OW30514   0.844   6.471   4.852
 9872SOL    HW130515   0.820   6.567   4.865
 9872SOL    HW230516   0.885   6.459   4.761
 9873SOL     OW30517   0.687   0.851   5.257
 9873SOL    HW130518   0.707   0.792   5.336
 9873SOL    HW230519   0.744   0.824   5.180
 9874SOL     OW30520   6.779   1.872   3.860
 9874SOL    HW130521   6.768   1.776   3.834
 9874SOL    HW230522   6.739   1.931   3.790
 9875SOL     OW30523   6.024   5.716   0.889
 9875SOL    HW130524   5.937   5.759   0.917
 9875SOL    HW230525   6.007   5.622   0.861
 9876SOL     OW30526   0.376   0.247   3.107
 9876SOL    HW130527   0.327   0.224   3.023
 9876SOL    HW230528   0.402   0.344   3.105
 9877SOL     OW30529   1.374   5.675   5.134
 9877SOL    HW130530   1.315   5.628   5.200
 9877SOL    HW230531   1.353   5.772   5.133
 9878SOL     OW30532   4.577   4.031   0.609
 9878SOL    HW130533   4.593   3.934   0.591
 9878SOL    HW230534   4.521   4.041   0.691
 9879SOL     OW30535   5.490   5.769   4.272
 9879SOL    HW130536   5.418   5.734   4.212
 9879SOL    HW230537   5.570   5.711   4.266
 9880SOL     OW30538   2.824   1.241   0.929
 9880SOL    HW130539   2.869   1.163   0.885
 9880SOL    HW230540   2.755   1.279   0.867
 9881SOL     OW30541   6.418   0.109   3.061
 9881SOL    HW130542   6.407   0.010   3.060
 9881SOL    HW230543   6.331   0.153   3.040
 9882SOL     OW30544   3.555   4.085   3.884
 9882SOL    HW130545   3.518   4.074   3.792
 9882SOL    HW230546   3.486   4.128   3.942
 9883SOL     OW30547   1.428   5.763   3.196
 9883SOL    HW130548   1.455   5.818   3.118
 9883SOL    HW230549   1.508   5.715   3.233
 9884SOL     OW30550   3.311   2.606   5.322
 9884SOL    HW130551   3.303   2.585   5.420
 9884SOL    HW230552   3.245   2.551   5.271
 9885SOL     OW30553   5.003   2.139   5.152
 9885SOL    HW130554   4.958   2.122   5.064
 9885SOL    HW230555   5.087   2.086   5.158
 9886SOL     OW30556   2.781   6.378   1.602
 9886SOL    HW130557   2.683   6.357   1.615
 9886SOL    HW230558   2.795   6.414   1.510
 9887SOL     OW30559   3.744   1.649   0.349
 9887SOL    HW130560   3.722   1.623   0.443
 9887SOL    HW230561   3.715   1.576   0.287
 9888SOL     OW30562   6.271   6.534   4.253
 9888SOL    HW130563   6.328   6.602   4.300
 9888SOL    HW230564   6.317   6.445   4.255
 9889SOL     OW30565   6.667   6.058   2.099
 9889SOL    HW130566   6.722   6.055   2.016
 9889SOL    HW230567   6.591   5.994   2.092
 9890SOL     OW30568   1.928   3.096   3.265
 9890SOL    HW130569   1.945   3.173   3.326
 9890SOL    HW230570   1.881   3.129   3.182
 9891SOL     OW30571   3.689   0.352   2.003
 9891SOL    HW130572   3.607   0.321   2.050
 9891SOL    HW230573   3.744   0.409   2.065
 9892SOL     OW30574   2.388   5.929   3.070
 9892SOL    HW130575   2.349   6.021   3.069
 9892SOL    HW230576   2.426   5.909   3.160
 9893SOL     OW30577   5.749   4.803   4.406
 9893SOL    HW130578   5.803   4.873   4.453
 9893SOL    HW230579   5.683   4.763   4.469
 9894SOL     OW30580   4.147   3.798   5.577
 9894SOL    HW130581   4.180   3.729   5.512
 9894SOL    HW230582   4.209   3.801   5.656
 9895SOL     OW30583   4.603   2.683   6.003
 9895SOL    HW130584   4.669   2.632   5.948
 9895SOL    HW230585   4.639   2.695   6.095
 9896SOL     OW30586   4.061   3.817   6.914
 9896SOL    HW130587   4.062   3.880   6.992
 9896SOL    HW230588   4.035   3.726   6.945
 9897SOL     OW30589   1.194   1.265   2.832
 9897SOL    HW130590   1.272   1.239   2.890
 9897SOL    HW230591   1.151   1.182   2.796
 9898SOL     OW30592   0.390   5.532   6.962
 9898SOL    HW130593   0.440   5.449   6.941
 9898SOL    HW230594   0.296   5.523   6.930
 9899SOL     OW30595   3.625   5.162   0.891
 9899SOL    HW130596   3.593   5.180   0.798
 9899SOL    HW230597   3.663   5.070   0.895
 9900SOL     OW30598   2.521   5.396   3.293
 9900SOL    HW130599   2.490   5.303   3.311
 9900SOL    HW230600   2.442   5.456   3.280
 9901SOL     OW30601   3.051   1.373   6.081
 9901SOL    HW130602   3.019   1.430   6.006
 9901SOL    HW230603   3.109   1.300   6.045
 9902SOL     OW30604   4.153   4.737   0.133
 9902SOL    HW130605   4.181   4.756   0.227
 9902SOL    HW230606   4.063   4.694   0.133
 9903SOL     OW30607   3.005   1.048   0.818
 9903SOL    HW130608   2.943   1.012   0.748
 9903SOL    HW230609   3.073   1.108   0.775
 9904SOL     OW30610   6.455   5.930   1.928
 9904SOL    HW130611   6.387   5.909   1.998
 9904SOL    HW230612   6.463   5.853   1.864
 9905SOL     OW30613   2.311   6.665   0.206
 9905SOL    HW130614   2.300   6.750   0.155
 9905SOL    HW230615   2.257   6.669   0.290
 9906SOL     OW30616   3.457   3.539   6.565
 9906SOL    HW130617   3.526   3.486   6.615
 9906SOL    HW230618   3.503   3.604   6.504
 9907SOL     OW30619   0.764   0.010   3.204
 9907SOL    HW130620   0.824   6.975   3.262
 9907SOL    HW230621   0.810   0.095   3.178
 9908SOL     OW30622   6.235   2.927   6.066
 9908SOL    HW130623   6.159   2.896   6.123
 9908SOL    HW230624   6.303   2.854   6.058
 9909SOL     OW30625   2.417   6.385   2.895
 9909SOL    HW130626   2.342   6.450   2.908
 9909SOL    HW230627   2.437   6.377   2.797
 9910SOL     OW30628   1.043   5.674   0.688
 9910SOL    HW130629   1.076   5.733   0.615
 9910SOL    HW230630   0.988   5.728   0.752
 9911SOL     OW30631   3.172   4.831   2.074
 9911SOL    HW130632   3.228   4.797   1.998
 9911SOL    HW230633   3.077   4.838   2.045
 9912SOL     OW30634   5.854   6.326   0.473
 9912SOL    HW130635   5.849   6.409   0.529
 9912SOL    HW230636   5.934   6.330   0.414
 9913SOL     OW30637   6.576   1.755   2.443
 9913SOL    HW130638   6.540   1.840   2.407
 9913SOL    HW230639   6.670   1.742   2.412
 9914SOL     OW30640   1.930   5.673   3.730
 9914SOL    HW130641   2.027   5.661   3.754
 9914SOL    HW230642   1.899   5.593   3.677
 9915SOL     OW30643   6.323   5.712   3.760
 9915SOL    HW130644   6.340   5.658   3.843
 9915SOL    HW230645   6.365   5.667   3.681
 9916SOL     OW30646   1.573   3.390   0.816
 9916SOL    HW130647   1.596   3.487   0.802
 9916SOL    HW230648   1.493   3.367   0.761
 9917SOL     OW30649   1.885   3.994   4.365
 9917SOL    HW130650   1.852   3.993   4.271
 9917SOL    HW230651   1.971   3.943   4.371
 9918SOL     OW30652   1.795   2.077   3.836
 9918SOL    HW130653   1.696   2.065   3.841
 9918SOL    HW230654   1.815   2.161   3.785
 9919SOL     OW30655   0.664   5.993   1.385
 9919SOL    HW130656   0.663   6.072   1.445
 9919SOL    HW230657   0.652   6.023   1.290
 9920SOL     OW30658   3.019   0.984   3.058
 9920SOL    HW130659   2.994   0.988   3.155
 9920SOL    HW230660   3.062   0.896   3.038
 9921SOL     OW30661   4.809   0.601   2.229
 9921SOL    HW130662   4.740   0.528   2.234
 9921SOL    HW230663   4.900   0.562   2.245
 9922SOL     OW30664   6.466   3.123   2.316
 9922SOL    HW130665   6.400   3.141   2.243
 9922SOL    HW230666   6.417   3.110   2.403
 9923SOL     OW30667   5.616   6.797   6.502
 9923SOL    HW130668   5.651   6.707   6.526
 9923SOL    HW230669   5.650   6.865   6.567
 9924SOL     OW30670   5.661   0.023   3.592
 9924SOL    HW130671   5.627   0.008   3.499
 9924SOL    HW230672   5.589   7.019   3.658
 9925SOL     OW30673   4.071   2.180   4.908
 9925SOL    HW130674   4.128   2.258   4.933
 9925SOL    HW230675   4.025   2.144   4.989
 9926SOL     OW30676   1.592   1.440   5.905
 9926SOL    HW130677   1.628   1.392   5.826
 9926SOL    HW230678   1.506   1.486   5.880
 9927SOL     OW30679   2.240   4.185   4.168
 9927SOL    HW130680   2.177   4.258   4.142
 9927SOL    HW230681   2.269   4.200   4.263
 9928SOL     OW30682   6.751   3.124   3.219
 9928SOL    HW130683   6.737   3.053   3.288
 9928SOL    HW230684   6.662   3.151   3.181
 9929SOL     OW30685   1.386   5.155   5.346
 9929SOL    HW130686   1.456   5.092   5.380
 9929SOL    HW230687   1.298   5.107   5.341
 9930SOL     OW30688   6.651   6.281   6.654
 9930SOL    HW130689   6.738   6.249   6.615
 9930SOL    HW230690   6.576   6.253   6.595
 9931SOL     OW30691   1.561   4.231   0.076
 9931SOL    HW130692   1.521   4.188   7.015
 9931SOL    HW230693   1.640   4.178   0.107
 9932SOL     OW30694   1.605   1.712   1.291
 9932SOL    HW130695   1.602   1.714   1.191
 9932SOL    HW230696   1.588   1.619   1.323
 9933SOL     OW30697   1.567   2.028   3.668
 9933SOL    HW130698   1.538   2.116   3.707
 9933SOL    HW230699   1.498   1.959   3.687
 9934SOL     OW30700   5.234   0.175   5.787
 9934SOL    HW130701   5.271   0.249   5.731
 9934SOL    HW230702   5.250   0.088   5.742
 9935SOL     OW30703   3.425   3.014   0.197
 9935SOL    HW130704   3.477   2.983   0.117
 9935SOL    HW230705   3.329   2.987   0.186
 9936SOL     OW30706   4.661   5.960   0.343
 9936SOL    HW130707   4.603   6.040   0.362
 9936SOL    HW230708   4.626   5.881   0.392
 9937SOL     OW30709   1.600   0.419   4.832
 9937SOL    HW130710   1.518   0.367   4.856
 9937SOL    HW230711   1.639   0.383   4.747
 9938SOL     OW30712   0.873   1.802   3.341
 9938SOL    HW130713   0.882   1.703   3.351
 9938SOL    HW230714   0.778   1.825   3.319
 9939SOL     OW30715   3.065   3.836   0.909
 9939SOL    HW130716   3.075   3.737   0.903
 9939SOL    HW230717   3.055   3.874   0.817
 9940SOL     OW30718   6.449   1.130   2.689
 9940SOL    HW130719   6.484   1.144   2.781
 9940SOL    HW230720   6.522   1.092   2.631
 9941SOL     OW30721   6.000   3.480   0.464
 9941SOL    HW130722   6.011   3.553   0.396
 9941SOL    HW230723   5.946   3.514   0.541
 9942SOL     OW30724   5.646   4.835   2.729
 9942SOL    HW130725   5.608   4.746   2.753
 9942SOL    HW230726   5.626   4.855   2.633
 9943SOL     OW30727   1.179   4.599   5.371
 9943SOL    HW130728   1.274   4.576   5.349
 9943SOL    HW230729   1.153   4.555   5.457
 9944SOL     OW30730   2.065   5.312   6.770
 9944SOL    HW130731   1.992   5.263   6.818
 9944SOL    HW230732   2.154   5.286   6.808
 9945SOL     OW30733   6.208   3.508   5.711
 9945SOL    HW130734   6.209   3.517   5.612
 9945SOL    HW230735   6.157   3.426   5.737
 9946SOL     OW30736   5.910   1.847   0.739
 9946SOL    HW130737   5.857   1.930   0.720
 9946SOL    HW230738   5.999   1.854   0.692
 9947SOL     OW30739   0.102   0.214   3.264
 9947SOL    HW130740   0.099   0.239   3.361
 9947SOL    HW230741   0.110   0.297   3.209
 9948SOL     OW30742   4.918   1.149   5.464
 9948SOL    HW130743   4.906   1.058   5.424
 9948SOL    HW230744   5.014   1.163   5.488
 9949SOL     OW30745   6.689   3.010   2.502
 9949SOL    HW130746   6.711   3.071   2.426
 9949SOL    HW230747   6.769   3.000   2.561
 9950SOL     OW30748   5.672   3.989   6.584
 9950SOL    HW130749   5.585   4.033   6.608
 9950SOL    HW230750   5.741   4.013   6.652
 9951SOL     OW30751   6.464   2.257   2.593
 9951SOL    HW130752   6.449   2.325   2.521
 9951SOL    HW230753   6.561   2.257   2.619
 9952SOL     OW30754   1.450   4.732   1.226
 9952SOL    HW130755   1.533   4.678   1.241
 9952SOL    HW230756   1.441   4.751   1.128
 9953SOL     OW30757   6.105   4.244   5.074
 9953SOL    HW130758   6.130   4.243   4.977
 9953SOL    HW230759   6.158   4.314   5.121
 9954SOL     OW30760   4.180   2.233   1.760
 9954SOL    HW130761   4.086   2.253   1.787
 9954SOL    HW230762   4.190   2.135   1.744
 9955SOL     OW30763   6.274   5.016   2.187
 9955SOL    HW130764   6.240   5.004   2.281
 9955SOL    HW230765   6.373   5.021   2.188
 9956SOL     OW30766   1.001   4.631   3.568
 9956SOL    HW130767   1.063   4.567   3.522
 9956SOL    HW230768   0.926   4.655   3.505
 9957SOL     OW30769   5.662   6.822   0.779
 9957SOL    HW130770   5.656   6.850   0.683
 9957SOL    HW230771   5.670   6.723   0.785
 9958SOL     OW30772   6.386   6.354   5.737
 9958SOL    HW130773   6.431   6.342   5.825
 9958SOL    HW230774   6.299   6.305   5.738
 9959SOL     OW30775   6.495   5.359   6.887
 9959SOL    HW130776   6.453   5.321   6.970
 9959SOL    HW230777   6.454   5.447   6.867
 9960SOL     OW30778   6.509   0.082   6.297
 9960SOL    HW130779   6.481   0.110   6.205
 9960SOL    HW230780   6.539   0.162   6.349
 9961SOL     OW30781   3.053   6.919   0.343
 9961SOL    HW130782   3.150   6.942   0.348
 9961SOL    HW230783   3.035   6.838   0.398
 9962SOL     OW30784   3.669   0.817   1.504
 9962SOL    HW130785   3.673   0.905   1.458
 9962SOL    HW230786   3.613   0.824   1.587
 9963SOL     OW30787   0.543   0.150   6.692
 9963SOL    HW130788   0.554   0.223   6.624
 9963SOL    HW230789   0.465   0.093   6.667
 9964SOL     OW30790   4.593   5.339   5.096
 9964SOL    HW130791   4.516   5.282   5.123
 9964SOL    HW230792   4.654   5.351   5.175
 9965SOL     OW30793   2.122   5.386   4.674
 9965SOL    HW130794   2.131   5.465   4.612
 9965SOL    HW230795   2.211   5.341   4.684
 9966SOL     OW30796   1.903   4.334   2.001
 9966SOL    HW130797   1.908   4.246   2.049
 9966SOL    HW230798   1.902   4.408   2.067
 9967SOL     OW30799   6.600   0.302   2.683
 9967SOL    HW130800   6.642   0.390   2.659
 9967SOL    HW230801   6.506   0.300   2.651
 9968SOL     OW30802   4.081   6.033   0.533
 9968SOL    HW130803   4.112   6.009   0.441
 9968SOL    HW230804   4.145   5.996   0.601
 9969SOL     OW30805   0.604   6.777   3.123
 9969SOL    HW130806   0.564   6.745   3.209
 9969SOL    HW230807   0.681   6.838   3.143
 9970SOL     OW30808   0.922   3.238   1.592
 9970SOL    HW130809   0.955   3.246   1.498
 9970SOL    HW230810   0.999   3.229   1.654
 9971SOL     OW30811   0.217   5.574   5.860
 9971SOL    HW130812   0.136   5.567   5.802
 9971SOL    HW230813   0.293   5.613   5.807
 9972SOL     OW30814   3.159   4.505   5.679
 9972SOL    HW130815   3.254   4.479   5.693
 9972SOL    HW230816   3.138   4.505   5.582
 9973SOL     OW30817   3.074   2.179   2.604
 9973SOL    HW130818   3.155   2.184   2.545
 9973SOL    HW230819   3.099   2.137   2.691
 9974SOL     OW30820   0.656   3.590   3.238
 9974SOL    HW130821   0.627   3.514   3.179
 9974SOL    HW230822   0.594   3.667   3.225
 9975SOL     OW30823   1.361   4.546   6.796
 9975SOL    HW130824   1.344   4.500   6.709
 9975SOL    HW230825   1.274   4.568   6.840
 9976SOL     OW30826   4.387   5.872   5.038
 9976SOL    HW130827   4.366   5.790   4.984
 9976SOL    HW230828   4.484   5.895   5.027
 9977SOL     OW30829   4.141   0.238   5.809
 9977SOL    HW130830   4.232   0.253   5.770
 9977SOL    HW230831   4.149   0.208   5.904
 9978SOL     OW30832   6.430   3.194   0.148
 9978SOL    HW130833   6.346   3.226   0.191
 9978SOL    HW230834   6.468   3.266   0.090
 9979SOL     OW30835   3.641   4.028   3.552
 9979SOL    HW130836   3.700   4.014   3.631
 9979SOL    HW230837   3.545   4.028   3.581
 9980SOL     OW30838   0.199   6.591   6.552
 9980SOL    HW130839   0.202   6.496   6.583
 9980SOL    HW230840   0.284   6.638   6.578
 9981SOL     OW30841   5.412   0.758   1.034
 9981SOL    HW130842   5.474   0.712   1.097
 9981SOL    HW230843   5.322   0.714   1.040
 9982SOL     OW30844   2.636   2.105   5.045
 9982SOL    HW130845   2.593   2.042   5.110
 9982SOL    HW230846   2.574   2.181   5.027
 9983SOL     OW30847   0.550   2.836   1.908
 9983SOL    HW130848   0.606   2.863   1.987
 9983SOL    HW230849   0.472   2.897   1.900
 9984SOL     OW30850   1.199   4.587   1.353
 9984SOL    HW130851   1.204   4.502   1.300
 9984SOL    HW230852   1.269   4.651   1.322
 9985SOL     OW30853   5.196   4.644   5.779
 9985SOL    HW130854   5.260   4.633   5.704
 9985SOL    HW230855   5.144   4.560   5.792
 9986SOL     OW30856   5.825   4.100   6.810
 9986SOL    HW130857   5.904   4.145   6.768
 9986SOL    HW230858   5.748   4.163   6.814
 9987SOL     OW30859   5.092   1.638   0.483
 9987SOL    HW130860   5.021   1.684   0.430
 9987SOL    HW230861   5.051   1.561   0.532
 9988SOL     OW30862   5.499   6.779   4.058
 9988SOL    HW130863   5.499   6.861   4.001
 9988SOL    HW230864   5.585   6.729   4.044
 9989SOL     OW30865   6.231   5.445   2.045
 9989SOL    HW130866   6.321   5.414   2.013
 9989SOL    HW230867   6.243   5.527   2.102
 9990SOL     OW30868   0.154   5.956   2.987
 9990SOL    HW130869   0.206   5.951   2.902
 9990SOL    HW230870   0.070   6.008   2.972
 9991SOL     OW30871   2.070   3.434   1.780
 9991SOL    HW130872   2.123   3.381   1.714
 9991SOL    HW230873   2.119   3.436   1.868
 9992SOL     OW30874   2.050   4.144   0.545
 9992SOL    HW130875   2.091   4.212   0.606
 9992SOL    HW230876   1.972   4.102   0.589
 9993SOL     OW30877   3.501   6.971   4.386
 9993SOL    HW130878   3.444   6.991   4.466
 9993SOL    HW230879   3.593   7.009   4.401
 9994SOL     OW30880   5.999   4.668   5.379
 9994SOL    HW130881   6.083   4.659   5.325
 9994SOL    HW230882   5.932   4.721   5.329
 9995SOL     OW30883   4.508   2.042   6.325
 9995SOL    HW130884   4.437   2.097   6.368
 9995SOL    HW230885   4.585   2.032   6.388
 9996SOL     OW30886   2.297   4.756   1.282
 9996SOL    HW130887   2.253   4.799   1.360
 9996SOL    HW230888   2.387   4.798   1.268
 9997SOL     OW30889   5.330   0.436   3.003
 9997SOL    HW130890   5.386   0.414   2.923
 9997SOL    HW230891   5.316   0.535   3.007
 9998SOL     OW30892   5.307   3.554   2.329
 9998SOL    HW130893   5.276   3.544   2.235
 9998SOL    HW230894   5.300   3.651   2.356
 9999SOL     OW30895   0.770   0.333   4.787
 9999SOL    HW130896   0.685   0.340   4.735
 9999SOL    HW230897   0.811   0.423   4.796
10000SOL     OW30898   4.582   3.299   1.655
10000SOL    HW130899   4.547   3.227   1.714
10000SOL    HW230900   4.682   3.304   1.665
10001SOL     OW30901   3.974   6.926   1.249
10001SOL    HW130902   3.996   6.829   1.240
10001SOL    HW230903   4.044   6.971   1.304
10002SOL     OW30904   2.227   6.591   2.969
10002SOL    HW130905   2.135   6.563   2.995
10002SOL    HW230906   2.221   6.661   2.897
10003SOL     OW30907   0.309   1.558   2.642
10003SOL    HW130908   0.210   1.564   2.653
10003SOL    HW230909   0.352   1.545   2.732
10004SOL     OW30910   0.014   2.749   3.179
10004SOL    HW130911   0.099   2.799   3.190
10004SOL    HW230912   0.027   2.675   3.114
10005SOL     OW30913   2.883   6.160   2.449
10005SOL    HW130914   2.795   6.137   2.489
10005SOL    HW230915   2.881   6.253   2.412
10006SOL     OW30916   5.560   1.751   6.132
10006SOL    HW130917   5.623   1.770   6.057
10006SOL    HW230918   5.466   1.754   6.098
10007SOL     OW30919   1.731   5.001   3.386
10007SOL    HW130920   1.777   4.969   3.469
10007SOL    HW230921   1.744   5.100   3.376
10008SOL     OW30922   3.924   0.893   6.132
10008SOL    HW130923   3.883   0.977   6.167
10008SOL    HW230924   3.856   0.842   6.079
10009SOL     OW30925   1.262   5.301   2.004
10009SOL    HW130926   1.297   5.289   2.097
10009SOL    HW230927   1.252   5.211   1.961
10010SOL     OW30928   1.965   4.955   0.909
10010SOL    HW130929   2.031   4.937   0.982
10010SOL    HW230930   1.881   4.993   0.949
10011SOL     OW30931   3.160   3.530   7.011
10011SOL    HW130932   3.182   3.595   0.064
10011SOL    HW230933   3.129   3.580   6.930
10012SOL     OW30934   5.927   1.838   2.857
10012SOL    HW130935   5.874   1.760   2.890
10012SOL    HW230936   5.979   1.878   2.932
10013SOL     OW30937   0.158   6.204   5.957
10013SOL    HW130938   0.206   6.147   6.024
10013SOL    HW230939   0.222   6.235   5.888
10014SOL     OW30940   1.116   1.150   3.315
10014SOL    HW130941   1.077   1.228   3.267
10014SOL    HW230942   1.216   1.156   3.314
10015SOL     OW30943   4.267   0.725   6.991
10015SOL    HW130944   4.260   0.716   0.071
10015SOL    HW230945   4.215   0.806   6.961
10016SOL     OW30946   2.801   1.041   4.903
10016SOL    HW130947   2.875   1.028   4.837
10016SOL    HW230948   2.746   1.121   4.876
10017SOL     OW30949   3.340   1.555   3.058
10017SOL    HW130950   3.286   1.632   3.093
10017SOL    HW230951   3.433   1.586   3.038
10018SOL     OW30952   0.310   4.726   5.425
10018SOL    HW130953   0.340   4.800   5.365
10018SOL    HW230954   0.365   4.726   5.508
10019SOL     OW30955   6.794   1.664   2.272
10019SOL    HW130956   6.860   1.663   2.347
10019SOL    HW230957   6.781   1.571   2.238
10020SOL     OW30958   6.510   1.114   2.957
10020SOL    HW130959   6.433   1.126   3.020
10020SOL    HW230960   6.584   1.176   2.982
10021SOL     OW30961   2.259   3.713   1.253
10021SOL    HW130962   2.184   3.665   1.208
10021SOL    HW230963   2.346   3.681   1.215
10022SOL     OW30964   1.077   6.809   6.051
10022SOL    HW130965   1.016   6.863   5.993
10022SOL    HW230966   1.070   6.713   6.026
10023SOL     OW30967   0.936   1.231   5.012
10023SOL    HW130968   0.951   1.200   4.918
10023SOL    HW230969   0.923   1.330   5.013
10024SOL     OW30970   1.952   4.209   3.434
10024SOL    HW130971   1.916   4.156   3.357
10024SOL    HW230972   1.917   4.171   3.519
10025SOL     OW30973   0.604   2.792   1.394
10025SOL    HW130974   0.552   2.877   1.387
10025SOL    HW230975   0.680   2.805   1.459
10026SOL     OW30976   6.556   1.108   4.452
10026SOL    HW130977   6.512   1.126   4.364
10026SOL    HW230978   6.583   1.194   4.494
10027SOL     OW30979   3.387   1.337   5.928
10027SOL    HW130980   3.439   1.420   5.908
10027SOL    HW230981   3.368   1.288   5.843
10028SOL     OW30982   3.718   6.486   2.081
10028SOL    HW130983   3.715   6.582   2.108
10028SOL    HW230984   3.812   6.453   2.087
10029SOL     OW30985   0.055   5.399   4.295
10029SOL    HW130986   0.103   5.453   4.226
10029SOL    HW230987   0.046   5.305   4.262
10030SOL     OW30988   2.822   0.022   4.194
10030SOL    HW130989   2.869   6.955   4.178
10030SOL    HW230990   2.843   0.055   4.286
10031SOL     OW30991   1.662   6.811   3.710
10031SOL    HW130992   1.628   6.741   3.647
10031SOL    HW230993   1.597   6.887   3.713
10032SOL     OW30994   2.709   5.821   4.794
10032SOL    HW130995   2.751   5.755   4.731
10032SOL    HW230996   2.781   5.861   4.852
10033SOL     OW30997   2.146   1.394   4.749
10033SOL    HW130998   2.195   1.327   4.692
10033SOL    HW230999   2.140   1.481   4.700
10034SOL     OW31000   2.498   1.296   1.764
10034SOL    HW131001   2.479   1.370   1.828
10034SOL    HW231002   2.596   1.293   1.745
10035SOL     OW31003   0.505   2.901   2.185
10035SOL    HW131004   0.575   2.910   2.256
10035SOL    HW231005   0.492   2.989   2.139
10036SOL     OW31006   0.421   1.502   0.155
10036SOL    HW131007   0.490   1.547   0.212
10036SOL    HW231008   0.377   1.570   0.096
10037SOL     OW31009   6.224   0.543   6.060
10037SOL    HW131010   6.164   0.549   6.140
10037SOL    HW231011   6.239   0.634   6.022
10038SOL     OW31012   4.758   0.053   6.793
10038SOL    HW131013   4.767   7.002   6.722
10038SOL    HW231014   4.710   0.014   6.872
10039SOL     OW31015   0.131   5.085   1.405
10039SOL    HW131016   0.066   5.158   1.423
10039SOL    HW231017   0.085   4.996   1.415
10040SOL     OW31018   2.910   0.625   0.547
10040SOL    HW131019   2.998   0.652   0.586
10040SOL    HW231020   2.903   0.656   0.452
10041SOL     OW31021   5.926   4.310   5.546
10041SOL    HW131022   5.891   4.329   5.455
10041SOL    HW231023   5.852   4.275   5.603
10042SOL     OW31024   6.291   0.751   5.199
10042SOL    HW131025   6.235   0.733   5.119
10042SOL    HW231026   6.276   0.680   5.268
10043SOL     OW31027   0.655   0.493   2.810
10043SOL    HW131028   0.561   0.483   2.777
10043SOL    HW231029   0.719   0.463   2.738
10044SOL     OW31030   3.269   2.280   6.850
10044SOL    HW131031   3.303   2.309   6.760
10044SOL    HW231032   3.277   2.356   6.915
10045SOL     OW31033   3.818   6.783   4.372
10045SOL    HW131034   3.828   6.686   4.394
10045SOL    HW231035   3.906   6.817   4.337
10046SOL     OW31036   6.641   2.182   1.346
10046SOL    HW131037   6.688   2.178   1.434
10046SOL    HW231038   6.648   2.275   1.309
10047SOL     OW31039   1.006   3.094   2.995
10047SOL    HW131040   0.951   3.087   3.079
10047SOL    HW231041   1.017   3.002   2.956
10048SOL     OW31042   3.294   2.091   1.819
10048SOL    HW131043   3.281   2.177   1.771
10048SOL    HW231044   3.238   2.089   1.902
10049SOL     OW31045   1.093   5.340   4.830
10049SOL    HW131046   1.041   5.366   4.911
10049SOL    HW231047   1.190   5.353   4.847
10050SOL     OW31048   6.138   1.282   5.493
10050SOL    HW131049   6.211   1.337   5.451
10050SOL    HW231050   6.114   1.206   5.432
10051SOL     OW31051   6.122   1.886   0.556
10051SOL    HW131052   6.183   1.810   0.574
10051SOL    HW231053   6.062   1.864   0.479
10052SOL     OW31054   1.851   5.282   1.117
10052SOL    HW131055   1.816   5.197   1.079
10052SOL    HW231056   1.910   5.327   1.049
10053SOL     OW31057   2.754   6.141   3.683
10053SOL    HW131058   2.830   6.174   3.626
10053SOL    HW231059   2.687   6.095   3.625
10054SOL     OW31060   4.743   4.621   3.392
10054SOL    HW131061   4.706   4.528   3.384
10054SOL    HW231062   4.706   4.664   3.474
10055SOL     OW31063   5.094   3.014   6.871
10055SOL    HW131064   4.996   3.023   6.853
10055SOL    HW231065   5.140   2.979   6.790
10056SOL     OW31066   4.928   3.843   3.138
10056SOL    HW131067   4.908   3.817   3.233
10056SOL    HW231068   4.916   3.764   3.079
10057SOL     OW31069   2.355   2.577   2.840
10057SOL    HW131070   2.284   2.642   2.867
10057SOL    HW231071   2.399   2.608   2.756
10058SOL     OW31072   1.223   4.916   4.013
10058SOL    HW131073   1.190   4.834   3.966
10058SOL    HW231074   1.165   4.934   4.092
10059SOL     OW31075   4.622   6.423   1.888
10059SOL    HW131076   4.626   6.523   1.884
10059SOL    HW231077   4.564   6.389   1.814
10060SOL     OW31078   2.317   2.391   2.325
10060SOL    HW131079   2.257   2.355   2.395
10060SOL    HW231080   2.412   2.387   2.356
10061SOL     OW31081   0.079   1.810   5.830
10061SOL    HW131082   7.004   1.842   5.842
10061SOL    HW231083   0.089   1.766   5.741
10062SOL     OW31084   5.178   5.933   2.789
10062SOL    HW131085   5.090   5.886   2.799
10062SOL    HW231086   5.228   5.893   2.712
10063SOL     OW31087   0.635   2.604   2.084
10063SOL    HW131088   0.676   2.532   2.029
10063SOL    HW231089   0.606   2.680   2.025
10064SOL     OW31090   5.098   4.914   5.626
10064SOL    HW131091   5.115   4.855   5.548
10064SOL    HW231092   5.126   4.867   5.710
10065SOL     OW31093   0.097   0.364   2.892
10065SOL    HW131094   0.000   0.339   2.903
10065SOL    HW231095   0.137   0.309   2.820
10066SOL     OW31096   7.017   0.576   4.003
10066SOL    HW131097   6.924   0.585   3.965
10066SOL    HW231098   0.005   0.489   4.052
10067SOL     OW31099   4.738   6.475   3.528
10067SOL    HW131100   4.744   6.483   3.429
10067SOL    HW231101   4.702   6.560   3.566
10068SOL     OW31102   5.338   3.232   5.377
10068SOL    HW131103   5.430   3.225   5.337
10068SOL    HW231104   5.345   3.247   5.475
10069SOL     OW31105   4.722   1.602   4.178
10069SOL    HW131106   4.707   1.515   4.131
10069SOL    HW231107   4.704   1.590   4.276
10070SOL     OW31108   1.334   0.224   4.338
10070SOL    HW131109   1.268   0.292   4.306
10070SOL    HW231110   1.377   0.256   4.423
10071SOL     OW31111   5.206   4.617   5.027
10071SOL    HW131112   5.237   4.552   5.096
10071SOL    HW231113   5.227   4.580   4.936
10072SOL     OW31114   1.067   6.472   3.945
10072SOL    HW131115   1.035   6.559   3.981
10072SOL    HW231116   1.155   6.448   3.988
10073SOL     OW31117   6.726   6.009   6.168
10073SOL    HW131118   6.653   5.978   6.108
10073SOL    HW231119   6.692   6.083   6.226
10074SOL     OW31120   2.140   0.115   4.703
10074SOL    HW131121   2.151   0.048   4.631
10074SOL    HW231122   2.054   0.099   4.752
10075SOL     OW31123   1.070   2.843   4.532
10075SOL    HW131124   1.099   2.754   4.496
10075SOL    HW231125   1.135   2.871   4.603
10076SOL     OW31126   5.944   6.927   3.653
10076SOL    HW131127   6.007   7.003   3.666
10076SOL    HW231128   5.913   6.925   3.558
10077SOL     OW31129   2.776   1.544   5.587
10077SOL    HW131130   2.810   1.630   5.625
10077SOL    HW231131   2.678   1.537   5.602
10078SOL     OW31132   5.318   6.309   5.330
10078SOL    HW131133   5.302   6.394   5.281
10078SOL    HW231134   5.404   6.316   5.381
10079SOL     OW31135   0.699   2.695   6.045
10079SOL    HW131136   0.661   2.722   5.956
10079SOL    HW231137   0.730   2.776   6.094
10080SOL     OW31138   1.258   2.736   5.448
10080SOL    HW131139   1.246   2.640   5.425
10080SOL    HW231140   1.264   2.790   5.364
10081SOL     OW31141   0.603   1.057   0.437
10081SOL    HW131142   0.655   0.978   0.405
10081SOL    HW231143   0.506   1.034   0.444
10082SOL     OW31144   6.513   0.614   0.569
10082SOL    HW131145   6.521   0.588   0.473
10082SOL    HW231146   6.496   0.532   0.625
10083SOL     OW31147   5.204   1.321   4.394
10083SOL    HW131148   5.292   1.288   4.360
10083SOL    HW231149   5.153   1.245   4.434
10084SOL     OW31150   2.563   0.514   6.174
10084SOL    HW131151   2.491   0.465   6.222
10084SOL    HW231152   2.646   0.458   6.171
10085SOL     OW31153   1.328   4.924   2.736
10085SOL    HW131154   1.304   5.021   2.735
10085SOL    HW231155   1.422   4.914   2.767
10086SOL     OW31156   6.785   2.835   2.319
10086SOL    HW131157   6.722   2.894   2.369
10086SOL    HW231158   6.738   2.791   2.243
10087SOL     OW31159   2.110   0.693   3.480
10087SOL    HW131160   2.137   0.757   3.408
10087SOL    HW231161   2.013   0.705   3.501
10088SOL     OW31162   5.694   0.302   4.662
10088SOL    HW131163   5.646   0.230   4.612
10088SOL    HW231164   5.786   0.270   4.686
10089SOL     OW31165   2.266   2.548   2.072
10089SOL    HW131166   2.293   2.538   2.168
10089SOL    HW231167   2.166   2.544   2.065
10090SOL     OW31168   0.957   5.421   2.155
10090SOL    HW131169   0.859   5.416   2.134
10090SOL    HW231170   1.009   5.385   2.078
10091SOL     OW31171   0.611   1.736   4.297
10091SOL    HW131172   0.592   1.638   4.304
10091SOL    HW231173   0.670   1.753   4.218
10092SOL     OW31174   1.916   2.786   5.814
10092SOL    HW131175   1.901   2.721   5.739
10092SOL    HW231176   1.978   2.746   5.881
10093SOL     OW31177   6.810   6.466   6.104
10093SOL    HW131178   6.804   6.483   6.202
10093SOL    HW231179   6.722   6.488   6.061
10094SOL     OW31180   1.469   0.345   1.759
10094SOL    HW131181   1.386   0.367   1.811
10094SOL    HW231182   1.510   0.429   1.725
10095SOL     OW31183   0.264   2.204   5.154
10095SOL    HW131184   0.262   2.187   5.055
10095SOL    HW231185   0.264   2.302   5.171
10096SOL     OW31186   6.636   5.600   2.540
10096SOL    HW131187   6.708   5.669   2.531
10096SOL    HW231188   6.554   5.631   2.493
10097SOL     OW31189   1.230   2.726   5.907
10097SOL    HW131190   1.231   2.730   6.007
10097SOL    HW231191   1.136   2.729   5.874
10098SOL     OW31192   3.680   5.329   6.500
10098SOL    HW131193   3.613   5.274   6.449
10098SOL    HW231194   3.706   5.408   6.445
10099SOL     OW31195   0.470   4.186   4.307
10099SOL    HW131196   0.469   4.249   4.229
10099SOL    HW231197   0.390   4.126   4.302
10100SOL     OW31198   4.978   0.325   5.913
10100SOL    HW131199   5.059   0.310   5.856
10100SOL    HW231200   4.998   0.294   6.006
10101SOL     OW31201   6.877   4.144   2.474
10101SOL    HW131202   6.915   4.123   2.564
10101SOL    HW231203   6.843   4.238   2.473
10102SOL     OW31204   3.945   0.830   4.037
10102SOL    HW131205   3.937   0.882   4.122
10102SOL    HW231206   3.871   0.763   4.032
10103SOL     OW31207   0.809   2.727   0.471
10103SOL    HW131208   0.726   2.736   0.526
10103SOL    HW231209   0.825   2.630   0.452
10104SOL     OW31210   2.150   5.759   5.705
10104SOL    HW131211   2.068   5.721   5.748
10104SOL    HW231212   2.138   5.762   5.606
10105SOL     OW31213   3.160   0.509   0.031
10105SOL    HW131214   3.167   0.602   7.015
10105SOL    HW231215   3.239   0.490   0.090
10106SOL     OW31216   4.456   5.524   1.216
10106SOL    HW131217   4.417   5.472   1.292
10106SOL    HW231218   4.556   5.523   1.221
10107SOL     OW31219   5.637   1.165   6.058
10107SOL    HW131220   5.655   1.113   5.974
10107SOL    HW231221   5.552   1.134   6.100
10108SOL     OW31222   5.003   5.979   6.105
10108SOL    HW131223   5.088   5.948   6.063
10108SOL    HW231224   4.943   6.016   6.034
10109SOL     OW31225   4.804   5.751   3.186
10109SOL    HW131226   4.786   5.844   3.218
10109SOL    HW231227   4.892   5.720   3.223
10110SOL     OW31228   3.414   1.890   5.811
10110SOL    HW131229   3.512   1.880   5.793
10110SOL    HW231230   3.399   1.969   5.871
10111SOL     OW31231   6.624   2.451   1.269
10111SOL    HW131232   6.647   2.539   1.311
10111SOL    HW231233   6.668   2.445   1.180
10112SOL     OW31234   4.622   3.612   6.036
10112SOL    HW131235   4.552   3.540   6.033
10112SOL    HW231236   4.655   3.630   5.943
10113SOL     OW31237   3.454   6.781   0.895
10113SOL    HW131238   3.460   6.856   0.962
10113SOL    HW231239   3.544   6.764   0.856
10114SOL     OW31240   4.852   1.477   1.904
10114SOL    HW131241   4.933   1.535   1.897
10114SOL    HW231242   4.804   1.495   1.990
10115SOL     OW31243   1.059   1.793   4.846
10115SOL    HW131244   1.108   1.732   4.908
10115SOL    HW231245   1.020   1.739   4.771
10116SOL     OW31246   0.401   0.465   0.880
10116SOL    HW131247   0.378   0.375   0.916
10116SOL    HW231248   0.405   0.531   0.955
10117SOL     OW31249   4.560   6.948   6.004
10117SOL    HW131250   4.645   7.002   6.003
10117SOL    HW231251   4.499   6.983   6.075
10118SOL     OW31252   5.824   5.293   2.513
10118SOL    HW131253   5.837   5.225   2.441
10118SOL    HW231254   5.760   5.258   2.581
10119SOL     OW31255   2.011   0.112   6.116
10119SOL    HW131256   1.918   0.108   6.078
10119SOL    HW231257   2.007   0.092   6.214
10120SOL     OW31258   5.663   3.660   3.605
10120SOL    HW131259   5.620   3.677   3.516
10120SOL    HW231260   5.762   3.650   3.593
10121SOL     OW31261   5.837   4.550   3.835
10121SOL    HW131262   5.867   4.455   3.840
10121SOL    HW231263   5.867   4.598   3.918
10122SOL     OW31264   5.286   2.765   0.982
10122SOL    HW131265   5.188   2.749   0.988
10122SOL    HW231266   5.333   2.678   0.968
10123SOL     OW31267   0.359   6.776   6.862
10123SOL    HW131268   0.273   6.821   6.840
10123SOL    HW231269   0.420   6.781   6.783
10124SOL     OW31270   3.241   4.063   0.632
10124SOL    HW131271   3.269   4.008   0.711
10124SOL    HW231272   3.151   4.034   0.601
10125SOL     OW31273   2.315   0.402   0.230
10125SOL    HW131274   2.235   0.461   0.238
10125SOL    HW231275   2.363   0.421   0.145
10126SOL     OW31276   5.791   5.410   5.972
10126SOL    HW131277   5.819   5.505   5.985
10126SOL    HW231278   5.852   5.366   5.906
10127SOL     OW31279   4.015   4.819   5.067
10127SOL    HW131280   3.978   4.777   5.149
10127SOL    HW231281   3.974   4.909   5.054
10128SOL     OW31282   1.153   1.286   1.355
10128SOL    HW131283   1.241   1.273   1.309
10128SOL    HW231284   1.165   1.282   1.454
10129SOL     OW31285   5.577   2.596   2.870
10129SOL    HW131286   5.637   2.519   2.893
10129SOL    HW231287   5.578   2.611   2.771
10130SOL     OW31288   5.952   5.865   1.279
10130SOL    HW131289   5.937   5.771   1.248
10130SOL    HW231290   6.008   5.913   1.212
10131SOL     OW31291   0.313   0.294   0.330
10131SOL    HW131292   0.408   0.299   0.362
10131SOL    HW231293   0.253   0.274   0.406
10132SOL     OW31294   2.404   6.735   2.624
10132SOL    HW131295   2.351   6.667   2.573
10132SOL    HW231296   2.435   6.806   2.562
10133SOL     OW31297   6.355   4.404   2.869
10133SOL    HW131298   6.325   4.498   2.851
10133SOL    HW231299   6.275   4.346   2.886
10134SOL     OW31300   0.289   1.474   1.493
10134SOL    HW131301   0.325   1.421   1.570
10134SOL    HW231302   0.191   1.457   1.483
10135SOL     OW31303   3.102   6.192   2.970
10135SOL    HW131304   3.063   6.142   3.048
10135SOL    HW231305   3.028   6.230   2.914
10136SOL     OW31306   6.300   6.540   2.583
10136SOL    HW131307   6.221   6.484   2.560
10136SOL    HW231308   6.319   6.602   2.506
10137SOL     OW31309   5.479   5.099   4.246
10137SOL    HW131310   5.439   5.173   4.298
10137SOL    HW231311   5.474   5.014   4.298
10138SOL     OW31312   6.215   3.068   5.788
10138SOL    HW131313   6.232   3.015   5.871
10138SOL    HW231314   6.131   3.034   5.744
10139SOL     OW31315   3.930   3.305   3.482
10139SOL    HW131316   3.847   3.358   3.495
10139SOL    HW231317   3.939   3.280   3.385
10140SOL     OW31318   1.059   4.787   4.444
10140SOL    HW131319   1.028   4.871   4.399
10140SOL    HW231320   1.040   4.793   4.542
10141SOL     OW31321   2.282   0.681   3.701
10141SOL    HW131322   2.320   0.772   3.715
10141SOL    HW231323   2.206   0.686   3.635
10142SOL     OW31324   5.146   5.754   4.546
10142SOL    HW131325   5.151   5.751   4.447
10142SOL    HW231326   5.061   5.799   4.574
10143SOL     OW31327   4.501   6.292   1.283
10143SOL    HW131328   4.506   6.383   1.241
10143SOL    HW231329   4.532   6.224   1.217
10144SOL     OW31330   2.947   4.804   2.748
10144SOL    HW131331   3.040   4.774   2.727
10144SOL    HW231332   2.883   4.754   2.690
10145SOL     OW31333   2.788   0.358   6.175
10145SOL    HW131334   2.739   0.272   6.157
10145SOL    HW231335   2.875   0.338   6.221
10146SOL     OW31336   4.690   5.015   4.229
10146SOL    HW131337   4.632   5.031   4.149
10146SOL    HW231338   4.723   4.921   4.228
10147SOL     OW31339   4.982   6.017   4.314
10147SOL    HW131340   5.035   6.102   4.315
10147SOL    HW231341   4.885   6.038   4.330
10148SOL     OW31342   6.312   5.682   0.940
10148SOL    HW131343   6.223   5.715   0.909
10148SOL    HW231344   6.302   5.637   1.029
10149SOL     OW31345   4.014   2.837   1.571
10149SOL    HW131346   4.037   2.860   1.477
10149SOL    HW231347   3.951   2.906   1.608
10150SOL     OW31348   5.647   4.417   0.640
10150SOL    HW131349   5.741   4.401   0.669
10150SOL    HW231350   5.588   4.346   0.678
10151SOL     OW31351   0.525   5.307   6.010
10151SOL    HW131352   0.463   5.259   6.073
10151SOL    HW231353   0.615   5.263   6.012
10152SOL     OW31354   0.705   5.724   4.251
10152SOL    HW131355   0.787   5.781   4.248
10152SOL    HW231356   0.720   5.642   4.196
10153SOL     OW31357   5.234   5.206   3.888
10153SOL    HW131358   5.156   5.241   3.837
10153SOL    HW231359   5.263   5.273   3.956
10154SOL     OW31360   6.564   6.016   5.711
10154SOL    HW131361   6.494   5.954   5.747
10154SOL    HW231362   6.555   6.104   5.756
10155SOL     OW31363   3.672   1.306   5.977
10155SOL    HW131364   3.597   1.259   5.930
10155SOL    HW231365   3.719   1.366   5.912
10156SOL     OW31366   5.522   0.095   2.454
10156SOL    HW131367   5.571   0.107   2.541
10156SOL    HW231368   5.583   0.117   2.378
10157SOL     OW31369   5.193   0.572   3.724
10157SOL    HW131370   5.288   0.564   3.695
10157SOL    HW231371   5.169   0.496   3.784
10158SOL     OW31372   4.632   3.271   5.920
10158SOL    HW131373   4.630   3.176   5.951
10158SOL    HW231374   4.578   3.327   5.982
10159SOL     OW31375   1.504   1.014   6.239
10159SOL    HW131376   1.532   1.078   6.167
10159SOL    HW231377   1.559   0.931   6.233
10160SOL     OW31378   0.586   6.040   3.833
10160SOL    HW131379   0.566   6.127   3.789
10160SOL    HW231380   0.630   6.057   3.921
10161SOL     OW31381   2.920   5.952   4.919
10161SOL    HW131382   3.004   5.899   4.916
10161SOL    HW231383   2.890   5.962   5.014
10162SOL     OW31384   3.172   2.900   6.282
10162SOL    HW131385   3.216   2.812   6.300
10162SOL    HW231386   3.234   2.959   6.231
10163SOL     OW31387   0.763   3.448   5.620
10163SOL    HW131388   0.695   3.521   5.613
10163SOL    HW231389   0.765   3.412   5.714
10164SOL     OW31390   1.641   2.568   6.189
10164SOL    HW131391   1.543   2.549   6.185
10164SOL    HW231392   1.658   2.643   6.253
10165SOL     OW31393   0.012   2.141   3.123
10165SOL    HW131394   0.030   2.173   3.216
10165SOL    HW231395   0.097   2.111   3.081
10166SOL     OW31396   0.604   1.029   2.485
10166SOL    HW131397   0.616   1.098   2.556
10166SOL    HW231398   0.508   1.004   2.478
10167SOL     OW31399   5.058   0.692   0.690
10167SOL    HW131400   5.025   0.729   0.777
10167SOL    HW231401   5.088   0.768   0.632
10168SOL     OW31402   6.737   4.701   4.861
10168SOL    HW131403   6.702   4.795   4.858
10168SOL    HW231404   6.669   4.642   4.905
10169SOL     OW31405   6.622   4.117   5.025
10169SOL    HW131406   6.593   4.199   4.975
10169SOL    HW231407   6.675   4.143   5.105
10170SOL     OW31408   1.556   4.505   5.034
10170SOL    HW131409   1.486   4.559   4.988
10170SOL    HW231410   1.605   4.449   4.966
10171SOL     OW31411   5.958   2.647   6.372
10171SOL    HW131412   5.907   2.562   6.356
10171SOL    HW231413   5.908   2.724   6.332
10172SOL     OW31414   4.774   0.661   4.531
10172SOL    HW131415   4.812   0.614   4.610
10172SOL    HW231416   4.836   0.734   4.502
10173SOL     OW31417   1.821   2.669   2.788
10173SOL    HW131418   1.820   2.655   2.887
10173SOL    HW231419   1.800   2.765   2.768
10174SOL     OW31420   6.596   4.243   1.329
10174SOL    HW131421   6.508   4.264   1.371
10174SOL    HW231422   6.582   4.203   1.239
10175SOL     OW31423   5.646   2.480   5.738
10175SOL    HW131424   5.694   2.392   5.744
10175SOL    HW231425   5.640   2.507   5.642
10176SOL     OW31426   2.545   3.265   0.700
10176SOL    HW131427   2.530   3.363   0.701
10176SOL    HW231428   2.489   3.222   0.771
10177SOL     OW31429   1.655   0.312   5.175
10177SOL    HW131430   1.717   0.265   5.237
10177SOL    HW231431   1.702   0.332   5.089
10178SOL     OW31432   5.581   2.970   4.988
10178SOL    HW131433   5.511   2.982   5.058
10178SOL    HW231434   5.538   2.975   4.897
10179SOL     OW31435   0.011   3.030   0.073
10179SOL    HW131436   6.963   3.104   0.072
10179SOL    HW231437   6.996   2.953   0.018
10180SOL     OW31438   1.965   6.759   5.940
10180SOL    HW131439   1.868   6.754   5.962
10180SOL    HW231440   2.013   6.812   6.010
10181SOL     OW31441   6.175   3.424   2.310
10181SOL    HW131442   6.118   3.427   2.392
10181SOL    HW231443   6.272   3.430   2.337
10182SOL     OW31444   4.206   1.661   0.763
10182SOL    HW131445   4.118   1.700   0.737
10182SOL    HW231446   4.269   1.666   0.686
10183SOL     OW31447   1.837   1.523   5.984
10183SOL    HW131448   1.888   1.560   5.907
10183SOL    HW231449   1.752   1.481   5.952
10184SOL     OW31450   4.829   0.569   6.868
10184SOL    HW131451   4.759   0.636   6.843
10184SOL    HW231452   4.792   0.476   6.858
10185SOL     OW31453   4.501   0.874   0.284
10185SOL    HW131454   4.405   0.894   0.266
10185SOL    HW231455   4.526   0.788   0.239
10186SOL     OW31456   4.710   2.184   2.829
10186SOL    HW131457   4.669   2.232   2.752
10186SOL    HW231458   4.665   2.095   2.839
10187SOL     OW31459   0.784   2.324   2.412
10187SOL    HW131460   0.705   2.384   2.415
10187SOL    HW231461   0.852   2.355   2.478
10188SOL     OW31462   4.135   5.406   0.621
10188SOL    HW131463   4.045   5.406   0.664
10188SOL    HW231464   4.138   5.475   0.549
10189SOL     OW31465   1.144   6.789   4.974
10189SOL    HW131466   1.171   6.770   5.068
10189SOL    HW231467   1.164   6.710   4.917
10190SOL     OW31468   5.711   2.984   6.938
10190SOL    HW131469   5.729   3.082   6.947
10190SOL    HW231470   5.718   2.958   6.841
10191SOL     OW31471   6.842   4.528   6.548
10191SOL    HW131472   6.938   4.556   6.559
10191SOL    HW231473   6.782   4.606   6.562
10192SOL     OW31474   3.645   1.681   0.016
10192SOL    HW131475   3.574   1.666   0.084
10192SOL    HW231476   3.722   1.619   0.034
10193SOL     OW31477   4.806   4.199   0.657
10193SOL    HW131478   4.774   4.200   0.752
10193SOL    HW231479   4.736   4.156   0.599
10194SOL     OW31480   4.946   2.735   4.900
10194SOL    HW131481   4.915   2.640   4.910
10194SOL    HW231482   5.017   2.754   4.967
10195SOL     OW31483   5.665   4.323   2.377
10195SOL    HW131484   5.632   4.313   2.470
10195SOL    HW231485   5.765   4.315   2.376
10196SOL     OW31486   0.394   1.819   4.489
10196SOL    HW131487   0.457   1.777   4.424
10196SOL    HW231488   0.332   1.880   4.440
10197SOL     OW31489   5.580   0.320   6.969
10197SOL    HW131490   5.669   0.365   6.959
10197SOL    HW231491   5.514   0.386   7.006
10198SOL     OW31492   4.093   7.005   3.008
10198SOL    HW131493   4.034   6.974   3.083
10198SOL    HW231494   4.078   6.948   2.928
10199SOL     OW31495   0.675   2.327   5.700
10199SOL    HW131496   0.632   2.409   5.662
10199SOL    HW231497   0.688   2.339   5.799
10200SOL     OW31498   5.418   2.258   2.030
10200SOL    HW131499   5.478   2.186   1.996
10200SOL    HW231500   5.368   2.299   1.954
10201SOL     OW31501   1.980   3.669   0.630
10201SOL    HW131502   1.988   3.575   0.598
10201SOL    HW231503   2.071   3.710   0.638
10202SOL     OW31504   5.459   0.484   3.634
10202SOL    HW131505   5.459   0.455   3.538
10202SOL    HW231506   5.539   0.542   3.651
10203SOL     OW31507   0.187   2.791   5.457
10203SOL    HW131508   0.141   2.703   5.450
10203SOL    HW231509   0.188   2.821   5.553
10204SOL     OW31510   5.084   4.373   6.427
10204SOL    HW131511   5.025   4.304   6.468
10204SOL    HW231512   5.037   4.415   6.349
10205SOL     OW31513   0.434   1.248   6.508
10205SOL    HW131514   0.502   1.230   6.436
10205SOL    HW231515   0.411   1.345   6.508
10206SOL     OW31516   1.790   1.993   4.485
10206SOL    HW131517   1.753   1.936   4.412
10206SOL    HW231518   1.796   2.088   4.454
10207SOL     OW31519   2.376   2.520   5.892
10207SOL    HW131520   2.317   2.527   5.812
10207SOL    HW231521   2.471   2.505   5.863
10208SOL     OW31522   6.649   0.156   5.870
10208SOL    HW131523   6.603   0.078   5.827
10208SOL    HW231524   6.742   0.131   5.894
10209SOL     OW31525   6.693   6.563   5.256
10209SOL    HW131526   6.752   6.536   5.333
10209SOL    HW231527   6.678   6.661   5.259
10210SOL     OW31528   3.710   0.821   1.943
10210SOL    HW131529   3.715   0.801   2.040
10210SOL    HW231530   3.802   0.834   1.906
10211SOL     OW31531   5.063   5.270   6.153
10211SOL    HW131532   5.052   5.220   6.239
10211SOL    HW231533   5.084   5.366   6.173
10212SOL     OW31534   0.463   0.559   6.922
10212SOL    HW131535   0.376   0.608   6.919
10212SOL    HW231536   0.488   0.542   7.017
10213SOL     OW31537   6.747   2.995   1.473
10213SOL    HW131538   6.808   3.074   1.463
10213SOL    HW231539   6.750   2.962   1.567
10214SOL     OW31540   1.225   2.659   0.321
10214SOL    HW131541   1.246   2.586   0.257
10214SOL    HW231542   1.310   2.698   0.357
10215SOL     OW31543   3.486   3.830   2.236
10215SOL    HW131544   3.553   3.756   2.249
10215SOL    HW231545   3.427   3.835   2.316
10216SOL     OW31546   0.010   6.591   1.691
10216SOL    HW131547   0.104   6.623   1.703
10216SOL    HW231548   6.972   6.628   1.764
10217SOL     OW31549   4.143   1.711   4.812
10217SOL    HW131550   4.075   1.770   4.855
10217SOL    HW231551   4.228   1.762   4.799
10218SOL     OW31552   1.098   2.859   2.883
10218SOL    HW131553   1.174   2.880   2.943
10218SOL    HW231554   1.059   2.770   2.907
10219SOL     OW31555   6.417   6.120   2.877
10219SOL    HW131556   6.329   6.145   2.918
10219SOL    HW231557   6.448   6.193   2.817
10220SOL     OW31558   3.444   3.582   6.930
10220SOL    HW131559   3.359   3.531   6.941
10220SOL    HW231560   3.431   3.676   6.963
10221SOL     OW31561   1.315   5.373   2.919
10221SOL    HW131562   1.230   5.322   2.925
10221SOL    HW231563   1.369   5.339   2.841
10222SOL     OW31564   2.999   3.792   3.679
10222SOL    HW131565   3.012   3.749   3.589
10222SOL    HW231566   2.970   3.723   3.745
10223SOL     OW31567   2.419   6.871   0.721
10223SOL    HW131568   2.372   6.795   0.766
10223SOL    HW231569   2.437   6.944   0.788
10224SOL     OW31570   0.150   3.090   2.998
10224SOL    HW131571   0.204   3.033   3.060
10224SOL    HW231572   0.069   3.039   2.968
10225SOL     OW31573   1.856   3.827   6.024
10225SOL    HW131574   1.886   3.887   5.950
10225SOL    HW231575   1.933   3.810   6.086
10226SOL     OW31576   4.349   4.365   6.994
10226SOL    HW131577   4.328   4.395   6.901
10226SOL    HW231578   4.386   4.442   0.026
10227SOL     OW31579   5.207   4.049   1.057
10227SOL    HW131580   5.231   4.137   1.017
10227SOL    HW231581   5.205   4.057   1.157
10228SOL     OW31582   5.493   0.611   0.284
10228SOL    HW131583   5.395   0.627   0.294
10228SOL    HW231584   5.518   0.529   0.336
10229SOL     OW31585   0.424   2.001   4.717
10229SOL    HW131586   0.398   1.963   4.629
10229SOL    HW231587   0.453   1.926   4.778
10230SOL     OW31588   6.544   6.042   1.599
10230SOL    HW131589   6.560   6.092   1.684
10230SOL    HW231590   6.581   5.949   1.608
10231SOL     OW31591   0.701   4.149   2.293
10231SOL    HW131592   0.765   4.190   2.357
10231SOL    HW231593   0.620   4.208   2.284
10232SOL     OW31594   4.746   4.832   2.248
10232SOL    HW131595   4.841   4.802   2.255
10232SOL    HW231596   4.690   4.781   2.313
10233SOL     OW31597   3.229   3.736   5.932
10233SOL    HW131598   3.205   3.647   5.894
10233SOL    HW231599   3.290   3.784   5.869
10234SOL     OW31600   0.611   0.770   2.198
10234SOL    HW131601   0.529   0.818   2.169
10234SOL    HW231602   0.595   0.723   2.285
10235SOL     OW31603   1.212   0.981   2.989
10235SOL    HW131604   1.265   1.013   3.067
10235SOL    HW231605   1.201   0.882   2.994
10236SOL     OW31606   0.857   0.729   2.899
10236SOL    HW131607   0.825   0.638   2.926
10236SOL    HW231608   0.829   0.748   2.805
10237SOL     OW31609   6.823   3.941   5.556
10237SOL    HW131610   6.889   4.007   5.523
10237SOL    HW231611   6.735   3.956   5.512
10238SOL     OW31612   2.857   6.849   1.283
10238SOL    HW131613   2.852   6.942   1.246
10238SOL    HW231614   2.809   6.845   1.371
10239SOL     OW31615   0.971   2.418   5.060
10239SOL    HW131616   0.939   2.366   5.140
10239SOL    HW231617   1.019   2.356   4.998
10240SOL     OW31618   1.804   6.148   1.426
10240SOL    HW131619   1.753   6.130   1.342
10240SOL    HW231620   1.744   6.196   1.491
10241SOL     OW31621   4.268   3.644   1.818
10241SOL    HW131622   4.324   3.723   1.792
10241SOL    HW231623   4.236   3.656   1.912
10242SOL     OW31624   0.426   3.678   1.496
10242SOL    HW131625   0.438   3.635   1.406
10242SOL    HW231626   0.379   3.765   1.484
10243SOL     OW31627   3.506   5.403   2.059
10243SOL    HW131628   3.569   5.328   2.077
10243SOL    HW231629   3.491   5.412   1.960
10244SOL     OW31630   2.413   5.343   1.561
10244SOL    HW131631   2.501   5.310   1.527
10244SOL    HW231632   2.349   5.267   1.566
10245SOL     OW31633   6.306   4.240   1.382
10245SOL    HW131634   6.325   4.326   1.430
10245SOL    HW231635   6.279   4.170   1.447
10246SOL     OW31636   3.672   3.469   3.510
10246SOL    HW131637   3.704   3.519   3.430
10246SOL    HW231638   3.584   3.507   3.540
10247SOL     OW31639   0.797   3.406   4.986
10247SOL    HW131640   0.801   3.485   4.924
10247SOL    HW231641   0.712   3.356   4.969
10248SOL     OW31642   0.569   1.480   4.321
10248SOL    HW131643   0.589   1.410   4.389
10248SOL    HW231644   0.480   1.462   4.279
10249SOL     OW31645   2.686   4.357   5.682
10249SOL    HW131646   2.761   4.376   5.745
10249SOL    HW231647   2.721   4.305   5.604
10250SOL     OW31648   3.088   2.900   0.422
10250SOL    HW131649   3.161   2.857   0.476
10250SOL    HW231650   3.083   2.997   0.445
10251SOL     OW31651   1.068   0.566   4.616
10251SOL    HW131652   1.019   0.621   4.548
10251SOL    HW231653   1.098   0.480   4.575
10252SOL     OW31654   5.107   4.359   5.938
10252SOL    HW131655   5.127   4.308   6.022
10252SOL    HW231656   5.131   4.302   5.859
10253SOL     OW31657   3.633   5.673   0.122
10253SOL    HW131658   3.635   5.728   0.205
10253SOL    HW231659   3.540   5.638   0.107
10254SOL     OW31660   6.402   1.405   6.470
10254SOL    HW131661   6.497   1.381   6.451
10254SOL    HW231662   6.393   1.432   6.566
10255SOL     OW31663   4.065   4.549   1.744
10255SOL    HW131664   4.085   4.645   1.724
10255SOL    HW231665   4.135   4.491   1.703
10256SOL     OW31666   2.693   1.423   4.542
10256SOL    HW131667   2.615   1.468   4.586
10256SOL    HW231668   2.768   1.489   4.531
10257SOL     OW31669   3.308   5.682   3.217
10257SOL    HW131670   3.301   5.737   3.301
10257SOL    HW231671   3.231   5.703   3.157
10258SOL     OW31672   3.010   1.805   2.413
10258SOL    HW131673   3.040   1.828   2.320
10258SOL    HW231674   2.984   1.708   2.416
10259SOL     OW31675   1.550   4.059   3.827
10259SOL    HW131676   1.629   4.000   3.839
10259SOL    HW231677   1.466   4.005   3.834
10260SOL     OW31678   0.476   0.472   3.375
10260SOL    HW131679   0.448   0.457   3.280
10260SOL    HW231680   0.505   0.385   3.415
10261SOL     OW31681   0.013   4.191   1.281
10261SOL    HW131682   6.996   4.098   1.289
10261SOL    HW231683   6.965   4.257   1.314
10262SOL     OW31684   3.834   0.620   6.901
10262SOL    HW131685   3.744   0.639   6.861
10262SOL    HW231686   3.896   0.695   6.879
10263SOL     OW31687   5.239   0.181   3.081
10263SOL    HW131688   5.307   0.239   3.036
10263SOL    HW231689   5.195   0.232   3.154
10264SOL     OW31690   6.694   0.651   6.122
10264SOL    HW131691   6.674   0.722   6.189
10264SOL    HW231692   6.762   0.588   6.159
10265SOL     OW31693   1.719   1.156   2.524
10265SOL    HW131694   1.698   1.068   2.481
10265SOL    HW231695   1.818   1.173   2.521
10266SOL     OW31696   2.716   3.741   1.301
10266SOL    HW131697   2.784   3.683   1.345
10266SOL    HW231698   2.659   3.785   1.371
10267SOL     OW31699   6.521   0.408   0.760
10267SOL    HW131700   6.466   0.346   0.704
10267SOL    HW231701   6.609   0.365   0.781
10268SOL     OW31702   3.347   5.603   2.581
10268SOL    HW131703   3.378   5.582   2.489
10268SOL    HW231704   3.371   5.697   2.604
10269SOL     OW31705   2.340   1.439   0.104
10269SOL    HW131706   2.390   1.447   0.017
10269SOL    HW231707   2.261   1.501   0.102
10270SOL     OW31708   2.525   6.949   3.715
10270SOL    HW131709   2.474   6.979   3.635
10270SOL    HW231710   2.621   6.976   3.706
10271SOL     OW31711   2.069   1.235   6.922
10271SOL    HW131712   2.067   1.334   6.935
10271SOL    HW231713   2.098   1.191   7.007
10272SOL     OW31714   5.657   6.554   5.014
10272SOL    HW131715   5.681   6.477   4.956
10272SOL    HW231716   5.740   6.593   5.054
10273SOL     OW31717   1.881   5.654   3.066
10273SOL    HW131718   1.878   5.729   3.132
10273SOL    HW231719   1.970   5.651   3.022
10274SOL     OW31720   1.009   4.004   5.220
10274SOL    HW131721   1.007   4.088   5.275
10274SOL    HW231722   0.915   3.974   5.202
10275SOL     OW31723   6.980   0.850   2.029
10275SOL    HW131724   6.928   0.936   2.025
10275SOL    HW231725   6.982   0.808   1.938
10276SOL     OW31726   3.159   4.934   5.451
10276SOL    HW131727   3.093   4.890   5.391
10276SOL    HW231728   3.110   4.991   5.518
10277SOL     OW31729   0.830   5.358   3.861
10277SOL    HW131730   0.760   5.334   3.928
10277SOL    HW231731   0.795   5.343   3.769
10278SOL     OW31732   6.470   6.967   4.405
10278SOL    HW131733   6.410   6.956   4.484
10278SOL    HW231734   6.427   6.928   4.324
10279SOL     OW31735   1.298   4.773   4.284
10279SOL    HW131736   1.267   4.808   4.195
10279SOL    HW231737   1.236   4.804   4.355
10280SOL     OW31738   6.488   5.580   0.772
10280SOL    HW131739   6.411   5.624   0.817
10280SOL    HW231740   6.496   5.486   0.804
10281SOL     OW31741   6.073   0.215   4.869
10281SOL    HW131742   5.990   0.236   4.922
10281SOL    HW231743   6.130   0.152   4.921
10282SOL     OW31744   4.588   2.556   3.126
10282SOL    HW131745   4.590   2.472   3.181
10282SOL    HW231746   4.635   2.629   3.175
10283SOL     OW31747   0.236   2.362   0.823
10283SOL    HW131748   0.272   2.277   0.860
10283SOL    HW231749   0.146   2.345   0.783
10284SOL     OW31750   0.560   4.769   4.812
10284SOL    HW131751   0.476   4.776   4.757
10284SOL    HW231752   0.581   4.673   4.828
10285SOL     OW31753   6.824   6.438   6.380
10285SOL    HW131754   6.778   6.490   6.452
10285SOL    HW231755   6.920   6.465   6.376
10286SOL     OW31756   2.851   1.071   2.081
10286SOL    HW131757   2.767   1.091   2.131
10286SOL    HW231758   2.930   1.092   2.139
10287SOL     OW31759   0.426   5.871   2.648
10287SOL    HW131760   0.396   5.949   2.593
10287SOL    HW231761   0.463   5.903   2.735
10288SOL     OW31762   4.016   6.086   4.201
10288SOL    HW131763   4.053   6.177   4.219
10288SOL    HW231764   3.918   6.085   4.220
10289SOL     OW31765   4.034   6.134   6.861
10289SOL    HW131766   4.110   6.184   6.819
10289SOL    HW231767   4.069   6.057   6.914
10290SOL     OW31768   3.210   3.266   2.460
10290SOL    HW131769   3.201   3.356   2.419
10290SOL    HW231770   3.274   3.211   2.407
10291SOL     OW31771   3.259   2.078   2.412
10291SOL    HW131772   3.271   1.981   2.434
10291SOL    HW231773   3.201   2.087   2.331
10292SOL     OW31774   0.125   0.229   5.625
10292SOL    HW131775   0.120   0.328   5.610
10292SOL    HW231776   0.210   0.208   5.674
10293SOL     OW31777   1.450   3.125   5.461
10293SOL    HW131778   1.537   3.079   5.444
10293SOL    HW231779   1.463   3.224   5.455
10294SOL     OW31780   1.584   6.879   1.880
10294SOL    HW131781   1.545   6.945   1.817
10294SOL    HW231782   1.661   6.920   1.928
10295SOL     OW31783   1.916   1.233   0.848
10295SOL    HW131784   2.003   1.185   0.838
10295SOL    HW231785   1.876   1.249   0.758
10296SOL     OW31786   6.528   2.656   5.219
10296SOL    HW131787   6.529   2.625   5.124
10296SOL    HW231788   6.622   2.665   5.253
10297SOL     OW31789   4.608   1.114   0.984
10297SOL    HW131790   4.530   1.170   0.956
10297SOL    HW231791   4.689   1.171   0.996
10298SOL     OW31792   0.976   1.704   1.792
10298SOL    HW131793   0.921   1.641   1.848
10298SOL    HW231794   1.054   1.655   1.753
10299SOL     OW31795   5.027   6.982   2.238
10299SOL    HW131796   5.044   6.884   2.227
10299SOL    HW231797   5.112   0.008   2.264
10300SOL     OW31798   1.318   2.691   0.741
10300SOL    HW131799   1.300   2.616   0.678
10300SOL    HW231800   1.233   2.742   0.757
10301SOL     OW31801   3.976   1.337   0.232
10301SOL    HW131802   4.037   1.280   0.177
10301SOL    HW231803   3.932   1.282   0.302
10302SOL     OW31804   3.432   5.941   5.585
10302SOL    HW131805   3.337   5.951   5.553
10302SOL    HW231806   3.493   5.994   5.526
10303SOL     OW31807   0.701   4.473   5.274
10303SOL    HW131808   0.680   4.443   5.181
10303SOL    HW231809   0.754   4.558   5.269
10304SOL     OW31810   5.004   6.268   1.440
10304SOL    HW131811   5.020   6.255   1.343
10304SOL    HW231812   4.965   6.185   1.480
10305SOL     OW31813   2.767   3.704   5.326
10305SOL    HW131814   2.673   3.680   5.350
10305SOL    HW231815   2.801   3.642   5.255
10306SOL     OW31816   4.469   0.929   1.154
10306SOL    HW131817   4.533   0.877   1.211
10306SOL    HW231818   4.519   1.000   1.105
10307SOL     OW31819   1.827   0.185   4.938
10307SOL    HW131820   1.742   0.168   4.889
10307SOL    HW231821   1.865   0.273   4.911
10308SOL     OW31822   2.803   4.625   1.641
10308SOL    HW131823   2.708   4.593   1.648
10308SOL    HW231824   2.856   4.586   1.716
10309SOL     OW31825   0.235   0.938   4.992
10309SOL    HW131826   0.177   0.927   5.073
10309SOL    HW231827   0.289   1.022   5.001
10310SOL     OW31828   3.377   4.076   6.246
10310SOL    HW131829   3.330   4.006   6.193
10310SOL    HW231830   3.422   4.033   6.325
10311SOL     OW31831   5.756   6.144   7.000
10311SOL    HW131832   5.730   6.193   0.065
10311SOL    HW231833   5.840   6.183   6.964
10312SOL     OW31834   3.151   6.981   2.469
10312SOL    HW131835   3.179   0.001   2.381
10312SOL    HW231836   3.218   6.912   2.498
10313SOL     OW31837   5.180   6.682   3.007
10313SOL    HW131838   5.222   6.767   3.040
10313SOL    HW231839   5.222   6.604   3.052
10314SOL     OW31840   0.891   6.904   0.676
10314SOL    HW131841   0.951   6.975   0.712
10314SOL    HW231842   0.944   6.842   0.618
10315SOL     OW31843   5.005   4.751   3.888
10315SOL    HW131844   5.059   4.769   3.805
10315SOL    HW231845   4.962   4.836   3.919
10316SOL     OW31846   1.316   1.865   0.271
10316SOL    HW131847   1.406   1.850   0.230
10316SOL    HW231848   1.325   1.926   0.350
10317SOL     OW31849   4.042   6.422   4.681
10317SOL    HW131850   3.976   6.449   4.752
10317SOL    HW231851   4.114   6.491   4.675
10318SOL     OW31852   6.099   6.809   0.221
10318SOL    HW131853   6.126   6.862   0.301
10318SOL    HW231854   6.179   6.791   0.164
10319SOL     OW31855   1.085   4.480   4.122
10319SOL    HW131856   1.160   4.514   4.067
10319SOL    HW231857   1.088   4.523   4.213
10320SOL     OW31858   6.561   6.892   2.813
10320SOL    HW131859   6.529   6.832   2.886
10320SOL    HW231860   6.623   6.960   2.850
10321SOL     OW31861   5.720   2.367   2.931
10321SOL    HW131862   5.677   2.278   2.949
10321SOL    HW231863   5.793   2.356   2.863
10322SOL     OW31864   4.618   4.473   4.846
10322SOL    HW131865   4.600   4.427   4.933
10322SOL    HW231866   4.536   4.521   4.816
10323SOL     OW31867   1.583   4.582   5.981
10323SOL    HW131868   1.662   4.624   5.936
10323SOL    HW231869   1.611   4.495   6.022
10324SOL     OW31870   2.944   3.316   3.087
10324SOL    HW131871   2.920   3.390   3.149
10324SOL    HW231872   2.886   3.320   3.005
10325SOL     OW31873   5.497   6.051   4.786
10325SOL    HW131874   5.449   6.103   4.857
10325SOL    HW231875   5.432   5.994   4.736
10326SOL     OW31876   5.435   3.512   0.074
10326SOL    HW131877   5.465   3.471   7.007
10326SOL    HW231878   5.365   3.581   0.055
10327SOL     OW31879   1.735   5.297   6.655
10327SOL    HW131880   1.635   5.296   6.659
10327SOL    HW231881   1.766   5.231   6.587
10328SOL     OW31882   5.776   2.520   2.383
10328SOL    HW131883   5.830   2.591   2.338
10328SOL    HW231884   5.746   2.453   2.315
10329SOL     OW31885   3.464   1.929   1.689
10329SOL    HW131886   3.556   1.967   1.696
10329SOL    HW231887   3.401   1.984   1.745
10330SOL     OW31888   5.095   6.855   1.654
10330SOL    HW131889   5.055   6.845   1.745
10330SOL    HW231890   5.118   6.951   1.638
10331SOL     OW31891   5.248   5.255   5.931
10331SOL    HW131892   5.164   5.247   5.984
10331SOL    HW231893   5.231   5.227   5.836
10332SOL     OW31894   1.963   1.791   6.554
10332SOL    HW131895   1.979   1.880   6.512
10332SOL    HW231896   1.865   1.771   6.554
10333SOL     OW31897   1.402   3.732   4.333
10333SOL    HW131898   1.499   3.756   4.339
10333SOL    HW231899   1.393   3.640   4.295
10334SOL     OW31900   3.364   1.272   4.422
10334SOL    HW131901   3.437   1.313   4.368
10334SOL    HW231902   3.289   1.337   4.434
10335SOL     OW31903   2.125   3.261   4.486
10335SOL    HW131904   2.216   3.257   4.528
10335SOL    HW231905   2.078   3.174   4.499
10336SOL     OW31906   5.597   6.167   3.778
10336SOL    HW131907   5.633   6.260   3.787
10336SOL    HW231908   5.556   6.139   3.865
10337SOL     OW31909   6.505   6.363   0.040
10337SOL    HW131910   6.524   6.396   6.967
10337SOL    HW231911   6.585   6.380   0.098
10338SOL     OW31912   0.893   6.428   1.714
10338SOL    HW131913   0.912   6.520   1.749
10338SOL    HW231914   0.806   6.429   1.664
10339SOL     OW31915   5.329   2.557   5.557
10339SOL    HW131916   5.309   2.649   5.524
10339SOL    HW231917   5.427   2.541   5.555
10340SOL     OW31918   2.658   4.297   6.289
10340SOL    HW131919   2.718   4.223   6.258
10340SOL    HW231920   2.689   4.383   6.250
10341SOL     OW31921   2.810   4.738   3.457
10341SOL    HW131922   2.886   4.740   3.392
10341SOL    HW231923   2.763   4.826   3.456
10342SOL     OW31924   0.648   1.028   3.534
10342SOL    HW131925   0.551   1.042   3.554
10342SOL    HW231926   0.680   0.944   3.579
10343SOL     OW31927   3.893   5.157   1.968
10343SOL    HW131928   3.915   5.065   2.001
10343SOL    HW231929   3.901   5.158   1.868
10344SOL     OW31930   5.207   6.741   6.449
10344SOL    HW131931   5.284   6.791   6.409
10344SOL    HW231932   5.217   6.644   6.429
10345SOL     OW31933   1.025   3.730   4.742
10345SOL    HW131934   1.047   3.778   4.657
10345SOL    HW231935   1.097   3.664   4.763
10346SOL     OW31936   0.423   6.120   0.468
10346SOL    HW131937   0.503   6.176   0.490
10346SOL    HW231938   0.454   6.033   0.430
10347SOL     OW31939   6.486   1.539   5.146
10347SOL    HW131940   6.558   1.504   5.206
10347SOL    HW231941   6.493   1.639   5.140
10348SOL     OW31942   0.411   4.968   1.028
10348SOL    HW131943   0.351   5.047   1.043
10348SOL    HW231944   0.465   4.952   1.111
10349SOL     OW31945   6.913   6.494   6.699
10349SOL    HW131946   6.905   6.406   6.653
10349SOL    HW231947   6.837   6.554   6.670
10350SOL     OW31948   4.096   0.375   6.124
10350SOL    HW131949   4.158   0.445   6.092
10350SOL    HW231950   4.127   0.285   6.093
10351SOL     OW31951   4.393   5.826   5.805
10351SOL    HW131952   4.489   5.816   5.780
10351SOL    HW231953   4.336   5.793   5.730
10352SOL     OW31954   4.182   5.145   6.211
10352SOL    HW131955   4.151   5.059   6.252
10352SOL    HW231956   4.108   5.212   6.216
10353SOL     OW31957   0.676   3.648   5.334
10353SOL    HW131958   0.719   3.560   5.315
10353SOL    HW231959   0.598   3.662   5.273
10354SOL     OW31960   5.118   1.853   0.701
10354SOL    HW131961   5.133   1.782   0.633
10354SOL    HW231962   5.020   1.873   0.708
10355SOL     OW31963   1.075   3.960   2.910
10355SOL    HW131964   1.117   3.888   2.855
10355SOL    HW231965   1.137   4.039   2.915
10356SOL     OW31966   0.417   2.797   4.982
10356SOL    HW131967   0.366   2.724   4.936
10356SOL    HW231968   0.418   2.780   5.080
10357SOL     OW31969   2.808   3.104   6.102
10357SOL    HW131970   2.849   3.040   6.166
10357SOL    HW231971   2.772   3.054   6.023
10358SOL     OW31972   0.511   0.617   2.469
10358SOL    HW131973   0.423   0.646   2.506
10358SOL    HW231974   0.512   0.517   2.460
10359SOL     OW31975   1.109   1.456   0.879
10359SOL    HW131976   1.186   1.517   0.865
10359SOL    HW231977   1.139   1.361   0.868
10360SOL     OW31978   0.064   4.834   3.929
10360SOL    HW131979   0.136   4.888   3.974
10360SOL    HW231980   0.008   4.789   3.998
10361SOL     OW31981   2.501   5.505   0.641
10361SOL    HW131982   2.565   5.474   0.571
10361SOL    HW231983   2.539   5.485   0.731
10362SOL     OW31984   1.099   4.453   5.610
10362SOL    HW131985   1.029   4.472   5.678
10362SOL    HW231986   1.183   4.423   5.655
10363SOL     OW31987   5.295   0.460   4.659
10363SOL    HW131988   5.330   0.455   4.565
10363SOL    HW231989   5.202   0.424   4.661
10364SOL     OW31990   1.444   4.068   0.899
10364SOL    HW131991   1.419   4.139   0.834
10364SOL    HW231992   1.535   4.032   0.878
10365SOL     OW31993   5.225   5.010   0.161
10365SOL    HW131994   5.309   4.970   0.199
10365SOL    HW231995   5.245   5.055   0.074
10366SOL     OW31996   4.056   6.919   4.164
10366SOL    HW131997   4.138   6.976   4.155
10366SOL    HW231998   4.059   6.846   4.095
10367SOL     OW31999   6.255   1.300   2.665
10367SOL    HW132000   6.343   1.252   2.665
10367SOL    HW232001   6.259   1.376   2.599
10368SOL     OW32002   2.248   6.954   1.184
10368SOL    HW132003   2.193   6.984   1.106
10368SOL    HW232004   2.303   6.874   1.158
10369SOL     OW32005   4.171   2.769   6.402
10369SOL    HW132006   4.265   2.800   6.389
10369SOL    HW232007   4.161   2.730   6.494
10370SOL     OW32008   2.911   0.631   5.646
10370SOL    HW132009   2.901   0.652   5.549
10370SOL    HW232010   2.941   0.536   5.657
10371SOL     OW32011   4.639   6.931   5.209
10371SOL    HW132012   4.708   6.864   5.236
10371SOL    HW232013   4.580   6.893   5.138
10372SOL     OW32014   0.457   0.670   3.577
10372SOL    HW132015   0.473   0.572   3.572
10372SOL    HW232016   0.417   0.703   3.492
10373SOL     OW32017   1.439   6.068   5.379
10373SOL    HW132018   1.379   6.035   5.452
10373SOL    HW232019   1.422   6.165   5.362
10374SOL     OW32020   3.609   1.781   3.342
10374SOL    HW132021   3.551   1.790   3.261
10374SOL    HW232022   3.552   1.760   3.422
10375SOL     OW32023   0.064   1.952   1.018
10375SOL    HW132024   7.002   1.966   1.074
10375SOL    HW232025   0.145   1.982   1.068
10376SOL     OW32026   6.000   0.434   4.154
10376SOL    HW132027   6.017   0.394   4.064
10376SOL    HW232028   6.005   0.534   4.147
10377SOL     OW32029   6.812   6.444   3.633
10377SOL    HW132030   6.755   6.364   3.651
10377SOL    HW232031   6.793   6.479   3.541
10378SOL     OW32032   6.068   6.364   5.729
10378SOL    HW132033   5.980   6.317   5.718
10378SOL    HW232034   6.076   6.436   5.660
10379SOL     OW32035   4.259   1.316   3.899
10379SOL    HW132036   4.291   1.295   3.991
10379SOL    HW232037   4.160   1.330   3.900
10380SOL     OW32038   3.408   0.346   4.182
10380SOL    HW132039   3.341   0.277   4.210
10380SOL    HW232040   3.361   0.423   4.140
10381SOL     OW32041   3.724   5.405   4.710
10381SOL    HW132042   3.790   5.334   4.682
10381SOL    HW232043   3.637   5.389   4.664
10382SOL     OW32044   0.035   5.303   1.602
10382SOL    HW132045   7.019   5.396   1.594
10382SOL    HW232046   0.135   5.305   1.598
10383SOL     OW32047   5.715   3.421   0.944
10383SOL    HW132048   5.694   3.519   0.945
10383SOL    HW232049   5.689   3.381   1.032
10384SOL     OW32050   5.350   1.062   6.770
10384SOL    HW132051   5.319   0.980   6.818
10384SOL    HW232052   5.439   1.046   6.729
10385SOL     OW32053   0.355   2.943   6.741
10385SOL    HW132054   0.298   2.997   6.679
10385SOL    HW232055   0.408   2.876   6.687
10386SOL     OW32056   0.270   1.885   6.045
10386SOL    HW132057   0.206   1.865   5.971
10386SOL    HW232058   0.243   1.835   6.128
10387SOL     OW32059   1.814   3.910   2.788
10387SOL    HW132060   1.837   3.841   2.856
10387SOL    HW232061   1.724   3.890   2.749
10388SOL     OW32062   1.481   4.598   2.338
10388SOL    HW132063   1.455   4.621   2.432
10388SOL    HW232064   1.416   4.639   2.274
10389SOL     OW32065   1.600   5.394   3.512
10389SOL    HW132066   1.678   5.420   3.568
10389SOL    HW232067   1.524   5.366   3.572
10390SOL     OW32068   1.996   3.293   3.471
10390SOL    HW132069   1.998   3.238   3.555
10390SOL    HW232070   2.033   3.384   3.490
10391SOL     OW32071   3.667   5.601   4.306
10391SOL    HW132072   3.728   5.627   4.381
10391SOL    HW232073   3.666   5.673   4.236
10392SOL     OW32074   7.006   5.784   5.821
10392SOL    HW132075   6.944   5.809   5.896
10392SOL    HW232076   6.953   5.767   5.738
10393SOL     OW32077   1.003   1.719   4.244
10393SOL    HW132078   0.960   1.801   4.282
10393SOL    HW232079   0.969   1.638   4.292
10394SOL     OW32080   2.825   0.211   0.914
10394SOL    HW132081   2.876   0.225   0.829
10394SOL    HW232082   2.764   0.289   0.930
10395SOL     OW32083   1.489   0.565   3.771
10395SOL    HW132084   1.470   0.544   3.675
10395SOL    HW232085   1.450   0.654   3.794
10396SOL     OW32086   0.391   0.702   5.079
10396SOL    HW132087   0.329   0.624   5.070
10396SOL    HW232088   0.359   0.776   5.019
10397SOL     OW32089   4.336   2.292   2.472
10397SOL    HW132090   4.413   2.310   2.410
10397SOL    HW232091   4.250   2.311   2.425
10398SOL     OW32092   6.710   2.530   2.383
10398SOL    HW132093   6.733   2.572   2.471
10398SOL    HW232094   6.785   2.544   2.319
10399SOL     OW32095   6.718   3.187   5.791
10399SOL    HW132096   6.624   3.221   5.783
10399SOL    HW232097   6.716   3.091   5.819
10400SOL     OW32098   1.839   5.300   2.592
10400SOL    HW132099   1.900   5.278   2.515
10400SOL    HW232100   1.768   5.363   2.561
10401SOL     OW32101   1.153   5.700   1.257
10401SOL    HW132102   1.094   5.637   1.307
10401SOL    HW232103   1.188   5.770   1.319
10402SOL     OW32104   1.185   2.048   4.716
10402SOL    HW132105   1.186   2.036   4.617
10402SOL    HW232106   1.126   1.978   4.757
10403SOL     OW32107   5.424   1.076   3.209
10403SOL    HW132108   5.358   1.105   3.140
10403SOL    HW232109   5.400   1.117   3.297
10404SOL     OW32110   6.316   0.243   4.465
10404SOL    HW132111   6.268   0.206   4.385
10404SOL    HW232112   6.293   0.340   4.476
10405SOL     OW32113   3.096   6.925   6.432
10405SOL    HW132114   3.157   6.914   6.511
10405SOL    HW232115   3.002   6.908   6.460
10406SOL     OW32116   1.151   6.439   4.897
10406SOL    HW132117   1.223   6.496   4.858
10406SOL    HW232118   1.070   6.442   4.838
10407SOL     OW32119   3.344   0.953   6.783
10407SOL    HW132120   3.361   0.926   6.688
10407SOL    HW232121   3.293   0.880   6.829
10408SOL     OW32122   3.252   0.246   2.879
10408SOL    HW132123   3.243   0.192   2.963
10408SOL    HW232124   3.234   0.187   2.800
10409SOL     OW32125   0.146   4.940   2.388
10409SOL    HW132126   0.200   4.955   2.305
10409SOL    HW232127   0.116   5.028   2.425
10410SOL     OW32128   5.246   5.716   0.496
10410SOL    HW132129   5.197   5.769   0.565
10410SOL    HW232130   5.339   5.697   0.528
10411SOL     OW32131   2.599   4.982   1.903
10411SOL    HW132132   2.568   5.073   1.931
10411SOL    HW232133   2.698   4.974   1.920
10412SOL     OW32134   0.609   3.310   6.237
10412SOL    HW132135   0.692   3.367   6.237
10412SOL    HW232136   0.635   3.215   6.218
10413SOL     OW32137   6.333   0.800   4.143
10413SOL    HW132138   6.249   0.812   4.196
10413SOL    HW232139   6.399   0.747   4.196
10414SOL     OW32140   5.870   5.850   5.468
10414SOL    HW132141   5.922   5.932   5.487
10414SOL    HW232142   5.858   5.797   5.552
10415SOL     OW32143   0.196   4.739   3.243
10415SOL    HW132144   0.220   4.710   3.336
10415SOL    HW232145   0.097   4.744   3.235
10416SOL     OW32146   4.873   0.687   0.213
10416SOL    HW132147   4.920   0.599   0.213
10416SOL    HW232148   4.937   0.760   0.235
10417SOL     OW32149   4.726   4.729   4.590
10417SOL    HW132150   4.817   4.721   4.550
10417SOL    HW232151   4.659   4.743   4.517
10418SOL     OW32152   5.734   3.289   0.490
10418SOL    HW132153   5.728   3.238   0.576
10418SOL    HW232154   5.694   3.380   0.503
10419SOL     OW32155   1.218   0.015   4.703
10419SOL    HW132156   1.154   0.024   4.780
10419SOL    HW232157   1.239   6.937   4.689
10420SOL     OW32158   6.493   4.173   3.893
10420SOL    HW132159   6.581   4.210   3.925
10420SOL    HW232160   6.419   4.219   3.941
10421SOL     OW32161   0.156   3.531   4.178
10421SOL    HW132162   0.134   3.450   4.122
10421SOL    HW232163   0.212   3.503   4.256
10422SOL     OW32164   6.097   3.298   5.824
10422SOL    HW132165   6.033   3.295   5.901
10422SOL    HW232166   6.138   3.208   5.811
10423SOL     OW32167   2.402   5.411   1.833
10423SOL    HW132168   2.376   5.421   1.737
10423SOL    HW232169   2.501   5.395   1.839
10424SOL     OW32170   4.915   0.705   1.993
10424SOL    HW132171   4.894   0.671   2.085
10424SOL    HW232172   4.940   0.802   1.998
10425SOL     OW32173   0.265   4.421   0.564
10425SOL    HW132174   0.318   4.438   0.481
10425SOL    HW232175   0.206   4.342   0.551
10426SOL     OW32176   6.644   2.067   0.002
10426SOL    HW132177   6.735   2.105   7.005
10426SOL    HW232178   6.629   1.990   6.959
10427SOL     OW32179   6.149   0.167   4.267
10427SOL    HW132180   6.077   0.203   4.326
10427SOL    HW232181   6.108   0.127   4.185
10428SOL     OW32182   1.770   0.658   4.643
10428SOL    HW132183   1.813   0.568   4.637
10428SOL    HW232184   1.798   0.704   4.727
10429SOL     OW32185   2.078   4.608   1.884
10429SOL    HW132186   2.128   4.622   1.970
10429SOL    HW232187   2.110   4.524   1.840
10430SOL     OW32188   3.284   1.026   4.415
10430SOL    HW132189   3.319   1.119   4.404
10430SOL    HW232190   3.185   1.026   4.405
10431SOL     OW32191   4.252   2.255   3.482
10431SOL    HW132192   4.275   2.343   3.525
10431SOL    HW232193   4.262   2.263   3.383
10432SOL     OW32194   1.025   4.565   0.982
10432SOL    HW132195   0.952   4.514   0.938
10432SOL    HW232196   1.073   4.505   1.046
10433SOL     OW32197   3.054   6.526   4.373
10433SOL    HW132198   3.126   6.550   4.308
10433SOL    HW232199   3.083   6.550   4.466
10434SOL     OW32200   4.298   1.995   0.532
10434SOL    HW132201   4.364   1.919   0.528
10434SOL    HW232202   4.214   1.963   0.575
10435SOL     OW32203   2.653   1.628   1.582
10435SOL    HW132204   2.728   1.694   1.586
10435SOL    HW232205   2.688   1.538   1.609
10436SOL     OW32206   1.508   3.852   5.303
10436SOL    HW132207   1.561   3.898   5.374
10436SOL    HW232208   1.516   3.903   5.217
10437SOL     OW32209   6.842   0.098   5.147
10437SOL    HW132210   6.886   0.040   5.079
10437SOL    HW232211   6.911   0.134   5.210
10438SOL     OW32212   6.842   5.880   6.381
10438SOL    HW132213   6.805   5.917   6.296
10438SOL    HW232214   6.913   5.813   6.359
10439SOL     OW32215   5.676   5.260   5.163
10439SOL    HW132216   5.682   5.348   5.115
10439SOL    HW232217   5.742   5.196   5.122
10440SOL     OW32218   6.266   2.532   1.610
10440SOL    HW132219   6.267   2.510   1.512
10440SOL    HW232220   6.243   2.450   1.662
10441SOL     OW32221   5.059   1.440   5.939
10441SOL    HW132222   5.026   1.530   5.913
10441SOL    HW232223   5.086   1.389   5.857
10442SOL     OW32224   2.280   0.844   5.794
10442SOL    HW132225   2.238   0.756   5.816
10442SOL    HW232226   2.221   0.893   5.730
10443SOL     OW32227   0.596   0.958   0.078
10443SOL    HW132228   0.686   1.001   0.074
10443SOL    HW232229   0.556   0.956   7.005
10444SOL     OW32230   4.359   5.367   3.769
10444SOL    HW132231   4.288   5.408   3.712
10444SOL    HW232232   4.323   5.286   3.815
10445SOL     OW32233   1.272   3.742   3.795
10445SOL    HW132234   1.358   3.708   3.834
10445SOL    HW232235   1.272   3.726   3.696
10446SOL     OW32236   2.745   4.926   5.040
10446SOL    HW132237   2.645   4.918   5.037
10446SOL    HW232238   2.785   4.835   5.048
10447SOL     OW32239   1.357   2.001   2.841
10447SOL    HW132240   1.407   1.942   2.778
10447SOL    HW232241   1.271   2.030   2.799
10448SOL     OW32242   1.070   4.887   2.656
10448SOL    HW132243   1.031   4.965   2.705
10448SOL    HW232244   1.160   4.865   2.695
10449SOL     OW32245   3.912   5.087   4.201
10449SOL    HW132246   3.984   5.042   4.255
10449SOL    HW232247   3.838   5.022   4.186
10450SOL     OW32248   0.325   2.281   4.508
10450SOL    HW132249   0.246   2.247   4.559
10450SOL    HW232250   0.319   2.250   4.413
10451SOL     OW32251   2.201   1.960   5.128
10451SOL    HW132252   2.152   1.904   5.062
10451SOL    HW232253   2.281   2.001   5.084
10452SOL     OW32254   7.019   2.511   4.553
10452SOL    HW132255   6.996   2.608   4.538
10452SOL    HW232256   0.089   2.492   4.512
10453SOL     OW32257   2.930   6.007   4.176
10453SOL    HW132258   2.967   6.100   4.188
10453SOL    HW232259   2.993   5.941   4.217
10454SOL     OW32260   6.939   1.478   6.798
10454SOL    HW132261   6.931   1.577   6.785
10454SOL    HW232262   0.014   1.456   6.827
10455SOL     OW32263   0.926   5.420   2.809
10455SOL    HW132264   0.832   5.451   2.807
10455SOL    HW232265   0.967   5.443   2.897
10456SOL     OW32266   1.195   5.394   6.054
10456SOL    HW132267   1.271   5.436   6.105
10456SOL    HW232268   1.153   5.463   5.995
10457SOL     OW32269   4.491   1.597   1.058
10457SOL    HW132270   4.406   1.647   1.040
10457SOL    HW232271   4.524   1.556   0.972
10458SOL     OW32272   1.716   6.891   6.795
10458SOL    HW132273   1.710   6.982   6.835
10458SOL    HW232274   1.624   6.856   6.776
10459SOL     OW32275   4.869   6.091   0.971
10459SOL    HW132276   4.842   6.128   0.882
10459SOL    HW232277   4.968   6.078   0.973
10460SOL     OW32278   6.587   1.053   6.325
10460SOL    HW132279   6.667   0.998   6.299
10460SOL    HW232280   6.519   0.994   6.368
10461SOL     OW32281   6.774   3.903   5.829
10461SOL    HW132282   6.795   3.894   5.732
10461SOL    HW232283   6.759   3.999   5.852
10462SOL     OW32284   4.308   3.546   0.262
10462SOL    HW132285   4.268   3.611   0.198
10462SOL    HW232286   4.276   3.454   0.241
10463SOL     OW32287   4.614   2.761   5.038
10463SOL    HW132288   4.708   2.727   5.034
10463SOL    HW232289   4.614   2.852   5.078
10464SOL     OW32290   6.371   4.732   1.901
10464SOL    HW132291   6.330   4.802   1.843
10464SOL    HW232292   6.306   4.657   1.915
10465SOL     OW32293   5.306   4.259   0.676
10465SOL    HW132294   5.248   4.184   0.645
10465SOL    HW232295   5.257   4.314   0.744
10466SOL     OW32296   6.449   4.002   5.854
10466SOL    HW132297   6.373   3.959   5.806
10466SOL    HW232298   6.464   3.956   5.941
10467SOL     OW32299   0.633   3.512   0.087
10467SOL    HW132300   0.663   3.607   0.076
10467SOL    HW232301   0.535   3.505   0.066
10468SOL     OW32302   1.200   4.130   3.894
10468SOL    HW132303   1.207   4.084   3.983
10468SOL    HW232304   1.247   4.075   3.825
10469SOL     OW32305   0.995   0.862   3.824
10469SOL    HW132306   1.041   0.877   3.737
10469SOL    HW232307   1.050   0.899   3.899
10470SOL     OW32308   2.669   3.876   1.574
10470SOL    HW132309   2.730   3.843   1.646
10470SOL    HW232310   2.614   3.800   1.540
10471SOL     OW32311   2.036   4.372   5.792
10471SOL    HW132312   2.085   4.335   5.871
10471SOL    HW232313   1.938   4.363   5.806
10472SOL     OW32314   3.707   5.069   5.958
10472SOL    HW132315   3.795   5.116   5.952
10472SOL    HW232316   3.683   5.054   6.054
10473SOL     OW32317   6.050   5.584   0.609
10473SOL    HW132318   6.129   5.522   0.615
10473SOL    HW232319   6.081   5.677   0.627
10474SOL     OW32320   6.285   6.012   5.236
10474SOL    HW132321   6.350   6.086   5.220
10474SOL    HW232322   6.227   5.999   5.155
10475SOL     OW32323   0.020   6.011   1.572
10475SOL    HW132324   6.985   6.070   1.633
10475SOL    HW232325   6.983   5.983   1.494
10476SOL     OW32326   5.098   6.533   1.699
10476SOL    HW132327   5.114   6.483   1.614
10476SOL    HW232328   5.161   6.611   1.705
10477SOL     OW32329   6.831   6.089   3.561
10477SOL    HW132330   6.929   6.101   3.575
10477SOL    HW232331   6.800   6.008   3.612
10478SOL     OW32332   6.774   1.138   6.960
10478SOL    HW132333   6.825   1.128   0.027
10478SOL    HW232334   6.776   1.051   6.910
10479SOL     OW32335   7.003   4.582   2.982
10479SOL    HW132336   7.015   4.555   3.077
10479SOL    HW232337   6.973   4.504   2.928
10480SOL     OW32338   2.357   0.739   3.199
10480SOL    HW132339   2.367   0.640   3.197
10480SOL    HW232340   2.383   0.773   3.290
10481SOL     OW32341   6.431   0.585   1.943
10481SOL    HW132342   6.363   0.631   2.000
10481SOL    HW232343   6.406   0.595   1.846
10482SOL     OW32344   4.706   4.242   4.294
10482SOL    HW132345   4.693   4.198   4.204
10482SOL    HW232346   4.726   4.172   4.362
10483SOL     OW32347   6.081   0.814   6.626
10483SOL    HW132348   6.025   0.732   6.638
10483SOL    HW232349   6.177   0.788   6.616
10484SOL     OW32350   6.333   0.317   1.982
10484SOL    HW132351   6.239   0.350   1.989
10484SOL    HW232352   6.397   0.392   1.998
10485SOL     OW32353   5.585   3.381   6.008
10485SOL    HW132354   5.643   3.363   6.087
10485SOL    HW232355   5.640   3.374   5.924
10486SOL     OW32356   5.946   3.141   2.734
10486SOL    HW132357   5.927   3.046   2.708
10486SOL    HW232358   6.032   3.171   2.691
10487SOL     OW32359   3.825   6.824   2.879
10487SOL    HW132360   3.849   6.849   2.785
10487SOL    HW232361   3.850   6.729   2.895
10488SOL     OW32362   4.151   4.045   6.513
10488SOL    HW132363   4.141   4.144   6.506
10488SOL    HW232364   4.160   4.019   6.609
10489SOL     OW32365   1.857   5.343   5.246
10489SOL    HW132366   1.954   5.318   5.251
10489SOL    HW232367   1.847   5.431   5.199
10490SOL     OW32368   5.927   0.102   4.675
10490SOL    HW132369   5.994   0.113   4.749
10490SOL    HW232370   5.957   0.029   4.614
10491SOL     OW32371   6.678   5.712   4.950
10491SOL    HW132372   6.666   5.613   4.946
10491SOL    HW232373   6.590   5.755   4.974
10492SOL     OW32374   5.154   3.853   5.617
10492SOL    HW132375   5.090   3.920   5.581
10492SOL    HW232376   5.243   3.864   5.572
10493SOL     OW32377   3.457   1.689   0.236
10493SOL    HW132378   3.396   1.751   0.188
10493SOL    HW232379   3.408   1.605   0.259
10494SOL     OW32380   5.427   1.599   5.395
10494SOL    HW132381   5.497   1.651   5.347
10494SOL    HW232382   5.410   1.513   5.347
10495SOL     OW32383   1.014   0.114   6.782
10495SOL    HW132384   1.111   0.123   6.802
10495SOL    HW232385   1.002   0.078   6.690
10496SOL     OW32386   6.716   6.873   5.324
10496SOL    HW132387   6.742   6.941   5.256
10496SOL    HW232388   6.798   6.838   5.371
10497SOL     OW32389   2.144   1.125   6.684
10497SOL    HW132390   2.241   1.146   6.686
10497SOL    HW232391   2.106   1.133   6.777
10498SOL     OW32392   3.199   5.316   5.782
10498SOL    HW132393   3.257   5.324   5.701
10498SOL    HW232394   3.103   5.306   5.754
10499SOL     OW32395   3.231   5.733   2.935
10499SOL    HW132396   3.138   5.737   2.973
10499SOL    HW232397   3.261   5.825   2.912
10500SOL     OW32398   2.415   1.773   6.726
10500SOL    HW132399   2.414   1.869   6.756
10500SOL    HW232400   2.451   1.715   6.799
10501SOL     OW32401   1.536   3.526   3.430
10501SOL    HW132402   1.596   3.446   3.431
10501SOL    HW232403   1.539   3.570   3.340
10502SOL     OW32404   3.089   6.729   5.100
10502SOL    HW132405   3.133   6.659   5.155
10502SOL    HW232406   3.085   6.815   5.151
10503SOL     OW32407   2.646   3.234   6.796
10503SOL    HW132408   2.653   3.150   6.848
10503SOL    HW232409   2.668   3.216   6.700
10504SOL     OW32410   2.034   3.421   0.582
10504SOL    HW132411   1.992   3.424   0.492
10504SOL    HW232412   2.036   3.327   0.615
10505SOL     OW32413   0.317   6.186   0.120
10505SOL    HW132414   0.294   6.095   0.083
10505SOL    HW232415   0.275   6.197   0.210
10506SOL     OW32416   6.904   5.285   5.588
10506SOL    HW132417   6.866   5.279   5.681
10506SOL    HW232418   6.910   5.382   5.562
10507SOL     OW32419   2.888   1.001   3.305
10507SOL    HW132420   2.902   1.097   3.331
10507SOL    HW232421   2.790   0.982   3.302
10508SOL     OW32422   5.341   5.214   3.024
10508SOL    HW132423   5.417   5.234   2.962
10508SOL    HW232424   5.283   5.295   3.034
10509SOL     OW32425   2.292   1.075   5.328
10509SOL    HW132426   2.385   1.096   5.357
10509SOL    HW232427   2.295   1.011   5.251
10510SOL     OW32428   5.855   0.400   6.290
10510SOL    HW132429   5.759   0.422   6.269
10510SOL    HW232430   5.888   0.331   6.227
10511SOL     OW32431   6.790   2.579   1.919
10511SOL    HW132432   6.862   2.624   1.865
10511SOL    HW232433   6.750   2.645   1.983
10512SOL     OW32434   2.320   0.186   6.580
10512SOL    HW132435   2.296   0.172   6.677
10512SOL    HW232436   2.418   0.206   6.572
10513SOL     OW32437   6.943   2.368   0.769
10513SOL    HW132438   6.855   2.409   0.748
10513SOL    HW232439   7.006   2.438   0.803
10514SOL     OW32440   2.069   3.011   1.422
10514SOL    HW132441   2.146   3.066   1.455
10514SOL    HW232442   2.030   2.959   1.497
10515SOL     OW32443   0.388   3.261   5.084
10515SOL    HW132444   0.452   3.185   5.078
10515SOL    HW232445   0.296   3.225   5.100
10516SOL     OW32446   2.649   6.764   0.581
10516SOL    HW132447   2.567   6.799   0.626
10516SOL    HW232448   2.722   6.755   0.649
10517SOL     OW32449   0.435   2.544   3.792
10517SOL    HW132450   0.534   2.537   3.783
10517SOL    HW232451   0.391   2.473   3.736
10518SOL     OW32452   0.669   6.356   3.138
10518SOL    HW132453   0.662   6.378   3.040
10518SOL    HW232454   0.580   6.372   3.182
10519SOL     OW32455   3.956   2.968   5.348
10519SOL    HW132456   3.902   2.885   5.336
10519SOL    HW232457   3.962   2.990   5.445
10520SOL     OW32458   2.994   4.922   6.806
10520SOL    HW132459   3.053   4.998   6.832
10520SOL    HW232460   2.956   4.880   6.888
10521SOL     OW32461   6.344   5.383   2.527
10521SOL    HW132462   6.366   5.480   2.540
10521SOL    HW232463   6.426   5.328   2.543
10522SOL     OW32464   6.051   6.766   2.559
10522SOL    HW132465   5.980   6.722   2.615
10522SOL    HW232466   6.089   6.843   2.608
10523SOL     OW32467   5.735   6.548   6.592
10523SOL    HW132468   5.829   6.580   6.588
10523SOL    HW232469   5.708   6.535   6.688
10524SOL     OW32470   5.026   1.061   5.133
10524SOL    HW132471   4.986   1.129   5.072
10524SOL    HW232472   4.957   1.030   5.198
10525SOL     OW32473   1.911   6.990   5.415
10525SOL    HW132474   1.924   6.978   5.513
10525SOL    HW232475   1.875   0.062   5.397
10526SOL     OW32476   4.408   5.862   2.671
10526SOL    HW132477   4.420   5.774   2.716
10526SOL    HW232478   4.331   5.857   2.607
10527SOL     OW32479   2.024   2.854   4.157
10527SOL    HW132480   1.934   2.867   4.200
10527SOL    HW232481   2.031   2.760   4.124
10528SOL     OW32482   5.858   4.644   6.094
10528SOL    HW132483   5.774   4.602   6.131
10528SOL    HW232484   5.910   4.685   6.169
10529SOL     OW32485   6.956   5.794   4.895
10529SOL    HW132486   6.865   5.774   4.930
10529SOL    HW232487   6.983   5.723   4.830
10530SOL     OW32488   1.484   1.512   5.091
10530SOL    HW132489   1.509   1.477   5.001
10530SOL    HW232490   1.455   1.435   5.149
10531SOL     OW32491   2.519   2.521   4.583
10531SOL    HW132492   2.464   2.598   4.552
10531SOL    HW232493   2.594   2.506   4.519
10532SOL     OW32494   3.432   3.459   4.369
10532SOL    HW132495   3.503   3.450   4.299
10532SOL    HW232496   3.441   3.549   4.413
10533SOL     OW32497   3.710   0.672   6.292
10533SOL    HW132498   3.686   0.648   6.386
10533SOL    HW232499   3.783   0.612   6.260
10534SOL     OW32500   5.775   4.335   1.825
10534SOL    HW132501   5.688   4.311   1.868
10534SOL    HW232502   5.772   4.431   1.797
10535SOL     OW32503   0.414   1.013   1.562
10535SOL    HW132504   0.493   1.071   1.545
10535SOL    HW232505   0.334   1.070   1.579
10536SOL     OW32506   5.610   5.893   3.191
10536SOL    HW132507   5.682   5.887   3.259
10536SOL    HW232508   5.525   5.857   3.229
10537SOL     OW32509   6.245   5.309   1.518
10537SOL    HW132510   6.314   5.378   1.538
10537SOL    HW232511   6.154   5.345   1.539
10538SOL     OW32512   4.426   3.389   6.824
10538SOL    HW132513   4.392   3.471   6.871
10538SOL    HW232514   4.371   3.310   6.850
10539SOL     OW32515   1.082   2.913   4.935
10539SOL    HW132516   1.108   2.848   4.864
10539SOL    HW232517   1.157   2.977   4.951
10540SOL     OW32518   3.657   1.007   0.587
10540SOL    HW132519   3.649   1.038   0.681
10540SOL    HW232520   3.696   0.914   0.585
10541SOL     OW32521   3.157   2.326   1.749
10541SOL    HW132522   3.126   2.316   1.654
10541SOL    HW232523   3.082   2.359   1.806
10542SOL     OW32524   1.742   2.262   0.349
10542SOL    HW132525   1.662   2.268   0.408
10542SOL    HW232526   1.758   2.166   0.324
10543SOL     OW32527   2.558   0.423   4.295
10543SOL    HW132528   2.616   0.432   4.377
10543SOL    HW232529   2.616   0.427   4.214
10544SOL     OW32530   0.270   2.066   1.169
10544SOL    HW132531   0.273   2.007   1.249
10544SOL    HW232532   0.293   2.160   1.196
10545SOL     OW32533   4.086   1.274   2.951
10545SOL    HW132534   3.993   1.310   2.955
10545SOL    HW232535   4.105   1.221   3.033
10546SOL     OW32536   4.708   0.752   5.522
10546SOL    HW132537   4.729   0.655   5.512
10546SOL    HW232538   4.738   0.801   5.440
10547SOL     OW32539   4.768   6.235   2.030
10547SOL    HW132540   4.710   6.303   1.986
10547SOL    HW232541   4.864   6.264   2.024
10548SOL     OW32542   4.763   4.098   5.212
10548SOL    HW132543   4.693   4.068   5.277
10548SOL    HW232544   4.812   4.018   5.176
10549SOL     OW32545   0.813   1.544   1.920
10549SOL    HW132546   0.839   1.451   1.945
10549SOL    HW232547   0.716   1.559   1.940
10550SOL     OW32548   4.627   0.201   5.074
10550SOL    HW132549   4.541   0.230   5.116
10550SOL    HW232550   4.657   0.115   5.115
10551SOL     OW32551   1.637   3.063   6.293
10551SOL    HW132552   1.573   3.127   6.336
10551SOL    HW232553   1.730   3.090   6.316
10552SOL     OW32554   3.197   1.476   5.361
10552SOL    HW132555   3.173   1.432   5.447
10552SOL    HW232556   3.226   1.570   5.378
10553SOL     OW32557   2.709   4.789   6.517
10553SOL    HW132558   2.708   4.718   6.588
10553SOL    HW232559   2.803   4.817   6.499
10554SOL     OW32560   6.142   3.441   6.167
10554SOL    HW132561   6.194   3.355   6.169
10554SOL    HW232562   6.159   3.488   6.081
10555SOL     OW32563   3.249   2.595   1.224
10555SOL    HW132564   3.317   2.658   1.187
10555SOL    HW232565   3.295   2.510   1.251
10556SOL     OW32566   1.764   4.655   3.967
10556SOL    HW132567   1.668   4.658   3.996
10556SOL    HW232568   1.796   4.560   3.968
10557SOL     OW32569   5.661   1.410   3.023
10557SOL    HW132570   5.678   1.312   3.017
10557SOL    HW232571   5.597   1.437   2.951
10558SOL     OW32572   5.575   5.709   5.619
10558SOL    HW132573   5.481   5.675   5.627
10558SOL    HW232574   5.632   5.664   5.688
10559SOL     OW32575   4.341   3.072   1.283
10559SOL    HW132576   4.407   3.017   1.232
10559SOL    HW232577   4.389   3.147   1.329
10560SOL     OW32578   0.064   2.024   4.162
10560SOL    HW132579   0.012   1.939   4.171
10560SOL    HW232580   0.045   2.065   4.072
10561SOL     OW32581   1.988   3.794   6.378
10561SOL    HW132582   2.019   3.877   6.332
10561SOL    HW232583   2.041   3.781   6.462
10562SOL     OW32584   4.569   1.756   0.772
10562SOL    HW132585   4.493   1.765   0.836
10562SOL    HW232586   4.652   1.792   0.813
10563SOL     OW32587   1.312   2.678   2.536
10563SOL    HW132588   1.408   2.652   2.522
10563SOL    HW232589   1.295   2.768   2.496
10564SOL     OW32590   0.004   1.865   2.492
10564SOL    HW132591   7.003   1.768   2.481
10564SOL    HW232592   0.016   1.906   2.401
10565SOL     OW32593   5.359   1.932   5.024
10565SOL    HW132594   5.380   1.977   5.111
10565SOL    HW232595   5.445   1.914   4.975
10566SOL     OW32596   4.970   5.631   6.926
10566SOL    HW132597   4.973   5.659   6.830
10566SOL    HW232598   5.022   5.547   6.937
10567SOL     OW32599   2.423   5.643   4.684
10567SOL    HW132600   2.521   5.660   4.691
10567SOL    HW232601   2.406   5.545   4.681
10568SOL     OW32602   3.509   0.848   3.471
10568SOL    HW132603   3.420   0.803   3.462
10568SOL    HW232604   3.510   0.900   3.556
10569SOL     OW32605   6.657   2.264   3.976
10569SOL    HW132606   6.598   2.202   4.028
10569SOL    HW232607   6.747   2.267   4.019
10570SOL     OW32608   0.946   3.637   1.289
10570SOL    HW132609   0.999   3.634   1.204
10570SOL    HW232610   0.982   3.571   1.354
10571SOL     OW32611   6.729   6.657   4.770
10571SOL    HW132612   6.736   6.637   4.672
10571SOL    HW232613   6.783   6.590   4.821
10572SOL     OW32614   6.384   3.765   2.492
10572SOL    HW132615   6.423   3.766   2.400
10572SOL    HW232616   6.456   3.783   2.559
10573SOL     OW32617   6.237   5.165   5.490
10573SOL    HW132618   6.236   5.089   5.425
10573SOL    HW232619   6.169   5.148   5.562
10574SOL     OW32620   0.755   2.064   2.385
10574SOL    HW132621   0.750   2.163   2.371
10574SOL    HW232622   0.848   2.033   2.366
10575SOL     OW32623   0.099   6.799   6.202
10575SOL    HW132624   0.068   6.749   6.121
10575SOL    HW232625   0.023   6.852   6.240
10576SOL     OW32626   0.851   5.816   3.402
10576SOL    HW132627   0.786   5.872   3.454
10576SOL    HW232628   0.838   5.720   3.426
10577SOL     OW32629   0.118   2.759   6.003
10577SOL    HW132630   0.087   2.827   6.070
10577SOL    HW232631   0.108   2.796   5.911
10578SOL     OW32632   5.218   0.685   5.366
10578SOL    HW132633   5.232   0.590   5.342
10578SOL    HW232634   5.209   0.740   5.283
10579SOL     OW32635   5.703   6.306   1.282
10579SOL    HW132636   5.732   6.331   1.374
10579SOL    HW232637   5.776   6.257   1.236
10580SOL     OW32638   0.655   5.459   0.160
10580SOL    HW132639   0.644   5.483   0.064
10580SOL    HW232640   0.682   5.541   0.212
10581SOL     OW32641   4.088   2.257   2.784
10581SOL    HW132642   4.128   2.344   2.754
10581SOL    HW232643   4.154   2.209   2.842
10582SOL     OW32644   3.640   4.479   6.726
10582SOL    HW132645   3.562   4.447   6.779
10582SOL    HW232646   3.642   4.579   6.727
10583SOL     OW32647   4.944   1.194   1.334
10583SOL    HW132648   4.857   1.155   1.302
10583SOL    HW232649   4.926   1.255   1.412
10584SOL     OW32650   5.684   6.849   1.443
10584SOL    HW132651   5.589   6.876   1.428
10584SOL    HW232652   5.745   6.926   1.422
10585SOL     OW32653   2.650   4.535   6.872
10585SOL    HW132654   2.640   4.437   6.855
10585SOL    HW232655   2.738   4.566   6.835
10586SOL     OW32656   5.043   2.261   1.592
10586SOL    HW132657   5.070   2.296   1.502
10586SOL    HW232658   4.947   2.283   1.610
10587SOL     OW32659   0.151   3.087   0.323
10587SOL    HW132660   0.196   3.166   0.283
10587SOL    HW232661   0.071   3.062   0.267
10588SOL     OW32662   1.822   5.426   3.664
10588SOL    HW132663   1.824   5.411   3.762
10588SOL    HW232664   1.907   5.391   3.623
10589SOL     OW32665   6.091   0.911   4.273
10589SOL    HW132666   6.043   0.842   4.219
10589SOL    HW232667   6.049   1.000   4.259
10590SOL     OW32668   1.348   0.393   4.962
10590SOL    HW132669   1.264   0.347   4.935
10590SOL    HW232670   1.360   0.384   5.061
10591SOL     OW32671   1.382   2.366   1.675
10591SOL    HW132672   1.305   2.304   1.660
10591SOL    HW232673   1.416   2.356   1.769
10592SOL     OW32674   5.045   1.307   6.184
10592SOL    HW132675   5.016   1.358   6.103
10592SOL    HW232676   5.140   1.330   6.206
10593SOL     OW32677   1.597   3.729   2.164
10593SOL    HW132678   1.686   3.740   2.120
10593SOL    HW232679   1.598   3.647   2.221
10594SOL     OW32680   1.079   1.670   4.592
10594SOL    HW132681   1.153   1.663   4.525
10594SOL    HW232682   0.992   1.646   4.547
10595SOL     OW32683   1.639   5.711   4.562
10595SOL    HW132684   1.559   5.714   4.502
10595SOL    HW232685   1.722   5.719   4.507
10596SOL     OW32686   3.023   1.100   1.289
10596SOL    HW132687   2.996   1.182   1.238
10596SOL    HW232688   3.001   1.019   1.236
10597SOL     OW32689   1.503   1.058   3.738
10597SOL    HW132690   1.546   1.053   3.648
10597SOL    HW232691   1.572   1.083   3.806
10598SOL     OW32692   2.734   0.916   0.692
10598SOL    HW132693   2.751   0.821   0.720
10598SOL    HW232694   2.672   0.959   0.757
10599SOL     OW32695   5.020   0.228   6.171
10599SOL    HW132696   5.081   0.152   6.192
10599SOL    HW232697   4.933   0.215   6.219
10600SOL     OW32698   1.987   3.057   4.952
10600SOL    HW132699   2.048   3.134   4.975
10600SOL    HW232700   1.894   3.091   4.941
10601SOL     OW32701   4.018   6.050   5.308
10601SOL    HW132702   3.950   5.977   5.314
10601SOL    HW232703   3.998   6.120   5.378
10602SOL     OW32704   4.688   2.266   2.036
10602SOL    HW132705   4.788   2.260   2.041
10602SOL    HW232706   4.662   2.313   1.952
10603SOL     OW32707   0.727   5.600   5.309
10603SOL    HW132708   0.806   5.539   5.318
10603SOL    HW232709   0.649   5.549   5.273
10604SOL     OW32710   0.407   4.264   6.365
10604SOL    HW132711   0.500   4.298   6.354
10604SOL    HW232712   0.351   4.334   6.408
10605SOL     OW32713   1.195   5.545   6.498
10605SOL    HW132714   1.106   5.501   6.506
10605SOL    HW232715   1.242   5.509   6.417
10606SOL     OW32716   1.122   1.152   1.945
10606SOL    HW132717   1.190   1.107   2.003
10606SOL    HW232718   1.102   1.243   1.980
10607SOL     OW32719   5.961   3.838   6.955
10607SOL    HW132720   5.912   3.751   6.946
10607SOL    HW232721   5.906   3.912   6.916
10608SOL     OW32722   5.688   6.160   2.749
10608SOL    HW132723   5.701   6.088   2.680
10608SOL    HW232724   5.612   6.136   2.808
10609SOL     OW32725   3.980   6.350   2.707
10609SOL    HW132726   3.993   6.364   2.609
10609SOL    HW232727   4.068   6.352   2.753
10610SOL     OW32728   2.289   4.320   5.051
10610SOL    HW132729   2.222   4.247   5.032
10610SOL    HW232730   2.340   4.298   5.134
10611SOL     OW32731   5.038   2.154   5.937
10611SOL    HW132732   5.017   2.250   5.915
10611SOL    HW232733   5.051   2.103   5.852
10612SOL     OW32734   2.475   0.173   1.630
10612SOL    HW132735   2.426   0.143   1.549
10612SOL    HW232736   2.511   0.265   1.615
10613SOL     OW32737   1.239   6.448   7.019
10613SOL    HW132738   1.144   6.426   6.998
10613SOL    HW232739   1.242   6.521   0.068
10614SOL     OW32740   0.295   1.186   2.783
10614SOL    HW132741   0.307   1.092   2.816
10614SOL    HW232742   0.232   1.234   2.844
10615SOL     OW32743   0.395   6.655   5.884
10615SOL    HW132744   0.327   6.672   5.812
10615SOL    HW232745   0.384   6.723   5.956
10616SOL     OW32746   3.667   5.637   1.600
10616SOL    HW132747   3.595   5.656   1.534
10616SOL    HW232748   3.735   5.711   1.598
10617SOL     OW32749   6.526   1.768   6.630
10617SOL    HW132750   6.445   1.730   6.585
10617SOL    HW232751   6.605   1.760   6.569
10618SOL     OW32752   6.317   3.890   0.819
10618SOL    HW132753   6.232   3.927   0.856
10618SOL    HW232754   6.298   3.805   0.770
10619SOL     OW32755   6.949   3.360   3.338
10619SOL    HW132756   7.018   3.421   3.375
10619SOL    HW232757   6.976   3.265   3.353
10620SOL     OW32758   1.590   5.120   3.819
10620SOL    HW132759   1.574   5.203   3.766
10620SOL    HW232760   1.524   5.050   3.791
10621SOL     OW32761   3.748   0.745   0.581
10621SOL    HW132762   3.693   0.731   0.499
10621SOL    HW232763   3.757   0.659   0.631
10622SOL     OW32764   3.844   2.176   0.534
10622SOL    HW132765   3.890   2.217   0.613
10622SOL    HW232766   3.796   2.246   0.483
10623SOL     OW32767   0.447   1.316   4.133
10623SOL    HW132768   0.358   1.345   4.098
10623SOL    HW232769   0.503   1.283   4.057
10624SOL     OW32770   2.621   1.405   4.099
10624SOL    HW132771   2.534   1.428   4.055
10624SOL    HW232772   2.681   1.485   4.100
10625SOL     OW32773   0.821   2.774   1.158
10625SOL    HW132774   0.842   2.727   1.244
10625SOL    HW232775   0.906   2.802   1.114
10626SOL     OW32776   0.525   2.466   3.062
10626SOL    HW132777   0.562   2.411   3.137
10626SOL    HW232778   0.547   2.422   2.975
10627SOL     OW32779   3.888   5.541   4.515
10627SOL    HW132780   3.838   5.529   4.601
10627SOL    HW232781   3.841   5.491   4.442
10628SOL     OW32782   6.884   6.467   4.924
10628SOL    HW132783   6.815   6.454   4.995
10628SOL    HW232784   6.962   6.516   4.962
10629SOL     OW32785   2.891   4.568   6.708
10629SOL    HW132786   2.869   4.480   6.666
10629SOL    HW232787   2.989   4.572   6.726
10630SOL     OW32788   5.495   1.434   1.555
10630SOL    HW132789   5.401   1.407   1.534
10630SOL    HW232790   5.497   1.489   1.638
10631SOL     OW32791   1.479   0.111   4.127
10631SOL    HW132792   1.560   0.062   4.161
10631SOL    HW232793   1.443   0.169   4.200
10632SOL     OW32794   6.533   2.773   0.056
10632SOL    HW132795   6.574   2.682   0.053
10632SOL    HW232796   6.513   2.804   6.983
10633SOL     OW32797   1.337   5.116   6.967
10633SOL    HW132798   1.353   5.212   6.948
10633SOL    HW232799   1.250   5.088   6.926
10634SOL     OW32800   3.437   6.455   2.029
10634SOL    HW132801   3.389   6.476   1.944
10634SOL    HW232802   3.535   6.463   2.015
10635SOL     OW32803   0.915   0.439   1.310
10635SOL    HW132804   0.963   0.521   1.341
10635SOL    HW232805   0.836   0.423   1.369
10636SOL     OW32806   4.757   2.077   6.919
10636SOL    HW132807   4.813   2.145   6.967
10636SOL    HW232808   4.801   1.988   6.925
10637SOL     OW32809   3.234   3.947   6.548
10637SOL    HW132810   3.331   3.963   6.529
10637SOL    HW232811   3.178   3.998   6.482
10638SOL     OW32812   6.884   1.226   5.459
10638SOL    HW132813   6.852   1.188   5.372
10638SOL    HW232814   6.805   1.257   5.513
10639SOL     OW32815   3.415   1.859   4.662
10639SOL    HW132816   3.327   1.840   4.705
10639SOL    HW232817   3.413   1.949   4.618
10640SOL     OW32818   4.635   6.383   0.630
10640SOL    HW132819   4.571   6.401   0.555
10640SOL    HW232820   4.719   6.435   0.615
10641SOL     OW32821   3.307   6.680   6.782
10641SOL    HW132822   3.406   6.673   6.768
10641SOL    HW232823   3.283   6.637   6.869
10642SOL     OW32824   0.604   5.967   1.759
10642SOL    HW132825   0.615   5.870   1.740
10642SOL    HW232826   0.694   6.010   1.770
10643SOL     OW32827   3.599   3.470   5.839
10643SOL    HW132828   3.597   3.555   5.787
10643SOL    HW232829   3.507   3.447   5.869
10644SOL     OW32830   4.026   1.114   5.778
10644SOL    HW132831   4.029   1.173   5.859
10644SOL    HW232832   4.115   1.113   5.734
10645SOL     OW32833   1.724   0.574   3.612
10645SOL    HW132834   1.661   0.556   3.687
10645SOL    HW232835   1.760   0.487   3.577
10646SOL     OW32836   6.651   5.115   6.428
10646SOL    HW132837   6.724   5.047   6.444
10646SOL    HW232838   6.643   5.174   6.508
10647SOL     OW32839   6.796   5.946   0.937
10647SOL    HW132840   6.869   5.885   0.970
10647SOL    HW232841   6.738   5.896   0.872
10648SOL     OW32842   4.812   4.256   6.267
10648SOL    HW132843   4.756   4.182   6.228
10648SOL    HW232844   4.859   4.223   6.348
10649SOL     OW32845   6.807   5.171   6.129
10649SOL    HW132846   6.745   5.203   6.201
10649SOL    HW232847   6.900   5.163   6.167
10650SOL     OW32848   1.832   7.005   5.702
10650SOL    HW132849   1.907   0.001   5.766
10650SOL    HW232850   1.748   6.986   5.754
10651SOL     OW32851   1.652   0.944   5.498
10651SOL    HW132852   1.632   1.030   5.450
10651SOL    HW232853   1.638   0.957   5.596
10652SOL     OW32854   4.924   0.190   0.244
10652SOL    HW132855   4.841   0.221   0.198
10652SOL    HW232856   4.959   0.108   0.199
10653SOL     OW32857   6.066   3.744   4.372
10653SOL    HW132858   6.076   3.775   4.277
10653SOL    HW232859   6.044   3.647   4.373
10654SOL     OW32860   4.894   0.178   1.327
10654SOL    HW132861   4.820   0.217   1.272
10654SOL    HW232862   4.951   0.252   1.363
10655SOL     OW32863   2.680   6.152   0.903
10655SOL    HW132864   2.634   6.178   0.818
10655SOL    HW232865   2.777   6.135   0.885
10656SOL     OW32866   6.839   2.574   6.117
10656SOL    HW132867   6.919   2.543   6.170
10656SOL    HW232868   6.858   2.565   6.020
10657SOL     OW32869   5.960   0.151   0.330
10657SOL    HW132870   5.923   0.244   0.324
10657SOL    HW232871   5.895   0.087   0.290
10658SOL     OW32872   0.156   6.491   4.004
10658SOL    HW132873   0.069   6.493   3.955
10658SOL    HW232874   0.151   6.426   4.079
10659SOL     OW32875   5.554   1.152   1.684
10659SOL    HW132876   5.615   1.217   1.728
10659SOL    HW232877   5.528   1.185   1.594
10660SOL     OW32878   4.813   4.942   5.250
10660SOL    HW132879   4.881   4.881   5.210
10660SOL    HW232880   4.777   5.003   5.180
10661SOL     OW32881   6.780   1.033   2.009
10661SOL    HW132882   6.749   1.056   1.917
10661SOL    HW232883   6.730   0.952   2.041
10662SOL     OW32884   0.748   1.807   0.759
10662SOL    HW132885   0.648   1.808   0.765
10662SOL    HW232886   0.784   1.738   0.823
10663SOL     OW32887   1.119   2.486   1.908
10663SOL    HW132888   1.040   2.443   1.864
10663SOL    HW232889   1.193   2.419   1.918
10664SOL     OW32890   2.190   5.094   6.492
10664SOL    HW132891   2.216   5.190   6.476
10664SOL    HW232892   2.184   5.078   6.590
10665SOL     OW32893   5.561   2.116   6.622
10665SOL    HW132894   5.574   2.169   6.538
10665SOL    HW232895   5.466   2.086   6.628
10666SOL     OW32896   0.594   6.652   0.277
10666SOL    HW132897   0.517   6.687   0.330
10666SOL    HW232898   0.584   6.680   0.181
10667SOL     OW32899   3.299   2.224   5.354
10667SOL    HW132900   3.241   2.142   5.359
10667SOL    HW232901   3.259   2.289   5.290
10668SOL     OW32902   1.373   0.464   6.260
10668SOL    HW132903   1.413   0.454   6.169
10668SOL    HW232904   1.437   0.511   6.321
10669SOL     OW32905   2.276   5.372   6.478
10669SOL    HW132906   2.231   5.419   6.554
10669SOL    HW232907   2.338   5.435   6.432
10670SOL     OW32908   5.902   4.358   4.894
10670SOL    HW132909   5.860   4.296   4.961
10670SOL    HW232910   5.940   4.304   4.818
10671SOL     OW32911   2.459   2.707   3.636
10671SOL    HW132912   2.492   2.621   3.674
10671SOL    HW232913   2.381   2.740   3.690
10672SOL     OW32914   6.843   2.499   0.314
10672SOL    HW132915   6.827   2.414   0.364
10672SOL    HW232916   6.936   2.499   0.277
10673SOL     OW32917   3.290   4.110   3.410
10673SOL    HW132918   3.286   4.012   3.425
10673SOL    HW232919   3.348   4.152   3.479
10674SOL     OW32920   4.335   1.425   2.504
10674SOL    HW132921   4.251   1.405   2.554
10674SOL    HW232922   4.316   1.427   2.406
10675SOL     OW32923   1.086   1.750   5.554
10675SOL    HW132924   1.130   1.796   5.631
10675SOL    HW232925   1.041   1.817   5.495
10676SOL     OW32926   5.912   0.625   6.718
10676SOL    HW132927   5.919   0.670   6.807
10676SOL    HW232928   5.879   0.531   6.730
10677SOL     OW32929   4.610   1.485   6.610
10677SOL    HW132930   4.704   1.515   6.594
10677SOL    HW232931   4.591   1.403   6.555
10678SOL     OW32932   2.142   5.087   3.947
10678SOL    HW132933   2.150   5.038   4.034
10678SOL    HW232934   2.050   5.074   3.910
10679SOL     OW32935   6.116   5.427   3.794
10679SOL    HW132936   6.132   5.369   3.713
10679SOL    HW232937   6.097   5.521   3.764
10680SOL     OW32938   0.095   2.792   3.556
10680SOL    HW132939   0.127   2.707   3.514
10680SOL    HW232940   7.019   2.782   3.584
10681SOL     OW32941   1.024   3.417   0.062
10681SOL    HW132942   1.067   3.462   7.003
10681SOL    HW232943   0.929   3.394   0.040
10682SOL     OW32944   6.230   2.046   3.764
10682SOL    HW132945   6.204   2.134   3.804
10682SOL    HW232946   6.256   1.983   3.838
10683SOL     OW32947   0.580   0.306   4.592
10683SOL    HW132948   0.656   0.312   4.527
10683SOL    HW232949   0.504   0.257   4.550
10684SOL     OW32950   5.067   5.829   0.695
10684SOL    HW132951   4.973   5.839   0.664
10684SOL    HW232952   5.074   5.861   0.790
10685SOL     OW32953   6.414   2.425   3.317
10685SOL    HW132954   6.439   2.378   3.233
10685SOL    HW232955   6.398   2.358   3.389
10686SOL     OW32956   5.345   4.432   1.320
10686SOL    HW132957   5.405   4.390   1.388
10686SOL    HW232958   5.280   4.492   1.367
10687SOL     OW32959   0.264   5.344   1.328
10687SOL    HW132960   0.216   5.271   1.377
10687SOL    HW232961   0.212   5.429   1.336
10688SOL     OW32962   1.269   4.712   0.907
10688SOL    HW132963   1.318   4.667   0.832
10688SOL    HW232964   1.172   4.691   0.901
10689SOL     OW32965   0.426   0.535   1.519
10689SOL    HW132966   0.331   0.506   1.521
10689SOL    HW232967   0.475   0.496   1.597
10690SOL     OW32968   3.833   0.730   3.017
10690SOL    HW132969   3.883   0.646   2.994
10690SOL    HW232970   3.801   0.724   3.111
10691SOL     OW32971   5.579   1.345   1.322
10691SOL    HW132972   5.673   1.372   1.302
10691SOL    HW232973   5.554   1.374   1.414
10692SOL     OW32974   5.676   6.448   3.694
10692SOL    HW132975   5.675   6.394   3.610
10692SOL    HW232976   5.722   6.535   3.677
10693SOL     OW32977   4.525   2.572   4.547
10693SOL    HW132978   4.463   2.494   4.547
10693SOL    HW232979   4.523   2.617   4.636
10694SOL     OW32980   3.195   6.272   0.084
10694SOL    HW132981   3.111   6.227   0.053
10694SOL    HW232982   3.247   6.208   0.141
10695SOL     OW32983   6.187   2.758   5.803
10695SOL    HW132984   6.150   2.820   5.734
10695SOL    HW232985   6.118   2.742   5.874
10696SOL     OW32986   6.444   0.546   0.969
10696SOL    HW132987   6.477   0.503   0.885
10696SOL    HW232988   6.365   0.496   1.003
10697SOL     OW32989   2.917   5.821   2.711
10697SOL    HW132990   2.967   5.899   2.674
10697SOL    HW232991   2.878   5.845   2.800
10698SOL     OW32992   3.834   0.078   4.102
10698SOL    HW132993   3.908   0.015   4.126
10698SOL    HW232994   3.873   0.168   4.080
10699SOL     OW32995   6.970   3.873   3.596
10699SOL    HW132996   0.018   3.939   3.562
10699SOL    HW232997   7.018   3.794   3.634
10700SOL     OW32998   0.846   3.170   2.763
10700SOL    HW132999   0.822   3.073   2.763
10700SOL    HW233000   0.879   3.196   2.854
10701SOL     OW33001   2.619   6.880   1.438
10701SOL    HW133002   2.613   6.878   1.338
10701SOL    HW233003   2.657   6.793   1.471
10702SOL     OW33004   4.946   2.207   0.948
10702SOL    HW133005   4.882   2.173   0.879
10702SOL    HW233006   4.919   2.174   1.038
10703SOL     OW33007   3.711   3.685   4.234
10703SOL    HW133008   3.720   3.682   4.135
10703SOL    HW233009   3.698   3.592   4.269
10704SOL     OW33010   5.256   5.218   1.428
10704SOL    HW133011   5.209   5.137   1.391
10704SOL    HW233012   5.353   5.215   1.402
10705SOL     OW33013   1.350   3.253   6.757
10705SOL    HW133014   1.324   3.297   6.843
10705SOL    HW233015   1.271   3.207   6.718
10706SOL     OW33016   3.175   3.601   0.786
10706SOL    HW133017   3.231   3.518   0.789
10706SOL    HW233018   3.150   3.621   0.692
10707SOL     OW33019   6.352   0.361   6.531
10707SOL    HW133020   6.263   0.364   6.487
10707SOL    HW233021   6.422   0.338   6.464
10708SOL     OW33022   4.669   3.037   1.428
10708SOL    HW133023   4.599   3.108   1.422
10708SOL    HW233024   4.711   3.038   1.519
10709SOL     OW33025   1.127   1.386   6.622
10709SOL    HW133026   1.128   1.354   6.717
10709SOL    HW233027   1.104   1.310   6.561
10710SOL     OW33028   6.850   6.721   3.667
10710SOL    HW133029   6.849   6.621   3.679
10710SOL    HW233030   6.896   6.764   3.744
10711SOL     OW33031   1.972   3.889   5.400
10711SOL    HW133032   1.918   3.815   5.440
10711SOL    HW233033   2.034   3.852   5.331
10712SOL     OW33034   3.953   2.342   6.160
10712SOL    HW133035   3.887   2.274   6.127
10712SOL    HW233036   4.046   2.311   6.139
10713SOL     OW33037   2.780   0.412   0.415
10713SOL    HW133038   2.787   0.315   0.438
10713SOL    HW233039   2.836   0.465   0.478
10714SOL     OW33040   4.883   5.835   4.503
10714SOL    HW133041   4.948   5.887   4.447
10714SOL    HW233042   4.812   5.796   4.445
10715SOL     OW33043   5.534   6.921   2.754
10715SOL    HW133044   5.583   7.008   2.742
10715SOL    HW233045   5.439   6.932   2.723
10716SOL     OW33046   6.514   2.046   2.400
10716SOL    HW133047   6.448   2.079   2.468
10716SOL    HW233048   6.606   2.076   2.425
10717SOL     OW33049   0.400   6.520   1.500
10717SOL    HW133050   0.356   6.580   1.433
10717SOL    HW233051   0.382   6.425   1.476
10718SOL     OW33052   6.816   5.058   5.138
10718SOL    HW133053   6.799   5.151   5.106
10718SOL    HW233054   6.878   5.061   5.216
10719SOL     OW33055   3.551   6.325   3.467
10719SOL    HW133056   3.582   6.358   3.556
10719SOL    HW233057   3.630   6.316   3.406
10720SOL     OW33058   0.981   3.158   5.905
10720SOL    HW133059   0.932   3.136   5.820
10720SOL    HW233060   1.021   3.249   5.898
10721SOL     OW33061   5.394   1.457   4.013
10721SOL    HW133062   5.416   1.416   4.101
10721SOL    HW233063   5.394   1.557   4.021
10722SOL     OW33064   0.787   5.170   0.820
10722SOL    HW133065   0.758   5.083   0.780
10722SOL    HW233066   0.872   5.200   0.777
10723SOL     OW33067   0.101   3.999   6.185
10723SOL    HW133068   0.081   3.951   6.099
10723SOL    HW233069   0.083   3.938   6.262
10724SOL     OW33070   3.732   6.393   5.747
10724SOL    HW133071   3.684   6.433   5.669
10724SOL    HW233072   3.800   6.459   5.782
10725SOL     OW33073   6.983   0.457   5.225
10725SOL    HW133074   0.032   0.423   5.289
10725SOL    HW233075   6.981   0.399   5.143
10726SOL     OW33076   6.662   0.490   3.369
10726SOL    HW133077   6.564   0.478   3.386
10726SOL    HW233078   6.676   0.559   3.297
10727SOL     OW33079   5.107   5.543   6.223
10727SOL    HW133080   5.189   5.598   6.211
10727SOL    HW233081   5.067   5.562   6.313
10728SOL     OW33082   5.130   6.251   4.315
10728SOL    HW133083   5.222   6.272   4.280
10728SOL    HW233084   5.114   6.302   4.399
10729SOL     OW33085   6.469   3.055   4.314
10729SOL    HW133086   6.392   3.068   4.376
10729SOL    HW233087   6.473   2.960   4.284
10730SOL     OW33088   1.103   6.142   4.190
10730SOL    HW133089   1.052   6.158   4.106
10730SOL    HW233090   1.048   6.170   4.269
10731SOL     OW33091   5.070   4.304   4.842
10731SOL    HW133092   5.016   4.332   4.922
10731SOL    HW233093   5.013   4.247   4.782
10732SOL     OW33094   5.699   5.948   2.556
10732SOL    HW133095   5.665   5.868   2.606
10732SOL    HW233096   5.655   5.952   2.466
10733SOL     OW33097   0.921   1.897   5.842
10733SOL    HW133098   0.910   1.889   5.941
10733SOL    HW233099   0.968   1.815   5.807
10734SOL     OW33100   0.576   0.660   4.759
10734SOL    HW133101   0.555   0.607   4.842
10734SOL    HW233102   0.645   0.729   4.780
10735SOL     OW33103   0.297   0.876   2.210
10735SOL    HW133104   0.232   0.830   2.149
10735SOL    HW233105   0.356   0.937   2.156
10736SOL     OW33106   5.438   6.057   4.366
10736SOL    HW133107   5.464   5.963   4.345
10736SOL    HW233108   5.415   6.105   4.282
10737SOL     OW33109   6.162   1.048   0.266
10737SOL    HW133110   6.152   1.147   0.268
10737SOL    HW233111   6.073   1.004   0.276
10738SOL     OW33112   0.526   6.228   2.228
10738SOL    HW133113   0.555   6.269   2.141
10738SOL    HW233114   0.436   6.263   2.253
10739SOL     OW33115   5.147   2.490   3.806
10739SOL    HW133116   5.129   2.392   3.803
10739SOL    HW233117   5.081   2.535   3.865
10740SOL     OW33118   3.052   0.974   6.379
10740SOL    HW133119   3.111   1.008   6.453
10740SOL    HW233120   3.099   0.899   6.331
10741SOL     OW33121   2.275   2.864   4.122
10741SOL    HW133122   2.309   2.946   4.167
10741SOL    HW233123   2.176   2.857   4.136
10742SOL     OW33124   6.952   0.200   2.264
10742SOL    HW133125   6.899   0.118   2.284
10742SOL    HW233126   7.011   0.221   2.342
10743SOL     OW33127   3.696   2.607   5.588
10743SOL    HW133128   3.677   2.705   5.583
10743SOL    HW233129   3.648   2.560   5.514
10744SOL     OW33130   1.576   1.041   0.614
10744SOL    HW133131   1.543   1.114   0.675
10744SOL    HW233132   1.662   1.070   0.571
10745SOL     OW33133   3.954   5.669   2.340
10745SOL    HW133134   3.854   5.675   2.344
10745SOL    HW233135   3.989   5.633   2.427
10746SOL     OW33136   2.624   5.603   6.133
10746SOL    HW133137   2.526   5.614   6.114
10746SOL    HW233138   2.674   5.678   6.089
10747SOL     OW33139   6.602   0.254   4.793
10747SOL    HW133140   6.623   0.265   4.696
10747SOL    HW233141   6.687   0.241   4.844
10748SOL     OW33142   3.701   6.312   2.645
10748SOL    HW133143   3.669   6.367   2.568
10748SOL    HW233144   3.796   6.335   2.664
10749SOL     OW33145   5.097   2.390   2.334
10749SOL    HW133146   5.054   2.342   2.258
10749SOL    HW233147   5.089   2.335   2.417
10750SOL     OW33148   3.026   1.482   4.422
10750SOL    HW133149   3.031   1.429   4.337
10750SOL    HW233150   3.091   1.557   4.419
10751SOL     OW33151   6.071   6.149   3.664
10751SOL    HW133152   6.000   6.080   3.668
10751SOL    HW233153   6.066   6.197   3.577
10752SOL     OW33154   0.288   6.122   6.390
10752SOL    HW133155   0.349   6.195   6.358
10752SOL    HW233156   0.193   6.148   6.372
10753SOL     OW33157   4.696   6.924   4.698
10753SOL    HW133158   4.787   6.953   4.727
10753SOL    HW233159   4.627   6.968   4.756
10754SOL     OW33160   6.625   5.736   2.158
10754SOL    HW133161   6.716   5.713   2.190
10754SOL    HW233162   6.579   5.793   2.227
10755SOL     OW33163   0.508   1.553   1.981
10755SOL    HW133164   0.479   1.635   2.031
10755SOL    HW233165   0.523   1.575   1.885
10756SOL     OW33166   0.681   0.241   0.135
10756SOL    HW133167   0.767   0.226   0.184
10756SOL    HW233168   0.700   0.284   0.047
10757SOL     OW33169   0.011   2.270   1.934
10757SOL    HW133170   6.976   2.346   1.897
10757SOL    HW233171   0.015   2.196   1.867
10758SOL     OW33172   0.241   1.329   0.999
10758SOL    HW133173   0.198   1.406   0.952
10758SOL    HW233174   0.329   1.308   0.957
10759SOL     OW33175   3.228   5.304   5.247
10759SOL    HW133176   3.312   5.263   5.282
10759SOL    HW233177   3.176   5.236   5.196
10760SOL     OW33178   1.084   4.641   7.015
10760SOL    HW133179   1.164   4.681   0.039
10760SOL    HW233180   1.010   4.632   0.063
10761SOL     OW33181   1.615   1.506   6.487
10761SOL    HW133182   1.640   1.601   6.507
10761SOL    HW233183   1.665   1.475   6.406
10762SOL     OW33184   1.363   6.152   1.130
10762SOL    HW133185   1.309   6.082   1.177
10762SOL    HW233186   1.361   6.135   1.031
10763SOL     OW33187   4.966   1.523   2.334
10763SOL    HW133188   4.929   1.583   2.406
10763SOL    HW233189   4.896   1.506   2.265
10764SOL     OW33190   5.195   0.042   4.004
10764SOL    HW133191   5.292   0.067   3.999
10764SOL    HW233192   5.158   0.071   4.092
10765SOL     OW33193   6.829   3.092   1.754
10765SOL    HW133194   6.772   3.173   1.735
10765SOL    HW233195   6.925   3.120   1.758
10766SOL     OW33196   3.422   5.532   6.804
10766SOL    HW133197   3.345   5.511   6.865
10766SOL    HW233198   3.446   5.628   6.813
10767SOL     OW33199   1.470   5.343   6.649
10767SOL    HW133200   1.456   5.435   6.612
10767SOL    HW233201   1.447   5.275   6.579
10768SOL     OW33202   5.798   5.887   0.030
10768SOL    HW133203   5.831   5.840   6.967
10768SOL    HW233204   5.785   5.984   0.010
10769SOL     OW33205   3.269   3.888   4.688
10769SOL    HW133206   3.304   3.977   4.659
10769SOL    HW233207   3.343   3.821   4.689
10770SOL     OW33208   4.432   0.493   4.162
10770SOL    HW133209   4.423   0.427   4.236
10770SOL    HW233210   4.496   0.458   4.093
10771SOL     OW33211   4.995   6.203   5.564
10771SOL    HW133212   4.922   6.258   5.604
10771SOL    HW233213   5.030   6.139   5.632
10772SOL     OW33214   5.018   3.060   4.122
10772SOL    HW133215   5.014   3.156   4.150
10772SOL    HW233216   4.926   3.022   4.117
10773SOL     OW33217   1.061   3.830   0.652
10773SOL    HW133218   1.147   3.882   0.652
10773SOL    HW233219   0.984   3.893   0.655
10774SOL     OW33220   6.585   3.049   0.458
10774SOL    HW133221   6.493   3.076   0.486
10774SOL    HW233222   6.610   2.964   0.504
10775SOL     OW33223   1.995   4.453   6.139
10775SOL    HW133224   1.903   4.413   6.133
10775SOL    HW233225   2.023   4.460   6.234
10776SOL     OW33226   6.869   3.741   3.170
10776SOL    HW133227   6.858   3.806   3.245
10776SOL    HW233228   6.807   3.664   3.184
10777SOL     OW33229   0.733   6.321   2.001
10777SOL    HW133230   0.747   6.227   1.971
10777SOL    HW233231   0.821   6.367   2.009
10778SOL     OW33232   4.973   6.946   3.447
10778SOL    HW133233   4.963   6.862   3.393
10778SOL    HW233234   4.953   6.927   3.543
10779SOL     OW33235   5.728   3.035   5.428
10779SOL    HW133236   5.703   3.094   5.351
10779SOL    HW233237   5.819   2.998   5.414
10780SOL     OW33238   1.014   5.651   4.871
10780SOL    HW133239   1.105   5.623   4.841
10780SOL    HW233240   0.981   5.589   4.942
10781SOL     OW33241   6.057   2.445   5.874
10781SOL    HW133242   6.082   2.541   5.887
10781SOL    HW233243   6.133   2.396   5.831
10782SOL     OW33244   1.539   3.209   5.115
10782SOL    HW133245   1.616   3.215   5.178
10782SOL    HW233246   1.456   3.239   5.162
10783SOL     OW33247   1.486   3.706   3.990
10783SOL    HW133248   1.472   3.800   4.019
10783SOL    HW233249   1.451   3.643   4.060
10784SOL     OW33250   4.794   5.286   3.934
10784SOL    HW133251   4.746   5.277   3.847
10784SOL    HW233252   4.728   5.299   4.008
10785SOL     OW33253   1.686   5.638   2.023
10785SOL    HW133254   1.751   5.595   1.960
10785SOL    HW233255   1.593   5.630   1.986
10786SOL     OW33256   4.965   1.264   2.647
10786SOL    HW133257   4.869   1.266   2.674
10786SOL    HW233258   4.981   1.335   2.578
10787SOL     OW33259   3.007   1.178   3.673
10787SOL    HW133260   3.104   1.174   3.695
10787SOL    HW233261   2.994   1.237   3.593
10788SOL     OW33262   1.526   3.191   6.550
10788SOL    HW133263   1.466   3.216   6.626
10788SOL    HW233264   1.613   3.240   6.559
10789SOL     OW33265   6.917   2.341   2.740
10789SOL    HW133266   6.827   2.371   2.771
10789SOL    HW233267   6.940   2.255   2.784
10790SOL     OW33268   6.920   2.944   5.234
10790SOL    HW133269   6.884   3.008   5.166
10790SOL    HW233270   6.959   2.994   5.311
10791SOL     OW33271   2.147   2.867   3.190
10791SOL    HW133272   2.094   2.922   3.255
10791SOL    HW233273   2.093   2.854   3.106
10792SOL     OW33274   3.872   1.065   2.445
10792SOL    HW133275   3.900   0.971   2.424
10792SOL    HW233276   3.875   1.120   2.362
10793SOL     OW33277   3.762   2.143   3.901
10793SOL    HW133278   3.742   2.231   3.944
10793SOL    HW233279   3.797   2.079   3.971
10794SOL     OW33280   4.533   2.737   0.116
10794SOL    HW133281   4.586   2.821   0.120
10794SOL    HW233282   4.546   2.686   0.201
10795SOL     OW33283   6.337   2.639   3.451
10795SOL    HW133284   6.379   2.551   3.431
10795SOL    HW233285   6.238   2.634   3.434
10796SOL     OW33286   6.831   2.187   6.603
10796SOL    HW133287   6.766   2.261   6.621
10796SOL    HW233288   6.913   2.201   6.658
10797SOL     OW33289   5.682   4.319   6.752
10797SOL    HW133290   5.585   4.313   6.731
10797SOL    HW233291   5.718   4.408   6.721
10798SOL     OW33292   2.542   5.785   0.673
10798SOL    HW133293   2.506   5.807   0.763
10798SOL    HW233294   2.534   5.686   0.657
10799SOL     OW33295   1.902   0.974   3.357
10799SOL    HW133296   1.917   1.065   3.396
10799SOL    HW233297   1.982   0.947   3.304
10800SOL     OW33298   1.165   0.355   5.201
10800SOL    HW133299   1.119   0.273   5.166
10800SOL    HW233300   1.123   0.436   5.161
10801SOL     OW33301   3.084   6.066   6.730
10801SOL    HW133302   3.053   6.088   6.822
10801SOL    HW233303   3.067   6.145   6.670
10802SOL     OW33304   0.814   4.842   3.407
10802SOL    HW133305   0.726   4.890   3.412
10802SOL    HW233306   0.875   4.877   3.477
10803SOL     OW33307   0.356   3.723   4.604
10803SOL    HW133308   0.348   3.821   4.621
10803SOL    HW233309   0.331   3.704   4.509
10804SOL     OW33310   4.554   5.306   6.512
10804SOL    HW133311   4.477   5.317   6.450
10804SOL    HW233312   4.633   5.272   6.461
10805SOL     OW33313   5.524   5.781   6.983
10805SOL    HW133314   5.444   5.757   6.927
10805SOL    HW233315   5.543   5.879   6.974
10806SOL     OW33316   6.321   3.112   5.035
10806SOL    HW133317   6.246   3.152   5.088
10806SOL    HW233318   6.409   3.137   5.076
10807SOL     OW33319   4.476   2.539   5.101
10807SOL    HW133320   4.382   2.561   5.126
10807SOL    HW233321   4.522   2.621   5.067
10808SOL     OW33322   0.629   2.422   1.127
10808SOL    HW133323   0.675   2.483   1.062
10808SOL    HW233324   0.554   2.471   1.172
10809SOL     OW33325   0.676   1.008   2.932
10809SOL    HW133326   0.725   0.968   3.010
10809SOL    HW233327   0.598   0.950   2.908
10810SOL     OW33328   1.954   2.102   6.453
10810SOL    HW133329   1.936   2.072   6.359
10810SOL    HW233330   2.005   2.188   6.452
10811SOL     OW33331   4.352   5.341   6.353
10811SOL    HW133332   4.272   5.282   6.362
10811SOL    HW233333   4.337   5.426   6.404
10812SOL     OW33334   6.752   3.184   2.278
10812SOL    HW133335   6.775   3.186   2.180
10812SOL    HW233336   6.686   3.256   2.297
10813SOL     OW33337   3.339   6.341   2.267
10813SOL    HW133338   3.383   6.382   2.187
10813SOL    HW233339   3.272   6.273   2.237
10814SOL     OW33340   1.664   6.009   4.357
10814SOL    HW133341   1.573   5.988   4.392
10814SOL    HW233342   1.681   6.107   4.365
10815SOL     OW33343   5.543   2.773   5.725
10815SOL    HW133344   5.605   2.851   5.711
10815SOL    HW233345   5.597   2.690   5.736
10816SOL     OW33346   2.319   2.789   1.281
10816SOL    HW133347   2.343   2.791   1.378
10816SOL    HW233348   2.223   2.762   1.271
10817SOL     OW33349   3.606   1.457   1.701
10817SOL    HW133350   3.663   1.534   1.727
10817SOL    HW233351   3.526   1.489   1.651
10818SOL     OW33352   4.247   3.637   5.392
10818SOL    HW133353   4.150   3.618   5.375
10818SOL    HW233354   4.302   3.564   5.352
10819SOL     OW33355   2.162   3.269   5.046
10819SOL    HW133356   2.227   3.326   5.096
10819SOL    HW233357   2.147   3.308   4.956
10820SOL     OW33358   0.470   6.302   5.174
10820SOL    HW133359   0.557   6.329   5.133
10820SOL    HW233360   0.486   6.227   5.239
10821SOL     OW33361   7.013   0.720   6.842
10821SOL    HW133362   6.929   0.746   6.793
10821SOL    HW233363   6.991   0.653   6.913
10822SOL     OW33364   0.179   5.552   5.545
10822SOL    HW133365   0.207   5.648   5.540
10822SOL    HW233366   0.260   5.494   5.538
10823SOL     OW33367   2.607   2.515   0.515
10823SOL    HW133368   2.574   2.467   0.433
10823SOL    HW233369   2.667   2.454   0.566
10824SOL     OW33370   5.069   1.398   4.740
10824SOL    HW133371   4.979   1.428   4.772
10824SOL    HW233372   5.120   1.476   4.704
10825SOL     OW33373   4.737   1.493   2.168
10825SOL    HW133374   4.716   1.399   2.197
10825SOL    HW233375   4.667   1.555   2.203
10826SOL     OW33376   0.170   3.222   0.839
10826SOL    HW133377   0.172   3.218   0.939
10826SOL    HW233378   0.118   3.302   0.810
10827SOL     OW33379   6.920   2.670   5.212
10827SOL    HW133380   6.915   2.764   5.180
10827SOL    HW233381   7.016   2.645   5.228
10828SOL     OW33382   3.008   4.502   0.055
10828SOL    HW133383   3.100   4.498   0.096
10828SOL    HW233384   2.940   4.477   0.124
10829SOL     OW33385   1.663   3.711   1.005
10829SOL    HW133386   1.725   3.648   0.958
10829SOL    HW233387   1.680   3.708   1.103
10830SOL     OW33388   6.066   0.294   3.926
10830SOL    HW133389   6.150   0.254   3.891
10830SOL    HW233390   5.989   0.234   3.904
10831SOL     OW33391   5.595   3.098   2.501
10831SOL    HW133392   5.513   3.043   2.489
10831SOL    HW233393   5.605   3.125   2.597
10832SOL     OW33394   1.678   3.018   2.067
10832SOL    HW133395   1.730   3.103   2.070
10832SOL    HW233396   1.682   2.980   1.974
10833SOL     OW33397   2.982   6.971   4.817
10833SOL    HW133398   3.063   6.988   4.872
10833SOL    HW233399   2.939   6.885   4.844
10834SOL     OW33400   6.753   2.251   5.602
10834SOL    HW133401   6.659   2.249   5.636
10834SOL    HW233402   6.753   2.227   5.505
10835SOL     OW33403   0.859   0.931   0.768
10835SOL    HW133404   0.809   0.859   0.817
10835SOL    HW233405   0.952   0.899   0.748
10836SOL     OW33406   6.882   1.407   1.285
10836SOL    HW133407   6.815   1.441   1.219
10836SOL    HW233408   6.890   1.308   1.276
10837SOL     OW33409   1.539   5.694   0.631
10837SOL    HW133410   1.633   5.710   0.661
10837SOL    HW233411   1.513   5.600   0.653
10838SOL     OW33412   6.356   6.162   1.249
10838SOL    HW133413   6.446   6.178   1.288
10838SOL    HW233414   6.362   6.162   1.149
10839SOL     OW33415   2.752   1.544   6.549
10839SOL    HW133416   2.808   1.560   6.630
10839SOL    HW233417   2.806   1.562   6.466
10840SOL     OW33418   0.871   0.968   3.105
10840SOL    HW133419   0.962   0.928   3.102
10840SOL    HW233420   0.876   1.065   3.082
10841SOL     OW33421   4.478   4.610   0.316
10841SOL    HW133422   4.469   4.604   0.217
10841SOL    HW233423   4.573   4.591   0.342
10842SOL     OW33424   5.865   1.729   2.072
10842SOL    HW133425   5.924   1.649   2.061
10842SOL    HW233426   5.769   1.701   2.065
10843SOL     OW33427   0.820   1.942   1.248
10843SOL    HW133428   0.790   1.997   1.170
10843SOL    HW233429   0.902   1.890   1.223
10844SOL     OW33430   4.413   6.710   3.890
10844SOL    HW133431   4.474   6.773   3.842
10844SOL    HW233432   4.434   6.616   3.862
10845SOL     OW33433   2.439   3.494   0.973
10845SOL    HW133434   2.471   3.526   0.884
10845SOL    HW233435   2.340   3.504   0.979
10846SOL     OW33436   3.108   2.271   1.464
10846SOL    HW133437   3.182   2.303   1.405
10846SOL    HW233438   3.049   2.209   1.412
10847SOL     OW33439   5.042   1.825   5.622
10847SOL    HW133440   5.141   1.836   5.628
10847SOL    HW233441   4.999   1.915   5.610
10848SOL     OW33442   2.220   0.511   6.335
10848SOL    HW133443   2.147   0.521   6.403
10848SOL    HW233444   2.307   0.539   6.375
10849SOL     OW33445   0.490   4.215   5.084
10849SOL    HW133446   0.586   4.198   5.059
10849SOL    HW233447   0.487   4.262   5.173
10850SOL     OW33448   5.722   0.677   3.013
10850SOL    HW133449   5.660   0.720   3.078
10850SOL    HW233450   5.775   0.746   2.966
10851SOL     OW33451   4.756   2.994   0.468
10851SOL    HW133452   4.781   2.925   0.537
10851SOL    HW233453   4.699   3.064   0.511
10852SOL     OW33454   5.946   1.195   5.844
10852SOL    HW133455   5.900   1.111   5.873
10852SOL    HW233456   5.883   1.252   5.792
10853SOL     OW33457   1.716   6.742   5.586
10853SOL    HW133458   1.779   6.803   5.633
10853SOL    HW233459   1.674   6.680   5.652
10854SOL     OW33460   5.643   6.784   6.819
10854SOL    HW133461   5.731   6.825   6.797
10854SOL    HW233462   5.655   6.688   6.844
10855SOL     OW33463   0.963   5.892   0.008
10855SOL    HW133464   0.908   5.938   0.078
10855SOL    HW233465   0.911   5.817   6.987
10856SOL     OW33466   4.694   0.003   6.486
10856SOL    HW133467   4.601   0.036   6.475
10856SOL    HW233468   4.692   6.924   6.508
10857SOL     OW33469   5.860   6.586   4.535
10857SOL    HW133470   5.840   6.489   4.524
10857SOL    HW233471   5.935   6.598   4.599
10858SOL     OW33472   1.703   2.833   1.168
10858SOL    HW133473   1.713   2.827   1.267
10858SOL    HW233474   1.720   2.743   1.127
10859SOL     OW33475   2.228   5.159   1.840
10859SOL    HW133476   2.322   5.183   1.814
10859SOL    HW233477   2.193   5.227   1.904
10860SOL     OW33478   5.657   1.528   2.121
10860SOL    HW133479   5.742   1.477   2.136
10860SOL    HW233480   5.599   1.521   2.202
10861SOL     OW33481   2.587   4.777   1.092
10861SOL    HW133482   2.571   4.709   1.021
10861SOL    HW233483   2.657   4.744   1.155
10862SOL     OW33484   3.965   4.761   5.320
10862SOL    HW133485   3.877   4.741   5.362
10862SOL    HW233486   4.036   4.706   5.364
10863SOL     OW33487   0.248   6.862   4.265
10863SOL    HW133488   0.300   6.791   4.311
10863SOL    HW233489   0.249   6.945   4.321
10864SOL     OW33490   2.910   3.356   2.801
10864SOL    HW133491   2.924   3.370   2.703
10864SOL    HW233492   2.960   3.427   2.852
10865SOL     OW33493   3.470   1.968   2.082
10865SOL    HW133494   3.526   2.048   2.061
10865SOL    HW233495   3.511   1.886   2.043
10866SOL     OW33496   0.424   3.523   5.207
10866SOL    HW133497   0.418   3.431   5.170
10866SOL    HW233498   0.415   3.590   5.133
10867SOL     OW33499   5.264   3.267   0.226
10867SOL    HW133500   5.316   3.184   0.246
10867SOL    HW233501   5.191   3.279   0.293
10868SOL     OW33502   6.958   0.311   6.086
10868SOL    HW133503   0.030   0.277   6.110
10868SOL    HW233504   6.930   0.381   6.153
10869NA      NA33505   6.594   1.288   6.918
10870NA      NA33506   4.800   4.669   4.830
10871NA      NA33507   1.054   4.628   3.039
10872NA      NA33508   6.544   3.412   3.566
10873NA      NA33509   4.351   2.325   5.156
10874NA      NA33510   2.574   3.412   6.919
10875NA      NA33511   1.585   5.513   0.203
10876NA      NA33512   4.279   4.815   1.938
10877NA      NA33513   5.513   3.705   1.194
10878NA      NA33514   3.561   2.050   0.334
10879NA      NA33515   5.024   6.170   1.775
10880NA      NA33516   2.603   6.507   4.529
10881NA      NA33517   3.290   5.516   2.779
10882NA      NA33518   4.530   4.973   5.828
   7.01928   7.01928   7.01928
