Generated by trjconv : CNT in water t= 493.00000
33518
    1C        C    1   2.842   2.765   4.747
    1C        C    2   2.898   2.716   4.866
    1C        C    3   2.846   2.772   4.984
    1C        C    4   2.846   2.771   4.259
    1C        C    5   2.901   2.728   4.382
    1C        C    6   2.851   2.777   4.505
    1C        C    7   3.018   2.645   4.627
    1C        C    8   2.900   2.722   4.625
    1C        C    9   3.079   2.603   4.748
    1C        C   10   3.009   2.629   4.868
    1C        C   11   3.185   2.495   4.979
    1C        C   12   3.065   2.568   4.981
    1C        C   13   2.849   2.769   3.771
    1C        C   14   2.899   2.721   3.894
    1C        C   15   2.846   2.768   4.016
    1C        C   16   3.018   2.643   4.140
    1C        C   17   2.902   2.725   4.138
    1C        C   18   3.082   2.615   4.263
    1C        C   19   3.019   2.651   4.384
    1C        C   20   3.209   2.552   4.503
    1C        C   21   3.080   2.611   4.505
    1C        C   22   3.278   2.529   4.624
    1C        C   23   3.210   2.549   4.746
    1C        C   24   3.414   2.481   4.865
    1C        C   25   3.272   2.504   4.866
    1C        C   26   3.490   2.480   4.983
    1C        C   27   2.849   2.766   3.283
    1C        C   28   2.903   2.722   3.406
    1C        C   29   2.850   2.770   3.528
    1C        C   30   3.018   2.638   3.650
    1C        C   31   2.904   2.721   3.649
    1C        C   32   3.077   2.601   3.773
    1C        C   33   3.014   2.639   3.894
    1C        C   34   3.206   2.550   4.016
    1C        C   35   3.076   2.606   4.016
    1C        C   36   3.276   2.535   4.138
    1C        C   37   3.211   2.559   4.260
    1C        C   38   3.418   2.511   4.381
    1C        C   39   3.278   2.531   4.382
    1C        C   40   3.488   2.502   4.503
    1C        C   41   3.417   2.502   4.625
    1C        C   42   3.631   2.480   4.744
    1C        C   43   3.489   2.480   4.744
    1C        C   44   3.707   2.480   4.863
    1C        C   45   3.629   2.473   4.979
    1C        C   46   2.842   2.754   2.794
    1C        C   47   2.899   2.714   2.917
    1C        C   48   2.846   2.765   3.038
    1C        C   49   3.015   2.636   3.161
    1C        C   50   2.902   2.720   3.160
    1C        C   51   3.081   2.604   3.283
    1C        C   52   3.019   2.641   3.404
    1C        C   53   3.209   2.550   3.529
    1C        C   54   3.080   2.607   3.527
    1C        C   55   3.276   2.524   3.651
    1C        C   56   3.206   2.543   3.772
    1C        C   57   3.413   2.507   3.893
    1C        C   58   3.273   2.522   3.895
    1C        C   59   3.486   2.508   4.015
    1C        C   60   3.416   2.513   4.137
    1C        C   61   3.629   2.509   4.258
    1C        C   62   3.488   2.504   4.258
    1C        C   63   3.702   2.511   4.380
    1C        C   64   3.629   2.499   4.500
    1C        C   65   3.835   2.542   4.622
    1C        C   66   3.700   2.502   4.623
    1C        C   67   3.908   2.557   4.742
    1C        C   68   3.842   2.520   4.861
    1C        C   69   4.053   2.586   4.978
    1C        C   70   3.924   2.533   4.974
    1C        C   71   2.822   2.731   2.308
    1C        C   72   2.881   2.692   2.430
    1C        C   73   2.832   2.747   2.551
    1C        C   74   3.006   2.622   2.672
    1C        C   75   2.891   2.704   2.672
    1C        C   76   3.072   2.595   2.794
    1C        C   77   3.014   2.631   2.918
    1C        C   78   3.205   2.542   3.037
    1C        C   79   3.073   2.593   3.040
    1C        C   80   3.274   2.524   3.160
    1C        C   81   3.211   2.549   3.284
    1C        C   82   3.415   2.501   3.404
    1C        C   83   3.277   2.529   3.407
    1C        C   84   3.484   2.496   3.527
    1C        C   85   3.416   2.502   3.650
    1C        C   86   3.627   2.510   3.769
    1C        C   87   3.486   2.499   3.773
    1C        C   88   3.697   2.512   3.891
    1C        C   89   3.627   2.506   4.014
    1C        C   90   3.836   2.551   4.136
    1C        C   91   3.699   2.516   4.136
    1C        C   92   3.904   2.574   4.257
    1C        C   93   3.837   2.551   4.380
    1C        C   94   4.030   2.636   4.502
    1C        C   95   3.905   2.570   4.502
    1C        C   96   4.092   2.673   4.623
    1C        C   97   4.034   2.623   4.742
    1C        C   98   4.191   2.769   4.864
    1C        C   99   4.100   2.658   4.863
    1C        C  100   4.219   2.842   4.980
    1C        C  101   2.824   2.733   2.071
    1C        C  102   2.985   2.584   2.191
    1C        C  103   2.877   2.678   2.188
    1C        C  104   3.062   2.574   2.310
    1C        C  105   3.002   2.619   2.430
    1C        C  106   3.198   2.530   2.551
    1C        C  107   3.068   2.587   2.550
    1C        C  108   3.271   2.518   2.671
    1C        C  109   3.203   2.542   2.792
    1C        C  110   3.410   2.495   2.916
    1C        C  111   3.271   2.522   2.914
    1C        C  112   3.482   2.493   3.037
    1C        C  113   3.413   2.498   3.160
    1C        C  114   3.627   2.502   3.279
    1C        C  115   3.486   2.496   3.281
    1C        C  116   3.695   2.512   3.403
    1C        C  117   3.625   2.505   3.525
    1C        C  118   3.835   2.548   3.647
    1C        C  119   3.697   2.516   3.646
    1C        C  120   3.900   2.574   3.770
    1C        C  121   3.832   2.550   3.893
    1C        C  122   4.029   2.638   4.014
    1C        C  123   3.901   2.578   4.013
    1C        C  124   4.093   2.670   4.136
    1C        C  125   4.030   2.638   4.258
    1C        C  126   4.199   2.765   4.379
    1C        C  127   4.090   2.675   4.380
    1C        C  128   4.248   2.817   4.500
    1C        C  129   4.198   2.767   4.622
    1C        C  130   4.331   2.934   4.741
    1C        C  131   4.248   2.819   4.744
    1C        C  132   4.359   3.002   4.862
    1C        C  133   4.287   2.963   4.976
    1C        C  134   3.173   2.466   2.081
    1C        C  135   3.041   2.510   2.081
    1C        C  136   3.259   2.479   2.191
    1C        C  137   3.195   2.521   2.309
    1C        C  138   3.404   2.483   2.428
    1C        C  139   3.264   2.499   2.430
    1C        C  140   3.481   2.491   2.546
    1C        C  141   3.411   2.500   2.669
    1C        C  142   3.619   2.503   2.790
    1C        C  143   3.479   2.491   2.793
    1C        C  144   3.692   2.510   2.911
    1C        C  145   3.623   2.496   3.034
    1C        C  146   3.831   2.541   3.159
    1C        C  147   3.694   2.506   3.155
    1C        C  148   3.897   2.572   3.280
    1C        C  149   3.833   2.544   3.402
    1C        C  150   4.028   2.628   3.523
    1C        C  151   3.901   2.566   3.524
    1C        C  152   4.086   2.670   3.645
    1C        C  153   4.027   2.635   3.769
    1C        C  154   4.197   2.763   3.890
    1C        C  155   4.084   2.678   3.891
    1C        C  156   4.251   2.811   4.011
    1C        C  157   4.202   2.760   4.133
    1C        C  158   4.343   2.918   4.255
    1C        C  159   4.251   2.811   4.255
    1C        C  160   4.379   2.982   4.375
    1C        C  161   4.336   2.928   4.498
    1C        C  162   4.441   3.115   4.617
    1C        C  163   4.369   2.993   4.619
    1C        C  164   4.473   3.183   4.736
    1C        C  165   4.436   3.120   4.857
    1C        C  166   4.512   3.320   4.975
    1C        C  167   4.469   3.188   4.975
    1C        C  168   3.477   2.436   2.074
    1C        C  169   3.399   2.455   2.188
    1C        C  170   3.617   2.469   2.307
    1C        C  171   3.475   2.465   2.307
    1C        C  172   3.693   2.490   2.424
    1C        C  173   3.622   2.497   2.546
    1C        C  174   3.829   2.541   2.667
    1C        C  175   3.692   2.508   2.669
    1C        C  176   3.898   2.559   2.790
    1C        C  177   3.830   2.541   2.912
    1C        C  178   4.024   2.622   3.032
    1C        C  179   3.895   2.564   3.035
    1C        C  180   4.087   2.660   3.153
    1C        C  181   4.025   2.633   3.277
    1C        C  182   4.200   2.748   3.397
    1C        C  183   4.088   2.662   3.400
    1C        C  184   4.249   2.799   3.520
    1C        C  185   4.199   2.755   3.644
    1C        C  186   4.341   2.914   3.766
    1C        C  187   4.250   2.805   3.766
    1C        C  188   4.381   2.975   3.886
    1C        C  189   4.342   2.920   4.010
    1C        C  190   4.446   3.103   4.130
    1C        C  191   4.385   2.975   4.132
    1C        C  192   4.469   3.173   4.250
    1C        C  193   4.444   3.108   4.373
    1C        C  194   4.504   3.314   4.492
    1C        C  195   4.473   3.176   4.493
    1C        C  196   4.521   3.387   4.612
    1C        C  197   4.509   3.321   4.737
    1C        C  198   4.548   3.536   4.852
    1C        C  199   4.529   3.394   4.857
    1C        C  200   4.576   3.620   4.964
    1C        C  201   3.616   2.416   2.075
    1C        C  202   3.828   2.506   2.184
    1C        C  203   3.693   2.460   2.187
    1C        C  204   3.900   2.537   2.303
    1C        C  205   3.830   2.523   2.425
    1C        C  206   4.024   2.618   2.543
    1C        C  207   3.897   2.557   2.545
    1C        C  208   4.083   2.658   2.665
    1C        C  209   4.023   2.625   2.789
    1C        C  210   4.195   2.749   2.907
    1C        C  211   4.084   2.662   2.911
    1C        C  212   4.252   2.791   3.029
    1C        C  213   4.200   2.745   3.152
    1C        C  214   4.340   2.904   3.273
    1C        C  215   4.251   2.795   3.274
    1C        C  216   4.376   2.966   3.395
    1C        C  217   4.337   2.909   3.519
    1C        C  218   4.436   3.097   3.641
    1C        C  219   4.378   2.969   3.641
    1C        C  220   4.459   3.169   3.760
    1C        C  221   4.441   3.104   3.884
    1C        C  222   4.501   3.305   4.004
    1C        C  223   4.471   3.167   4.006
    1C        C  224   4.509   3.379   4.124
    1C        C  225   4.504   3.310   4.247
    1C        C  226   4.513   3.523   4.368
    1C        C  227   4.514   3.382   4.369
    1C        C  228   4.514   3.598   4.487
    1C        C  229   4.523   3.528   4.609
    1C        C  230   4.505   3.743   4.726
    1C        C  231   4.533   3.604   4.728
    1C        C  232   4.498   3.822   4.843
    1C        C  233   4.546   3.756   4.958
    1C        C  234   4.017   2.614   2.065
    1C        C  235   3.897   2.545   2.068
    1C        C  236   4.087   2.647   2.182
    1C        C  237   4.026   2.604   2.302
    1C        C  238   4.204   2.730   2.423
    1C        C  239   4.087   2.650   2.420
    1C        C  240   4.258   2.781   2.544
    1C        C  241   4.196   2.742   2.665
    1C        C  242   4.346   2.898   2.785
    1C        C  243   4.251   2.793   2.785
    1C        C  244   4.386   2.956   2.907
    1C        C  245   4.344   2.899   3.030
    1C        C  246   4.436   3.092   3.151
    1C        C  247   4.380   2.962   3.151
    1C        C  248   4.458   3.161   3.272
    1C        C  249   4.429   3.097   3.395
    1C        C  250   4.490   3.299   3.515
    1C        C  251   4.456   3.162   3.517
    1C        C  252   4.505   3.372   3.635
    1C        C  253   4.491   3.307   3.760
    1C        C  254   4.520   3.517   3.881
    1C        C  255   4.508   3.377   3.882
    1C        C  256   4.516   3.592   4.001
    1C        C  257   4.515   3.520   4.123
    1C        C  258   4.486   3.731   4.241
    1C        C  259   4.507   3.591   4.244
    1C        C  260   4.469   3.805   4.360
    1C        C  261   4.488   3.737   4.483
    1C        C  262   4.422   3.940   4.601
    1C        C  263   4.472   3.808   4.604
    1C        C  264   4.401   4.012   4.721
    1C        C  265   4.436   3.949   4.843
    1C        C  266   4.314   4.130   4.958
    1C        C  267   4.388   4.013   4.958
    1C        C  268   4.264   2.778   2.062
    1C        C  269   4.201   2.730   2.178
    1C        C  270   4.349   2.885   2.301
    1C        C  271   4.255   2.778   2.300
    1C        C  272   4.392   2.946   2.421
    1C        C  273   4.350   2.888   2.542
    1C        C  274   4.446   3.082   2.664
    1C        C  275   4.386   2.954   2.662
    1C        C  276   4.472   3.150   2.785
    1C        C  277   4.451   3.081   2.907
    1C        C  278   4.505   3.288   3.026
    1C        C  279   4.472   3.150   3.028
    1C        C  280   4.505   3.363   3.146
    1C        C  281   4.496   3.297   3.271
    1C        C  282   4.505   3.510   3.388
    1C        C  283   4.503   3.368   3.392
    1C        C  284   4.502   3.578   3.512
    1C        C  285   4.509   3.513   3.637
    1C        C  286   4.481   3.724   3.753
    1C        C  287   4.508   3.585   3.758
    1C        C  288   4.466   3.796   3.874
    1C        C  289   4.486   3.730   3.997
    1C        C  290   4.417   3.931   4.117
    1C        C  291   4.467   3.799   4.119
    1C        C  292   4.388   3.999   4.237
    1C        C  293   4.424   3.939   4.360
    1C        C  294   4.324   4.129   4.481
    1C        C  295   4.393   4.006   4.480
    1C        C  296   4.287   4.194   4.601
    1C        C  297   4.333   4.136   4.721
    1C        C  298   4.204   4.317   4.838
    1C        C  299   4.286   4.199   4.840
    1C        C  300   4.168   4.400   4.949
    1C        C  301   4.352   2.885   2.064
    1C        C  302   4.473   3.066   2.180
    1C        C  303   4.398   2.945   2.182
    1C        C  304   4.484   3.141   2.300
    1C        C  305   4.450   3.075   2.420
    1C        C  306   4.507   3.283   2.537
    1C        C  307   4.471   3.146   2.541
    1C        C  308   4.512   3.355   2.658
    1C        C  309   4.501   3.288   2.781
    1C        C  310   4.518   3.499   2.900
    1C        C  311   4.515   3.357   2.903
    1C        C  312   4.510   3.572   3.020
    1C        C  313   4.509   3.504   3.144
    1C        C  314   4.478   3.717   3.263
    1C        C  315   4.502   3.577   3.264
    1C        C  316   4.464   3.785   3.386
    1C        C  317   4.481   3.718   3.509
    1C        C  318   4.420   3.924   3.627
    1C        C  319   4.461   3.789   3.629
    1C        C  320   4.391   3.991   3.749
    1C        C  321   4.420   3.930   3.873
    1C        C  322   4.313   4.115   3.990
    1C        C  323   4.388   3.995   3.994
    1C        C  324   4.280   4.178   4.112
    1C        C  325   4.326   4.126   4.236
    1C        C  326   4.188   4.287   4.355
    1C        C  327   4.286   4.186   4.357
    1C        C  328   4.140   4.346   4.474
    1C        C  329   4.194   4.300   4.597
    1C        C  330   4.026   4.438   4.714
    1C        C  331   4.142   4.355   4.716
    1C        C  332   3.971   4.497   4.830
    1C        C  333   4.052   4.479   4.943
    1C        C  334   4.552   3.266   2.060
    1C        C  335   4.535   3.127   2.066
    1C        C  336   4.536   3.348   2.173
    1C        C  337   4.508   3.281   2.295
    1C        C  338   4.520   3.496   2.412
    1C        C  339   4.514   3.355   2.415
    1C        C  340   4.515   3.566   2.534
    1C        C  341   4.512   3.496   2.657
    1C        C  342   4.485   3.709   2.774
    1C        C  343   4.508   3.570   2.778
    1C        C  344   4.468   3.779   2.896
    1C        C  345   4.483   3.711   3.019
    1C        C  346   4.418   3.916   3.138
    1C        C  347   4.461   3.782   3.139
    1C        C  348   4.390   3.983   3.260
    1C        C  349   4.419   3.919   3.383
    1C        C  350   4.318   4.107   3.502
    1C        C  351   4.393   3.988   3.504
    1C        C  352   4.278   4.169   3.622
    1C        C  353   4.322   4.114   3.745
    1C        C  354   4.181   4.275   3.865
    1C        C  355   4.276   4.171   3.866
    1C        C  356   4.132   4.327   3.987
    1C        C  357   4.187   4.284   4.110
    1C        C  358   4.019   4.413   4.230
    1C        C  359   4.134   4.331   4.232
    1C        C  360   3.959   4.458   4.349
    1C        C  361   4.025   4.428   4.470
    1C        C  362   3.832   4.519   4.594
    1C        C  363   3.964   4.468   4.591
    1C        C  364   3.764   4.546   4.714
    1C        C  365   3.838   4.544   4.834
    1C        C  366   3.630   4.590   4.949
    1C        C  367   3.767   4.570   4.953
    1C        C  368   4.507   3.562   2.053
    1C        C  369   4.517   3.488   2.171
    1C        C  370   4.495   3.705   2.289
    1C        C  371   4.508   3.565   2.289
    1C        C  372   4.479   3.777   2.410
    1C        C  373   4.496   3.706   2.531
    1C        C  374   4.427   3.910   2.648
    1C        C  375   4.475   3.778   2.651
    1C        C  376   4.396   3.974   2.770
    1C        C  377   4.425   3.913   2.894
    1C        C  378   4.320   4.100   3.010
    1C        C  379   4.395   3.980   3.014
    1C        C  380   4.274   4.155   3.132
    1C        C  381   4.317   4.103   3.256
    1C        C  382   4.180   4.265   3.378
    1C        C  383   4.279   4.164   3.378
    1C        C  384   4.126   4.315   3.498
    1C        C  385   4.183   4.273   3.620
    1C        C  386   4.011   4.397   3.741
    1C        C  387   4.130   4.322   3.742
    1C        C  388   3.951   4.435   3.863
    1C        C  389   4.013   4.405   3.986
    1C        C  390   3.822   4.494   4.110
    1C        C  391   3.954   4.444   4.108
    1C        C  392   3.753   4.511   4.232
    1C        C  393   3.825   4.503   4.353
    1C        C  394   3.619   4.553   4.475
    1C        C  395   3.759   4.535   4.474
    1C        C  396   3.548   4.561   4.596
    1C        C  397   3.623   4.557   4.716
    1C        C  398   3.412   4.544   4.837
    1C        C  399   3.550   4.572   4.836
    1C        C  400   3.343   4.512   4.955
    1C        C  401   4.498   3.701   2.050
    1C        C  402   4.445   3.911   2.162
    1C        C  403   4.489   3.777   2.168
    1C        C  404   4.413   3.978   2.283
    1C        C  405   4.437   3.912   2.405
    1C        C  406   4.323   4.094   2.523
    1C        C  407   4.401   3.977   2.525
    1C        C  408   4.282   4.153   2.645
    1C        C  409   4.324   4.096   2.767
    1C        C  410   4.179   4.256   2.889
    1C        C  411   4.277   4.154   2.887
    1C        C  412   4.133   4.310   3.011
    1C        C  413   4.184   4.264   3.134
    1C        C  414   4.008   4.384   3.252
    1C        C  415   4.129   4.312   3.255
    1C        C  416   3.947   4.423   3.373
    1C        C  417   4.009   4.395   3.496
    1C        C  418   3.816   4.480   3.618
    1C        C  419   3.949   4.432   3.619
    1C        C  420   3.751   4.501   3.741
    1C        C  421   3.819   4.486   3.864
    1C        C  422   3.614   4.533   3.987
    1C        C  423   3.753   4.510   3.987
    1C        C  424   3.544   4.536   4.109
    1C        C  425   3.614   4.537   4.231
    1C        C  426   3.404   4.538   4.355
    1C        C  427   3.545   4.546   4.354
    1C        C  428   3.336   4.539   4.478
    1C        C  429   3.407   4.554   4.599
    1C        C  430   3.195   4.512   4.721
    1C        C  431   3.334   4.543   4.720
    1C        C  432   3.129   4.492   4.845
    1C        C  433   3.206   4.490   4.962
    1C        C  434   4.383   4.120   2.048
    1C        C  435   4.444   3.994   2.050
    1C        C  436   4.306   4.165   2.160
    1C        C  437   4.340   4.099   2.282
    1C        C  438   4.188   4.254   2.402
    1C        C  439   4.289   4.156   2.401
    1C        C  440   4.133   4.304   2.522
    1C        C  441   4.189   4.259   2.644
    1C        C  442   4.008   4.374   2.765
    1C        C  443   4.130   4.303   2.765
    1C        C  444   3.948   4.412   2.887
    1C        C  445   4.013   4.385   3.010
    1C        C  446   3.815   4.473   3.129
    1C        C  447   3.946   4.420   3.130
    1C        C  448   3.748   4.492   3.252
    1C        C  449   3.815   4.474   3.375
    1C        C  450   3.608   4.528   3.495
    1C        C  451   3.746   4.497   3.496
    1C        C  452   3.542   4.537   3.619
    1C        C  453   3.613   4.532   3.742
    1C        C  454   3.402   4.537   3.863
    1C        C  455   3.544   4.541   3.864
    1C        C  456   3.334   4.533   3.987
    1C        C  457   3.403   4.533   4.110
    1C        C  458   3.196   4.494   4.235
    1C        C  459   3.334   4.523   4.233
    1C        C  460   3.127   4.485   4.358
    1C        C  461   3.197   4.513   4.478
    1C        C  462   2.997   4.436   4.603
    1C        C  463   3.126   4.494   4.599
    1C        C  464   2.933   4.400   4.724
    1C        C  465   2.994   4.443   4.845
    1C        C  466   2.804   4.336   4.959
    1C        C  467   2.908   4.429   4.959
    1C        C  468   4.126   4.288   2.042
    1C        C  469   4.192   4.251   2.159
    1C        C  470   4.010   4.371   2.276
    1C        C  471   4.131   4.297   2.279
    1C        C  472   3.946   4.402   2.398
    1C        C  473   4.010   4.374   2.521
    1C        C  474   3.819   4.468   2.643
    1C        C  475   3.946   4.406   2.642
    1C        C  476   3.748   4.489   2.763
    1C        C  477   3.819   4.467   2.884
    1C        C  478   3.611   4.516   3.006
    1C        C  479   3.750   4.492   3.005
    1C        C  480   3.540   4.528   3.128
    1C        C  481   3.610   4.519   3.251
    1C        C  482   3.397   4.531   3.376
    1C        C  483   3.539   4.532   3.372
    1C        C  484   3.329   4.526   3.499
    1C        C  485   3.401   4.536   3.620
    1C        C  486   3.193   4.498   3.744
    1C        C  487   3.330   4.532   3.742
    1C        C  488   3.133   4.470   3.869
    1C        C  489   3.197   4.498   3.992
    1C        C  490   3.002   4.412   4.116
    1C        C  491   3.128   4.475   4.112
    1C        C  492   2.942   4.381   4.241
    1C        C  493   2.998   4.428   4.361
    1C        C  494   2.830   4.301   4.483
    1C        C  495   2.933   4.397   4.483
    1C        C  496   2.776   4.254   4.605
    1C        C  497   2.823   4.310   4.726
    1C        C  498   2.664   4.164   4.847
    1C        C  499   2.756   4.271   4.844
    1C        C  500   2.592   4.115   4.957
    1C        C  501   4.002   4.351   2.037
    1C        C  502   3.816   4.460   2.157
    1C        C  503   3.943   4.398   2.155
    1C        C  504   3.746   4.481   2.277
    1C        C  505   3.815   4.454   2.398
    1C        C  506   3.611   4.505   2.521
    1C        C  507   3.750   4.482   2.520
    1C        C  508   3.538   4.516   2.641
    1C        C  509   3.609   4.513   2.763
    1C        C  510   3.397   4.524   2.885
    1C        C  511   3.538   4.524   2.885
    1C        C  512   3.327   4.519   3.007
    1C        C  513   3.399   4.530   3.128
    1C        C  514   3.193   4.491   3.255
    1C        C  515   3.330   4.525   3.252
    1C        C  516   3.127   4.463   3.377
    1C        C  517   3.192   4.493   3.499
    1C        C  518   3.001   4.411   3.626
    1C        C  519   3.124   4.479   3.622
    1C        C  520   2.944   4.373   3.749
    1C        C  521   3.007   4.406   3.871
    1C        C  522   2.839   4.279   3.995
    1C        C  523   2.945   4.372   3.993
    1C        C  524   2.792   4.230   4.119
    1C        C  525   2.838   4.285   4.241
    1C        C  526   2.698   4.129   4.365
    1C        C  527   2.785   4.240   4.364
    1C        C  528   2.652   4.077   4.488
    1C        C  529   2.684   4.148   4.606
    1C        C  530   2.585   3.961   4.731
    1C        C  531   2.637   4.093   4.727
    1C        C  532   2.543   3.901   4.853
    1C        C  533   2.523   3.994   4.961
    1C        C  534   3.618   4.552   2.038
    1C        C  535   3.751   4.507   2.042
    1C        C  536   3.538   4.534   2.155
    1C        C  537   3.606   4.506   2.277
    1C        C  538   3.396   4.519   2.400
    1C        C  539   3.537   4.511   2.401
    1C        C  540   3.326   4.508   2.522
    1C        C  541   3.397   4.511   2.644
    1C        C  542   3.185   4.482   2.766
    1C        C  543   3.323   4.512   2.765
    1C        C  544   3.119   4.463   2.889
    1C        C  545   3.190   4.483   3.010
    1C        C  546   2.998   4.400   3.135
    1C        C  547   3.125   4.463   3.134
    1C        C  548   2.942   4.362   3.259
    1C        C  549   3.000   4.401   3.381
    1C        C  550   2.831   4.279   3.506
    1C        C  551   2.940   4.369   3.505
    1C        C  552   2.780   4.235   3.630
    1C        C  553   2.831   4.287   3.751
    1C        C  554   2.695   4.124   3.878
    1C        C  555   2.785   4.232   3.873
    1C        C  556   2.650   4.069   4.000
    1C        C  557   2.695   4.127   4.121
    1C        C  558   2.592   3.943   4.247
    1C        C  559   2.657   4.069   4.244
    1C        C  560   2.564   3.880   4.370
    1C        C  561   2.592   3.949   4.490
    1C        C  562   2.530   3.748   4.617
    1C        C  563   2.564   3.886   4.613
    1C        C  564   2.518   3.679   4.739
    1C        C  565   2.519   3.760   4.856
    1C        C  566   2.526   3.544   4.979
    1C        C  567   2.512   3.683   4.972
    1C        C  568   3.327   4.477   2.042
    1C        C  569   3.398   4.515   2.157
    1C        C  570   3.186   4.475   2.280
    1C        C  571   3.324   4.509   2.279
    1C        C  572   3.118   4.459   2.403
    1C        C  573   3.187   4.480   2.524
    1C        C  574   2.987   4.405   2.647
    1C        C  575   3.115   4.464   2.644
    1C        C  576   2.929   4.364   2.770
    1C        C  577   2.995   4.395   2.891
    1C        C  578   2.829   4.270   3.017
    1C        C  579   2.936   4.361   3.014
    1C        C  580   2.779   4.224   3.141
    1C        C  581   2.831   4.275   3.262
    1C        C  582   2.690   4.119   3.387
    1C        C  583   2.780   4.227   3.385
    1C        C  584   2.658   4.061   3.512
    1C        C  585   2.695   4.122   3.634
    1C        C  586   2.594   3.937   3.756
    1C        C  587   2.652   4.065   3.756
    1C        C  588   2.567   3.873   3.879
    1C        C  589   2.590   3.941   4.001
    1C        C  590   2.535   3.739   4.126
    1C        C  591   2.569   3.876   4.125
    1C        C  592   2.520   3.673   4.250
    1C        C  593   2.532   3.742   4.373
    1C        C  594   2.521   3.534   4.495
    1C        C  595   2.521   3.675   4.497
    1C        C  596   2.521   3.466   4.619
    1C        C  597   2.516   3.537   4.741
    1C        C  598   2.532   3.325   4.861
    1C        C  599   2.522   3.466   4.863
    1C        C  600   2.537   3.247   4.977
    1C        C  601   3.196   4.434   2.044
    1C        C  602   2.983   4.393   2.159
    1C        C  603   3.118   4.440   2.160
    1C        C  604   2.923   4.361   2.284
    1C        C  605   2.990   4.398   2.403
    1C        C  606   2.824   4.269   2.529
    1C        C  607   2.931   4.361   2.525
    1C        C  608   2.775   4.217   2.651
    1C        C  609   2.822   4.272   2.772
    1C        C  610   2.684   4.113   2.897
    1C        C  611   2.776   4.221   2.895
    1C        C  612   2.647   4.057   3.022
    1C        C  613   2.692   4.112   3.144
    1C        C  614   2.591   3.928   3.267
    1C        C  615   2.653   4.055   3.267
    1C        C  616   2.568   3.867   3.392
    1C        C  617   2.597   3.933   3.513
    1C        C  618   2.531   3.732   3.636
    1C        C  619   2.570   3.868   3.635
    1C        C  620   2.516   3.666   3.760
    1C        C  621   2.530   3.737   3.882
    1C        C  622   2.507   3.527   4.008
    1C        C  623   2.522   3.668   4.005
    1C        C  624   2.517   3.458   4.131
    1C        C  625   2.514   3.532   4.252
    1C        C  626   2.540   3.321   4.379
    1C        C  627   2.519   3.461   4.374
    1C        C  628   2.557   3.252   4.501
    1C        C  629   2.538   3.325   4.621
    1C        C  630   2.594   3.117   4.744
    1C        C  631   2.552   3.253   4.741
    1C        C  632   2.615   3.045   4.865
    1C        C  633   2.563   3.110   4.981
    1C        C  634   2.784   4.301   2.057
    1C        C  635   2.892   4.390   2.049
    1C        C  636   2.749   4.229   2.171
    1C        C  637   2.808   4.277   2.290
    1C        C  638   2.677   4.109   2.412
    1C        C  639   2.760   4.223   2.411
    1C        C  640   2.635   4.052   2.535
    1C        C  641   2.684   4.109   2.654
    1C        C  642   2.583   3.924   2.779
    1C        C  643   2.645   4.051   2.777
    1C        C  644   2.565   3.857   2.902
    1C        C  645   2.590   3.928   3.022
    1C        C  646   2.523   3.727   3.149
    1C        C  647   2.563   3.863   3.144
    1C        C  648   2.511   3.659   3.272
    1C        C  649   2.528   3.732   3.392
    1C        C  650   2.511   3.521   3.517
    1C        C  651   2.514   3.662   3.514
    1C        C  652   2.518   3.455   3.642
    1C        C  653   2.511   3.525   3.765
    1C        C  654   2.536   3.316   3.888
    1C        C  655   2.506   3.455   3.887
    1C        C  656   2.557   3.251   4.012
    1C        C  657   2.539   3.318   4.134
    1C        C  658   2.605   3.119   4.256
    1C        C  659   2.556   3.252   4.257
    1C        C  660   2.640   3.059   4.379
    1C        C  661   2.608   3.121   4.502
    1C        C  662   2.712   2.936   4.625
    1C        C  663   2.634   3.054   4.624
    1C        C  664   2.753   2.877   4.746
    1C        C  665   2.698   2.928   4.867
    1C        C  666   2.743   2.865   4.983
    1C        C  667   2.678   4.024   2.055
    1C        C  668   2.680   4.105   2.170
    1C        C  669   2.584   3.915   2.293
    1C        C  670   2.643   4.044   2.291
    1C        C  671   2.556   3.851   2.416
    1C        C  672   2.577   3.923   2.535
    1C        C  673   2.520   3.720   2.661
    1C        C  674   2.557   3.856   2.658
    1C        C  675   2.511   3.650   2.783
    1C        C  676   2.530   3.720   2.905
    1C        C  677   2.501   3.513   3.030
    1C        C  678   2.514   3.654   3.029
    1C        C  679   2.509   3.443   3.152
    1C        C  680   2.506   3.518   3.272
    1C        C  681   2.533   3.309   3.401
    1C        C  682   2.512   3.449   3.396
    1C        C  683   2.551   3.241   3.524
    1C        C  684   2.538   3.315   3.644
    1C        C  685   2.604   3.115   3.770
    1C        C  686   2.554   3.247   3.767
    1C        C  687   2.642   3.053   3.891
    1C        C  688   2.608   3.119   4.011
    1C        C  689   2.717   2.938   4.137
    1C        C  690   2.641   3.058   4.134
    1C        C  691   2.755   2.879   4.260
    1C        C  692   2.712   2.938   4.381
    1C        C  693   2.754   2.880   4.503
    1C        C  694   2.624   3.895   2.056
    1C        C  695   2.531   3.705   2.175
    1C        C  696   2.572   3.840   2.173
    1C        C  697   2.507   3.641   2.299
    1C        C  698   2.519   3.715   2.418
    1C        C  699   2.495   3.505   2.541
    1C        C  700   2.506   3.646   2.541
    1C        C  701   2.506   3.437   2.665
    1C        C  702   2.504   3.509   2.786
    1C        C  703   2.525   3.301   2.911
    1C        C  704   2.499   3.439   2.909
    1C        C  705   2.547   3.234   3.034
    1C        C  706   2.535   3.305   3.156
    1C        C  707   2.603   3.108   3.278
    1C        C  708   2.550   3.239   3.280
    1C        C  709   2.634   3.047   3.402
    1C        C  710   2.604   3.111   3.524
    1C        C  711   2.710   2.930   3.649
    1C        C  712   2.634   3.049   3.648
    1C        C  713   2.752   2.872   3.770
    1C        C  714   2.714   2.931   3.892
    1C        C  715   2.758   2.878   4.016
    1C        C  716   2.453   3.502   2.064
    1C        C  717   2.494   3.635   2.059
    1C        C  718   2.472   3.423   2.182
    1C        C  719   2.486   3.500   2.300
    1C        C  720   2.513   3.290   2.426
    1C        C  721   2.489   3.429   2.422
    1C        C  722   2.539   3.226   2.549
    1C        C  723   2.525   3.297   2.670
    1C        C  724   2.593   3.097   2.790
    1C        C  725   2.538   3.226   2.792
    1C        C  726   2.626   3.035   2.913
    1C        C  727   2.596   3.101   3.034
    1C        C  728   2.709   2.922   3.159
    1C        C  729   2.634   3.042   3.157
    1C        C  730   2.755   2.871   3.282
    1C        C  731   2.713   2.929   3.404
    1C        C  732   2.754   2.874   3.527
    1C        C  733   2.499   3.199   2.070
    1C        C  734   2.495   3.282   2.182
    1C        C  735   2.584   3.087   2.305
    1C        C  736   2.530   3.218   2.305
    1C        C  737   2.614   3.023   2.427
    1C        C  738   2.588   3.094   2.546
    1C        C  739   2.693   2.909   2.670
    1C        C  740   2.621   3.031   2.668
    1C        C  741   2.744   2.856   2.790
    1C        C  742   2.704   2.917   2.911
    1C        C  743   2.747   2.865   3.035
    1C        C  744   2.554   3.071   2.071
    1C        C  745   2.689   2.898   2.185
    1C        C  746   2.610   3.015   2.186
    1C        C  747   2.730   2.839   2.307
    1C        C  748   2.688   2.902   2.426
    1C        C  749   2.735   2.850   2.549
    1C        C  750   2.739   2.843   2.067
    1C        C  751   3.666   2.293   2.010
    1C        O  752   3.675   2.182   2.068
    1C        O  753   3.706   2.286   1.876
    1C        C  754   4.637   3.054   1.988
    1C        O  755   4.644   3.062   1.862
    1C        O  756   4.743   2.988   2.051
    1C        C  757   4.422   4.212   1.939
    1C        O  758   4.521   4.289   1.946
    1C        O  759   4.399   4.181   1.804
    1C        C  760   3.594   4.664   1.944
    1C        O  761   3.570   4.779   1.988
    1C        O  762   3.583   4.657   1.805
    1C        C  763   2.873   4.490   1.942
    1C        O  764   2.914   4.462   1.826
    1C        O  765   2.878   4.628   1.968
    1C        C  766   2.339   3.462   1.978
    1C        O  767   2.349   3.452   1.852
    1C        O  768   2.211   3.452   2.034
    1C        C  769   4.667   3.586   5.076
    1C        O  770   4.624   3.553   5.190
    1C        O  771   4.804   3.613   5.072
    1C        C  772   4.269   4.442   5.048
    1C        O  773   4.252   4.411   5.169
    1C        O  774   4.351   4.555   5.036
    1C        C  775   4.147   2.548   5.086
    1C        O  776   4.183   2.431   5.114
    1C        O  777   4.120   2.619   5.204
    1C        C  778   2.898   4.538   5.058
    1C        O  779   2.885   4.660   5.031
    1C        O  780   2.943   4.520   5.190
    1C        C  781   2.491   3.046   5.094
    1C        O  782   2.385   2.977   5.092
    1C        O  783   2.566   3.024   5.208
    1C        C  784   2.395   4.005   5.035
    1C        O  785   2.281   4.001   4.982
    1C        O  786   2.390   3.997   5.175
    1C        C  787   2.955   2.427   1.994
    1C        O  788   2.946   2.453   1.871
    1C        O  789   2.955   2.288   2.007
    1C        C  790   3.192   2.370   5.057
    1C        O  791   3.154   2.258   5.013
    1C        O  792   3.246   2.360   5.186
    1C        H  793   4.249   3.038   5.042
    1C        H  794   4.164   2.823   5.070
    1C        H  795   4.480   3.130   5.065
    1C        H  796   4.479   3.380   5.057
    1C        H  797   4.596   3.822   5.026
    1C        H  798   4.439   3.992   5.049
    1C        H  799   4.263   4.155   5.049
    1C        H  800   4.009   4.502   5.038
    1C        H  801   3.824   4.618   5.030
    1C        H  802   3.579   4.630   5.035
    1C        H  803   3.397   4.473   5.039
    1C        H  804   3.176   4.426   5.042
    1C        H  805   3.902   2.461   5.050
    1C        H  806   3.679   2.441   5.069
    1C        H  807   2.998   2.551   5.063
    1C        H  808   3.442   2.450   5.073
    1C        H  809   2.901   2.760   5.075
    1C        H  810   2.695   2.888   5.077
    1C        H  811   2.520   3.296   5.071
    1C        H  812   2.581   3.509   5.063
    1C        H  813   2.497   3.738   5.063
    1C        H  814   2.589   4.172   5.047
    1C        H  815   2.788   4.288   5.053
    1C        H  816   2.752   2.910   1.985
    1C        H  817   2.845   2.679   1.980
    1C        H  818   3.186   2.376   2.025
    1C        H  819   3.432   2.450   1.978
    1C        H  820   3.865   2.504   1.974
    1C        H  821   4.073   2.617   1.974
    1C        H  822   4.250   2.731   1.967
    1C        H  823   4.374   2.934   1.971
    1C        H  824   4.605   3.307   1.977
    1C        H  825   4.559   3.522   1.969
    1C        H  826   4.509   3.749   1.955
    1C        H  827   3.816   4.553   1.971
    1C        H  828   3.957   4.357   1.940
    1C        H  829   4.187   4.327   1.963
    1C        H  830   4.534   3.986   1.992
    1C        H  831   2.638   3.841   1.965
    1C        H  832   2.773   4.026   2.005
    1C        H  833   2.728   4.287   1.966
    1C        H  834   3.363   4.504   1.945
    1C        H  835   3.159   4.388   1.955
    1C        H  836   2.498   2.996   2.018
    1C        H  837   2.479   3.239   1.973
    1C        H  838   2.465   3.690   1.972
    2V3OU   H29  839   2.800   3.552   5.490
    2V3OU   C27  840   2.781   3.504   5.589
    2V3OU   H27  841   2.715   3.567   5.654
    2V3OU   H28  842   2.730   3.405   5.579
    2V3OU   O11  843   2.909   3.476   5.648
    2V3OU   C15  844   2.921   3.394   5.758
    2V3OU   C13  845   3.052   3.374   5.807
    2V3OU   C14  846   3.076   3.268   5.895
    2V3OU   C16  847   2.972   3.183   5.930
    2V3OU    H6  848   2.991   3.099   6.000
    2V3OU   C12  849   3.213   3.228   5.932
    2V3OU    O2  850   3.237   3.112   5.975
    2V3OU   C10  851   3.325   3.309   5.883
    2V3OU    C8  852   3.457   3.274   5.911
    2V3OU   O10  853   3.488   3.156   5.971
    2V3OU   H26  854   3.405   3.115   6.001
    2V3OU    C6  855   3.565   3.351   5.857
    2V3OU    C5  856   3.540   3.467   5.785
    2V3OU    C4  857   3.702   3.292   5.847
    2V3OU    H4  858   3.725   3.226   5.936
    2V3OU    H5  859   3.705   3.231   5.752
    2V3OU    C2  860   3.815   3.396   5.850
    2V3OU    O6  861   3.803   3.470   5.972
    2V3OU   H21  862   3.766   3.556   5.946
    2V3OU    C3  863   3.783   3.497   5.740
    2V3OU    H2  864   3.863   3.574   5.730
    2V3OU    H3  865   3.784   3.431   5.649
    2V3OU   C25  866   3.950   3.329   5.824
    2V3OU    O7  867   3.995   3.297   5.714
    2V3OU   C26  868   4.029   3.288   5.948
    2V3OU   H22  869   4.063   3.380   6.002
    2V3OU   H23  870   4.120   3.230   5.919
    2V3OU    O8  871   3.960   3.210   6.043
    2V3OU   H24  872   3.920   3.273   6.106
    2V3OU    C1  873   3.648   3.566   5.753
    2V3OU    H1  874   3.625   3.620   5.657
    2V3OU    O3  875   3.663   3.655   5.864
    2V3OU   C19  876   3.618   3.790   5.847
    2V3OU    H9  877   3.521   3.787   5.790
    2V3OU    O4  878   3.714   3.849   5.762
    2V3OU   C20  879   3.843   3.874   5.817
    2V3OU   H10  880   3.886   3.771   5.836
    2V3OU   C24  881   3.612   3.854   5.986
    2V3OU   H16  882   3.549   3.795   6.058
    2V3OU   H17  883   3.559   3.951   5.967
    2V3OU   C23  884   3.750   3.880   6.047
    2V3OU   H15  885   3.795   3.778   6.067
    2V3OU    N1  886   3.736   3.960   6.167
    2V3OU   H19  887   3.814   3.924   6.219
    2V3OU   H20  888   3.651   3.939   6.214
    2V3OU   C21  889   3.846   3.953   5.948
    2V3OU   H11  890   3.949   3.930   5.988
    2V3OU    O5  891   3.831   4.094   5.960
    2V3OU   H18  892   3.780   4.110   6.042
    2V3OU   C22  893   3.915   3.947   5.705
    2V3OU   H12  894   3.866   4.046   5.686
    2V3OU   H13  895   3.910   3.885   5.611
    2V3OU   H14  896   4.023   3.964   5.731
    2V3OU   C11  897   3.160   3.469   5.778
    2V3OU    O1  898   3.140   3.589   5.748
    2V3OU    C9  899   3.299   3.423   5.803
    2V3OU    C7  900   3.405   3.498   5.752
    2V3OU    O9  901   3.389   3.620   5.688
    2V3OU   H25  902   3.294   3.635   5.695
    2V3OU   C17  903   2.815   3.311   5.802
    2V3OU    H7  904   2.714   3.345   5.779
    2V3OU   C18  905   2.841   3.207   5.890
    2V3OU    H8  906   2.757   3.146   5.927
    3SOL     OW  907   3.476   3.126   3.987
    3SOL    HW1  908   3.485   3.044   3.930
    3SOL    HW2  909   3.427   3.197   3.937
    4SOL     OW  910   6.551   6.378   0.643
    4SOL    HW1  911   6.509   6.468   0.631
    4SOL    HW2  912   6.480   6.309   0.657
    5SOL     OW  913   5.403   1.488   1.135
    5SOL    HW1  914   5.336   1.486   1.209
    5SOL    HW2  915   5.495   1.490   1.173
    6SOL     OW  916   5.076   1.387   3.185
    6SOL    HW1  917   5.151   1.397   3.120
    6SOL    HW2  918   4.994   1.430   3.148
    7SOL     OW  919   1.899   4.110   4.098
    7SOL    HW1  920   1.992   4.100   4.135
    7SOL    HW2  921   1.834   4.120   4.173
    8SOL     OW  922   0.677   3.063   4.896
    8SOL    HW1  923   0.711   2.998   4.827
    8SOL    HW2  924   0.754   3.101   4.947
    9SOL     OW  925   7.002   0.816   6.375
    9SOL    HW1  926   6.972   0.910   6.358
    9SOL    HW2  927   6.996   0.797   6.473
   10SOL     OW  928   5.372   4.977   1.698
   10SOL    HW1  929   5.308   5.043   1.659
   10SOL    HW2  930   5.446   4.960   1.633
   11SOL     OW  931   1.961   2.006   0.934
   11SOL    HW1  932   1.975   2.064   0.854
   11SOL    HW2  933   1.872   2.027   0.975
   12SOL     OW  934   4.202   5.004   2.642
   12SOL    HW1  935   4.131   4.940   2.611
   12SOL    HW2  936   4.222   4.987   2.738
   13SOL     OW  937   5.859   6.003   1.531
   13SOL    HW1  938   5.809   5.984   1.615
   13SOL    HW2  939   5.937   5.940   1.524
   14SOL     OW  940   4.272   6.723   6.034
   14SOL    HW1  941   4.255   6.653   5.964
   14SOL    HW2  942   4.242   6.812   6.001
   15SOL     OW  943   1.026   6.249   6.139
   15SOL    HW1  944   1.060   6.324   6.083
   15SOL    HW2  945   0.938   6.218   6.102
   16SOL     OW  946   2.122   4.776   4.659
   16SOL    HW1  947   2.076   4.831   4.729
   16SOL    HW2  948   2.090   4.681   4.666
   17SOL     OW  949   6.580   1.279   5.295
   17SOL    HW1  950   6.487   1.242   5.283
   17SOL    HW2  951   6.631   1.220   5.357
   18SOL     OW  952   2.921   1.395   6.001
   18SOL    HW1  953   2.837   1.444   6.023
   18SOL    HW2  954   2.934   1.393   5.902
   19SOL     OW  955   3.067   6.213   3.021
   19SOL    HW1  956   3.099   6.127   2.980
   19SOL    HW2  957   2.989   6.248   2.969
   20SOL     OW  958   5.931   1.644   5.137
   20SOL    HW1  959   6.028   1.654   5.114
   20SOL    HW2  960   5.899   1.553   5.113
   21SOL     OW  961   2.392   4.378   2.391
   21SOL    HW1  962   2.312   4.437   2.385
   21SOL    HW2  963   2.376   4.294   2.339
   22SOL     OW  964   0.755   0.779   6.526
   22SOL    HW1  965   0.815   0.717   6.475
   22SOL    HW2  966   0.744   0.745   6.619
   23SOL     OW  967   5.431   4.847   0.784
   23SOL    HW1  968   5.343   4.801   0.786
   23SOL    HW2  969   5.498   4.791   0.735
   24SOL     OW  970   4.767   1.578   0.781
   24SOL    HW1  971   4.698   1.578   0.708
   24SOL    HW2  972   4.734   1.634   0.857
   25SOL     OW  973   1.818   0.484   4.447
   25SOL    HW1  974   1.859   0.549   4.511
   25SOL    HW2  975   1.839   0.511   4.353
   26SOL     OW  976   0.566   2.317   6.522
   26SOL    HW1  977   0.577   2.218   6.526
   26SOL    HW2  978   0.473   2.341   6.550
   27SOL     OW  979   6.390   0.161   2.265
   27SOL    HW1  980   6.372   0.084   2.326
   27SOL    HW2  981   6.331   0.154   2.184
   28SOL     OW  982   2.178   0.698   4.846
   28SOL    HW1  983   2.255   0.647   4.806
   28SOL    HW2  984   2.125   0.741   4.774
   29SOL     OW  985   6.864   6.897   0.816
   29SOL    HW1  986   6.776   6.850   0.808
   29SOL    HW2  987   6.932   6.835   0.853
   30SOL     OW  988   4.295   0.175   4.917
   30SOL    HW1  989   4.202   0.211   4.910
   30SOL    HW2  990   4.335   0.205   5.004
   31SOL     OW  991   0.774   4.144   4.927
   31SOL    HW1  992   0.696   4.163   4.867
   31SOL    HW2  993   0.843   4.092   4.877
   32SOL     OW  994   3.764   0.701   1.048
   32SOL    HW1  995   3.694   0.632   1.027
   32SOL    HW2  996   3.773   0.763   0.971
   33SOL     OW  997   2.198   5.481   6.210
   33SOL    HW1  998   2.282   5.476   6.157
   33SOL    HW2  999   2.138   5.404   6.187
   34SOL     OW 1000   3.016   5.738   5.218
   34SOL    HW1 1001   3.011   5.763   5.315
   34SOL    HW2 1002   3.013   5.639   5.209
   35SOL     OW 1003   1.699   2.846   6.537
   35SOL    HW1 1004   1.706   2.791   6.620
   35SOL    HW2 1005   1.605   2.880   6.528
   36SOL     OW 1006   4.423   0.974   3.270
   36SOL    HW1 1007   4.497   0.918   3.309
   36SOL    HW2 1008   4.457   1.024   3.191
   37SOL     OW 1009   2.419   6.908   3.765
   37SOL    HW1 1010   2.507   6.948   3.737
   37SOL    HW2 1011   2.346   6.974   3.749
   38SOL     OW 1012   0.738   4.086   2.860
   38SOL    HW1 1013   0.787   4.112   2.777
   38SOL    HW2 1014   0.641   4.109   2.850
   39SOL     OW 1015   6.540   4.526   1.040
   39SOL    HW1 1016   6.465   4.590   1.024
   39SOL    HW2 1017   6.622   4.577   1.066
   40SOL     OW 1018   5.068   1.726   0.897
   40SOL    HW1 1019   5.000   1.746   0.827
   40SOL    HW2 1020   5.040   1.644   0.948
   41SOL     OW 1021   4.991   4.208   1.642
   41SOL    HW1 1022   4.954   4.126   1.599
   41SOL    HW2 1023   5.045   4.182   1.723
   42SOL     OW 1024   2.816   4.786   6.573
   42SOL    HW1 1025   2.717   4.785   6.560
   42SOL    HW2 1026   2.837   4.825   6.663
   43SOL     OW 1027   4.581   6.844   5.191
   43SOL    HW1 1028   4.675   6.868   5.164
   43SOL    HW2 1029   4.575   6.841   5.291
   44SOL     OW 1030   6.711   0.909   6.491
   44SOL    HW1 1031   6.644   0.925   6.418
   44SOL    HW2 1032   6.780   0.981   6.489
   45SOL     OW 1033   2.491   4.479   6.181
   45SOL    HW1 1034   2.536   4.405   6.232
   45SOL    HW2 1035   2.530   4.567   6.209
   46SOL     OW 1036   1.544   3.366   4.923
   46SOL    HW1 1037   1.515   3.332   4.834
   46SOL    HW2 1038   1.479   3.434   4.956
   47SOL     OW 1039   5.352   3.910   0.168
   47SOL    HW1 1040   5.256   3.891   0.145
   47SOL    HW2 1041   5.369   4.008   0.157
   48SOL     OW 1042   6.091   3.922   0.296
   48SOL    HW1 1043   5.993   3.901   0.291
   48SOL    HW2 1044   6.137   3.851   0.350
   49SOL     OW 1045   3.034   3.750   6.767
   49SOL    HW1 1046   2.950   3.791   6.801
   49SOL    HW2 1047   3.039   3.761   6.668
   50SOL     OW 1048   6.072   1.981   0.140
   50SOL    HW1 1049   6.147   1.933   0.187
   50SOL    HW2 1050   6.077   1.962   0.042
   51SOL     OW 1051   0.884   5.605   2.227
   51SOL    HW1 1052   0.805   5.658   2.195
   51SOL    HW2 1053   0.875   5.588   2.325
   52SOL     OW 1054   5.974   2.896   2.138
   52SOL    HW1 1055   6.026   2.815   2.109
   52SOL    HW2 1056   5.877   2.874   2.141
   53SOL     OW 1057   3.236   0.894   1.414
   53SOL    HW1 1058   3.317   0.891   1.473
   53SOL    HW2 1059   3.193   0.803   1.411
   54SOL     OW 1060   5.587   6.944   6.540
   54SOL    HW1 1061   5.511   6.924   6.602
   54SOL    HW2 1062   5.552   6.987   6.457
   55SOL     OW 1063   1.249   3.622   6.241
   55SOL    HW1 1064   1.180   3.611   6.170
   55SOL    HW2 1065   1.259   3.719   6.263
   56SOL     OW 1066   0.478   2.133   6.815
   56SOL    HW1 1067   0.537   2.169   6.743
   56SOL    HW2 1068   0.521   2.147   6.904
   57SOL     OW 1069   4.399   6.397   1.019
   57SOL    HW1 1070   4.444   6.486   1.025
   57SOL    HW2 1071   4.352   6.390   0.931
   58SOL     OW 1072   1.090   0.816   6.969
   58SOL    HW1 1073   1.099   0.789   0.041
   58SOL    HW2 1074   1.160   0.884   6.947
   59SOL     OW 1075   4.593   3.249   5.663
   59SOL    HW1 1076   4.602   3.289   5.572
   59SOL    HW2 1077   4.499   3.258   5.695
   60SOL     OW 1078   6.128   2.676   2.134
   60SOL    HW1 1079   6.137   2.646   2.039
   60SOL    HW2 1080   6.093   2.600   2.189
   61SOL     OW 1081   0.801   6.347   4.454
   61SOL    HW1 1082   0.789   6.353   4.355
   61SOL    HW2 1083   0.790   6.252   4.483
   62SOL     OW 1084   6.345   3.301   3.364
   62SOL    HW1 1085   6.410   3.303   3.440
   62SOL    HW2 1086   6.311   3.208   3.350
   63SOL     OW 1087   3.455   0.774   6.048
   63SOL    HW1 1088   3.400   0.814   5.974
   63SOL    HW2 1089   3.480   0.846   6.113
   64SOL     OW 1090   1.559   3.155   5.698
   64SOL    HW1 1091   1.554   3.141   5.599
   64SOL    HW2 1092   1.479   3.205   5.730
   65SOL     OW 1093   0.709   5.065   4.119
   65SOL    HW1 1094   0.729   5.112   4.034
   65SOL    HW2 1095   0.666   5.128   4.183
   66SOL     OW 1096   3.909   1.083   2.010
   66SOL    HW1 1097   3.948   1.175   2.015
   66SOL    HW2 1098   3.934   1.032   2.093
   67SOL     OW 1099   6.847   3.344   1.544
   67SOL    HW1 1100   6.829   3.414   1.476
   67SOL    HW2 1101   6.762   3.294   1.564
   68SOL     OW 1102   7.012   1.735   6.603
   68SOL    HW1 1103   6.989   1.666   6.671
   68SOL    HW2 1104   6.928   1.766   6.558
   69SOL     OW 1105   1.099   6.093   6.684
   69SOL    HW1 1106   1.099   6.038   6.600
   69SOL    HW2 1107   1.113   6.189   6.660
   70SOL     OW 1108   5.110   4.374   4.127
   70SOL    HW1 1109   5.039   4.399   4.060
   70SOL    HW2 1110   5.067   4.360   4.217
   71SOL     OW 1111   5.239   2.088   4.267
   71SOL    HW1 1112   5.294   2.057   4.189
   71SOL    HW2 1113   5.160   2.139   4.233
   72SOL     OW 1114   0.504   1.824   3.245
   72SOL    HW1 1115   0.514   1.746   3.307
   72SOL    HW2 1116   0.538   1.798   3.154
   73SOL     OW 1117   2.541   0.148   0.696
   73SOL    HW1 1118   2.442   0.141   0.687
   73SOL    HW2 1119   2.573   0.086   0.767
   74SOL     OW 1120   3.335   2.161   0.861
   74SOL    HW1 1121   3.392   2.239   0.833
   74SOL    HW2 1122   3.240   2.179   0.836
   75SOL     OW 1123   2.846   3.090   0.313
   75SOL    HW1 1124   2.861   3.089   0.214
   75SOL    HW2 1125   2.774   3.025   0.336
   76SOL     OW 1126   3.719   5.367   5.296
   76SOL    HW1 1127   3.676   5.388   5.208
   76SOL    HW2 1128   3.814   5.399   5.295
   77SOL     OW 1129   0.889   5.357   4.380
   77SOL    HW1 1130   0.908   5.362   4.282
   77SOL    HW2 1131   0.966   5.398   4.430
   78SOL     OW 1132   4.660   1.565   1.212
   78SOL    HW1 1133   4.747   1.521   1.236
   78SOL    HW2 1134   4.658   1.658   1.249
   79SOL     OW 1135   1.495   4.435   3.875
   79SOL    HW1 1136   1.565   4.499   3.843
   79SOL    HW2 1137   1.411   4.448   3.821
   80SOL     OW 1138   3.620   1.511   4.610
   80SOL    HW1 1139   3.691   1.510   4.680
   80SOL    HW2 1140   3.629   1.593   4.554
   81SOL     OW 1141   3.942   5.265   1.702
   81SOL    HW1 1142   3.854   5.225   1.676
   81SOL    HW2 1143   3.957   5.251   1.800
   82SOL     OW 1144   2.460   6.278   2.008
   82SOL    HW1 1145   2.397   6.232   1.946
   82SOL    HW2 1146   2.419   6.363   2.042
   83SOL     OW 1147   5.326   1.435   3.890
   83SOL    HW1 1148   5.298   1.433   3.986
   83SOL    HW2 1149   5.265   1.377   3.836
   84SOL     OW 1150   5.715   3.026   2.548
   84SOL    HW1 1151   5.695   3.123   2.533
   84SOL    HW2 1152   5.631   2.978   2.573
   85SOL     OW 1153   2.760   6.276   3.300
   85SOL    HW1 1154   2.792   6.286   3.394
   85SOL    HW2 1155   2.815   6.207   3.253
   86SOL     OW 1156   4.905   6.889   0.170
   86SOL    HW1 1157   4.901   6.849   0.261
   86SOL    HW2 1158   4.940   6.982   0.176
   87SOL     OW 1159   2.826   4.050   6.574
   87SOL    HW1 1160   2.783   3.965   6.606
   87SOL    HW2 1161   2.821   4.119   6.646
   88SOL     OW 1162   2.668   3.469   1.334
   88SOL    HW1 1163   2.614   3.419   1.266
   88SOL    HW2 1164   2.739   3.410   1.370
   89SOL     OW 1165   2.899   3.580   3.984
   89SOL    HW1 1166   2.925   3.565   4.079
   89SOL    HW2 1167   2.848   3.501   3.950
   90SOL     OW 1168   5.666   3.949   2.094
   90SOL    HW1 1169   5.614   3.881   2.146
   90SOL    HW2 1170   5.751   3.970   2.142
   91SOL     OW 1171   4.620   5.682   6.143
   91SOL    HW1 1172   4.533   5.633   6.146
   91SOL    HW2 1173   4.617   5.753   6.072
   92SOL     OW 1174   5.021   4.348   0.070
   92SOL    HW1 1175   5.083   4.366   0.146
   92SOL    HW2 1176   5.069   4.298   7.022
   93SOL     OW 1177   2.947   3.766   2.052
   93SOL    HW1 1178   2.961   3.667   2.052
   93SOL    HW2 1179   2.856   3.787   2.018
   94SOL     OW 1180   2.766   2.316   4.133
   94SOL    HW1 1181   2.801   2.296   4.224
   94SOL    HW2 1182   2.667   2.306   4.133
   95SOL     OW 1183   0.492   0.721   3.941
   95SOL    HW1 1184   0.558   0.650   3.964
   95SOL    HW2 1185   0.414   0.681   3.893
   96SOL     OW 1186   6.846   5.017   6.915
   96SOL    HW1 1187   6.861   5.099   6.969
   96SOL    HW2 1188   6.874   5.033   6.820
   97SOL     OW 1189   2.139   4.282   5.857
   97SOL    HW1 1190   2.173   4.296   5.950
   97SOL    HW2 1191   2.200   4.326   5.792
   98SOL     OW 1192   0.915   2.162   3.840
   98SOL    HW1 1193   0.824   2.196   3.817
   98SOL    HW2 1194   0.983   2.233   3.823
   99SOL     OW 1195   3.333   4.350   5.295
   99SOL    HW1 1196   3.401   4.420   5.318
   99SOL    HW2 1197   3.372   4.286   5.229
  100SOL     OW 1198   6.928   0.672   4.933
  100SOL    HW1 1199   6.835   0.641   4.955
  100SOL    HW2 1200   6.978   0.691   5.018
  101SOL     OW 1201   5.090   3.637   2.891
  101SOL    HW1 1202   5.076   3.597   2.801
  101SOL    HW2 1203   5.017   3.608   2.953
  102SOL     OW 1204   3.680   0.715   0.008
  102SOL    HW1 1205   3.606   0.770   0.046
  102SOL    HW2 1206   3.676   0.623   0.047
  103SOL     OW 1207   1.511   1.215   1.935
  103SOL    HW1 1208   1.590   1.229   1.995
  103SOL    HW2 1209   1.473   1.124   1.949
  104SOL     OW 1210   6.410   4.692   1.875
  104SOL    HW1 1211   6.474   4.744   1.933
  104SOL    HW2 1212   6.441   4.697   1.780
  105SOL     OW 1213   6.839   1.000   5.337
  105SOL    HW1 1214   6.938   0.998   5.324
  105SOL    HW2 1215   6.806   0.907   5.357
  106SOL     OW 1216   4.485   3.020   1.380
  106SOL    HW1 1217   4.529   3.085   1.319
  106SOL    HW2 1218   4.486   3.057   1.473
  107SOL     OW 1219   6.001   0.018   1.541
  107SOL    HW1 1220   5.928   0.058   1.597
  107SOL    HW2 1221   6.003   6.943   1.555
  108SOL     OW 1222   3.087   1.474   4.771
  108SOL    HW1 1223   3.053   1.529   4.848
  108SOL    HW2 1224   3.011   1.453   4.709
  109SOL     OW 1225   1.835   1.126   4.671
  109SOL    HW1 1226   1.931   1.151   4.656
  109SOL    HW2 1227   1.818   1.036   4.630
  110SOL     OW 1228   3.600   4.103   5.595
  110SOL    HW1 1229   3.653   4.144   5.669
  110SOL    HW2 1230   3.609   4.159   5.513
  111SOL     OW 1231   5.841   2.700   1.135
  111SOL    HW1 1232   5.814   2.782   1.085
  111SOL    HW2 1233   5.934   2.713   1.172
  112SOL     OW 1234   5.123   0.006   6.565
  112SOL    HW1 1235   5.157   6.939   6.543
  112SOL    HW2 1236   5.194   0.059   6.611
  113SOL     OW 1237   0.601   5.090   2.437
  113SOL    HW1 1238   0.602   5.021   2.509
  113SOL    HW2 1239   0.513   5.137   2.436
  114SOL     OW 1240   7.000   2.220   2.013
  114SOL    HW1 1241   6.907   2.182   2.015
  114SOL    HW2 1242   7.005   2.297   2.077
  115SOL     OW 1243   5.381   6.440   3.626
  115SOL    HW1 1244   5.384   6.485   3.537
  115SOL    HW2 1245   5.290   6.400   3.640
  116SOL     OW 1246   6.853   4.975   0.487
  116SOL    HW1 1247   6.915   5.013   0.419
  116SOL    HW2 1248   6.886   4.997   0.579
  117SOL     OW 1249   2.559   2.608   0.155
  117SOL    HW1 1250   2.630   2.659   0.107
  117SOL    HW2 1251   2.495   2.569   0.089
  118SOL     OW 1252   0.154   2.150   2.787
  118SOL    HW1 1253   0.124   2.072   2.732
  118SOL    HW2 1254   0.133   2.235   2.738
  119SOL     OW 1255   6.076   0.671   5.192
  119SOL    HW1 1256   6.113   0.730   5.263
  119SOL    HW2 1257   6.132   0.680   5.109
  120SOL     OW 1258   4.702   1.066   4.059
  120SOL    HW1 1259   4.764   1.094   3.986
  120SOL    HW2 1260   4.663   0.977   4.037
  121SOL     OW 1261   0.506   5.064   0.035
  121SOL    HW1 1262   0.514   4.968   0.063
  121SOL    HW2 1263   0.418   5.078   7.015
  122SOL     OW 1264   6.638   5.000   6.221
  122SOL    HW1 1265   6.551   5.041   6.249
  122SOL    HW2 1266   6.635   4.977   6.124
  123SOL     OW 1267   0.805   2.496   1.900
  123SOL    HW1 1268   0.833   2.566   1.835
  123SOL    HW2 1269   0.855   2.411   1.881
  124SOL     OW 1270   1.364   3.701   0.030
  124SOL    HW1 1271   1.291   3.764   0.003
  124SOL    HW2 1272   1.413   3.670   6.973
  125SOL     OW 1273   4.896   2.956   0.470
  125SOL    HW1 1274   4.821   3.021   0.483
  125SOL    HW2 1275   4.981   2.995   0.506
  126SOL     OW 1276   3.603   3.247   4.191
  126SOL    HW1 1277   3.546   3.262   4.272
  126SOL    HW2 1278   3.548   3.205   4.119
  127SOL     OW 1279   0.728   4.953   5.127
  127SOL    HW1 1280   0.635   4.920   5.107
  127SOL    HW2 1281   0.743   4.953   5.226
  128SOL     OW 1282   4.983   3.810   6.844
  128SOL    HW1 1283   5.032   3.742   6.898
  128SOL    HW2 1284   4.955   3.886   6.903
  129SOL     OW 1285   0.136   5.408   2.514
  129SOL    HW1 1286   0.047   5.363   2.520
  129SOL    HW2 1287   0.125   5.507   2.525
  130SOL     OW 1288   6.166   2.877   4.063
  130SOL    HW1 1289   6.104   2.866   4.141
  130SOL    HW2 1290   6.124   2.936   3.995
  131SOL     OW 1291   0.983   2.615   3.239
  131SOL    HW1 1292   1.030   2.699   3.212
  131SOL    HW2 1293   0.935   2.629   3.325
  132SOL     OW 1294   3.696   2.680   1.168
  132SOL    HW1 1295   3.783   2.717   1.203
  132SOL    HW2 1296   3.622   2.707   1.228
  133SOL     OW 1297   5.099   5.824   6.149
  133SOL    HW1 1298   5.091   5.887   6.226
  133SOL    HW2 1299   5.174   5.854   6.090
  134SOL     OW 1300   5.922   1.858   1.442
  134SOL    HW1 1301   5.830   1.863   1.402
  134SOL    HW2 1302   5.948   1.947   1.479
  135SOL     OW 1303   4.931   3.676   3.865
  135SOL    HW1 1304   4.929   3.719   3.775
  135SOL    HW2 1305   4.895   3.739   3.933
  136SOL     OW 1306   3.601   0.865   6.492
  136SOL    HW1 1307   3.576   0.777   6.533
  136SOL    HW2 1308   3.646   0.922   6.560
  137SOL     OW 1309   2.858   3.836   6.128
  137SOL    HW1 1310   2.943   3.872   6.089
  137SOL    HW2 1311   2.878   3.782   6.209
  138SOL     OW 1312   1.081   5.168   6.538
  138SOL    HW1 1313   1.025   5.249   6.558
  138SOL    HW2 1314   1.040   5.117   6.463
  139SOL     OW 1315   1.372   0.048   0.975
  139SOL    HW1 1316   1.366   0.072   0.878
  139SOL    HW2 1317   1.449   7.010   0.989
  140SOL     OW 1318   4.362   0.617   1.444
  140SOL    HW1 1319   4.319   0.573   1.523
  140SOL    HW2 1320   4.305   0.693   1.414
  141SOL     OW 1321   0.608   3.192   0.441
  141SOL    HW1 1322   0.686   3.254   0.433
  141SOL    HW2 1323   0.589   3.151   0.352
  142SOL     OW 1324   2.260   3.357   0.746
  142SOL    HW1 1325   2.238   3.264   0.718
  142SOL    HW2 1326   2.356   3.362   0.774
  143SOL     OW 1327   4.269   6.362   2.114
  143SOL    HW1 1328   4.276   6.280   2.056
  143SOL    HW2 1329   4.348   6.367   2.175
  144SOL     OW 1330   3.388   5.901   3.106
  144SOL    HW1 1331   3.304   5.876   3.155
  144SOL    HW2 1332   3.369   5.903   3.008
  145SOL     OW 1333   0.374   4.818   3.528
  145SOL    HW1 1334   0.276   4.812   3.548
  145SOL    HW2 1335   0.388   4.802   3.431
  146SOL     OW 1336   4.901   0.621   6.281
  146SOL    HW1 1337   4.859   0.603   6.192
  146SOL    HW2 1338   4.991   0.577   6.284
  147SOL     OW 1339   3.989   0.717   4.745
  147SOL    HW1 1340   3.946   0.633   4.779
  147SOL    HW2 1341   4.087   0.716   4.768
  148SOL     OW 1342   2.041   6.092   1.249
  148SOL    HW1 1343   2.007   6.070   1.341
  148SOL    HW2 1344   1.982   6.049   1.181
  149SOL     OW 1345   2.132   2.602   4.422
  149SOL    HW1 1346   2.219   2.553   4.419
  149SOL    HW2 1347   2.077   2.577   4.342
  150SOL     OW 1348   4.189   1.310   4.899
  150SOL    HW1 1349   4.203   1.400   4.941
  150SOL    HW2 1350   4.193   1.240   4.970
  151SOL     OW 1351   5.082   2.564   0.843
  151SOL    HW1 1352   5.151   2.554   0.916
  151SOL    HW2 1353   5.079   2.659   0.813
  152SOL     OW 1354   0.905   2.203   1.406
  152SOL    HW1 1355   0.850   2.199   1.323
  152SOL    HW2 1356   0.954   2.117   1.418
  153SOL     OW 1357   2.259   1.338   3.736
  153SOL    HW1 1358   2.331   1.330   3.805
  153SOL    HW2 1359   2.300   1.358   3.647
  154SOL     OW 1360   6.393   2.666   2.508
  154SOL    HW1 1361   6.377   2.744   2.569
  154SOL    HW2 1362   6.394   2.697   2.414
  155SOL     OW 1363   6.970   5.425   3.201
  155SOL    HW1 1364   0.020   5.391   3.143
  155SOL    HW2 1365   6.931   5.508   3.161
  156SOL     OW 1366   5.056   2.587   0.486
  156SOL    HW1 1367   5.032   2.518   0.418
  156SOL    HW2 1368   4.983   2.593   0.554
  157SOL     OW 1369   5.159   6.489   0.987
  157SOL    HW1 1370   5.111   6.576   0.980
  157SOL    HW2 1371   5.118   6.433   1.060
  158SOL     OW 1372   0.897   2.753   3.941
  158SOL    HW1 1373   0.936   2.757   4.033
  158SOL    HW2 1374   0.824   2.684   3.939
  159SOL     OW 1375   5.992   5.177   1.011
  159SOL    HW1 1376   5.941   5.177   0.925
  159SOL    HW2 1377   5.944   5.234   1.078
  160SOL     OW 1378   5.463   0.391   1.141
  160SOL    HW1 1379   5.432   0.326   1.209
  160SOL    HW2 1380   5.476   0.481   1.183
  161SOL     OW 1381   6.427   6.862   0.929
  161SOL    HW1 1382   6.391   6.952   0.904
  161SOL    HW2 1383   6.353   6.805   0.964
  162SOL     OW 1384   4.256   6.933   6.450
  162SOL    HW1 1385   4.177   6.971   6.403
  162SOL    HW2 1386   4.311   7.007   6.488
  163SOL     OW 1387   0.893   3.703   2.244
  163SOL    HW1 1388   0.884   3.705   2.344
  163SOL    HW2 1389   0.989   3.690   2.219
  164SOL     OW 1390   2.726   1.867   3.328
  164SOL    HW1 1391   2.662   1.908   3.263
  164SOL    HW2 1392   2.820   1.882   3.296
  165SOL     OW 1393   6.917   0.028   3.809
  165SOL    HW1 1394   6.905   0.125   3.830
  165SOL    HW2 1395   6.832   7.015   3.771
  166SOL     OW 1396   6.434   4.222   4.038
  166SOL    HW1 1397   6.518   4.170   4.053
  166SOL    HW2 1398   6.358   4.176   4.085
  167SOL     OW 1399   2.271   1.562   5.785
  167SOL    HW1 1400   2.253   1.641   5.843
  167SOL    HW2 1401   2.232   1.480   5.827
  168SOL     OW 1402   3.908   3.394   1.563
  168SOL    HW1 1403   4.004   3.421   1.577
  168SOL    HW2 1404   3.893   3.303   1.601
  169SOL     OW 1405   4.761   2.057   1.176
  169SOL    HW1 1406   4.767   2.099   1.267
  169SOL    HW2 1407   4.741   2.127   1.108
  170SOL     OW 1408   6.175   5.720   1.346
  170SOL    HW1 1409   6.150   5.816   1.332
  170SOL    HW2 1410   6.243   5.694   1.277
  171SOL     OW 1411   3.690   3.191   1.093
  171SOL    HW1 1412   3.622   3.189   1.020
  171SOL    HW2 1413   3.705   3.286   1.122
  172SOL     OW 1414   1.145   1.652   6.453
  172SOL    HW1 1415   1.150   1.706   6.369
  172SOL    HW2 1416   1.195   1.700   6.526
  173SOL     OW 1417   6.206   1.611   4.000
  173SOL    HW1 1418   6.151   1.607   4.084
  173SOL    HW2 1419   6.222   1.707   3.976
  174SOL     OW 1420   5.651   4.345   4.320
  174SOL    HW1 1421   5.659   4.328   4.418
  174SOL    HW2 1422   5.659   4.443   4.302
  175SOL     OW 1423   0.267   6.932   2.879
  175SOL    HW1 1424   0.342   6.915   2.942
  175SOL    HW2 1425   0.295   6.999   2.811
  176SOL     OW 1426   5.996   3.604   1.671
  176SOL    HW1 1427   6.069   3.535   1.669
  176SOL    HW2 1428   5.970   3.627   1.577
  177SOL     OW 1429   6.057   2.105   3.521
  177SOL    HW1 1430   6.031   2.181   3.462
  177SOL    HW2 1431   6.133   2.133   3.580
  178SOL     OW 1432   2.616   5.777   4.753
  178SOL    HW1 1433   2.530   5.828   4.747
  178SOL    HW2 1434   2.597   5.681   4.771
  179SOL     OW 1435   3.414   4.111   1.349
  179SOL    HW1 1436   3.344   4.040   1.343
  179SOL    HW2 1437   3.374   4.195   1.386
  180SOL     OW 1438   4.460   1.001   0.056
  180SOL    HW1 1439   4.433   0.906   0.068
  180SOL    HW2 1440   4.515   1.010   6.997
  181SOL     OW 1441   3.482   2.279   6.061
  181SOL    HW1 1442   3.458   2.184   6.039
  181SOL    HW2 1443   3.409   2.320   6.115
  182SOL     OW 1444   2.899   2.525   6.139
  182SOL    HW1 1445   2.937   2.447   6.089
  182SOL    HW2 1446   2.956   2.606   6.123
  183SOL     OW 1447   2.899   0.472   3.388
  183SOL    HW1 1448   2.804   0.480   3.358
  183SOL    HW2 1449   2.906   0.402   3.459
  184SOL     OW 1450   5.112   5.784   3.952
  184SOL    HW1 1451   5.163   5.720   4.009
  184SOL    HW2 1452   5.064   5.734   3.880
  185SOL     OW 1453   6.912   0.316   4.661
  185SOL    HW1 1454   6.908   0.225   4.619
  185SOL    HW2 1455   6.919   0.386   4.589
  186SOL     OW 1456   3.443   6.142   4.927
  186SOL    HW1 1457   3.417   6.089   4.846
  186SOL    HW2 1458   3.431   6.086   5.009
  187SOL     OW 1459   4.120   5.993   1.800
  187SOL    HW1 1460   4.191   5.954   1.858
  187SOL    HW2 1461   4.032   5.949   1.820
  188SOL     OW 1462   1.293   3.139   2.900
  188SOL    HW1 1463   1.224   3.143   2.972
  188SOL    HW2 1464   1.264   3.077   2.828
  189SOL     OW 1465   5.498   5.111   5.423
  189SOL    HW1 1466   5.484   5.013   5.413
  189SOL    HW2 1467   5.507   5.153   5.333
  190SOL     OW 1468   5.806   0.162   0.559
  190SOL    HW1 1469   5.777   0.107   0.637
  190SOL    HW2 1470   5.750   0.245   0.554
  191SOL     OW 1471   0.248   1.581   5.617
  191SOL    HW1 1472   0.277   1.664   5.666
  191SOL    HW2 1473   0.206   1.607   5.530
  192SOL     OW 1474   0.664   5.569   1.204
  192SOL    HW1 1475   0.648   5.510   1.284
  192SOL    HW2 1476   0.589   5.558   1.139
  193SOL     OW 1477   2.319   6.845   0.502
  193SOL    HW1 1478   2.387   6.813   0.436
  193SOL    HW2 1479   2.238   6.786   0.499
  194SOL     OW 1480   4.100   5.996   2.277
  194SOL    HW1 1481   4.086   5.949   2.364
  194SOL    HW2 1482   4.197   5.995   2.254
  195SOL     OW 1483   4.076   0.785   1.357
  195SOL    HW1 1484   4.023   0.784   1.441
  195SOL    HW2 1485   4.043   0.712   1.296
  196SOL     OW 1486   3.685   2.256   0.654
  196SOL    HW1 1487   3.739   2.212   0.726
  196SOL    HW2 1488   3.589   2.259   0.682
  197SOL     OW 1489   1.761   6.053   0.360
  197SOL    HW1 1490   1.823   6.130   0.348
  197SOL    HW2 1491   1.686   6.080   0.420
  198SOL     OW 1492   3.901   6.992   6.593
  198SOL    HW1 1493   3.930   0.046   6.648
  198SOL    HW2 1494   3.820   7.017   6.540
  199SOL     OW 1495   0.695   0.614   2.943
  199SOL    HW1 1496   0.646   0.549   3.000
  199SOL    HW2 1497   0.730   0.689   3.000
  200SOL     OW 1498   0.887   4.481   3.237
  200SOL    HW1 1499   0.884   4.385   3.267
  200SOL    HW2 1500   0.893   4.540   3.317
  201SOL     OW 1501   5.001   1.374   6.372
  201SOL    HW1 1502   4.930   1.397   6.305
  201SOL    HW2 1503   5.009   1.274   6.377
  202SOL     OW 1504   3.432   1.346   2.285
  202SOL    HW1 1505   3.449   1.445   2.284
  202SOL    HW2 1506   3.515   1.297   2.259
  203SOL     OW 1507   5.728   2.714   0.071
  203SOL    HW1 1508   5.675   2.728   0.154
  203SOL    HW2 1509   5.678   2.652   0.010
  204SOL     OW 1510   2.750   6.561   1.815
  204SOL    HW1 1511   2.714   6.584   1.905
  204SOL    HW2 1512   2.682   6.582   1.745
  205SOL     OW 1513   5.861   1.038   0.783
  205SOL    HW1 1514   5.842   0.945   0.751
  205SOL    HW2 1515   5.892   1.094   0.705
  206SOL     OW 1516   0.646   4.999   1.766
  206SOL    HW1 1517   0.690   4.917   1.732
  206SOL    HW2 1518   0.665   5.010   1.864
  207SOL     OW 1519   4.654   1.588   5.300
  207SOL    HW1 1520   4.594   1.556   5.227
  207SOL    HW2 1521   4.623   1.678   5.331
  208SOL     OW 1522   3.442   4.820   6.262
  208SOL    HW1 1523   3.453   4.869   6.348
  208SOL    HW2 1524   3.494   4.735   6.265
  209SOL     OW 1525   6.916   5.393   5.459
  209SOL    HW1 1526   6.841   5.328   5.444
  209SOL    HW2 1527   7.003   5.343   5.459
  210SOL     OW 1528   3.934   2.135   2.136
  210SOL    HW1 1529   3.995   2.188   2.076
  210SOL    HW2 1530   3.840   2.164   2.122
  211SOL     OW 1531   1.414   2.207   1.981
  211SOL    HW1 1532   1.382   2.232   1.889
  211SOL    HW2 1533   1.365   2.127   2.013
  212SOL     OW 1534   0.757   4.696   4.414
  212SOL    HW1 1535   0.704   4.728   4.493
  212SOL    HW2 1536   0.772   4.772   4.351
  213SOL     OW 1537   4.173   2.801   6.670
  213SOL    HW1 1538   4.122   2.720   6.699
  213SOL    HW2 1539   4.235   2.829   6.743
  214SOL     OW 1540   1.173   6.804   2.941
  214SOL    HW1 1541   1.255   6.819   2.995
  214SOL    HW2 1542   1.104   6.758   2.997
  215SOL     OW 1543   3.516   3.415   2.688
  215SOL    HW1 1544   3.450   3.340   2.699
  215SOL    HW2 1545   3.583   3.391   2.618
  216SOL     OW 1546   1.539   6.287   5.646
  216SOL    HW1 1547   1.505   6.284   5.552
  216SOL    HW2 1548   1.532   6.381   5.681
  217SOL     OW 1549   0.079   2.870   3.896
  217SOL    HW1 1550   0.043   2.856   3.988
  217SOL    HW2 1551   0.151   2.803   3.878
  218SOL     OW 1552   1.894   3.950   5.383
  218SOL    HW1 1553   1.818   3.987   5.437
  218SOL    HW2 1554   1.976   3.944   5.441
  219SOL     OW 1555   4.325   5.241   0.716
  219SOL    HW1 1556   4.239   5.288   0.736
  219SOL    HW2 1557   4.401   5.303   0.733
  220SOL     OW 1558   1.661   4.643   0.853
  220SOL    HW1 1559   1.567   4.631   0.883
  220SOL    HW2 1560   1.663   4.705   0.774
  221SOL     OW 1561   6.632   2.822   3.938
  221SOL    HW1 1562   6.590   2.888   4.000
  221SOL    HW2 1563   6.561   2.760   3.904
  222SOL     OW 1564   1.225   6.318   4.730
  222SOL    HW1 1565   1.131   6.311   4.763
  222SOL    HW2 1566   1.266   6.402   4.767
  223SOL     OW 1567   5.915   4.319   2.741
  223SOL    HW1 1568   5.832   4.373   2.756
  223SOL    HW2 1569   5.990   4.380   2.717
  224SOL     OW 1570   3.697   1.962   2.238
  224SOL    HW1 1571   3.792   1.933   2.224
  224SOL    HW2 1572   3.678   2.041   2.180
  225SOL     OW 1573   0.412   0.213   1.091
  225SOL    HW1 1574   0.507   0.207   1.123
  225SOL    HW2 1575   0.397   0.145   1.019
  226SOL     OW 1576   0.421   5.808   1.297
  226SOL    HW1 1577   0.450   5.726   1.247
  226SOL    HW2 1578   0.479   5.885   1.272
  227SOL     OW 1579   1.700   2.853   3.443
  227SOL    HW1 1580   1.776   2.918   3.452
  227SOL    HW2 1581   1.619   2.902   3.412
  228SOL     OW 1582   3.991   6.899   2.570
  228SOL    HW1 1583   4.017   6.803   2.563
  228SOL    HW2 1584   4.020   6.935   2.659
  229SOL     OW 1585   6.417   5.834   3.228
  229SOL    HW1 1586   6.334   5.885   3.207
  229SOL    HW2 1587   6.397   5.736   3.233
  230SOL     OW 1588   1.095   4.021   5.794
  230SOL    HW1 1589   1.099   4.116   5.827
  230SOL    HW2 1590   1.160   3.965   5.846
  231SOL     OW 1591   0.515   2.111   0.289
  231SOL    HW1 1592   0.563   2.178   0.346
  231SOL    HW2 1593   0.453   2.057   0.345
  232SOL     OW 1594   2.108   4.747   6.488
  232SOL    HW1 1595   2.066   4.815   6.549
  232SOL    HW2 1596   2.036   4.686   6.453
  233SOL     OW 1597   3.179   1.035   6.189
  233SOL    HW1 1598   3.193   0.954   6.247
  233SOL    HW2 1599   3.089   1.028   6.145
  234SOL     OW 1600   2.859   5.779   6.993
  234SOL    HW1 1601   2.864   5.822   0.059
  234SOL    HW2 1602   2.884   5.846   6.922
  235SOL     OW 1603   3.864   3.076   4.216
  235SOL    HW1 1604   3.879   3.167   4.254
  235SOL    HW2 1605   3.770   3.070   4.180
  236SOL     OW 1606   6.569   1.885   5.509
  236SOL    HW1 1607   6.654   1.836   5.525
  236SOL    HW2 1608   6.568   1.924   5.417
  237SOL     OW 1609   0.299   6.659   1.970
  237SOL    HW1 1610   0.225   6.612   1.920
  237SOL    HW2 1611   0.311   6.616   2.059
  238SOL     OW 1612   0.021   2.289   2.426
  238SOL    HW1 1613   0.050   2.331   2.512
  238SOL    HW2 1614   0.036   2.353   2.351
  239SOL     OW 1615   0.665   5.862   0.902
  239SOL    HW1 1616   0.734   5.838   0.971
  239SOL    HW2 1617   0.684   5.813   0.817
  240SOL     OW 1618   6.948   2.967   5.505
  240SOL    HW1 1619   6.983   3.055   5.474
  240SOL    HW2 1620   6.852   2.957   5.476
  241SOL     OW 1621   6.537   1.801   3.990
  241SOL    HW1 1622   6.529   1.717   4.044
  241SOL    HW2 1623   6.459   1.861   4.011
  242SOL     OW 1624   2.072   2.746   3.438
  242SOL    HW1 1625   2.159   2.795   3.432
  242SOL    HW2 1626   2.024   2.751   3.351
  243SOL     OW 1627   3.771   1.067   6.078
  243SOL    HW1 1628   3.712   1.027   6.008
  243SOL    HW2 1629   3.825   1.141   6.039
  244SOL     OW 1630   6.546   0.433   5.893
  244SOL    HW1 1631   6.555   0.337   5.919
  244SOL    HW2 1632   6.636   0.468   5.866
  245SOL     OW 1633   5.460   2.747   3.932
  245SOL    HW1 1634   5.522   2.819   3.965
  245SOL    HW2 1635   5.499   2.704   3.850
  246SOL     OW 1636   4.925   3.417   3.691
  246SOL    HW1 1637   4.895   3.503   3.731
  246SOL    HW2 1638   5.025   3.415   3.687
  247SOL     OW 1639   3.092   0.244   3.819
  247SOL    HW1 1640   3.043   0.253   3.732
  247SOL    HW2 1641   3.102   0.334   3.862
  248SOL     OW 1642   6.405   1.628   1.930
  248SOL    HW1 1643   6.468   1.646   1.854
  248SOL    HW2 1644   6.312   1.618   1.895
  249SOL     OW 1645   2.145   6.267   3.901
  249SOL    HW1 1646   2.245   6.267   3.899
  249SOL    HW2 1647   2.112   6.189   3.954
  250SOL     OW 1648   5.155   3.283   6.519
  250SOL    HW1 1649   5.245   3.323   6.534
  250SOL    HW2 1650   5.093   3.353   6.482
  251SOL     OW 1651   1.737   2.204   1.001
  251SOL    HW1 1652   1.668   2.243   1.062
  251SOL    HW2 1653   1.782   2.278   0.951
  252SOL     OW 1654   0.160   1.503   0.364
  252SOL    HW1 1655   0.225   1.445   0.412
  252SOL    HW2 1656   0.185   1.599   0.377
  253SOL     OW 1657   1.689   4.079   5.500
  253SOL    HW1 1658   1.620   4.032   5.555
  253SOL    HW2 1659   1.644   4.124   5.423
  254SOL     OW 1660   5.183   3.623   5.704
  254SOL    HW1 1661   5.092   3.600   5.739
  254SOL    HW2 1662   5.248   3.551   5.730
  255SOL     OW 1663   3.513   2.082   3.307
  255SOL    HW1 1664   3.568   2.096   3.224
  255SOL    HW2 1665   3.426   2.131   3.298
  256SOL     OW 1666   6.830   5.822   0.836
  256SOL    HW1 1667   6.863   5.888   0.904
  256SOL    HW2 1668   6.882   5.834   0.751
  257SOL     OW 1669   3.236   5.537   6.459
  257SOL    HW1 1670   3.275   5.496   6.542
  257SOL    HW2 1671   3.183   5.618   6.485
  258SOL     OW 1672   4.774   4.079   4.377
  258SOL    HW1 1673   4.749   4.121   4.290
  258SOL    HW2 1674   4.746   3.982   4.376
  259SOL     OW 1675   1.318   2.318   3.608
  259SOL    HW1 1676   1.417   2.319   3.602
  259SOL    HW2 1677   1.285   2.224   3.598
  260SOL     OW 1678   6.655   6.767   5.728
  260SOL    HW1 1679   6.601   6.848   5.751
  260SOL    HW2 1680   6.600   6.685   5.740
  261SOL     OW 1681   0.376   1.534   3.093
  261SOL    HW1 1682   0.291   1.547   3.145
  261SOL    HW2 1683   0.408   1.622   3.060
  262SOL     OW 1684   2.066   4.632   1.840
  262SOL    HW1 1685   2.115   4.668   1.919
  262SOL    HW2 1686   2.092   4.685   1.758
  263SOL     OW 1687   6.445   2.330   4.963
  263SOL    HW1 1688   6.497   2.414   4.970
  263SOL    HW2 1689   6.505   2.252   4.979
  264SOL     OW 1690   3.401   3.513   6.118
  264SOL    HW1 1691   3.306   3.496   6.144
  264SOL    HW2 1692   3.456   3.432   6.141
  265SOL     OW 1693   5.600   5.889   4.936
  265SOL    HW1 1694   5.659   5.952   4.987
  265SOL    HW2 1695   5.505   5.906   4.959
  266SOL     OW 1696   3.182   2.677   6.298
  266SOL    HW1 1697   3.267   2.685   6.245
  266SOL    HW2 1698   3.110   2.730   6.252
  267SOL     OW 1699   1.555   1.273   6.100
  267SOL    HW1 1700   1.624   1.345   6.108
  267SOL    HW2 1701   1.542   1.249   6.004
  268SOL     OW 1702   3.158   5.725   3.703
  268SOL    HW1 1703   3.129   5.632   3.682
  268SOL    HW2 1704   3.250   5.723   3.743
  269SOL     OW 1705   1.571   1.101   4.769
  269SOL    HW1 1706   1.577   1.002   4.756
  269SOL    HW2 1707   1.659   1.143   4.749
  270SOL     OW 1708   5.209   6.805   4.670
  270SOL    HW1 1709   5.155   6.760   4.599
  270SOL    HW2 1710   5.277   6.865   4.628
  271SOL     OW 1711   1.362   1.438   0.339
  271SOL    HW1 1712   1.276   1.391   0.316
  271SOL    HW2 1713   1.394   1.407   0.428
  272SOL     OW 1714   5.263   5.820   1.884
  272SOL    HW1 1715   5.238   5.828   1.980
  272SOL    HW2 1716   5.204   5.753   1.840
  273SOL     OW 1717   3.006   6.626   4.170
  273SOL    HW1 1718   3.054   6.685   4.235
  273SOL    HW2 1719   2.926   6.585   4.214
  274SOL     OW 1720   6.154   1.636   0.960
  274SOL    HW1 1721   6.098   1.617   0.880
  274SOL    HW2 1722   6.192   1.551   0.996
  275SOL     OW 1723   5.247   6.159   5.861
  275SOL    HW1 1724   5.309   6.160   5.782
  275SOL    HW2 1725   5.245   6.068   5.901
  276SOL     OW 1726   0.050   6.478   4.103
  276SOL    HW1 1727   0.095   6.398   4.063
  276SOL    HW2 1728   6.979   6.455   4.126
  277SOL     OW 1729   4.878   2.510   5.397
  277SOL    HW1 1730   4.947   2.562   5.448
  277SOL    HW2 1731   4.844   2.565   5.320
  278SOL     OW 1732   5.742   3.734   3.400
  278SOL    HW1 1733   5.789   3.691   3.323
  278SOL    HW2 1734   5.722   3.665   3.469
  279SOL     OW 1735   0.330   3.576   4.188
  279SOL    HW1 1736   0.272   3.599   4.266
  279SOL    HW2 1737   0.301   3.488   4.150
  280SOL     OW 1738   3.857   1.276   3.451
  280SOL    HW1 1739   3.771   1.242   3.414
  280SOL    HW2 1740   3.849   1.285   3.551
  281SOL     OW 1741   5.178   6.476   4.846
  281SOL    HW1 1742   5.165   6.410   4.772
  281SOL    HW2 1743   5.251   6.540   4.820
  282SOL     OW 1744   1.457   2.526   0.493
  282SOL    HW1 1745   1.543   2.474   0.485
  282SOL    HW2 1746   1.477   2.624   0.492
  283SOL     OW 1747   5.064   3.181   4.714
  283SOL    HW1 1748   5.032   3.213   4.625
  283SOL    HW2 1749   5.159   3.210   4.728
  284SOL     OW 1750   5.108   5.544   2.962
  284SOL    HW1 1751   5.145   5.489   2.886
  284SOL    HW2 1752   5.013   5.569   2.942
  285SOL     OW 1753   4.096   0.924   6.115
  285SOL    HW1 1754   4.125   0.972   6.033
  285SOL    HW2 1755   4.118   0.827   6.108
  286SOL     OW 1756   3.007   4.894   5.528
  286SOL    HW1 1757   3.105   4.908   5.515
  286SOL    HW2 1758   2.990   4.802   5.563
  287SOL     OW 1759   3.734   0.028   0.057
  287SOL    HW1 1760   3.654   7.000   0.027
  287SOL    HW2 1761   3.735   0.117   0.013
  288SOL     OW 1762   4.757   1.292   0.856
  288SOL    HW1 1763   4.837   1.338   0.820
  288SOL    HW2 1764   4.717   1.347   0.930
  289SOL     OW 1765   6.427   5.624   4.266
  289SOL    HW1 1766   6.388   5.572   4.190
  289SOL    HW2 1767   6.466   5.561   4.334
  290SOL     OW 1768   3.548   0.955   6.252
  290SOL    HW1 1769   3.615   1.017   6.211
  290SOL    HW2 1770   3.581   0.924   6.341
  291SOL     OW 1771   3.724   0.500   5.572
  291SOL    HW1 1772   3.770   0.485   5.659
  291SOL    HW2 1773   3.636   0.544   5.587
  292SOL     OW 1774   4.450   0.343   3.913
  292SOL    HW1 1775   4.511   0.279   3.959
  292SOL    HW2 1776   4.418   0.412   3.978
  293SOL     OW 1777   5.539   6.370   2.672
  293SOL    HW1 1778   5.500   6.458   2.647
  293SOL    HW2 1779   5.634   6.382   2.701
  294SOL     OW 1780   6.338   1.105   6.326
  294SOL    HW1 1781   6.328   1.117   6.227
  294SOL    HW2 1782   6.389   1.182   6.364
  295SOL     OW 1783   1.114   0.610   4.406
  295SOL    HW1 1784   1.059   0.693   4.391
  295SOL    HW2 1785   1.056   0.529   4.393
  296SOL     OW 1786   0.936   2.263   1.825
  296SOL    HW1 1787   0.992   2.302   1.752
  296SOL    HW2 1788   0.938   2.163   1.817
  297SOL     OW 1789   5.167   3.394   3.301
  297SOL    HW1 1790   5.195   3.301   3.323
  297SOL    HW2 1791   5.178   3.410   3.203
  298SOL     OW 1792   4.183   0.658   6.073
  298SOL    HW1 1793   4.208   0.602   6.152
  298SOL    HW2 1794   4.264   0.678   6.019
  299SOL     OW 1795   1.211   0.427   6.686
  299SOL    HW1 1796   1.129   0.483   6.675
  299SOL    HW2 1797   1.200   0.367   6.765
  300SOL     OW 1798   3.968   0.113   3.650
  300SOL    HW1 1799   4.012   0.135   3.737
  300SOL    HW2 1800   3.892   0.049   3.665
  301SOL     OW 1801   6.525   5.195   0.021
  301SOL    HW1 1802   6.576   5.252   6.981
  301SOL    HW2 1803   6.447   5.246   0.057
  302SOL     OW 1804   6.717   5.779   2.323
  302SOL    HW1 1805   6.618   5.788   2.324
  302SOL    HW2 1806   6.755   5.840   2.252
  303SOL     OW 1807   5.468   5.282   3.680
  303SOL    HW1 1808   5.384   5.229   3.689
  303SOL    HW2 1809   5.469   5.353   3.750
  304SOL     OW 1810   2.666   5.926   4.969
  304SOL    HW1 1811   2.581   5.949   5.016
  304SOL    HW2 1812   2.648   5.856   4.900
  305SOL     OW 1813   1.145   2.461   1.690
  305SOL    HW1 1814   1.122   2.558   1.698
  305SOL    HW2 1815   1.129   2.431   1.596
  306SOL     OW 1816   0.259   0.094   3.505
  306SOL    HW1 1817   0.290   0.014   3.453
  306SOL    HW2 1818   0.297   0.177   3.464
  307SOL     OW 1819   3.727   3.484   4.174
  307SOL    HW1 1820   3.767   3.503   4.084
  307SOL    HW2 1821   3.653   3.418   4.164
  308SOL     OW 1822   6.285   2.276   2.854
  308SOL    HW1 1823   6.279   2.367   2.813
  308SOL    HW2 1824   6.296   2.285   2.953
  309SOL     OW 1825   1.650   5.833   6.539
  309SOL    HW1 1826   1.558   5.837   6.500
  309SOL    HW2 1827   1.651   5.882   6.626
  310SOL     OW 1828   5.497   6.639   5.098
  310SOL    HW1 1829   5.424   6.691   5.142
  310SOL    HW2 1830   5.474   6.625   5.002
  311SOL     OW 1831   1.502   5.606   2.597
  311SOL    HW1 1832   1.482   5.593   2.500
  311SOL    HW2 1833   1.581   5.667   2.608
  312SOL     OW 1834   3.513   0.210   3.739
  312SOL    HW1 1835   3.530   0.201   3.641
  312SOL    HW2 1836   3.436   0.271   3.754
  313SOL     OW 1837   3.285   3.877   2.863
  313SOL    HW1 1838   3.365   3.857   2.919
  313SOL    HW2 1839   3.290   3.972   2.831
  314SOL     OW 1840   3.266   5.681   5.922
  314SOL    HW1 1841   3.203   5.722   5.988
  314SOL    HW2 1842   3.260   5.730   5.835
  315SOL     OW 1843   6.060   1.235   4.736
  315SOL    HW1 1844   6.115   1.291   4.674
  315SOL    HW2 1845   6.109   1.152   4.761
  316SOL     OW 1846   4.348   1.108   6.311
  316SOL    HW1 1847   4.440   1.074   6.294
  316SOL    HW2 1848   4.319   1.166   6.235
  317SOL     OW 1849   1.295   1.824   1.083
  317SOL    HW1 1850   1.322   1.752   1.146
  317SOL    HW2 1851   1.322   1.799   0.990
  318SOL     OW 1852   0.503   6.935   5.260
  318SOL    HW1 1853   0.485   7.022   5.214
  318SOL    HW2 1854   0.596   6.937   5.298
  319SOL     OW 1855   0.329   1.323   3.738
  319SOL    HW1 1856   0.366   1.231   3.753
  319SOL    HW2 1857   0.354   1.382   3.814
  320SOL     OW 1858   5.463   1.848   6.482
  320SOL    HW1 1859   5.507   1.846   6.392
  320SOL    HW2 1860   5.525   1.807   6.550
  321SOL     OW 1861   4.940   2.788   0.737
  321SOL    HW1 1862   4.867   2.814   0.800
  321SOL    HW2 1863   4.915   2.816   0.644
  322SOL     OW 1864   3.100   2.865   6.542
  322SOL    HW1 1865   3.114   2.955   6.584
  322SOL    HW2 1866   3.174   2.847   6.477
  323SOL     OW 1867   2.137   3.989   2.528
  323SOL    HW1 1868   2.059   3.926   2.528
  323SOL    HW2 1869   2.164   4.009   2.434
  324SOL     OW 1870   0.545   0.268   2.709
  324SOL    HW1 1871   0.587   0.237   2.624
  324SOL    HW2 1872   0.582   0.357   2.734
  325SOL     OW 1873   0.080   4.322   0.685
  325SOL    HW1 1874   0.006   4.353   0.745
  325SOL    HW2 1875   0.124   4.401   0.643
  326SOL     OW 1876   0.825   6.238   6.843
  326SOL    HW1 1877   0.822   6.150   6.795
  326SOL    HW2 1878   0.900   6.237   6.910
  327SOL     OW 1879   5.350   5.545   5.107
  327SOL    HW1 1880   5.279   5.614   5.119
  327SOL    HW2 1881   5.396   5.529   5.194
  328SOL     OW 1882   1.316   4.472   3.177
  328SOL    HW1 1883   1.390   4.420   3.133
  328SOL    HW2 1884   1.295   4.553   3.122
  329SOL     OW 1885   3.336   3.302   1.701
  329SOL    HW1 1886   3.392   3.279   1.780
  329SOL    HW2 1887   3.296   3.218   1.663
  330SOL     OW 1888   2.706   4.585   0.733
  330SOL    HW1 1889   2.736   4.665   0.784
  330SOL    HW2 1890   2.785   4.527   0.714
  331SOL     OW 1891   6.344   5.053   5.885
  331SOL    HW1 1892   6.388   5.136   5.919
  331SOL    HW2 1893   6.331   4.989   5.961
  332SOL     OW 1894   5.755   2.596   3.193
  332SOL    HW1 1895   5.679   2.536   3.215
  332SOL    HW2 1896   5.802   2.563   3.111
  333SOL     OW 1897   3.268   0.989   5.435
  333SOL    HW1 1898   3.313   0.966   5.349
  333SOL    HW2 1899   3.183   0.938   5.443
  334SOL     OW 1900   4.018   3.706   3.302
  334SOL    HW1 1901   4.077   3.625   3.312
  334SOL    HW2 1902   3.928   3.678   3.268
  335SOL     OW 1903   4.303   1.545   0.897
  335SOL    HW1 1904   4.217   1.518   0.854
  335SOL    HW2 1905   4.332   1.635   0.862
  336SOL     OW 1906   2.885   1.513   4.258
  336SOL    HW1 1907   2.943   1.587   4.291
  336SOL    HW2 1908   2.796   1.516   4.305
  337SOL     OW 1909   1.342   0.868   5.217
  337SOL    HW1 1910   1.295   0.946   5.176
  337SOL    HW2 1911   1.400   0.824   5.148
  338SOL     OW 1912   4.295   1.398   1.581
  338SOL    HW1 1913   4.353   1.434   1.654
  338SOL    HW2 1914   4.285   1.467   1.509
  339SOL     OW 1915   4.166   6.025   5.619
  339SOL    HW1 1916   4.083   5.976   5.591
  339SOL    HW2 1917   4.152   6.062   5.711
  340SOL     OW 1918   4.947   1.877   4.154
  340SOL    HW1 1919   5.037   1.837   4.170
  340SOL    HW2 1920   4.936   1.898   4.057
  341SOL     OW 1921   6.855   6.379   3.087
  341SOL    HW1 1922   6.829   6.349   3.179
  341SOL    HW2 1923   6.938   6.434   3.092
  342SOL     OW 1924   4.997   2.142   2.429
  342SOL    HW1 1925   4.989   2.074   2.502
  342SOL    HW2 1926   4.908   2.184   2.412
  343SOL     OW 1927   6.967   6.534   2.765
  343SOL    HW1 1928   6.954   6.624   2.807
  343SOL    HW2 1929   6.881   6.502   2.726
  344SOL     OW 1930   0.727   1.643   0.844
  344SOL    HW1 1931   0.757   1.692   0.926
  344SOL    HW2 1932   0.805   1.597   0.802
  345SOL     OW 1933   6.846   3.069   4.262
  345SOL    HW1 1934   6.826   3.100   4.355
  345SOL    HW2 1935   6.769   3.091   4.203
  346SOL     OW 1936   2.334   6.674   3.715
  346SOL    HW1 1937   2.238   6.670   3.684
  346SOL    HW2 1938   2.371   6.765   3.697
  347SOL     OW 1939   2.328   4.763   0.585
  347SOL    HW1 1940   2.325   4.845   0.527
  347SOL    HW2 1941   2.272   4.691   0.543
  348SOL     OW 1942   4.675   5.408   1.496
  348SOL    HW1 1943   4.597   5.370   1.546
  348SOL    HW2 1944   4.644   5.488   1.443
  349SOL     OW 1945   5.773   4.023   0.820
  349SOL    HW1 1946   5.848   4.030   0.755
  349SOL    HW2 1947   5.798   4.070   0.905
  350SOL     OW 1948   3.667   2.877   0.345
  350SOL    HW1 1949   3.729   2.830   0.282
  350SOL    HW2 1950   3.599   2.929   0.292
  351SOL     OW 1951   3.188   4.609   1.070
  351SOL    HW1 1952   3.127   4.543   1.114
  351SOL    HW2 1953   3.240   4.564   0.997
  352SOL     OW 1954   4.596   0.442   2.422
  352SOL    HW1 1955   4.691   0.455   2.395
  352SOL    HW2 1956   4.593   0.389   2.507
  353SOL     OW 1957   1.620   0.003   6.451
  353SOL    HW1 1958   1.537   0.006   6.396
  353SOL    HW2 1959   1.682   0.076   6.423
  354SOL     OW 1960   0.234   2.254   0.264
  354SOL    HW1 1961   0.272   2.164   0.283
  354SOL    HW2 1962   0.295   2.304   0.202
  355SOL     OW 1963   1.337   1.965   2.886
  355SOL    HW1 1964   1.332   2.010   2.976
  355SOL    HW2 1965   1.248   1.971   2.841
  356SOL     OW 1966   1.891   0.967   5.734
  356SOL    HW1 1967   1.832   0.920   5.668
  356SOL    HW2 1968   1.910   0.906   5.810
  357SOL     OW 1969   4.972   0.275   5.131
  357SOL    HW1 1970   5.054   0.307   5.177
  357SOL    HW2 1971   4.996   0.200   5.069
  358SOL     OW 1972   3.572   5.877   6.466
  358SOL    HW1 1973   3.507   5.869   6.389
  358SOL    HW2 1974   3.521   5.877   6.552
  359SOL     OW 1975   2.008   2.076   2.316
  359SOL    HW1 1976   1.914   2.044   2.322
  359SOL    HW2 1977   2.014   2.170   2.350
  360SOL     OW 1978   0.795   4.826   4.193
  360SOL    HW1 1979   0.751   4.908   4.157
  360SOL    HW2 1980   0.801   4.757   4.121
  361SOL     OW 1981   6.842   2.062   2.617
  361SOL    HW1 1982   6.851   2.161   2.624
  361SOL    HW2 1983   6.879   2.019   2.699
  362SOL     OW 1984   3.794   3.871   0.572
  362SOL    HW1 1985   3.727   3.847   0.502
  362SOL    HW2 1986   3.806   3.970   0.575
  363SOL     OW 1987   5.416   5.408   1.528
  363SOL    HW1 1988   5.506   5.374   1.501
  363SOL    HW2 1989   5.393   5.488   1.473
  364SOL     OW 1990   0.986   6.767   6.457
  364SOL    HW1 1991   0.990   6.826   6.538
  364SOL    HW2 1992   0.893   6.731   6.448
  365SOL     OW 1993   4.781   2.000   3.466
  365SOL    HW1 1994   4.849   1.927   3.462
  365SOL    HW2 1995   4.723   1.996   3.384
  366SOL     OW 1996   5.311   1.320   6.764
  366SOL    HW1 1997   5.273   1.407   6.798
  366SOL    HW2 1998   5.401   1.305   6.804
  367SOL     OW 1999   5.874   1.670   6.202
  367SOL    HW1 2000   5.891   1.631   6.293
  367SOL    HW2 2001   5.790   1.631   6.164
  368SOL     OW 2002   0.006   2.177   5.543
  368SOL    HW1 2003   6.948   2.205   5.494
  368SOL    HW2 2004   0.018   2.237   5.623
  369SOL     OW 2005   6.887   3.791   1.749
  369SOL    HW1 2006   6.801   3.800   1.699
  369SOL    HW2 2007   6.873   3.733   1.829
  370SOL     OW 2008   1.438   3.109   3.944
  370SOL    HW1 2009   1.477   3.017   3.955
  370SOL    HW2 2010   1.343   3.102   3.915
  371SOL     OW 2011   0.831   4.503   6.674
  371SOL    HW1 2012   0.901   4.436   6.698
  371SOL    HW2 2013   0.872   4.594   6.673
  372SOL     OW 2014   3.944   6.081   6.254
  372SOL    HW1 2015   4.021   6.030   6.292
  372SOL    HW2 2016   3.867   6.020   6.238
  373SOL     OW 2017   5.717   5.174   3.795
  373SOL    HW1 2018   5.775   5.255   3.803
  373SOL    HW2 2019   5.633   5.198   3.746
  374SOL     OW 2020   2.786   1.467   2.891
  374SOL    HW1 2021   2.840   1.405   2.949
  374SOL    HW2 2022   2.793   1.560   2.926
  375SOL     OW 2023   1.243   5.208   4.477
  375SOL    HW1 2024   1.224   5.113   4.502
  375SOL    HW2 2025   1.246   5.217   4.378
  376SOL     OW 2026   3.036   1.014   3.641
  376SOL    HW1 2027   3.084   1.049   3.721
  376SOL    HW2 2028   3.096   1.016   3.562
  377SOL     OW 2029   1.285   1.626   0.032
  377SOL    HW1 2030   1.267   1.664   0.123
  377SOL    HW2 2031   1.234   1.678   6.988
  378SOL     OW 2032   4.149   0.870   2.090
  378SOL    HW1 2033   4.167   0.954   2.141
  378SOL    HW2 2034   4.226   0.849   2.031
  379SOL     OW 2035   5.578   1.853   6.248
  379SOL    HW1 2036   5.672   1.857   6.280
  379SOL    HW2 2037   5.567   1.772   6.189
  380SOL     OW 2038   4.247   2.622   0.219
  380SOL    HW1 2039   4.184   2.642   0.144
  380SOL    HW2 2040   4.276   2.707   0.261
  381SOL     OW 2041   1.757   3.684   3.207
  381SOL    HW1 2042   1.848   3.726   3.206
  381SOL    HW2 2043   1.708   3.714   3.289
  382SOL     OW 2044   4.480   0.691   0.026
  382SOL    HW1 2045   4.488   0.647   6.961
  382SOL    HW2 2046   4.557   0.663   0.084
  383SOL     OW 2047   5.327   1.748   0.989
  383SOL    HW1 2048   5.240   1.730   0.942
  383SOL    HW2 2049   5.355   1.665   1.038
  384SOL     OW 2050   6.334   3.777   4.762
  384SOL    HW1 2051   6.370   3.841   4.829
  384SOL    HW2 2052   6.319   3.688   4.805
  385SOL     OW 2053   4.164   3.248   0.293
  385SOL    HW1 2054   4.114   3.289   0.369
  385SOL    HW2 2055   4.221   3.317   0.250
  386SOL     OW 2056   3.823   6.203   3.629
  386SOL    HW1 2057   3.833   6.118   3.576
  386SOL    HW2 2058   3.902   6.262   3.613
  387SOL     OW 2059   3.332   6.386   3.255
  387SOL    HW1 2060   3.298   6.345   3.339
  387SOL    HW2 2061   3.255   6.414   3.198
  388SOL     OW 2062   1.678   4.534   6.805
  388SOL    HW1 2063   1.647   4.471   6.876
  388SOL    HW2 2064   1.656   4.628   6.832
  389SOL     OW 2065   2.974   3.525   2.991
  389SOL    HW1 2066   2.989   3.621   3.015
  389SOL    HW2 2067   2.997   3.467   3.068
  390SOL     OW 2068   2.046   1.264   3.882
  390SOL    HW1 2069   2.118   1.288   3.816
  390SOL    HW2 2070   1.958   1.298   3.849
  391SOL     OW 2071   0.683   2.831   6.966
  391SOL    HW1 2072   0.691   2.732   6.973
  391SOL    HW2 2073   0.748   2.874   0.005
  392SOL     OW 2074   3.066   5.727   2.787
  392SOL    HW1 2075   3.095   5.672   2.709
  392SOL    HW2 2076   2.968   5.717   2.800
  393SOL     OW 2077   5.525   4.264   4.770
  393SOL    HW1 2078   5.451   4.196   4.768
  393SOL    HW2 2079   5.607   4.222   4.808
  394SOL     OW 2080   2.343   0.434   6.742
  394SOL    HW1 2081   2.307   0.407   6.832
  394SOL    HW2 2082   2.307   0.524   6.718
  395SOL     OW 2083   6.284   3.210   1.090
  395SOL    HW1 2084   6.188   3.237   1.085
  395SOL    HW2 2085   6.335   3.257   1.018
  396SOL     OW 2086   2.917   3.450   4.535
  396SOL    HW1 2087   3.007   3.484   4.563
  396SOL    HW2 2088   2.926   3.355   4.503
  397SOL     OW 2089   4.505   2.369   6.346
  397SOL    HW1 2090   4.535   2.325   6.262
  397SOL    HW2 2091   4.547   2.324   6.425
  398SOL     OW 2092   1.062   5.222   1.685
  398SOL    HW1 2093   1.158   5.216   1.712
  398SOL    HW2 2094   1.007   5.249   1.765
  399SOL     OW 2095   5.161   5.260   1.872
  399SOL    HW1 2096   5.081   5.257   1.812
  399SOL    HW2 2097   5.221   5.336   1.845
  400SOL     OW 2098   1.318   5.598   5.471
  400SOL    HW1 2099   1.376   5.664   5.422
  400SOL    HW2 2100   1.373   5.550   5.539
  401SOL     OW 2101   5.446   1.421   6.455
  401SOL    HW1 2102   5.389   1.343   6.483
  401SOL    HW2 2103   5.432   1.497   6.518
  402SOL     OW 2104   5.927   4.900   1.108
  402SOL    HW1 2105   5.948   4.944   1.020
  402SOL    HW2 2106   5.980   4.944   1.180
  403SOL     OW 2107   4.944   3.321   6.245
  403SOL    HW1 2108   4.907   3.317   6.338
  403SOL    HW2 2109   4.921   3.236   6.197
  404SOL     OW 2110   0.123   0.236   4.789
  404SOL    HW1 2111   0.070   0.312   4.750
  404SOL    HW2 2112   0.100   0.152   4.740
  405SOL     OW 2113   0.770   2.462   0.242
  405SOL    HW1 2114   0.684   2.484   0.197
  405SOL    HW2 2115   0.798   2.539   0.299
  406SOL     OW 2116   1.656   3.249   3.801
  406SOL    HW1 2117   1.721   3.176   3.823
  406SOL    HW2 2118   1.563   3.212   3.804
  407SOL     OW 2119   2.653   0.535   4.545
  407SOL    HW1 2120   2.722   0.580   4.488
  407SOL    HW2 2121   2.661   0.436   4.535
  408SOL     OW 2122   1.954   0.365   2.943
  408SOL    HW1 2123   2.014   0.294   2.980
  408SOL    HW2 2124   1.859   0.341   2.963
  409SOL     OW 2125   6.421   3.533   3.731
  409SOL    HW1 2126   6.460   3.444   3.756
  409SOL    HW2 2127   6.461   3.605   3.787
  410SOL     OW 2128   2.545   1.445   6.442
  410SOL    HW1 2129   2.478   1.515   6.466
  410SOL    HW2 2130   2.603   1.426   6.521
  411SOL     OW 2131   6.489   4.468   5.510
  411SOL    HW1 2132   6.530   4.379   5.531
  411SOL    HW2 2133   6.461   4.513   5.595
  412SOL     OW 2134   3.331   0.241   2.671
  412SOL    HW1 2135   3.389   0.318   2.642
  412SOL    HW2 2136   3.362   0.208   2.760
  413SOL     OW 2137   2.646   6.579   0.729
  413SOL    HW1 2138   2.571   6.512   0.730
  413SOL    HW2 2139   2.609   6.670   0.713
  414SOL     OW 2140   4.017   4.123   0.522
  414SOL    HW1 2141   4.062   4.081   0.442
  414SOL    HW2 2142   4.067   4.098   0.605
  415SOL     OW 2143   2.807   6.378   1.494
  415SOL    HW1 2144   2.716   6.411   1.469
  415SOL    HW2 2145   2.805   6.344   1.589
  416SOL     OW 2146   3.770   6.222   5.040
  416SOL    HW1 2147   3.710   6.243   5.117
  416SOL    HW2 2148   3.784   6.123   5.035
  417SOL     OW 2149   4.848   5.766   1.356
  417SOL    HW1 2150   4.870   5.855   1.395
  417SOL    HW2 2151   4.922   5.702   1.374
  418SOL     OW 2152   5.508   5.006   1.027
  418SOL    HW1 2153   5.556   5.084   0.987
  418SOL    HW2 2154   5.482   4.941   0.955
  419SOL     OW 2155   6.201   6.824   1.378
  419SOL    HW1 2156   6.252   6.880   1.312
  419SOL    HW2 2157   6.125   6.779   1.331
  420SOL     OW 2158   4.469   4.865   0.133
  420SOL    HW1 2159   4.422   4.841   0.218
  420SOL    HW2 2160   4.452   4.961   0.110
  421SOL     OW 2161   2.026   5.919   6.441
  421SOL    HW1 2162   2.090   5.956   6.509
  421SOL    HW2 2163   1.969   5.994   6.405
  422SOL     OW 2164   5.883   3.383   6.798
  422SOL    HW1 2165   5.964   3.428   6.838
  422SOL    HW2 2166   5.890   3.385   6.698
  423SOL     OW 2167   0.273   2.806   6.834
  423SOL    HW1 2168   0.369   2.812   6.806
  423SOL    HW2 2169   0.216   2.859   6.771
  424SOL     OW 2170   2.538   3.826   0.228
  424SOL    HW1 2171   2.608   3.797   0.163
  424SOL    HW2 2172   2.480   3.748   0.251
  425SOL     OW 2173   2.986   1.542   0.506
  425SOL    HW1 2174   3.050   1.558   0.581
  425SOL    HW2 2175   2.907   1.491   0.539
  426SOL     OW 2176   5.657   3.858   5.694
  426SOL    HW1 2177   5.697   3.922   5.629
  426SOL    HW2 2178   5.692   3.766   5.676
  427SOL     OW 2179   5.066   3.913   0.814
  427SOL    HW1 2180   5.107   3.945   0.899
  427SOL    HW2 2181   5.008   3.985   0.775
  428SOL     OW 2182   3.781   1.087   5.073
  428SOL    HW1 2183   3.825   1.009   5.028
  428SOL    HW2 2184   3.685   1.091   5.046
  429SOL     OW 2185   1.582   5.327   6.720
  429SOL    HW1 2186   1.517   5.401   6.738
  429SOL    HW2 2187   1.668   5.364   6.686
  430SOL     OW 2188   1.411   0.504   5.221
  430SOL    HW1 2189   1.473   0.576   5.252
  430SOL    HW2 2190   1.418   0.495   5.122
  431SOL     OW 2191   3.743   1.877   0.737
  431SOL    HW1 2192   3.718   1.940   0.664
  431SOL    HW2 2193   3.679   1.800   0.738
  432SOL     OW 2194   0.077   1.780   1.123
  432SOL    HW1 2195   0.132   1.800   1.042
  432SOL    HW2 2196   0.099   1.689   1.157
  433SOL     OW 2197   3.242   6.809   5.459
  433SOL    HW1 2198   3.283   6.785   5.547
  433SOL    HW2 2199   3.248   6.732   5.397
  434SOL     OW 2200   0.111   3.769   1.637
  434SOL    HW1 2201   0.017   3.786   1.667
  434SOL    HW2 2202   0.155   3.857   1.616
  435SOL     OW 2203   3.781   4.421   6.994
  435SOL    HW1 2204   3.714   4.389   0.037
  435SOL    HW2 2205   3.795   4.351   6.924
  436SOL     OW 2206   1.751   1.103   0.153
  436SOL    HW1 2207   1.817   1.149   0.212
  436SOL    HW2 2208   1.701   1.034   0.207
  437SOL     OW 2209   6.511   6.806   6.722
  437SOL    HW1 2210   6.458   6.779   6.802
  437SOL    HW2 2211   6.522   6.906   6.721
  438SOL     OW 2212   1.183   2.975   1.820
  438SOL    HW1 2213   1.140   2.917   1.888
  438SOL    HW2 2214   1.276   2.943   1.803
  439SOL     OW 2215   6.865   4.970   3.059
  439SOL    HW1 2216   6.849   4.872   3.068
  439SOL    HW2 2217   6.814   5.019   3.130
  440SOL     OW 2218   1.120   2.556   4.086
  440SOL    HW1 2219   1.098   2.553   4.184
  440SOL    HW2 2220   1.041   2.523   4.034
  441SOL     OW 2221   0.805   1.681   3.594
  441SOL    HW1 2222   0.751   1.716   3.670
  441SOL    HW2 2223   0.867   1.752   3.562
  442SOL     OW 2224   0.120   4.000   0.294
  442SOL    HW1 2225   0.043   3.938   0.309
  442SOL    HW2 2226   0.168   4.016   0.381
  443SOL     OW 2227   0.592   4.013   5.531
  443SOL    HW1 2228   0.611   3.973   5.441
  443SOL    HW2 2229   0.631   4.105   5.536
  444SOL     OW 2230   4.371   3.221   6.532
  444SOL    HW1 2231   4.352   3.132   6.491
  444SOL    HW2 2232   4.286   3.271   6.544
  445SOL     OW 2233   2.364   4.315   3.065
  445SOL    HW1 2234   2.343   4.252   2.991
  445SOL    HW2 2235   2.423   4.388   3.031
  446SOL     OW 2236   4.626   4.846   4.015
  446SOL    HW1 2237   4.558   4.844   3.942
  446SOL    HW2 2238   4.596   4.906   4.088
  447SOL     OW 2239   6.707   5.423   0.634
  447SOL    HW1 2240   6.780   5.389   0.575
  447SOL    HW2 2241   6.634   5.356   0.639
  448SOL     OW 2242   4.170   1.054   5.101
  448SOL    HW1 2243   4.121   0.995   5.038
  448SOL    HW2 2244   4.197   1.002   5.182
  449SOL     OW 2245   5.413   0.322   4.766
  449SOL    HW1 2246   5.442   0.296   4.858
  449SOL    HW2 2247   5.488   0.309   4.702
  450SOL     OW 2248   0.085   6.330   3.680
  450SOL    HW1 2249   0.148   6.402   3.711
  450SOL    HW2 2250   0.053   6.352   3.588
  451SOL     OW 2251   0.775   2.504   3.003
  451SOL    HW1 2252   0.691   2.473   2.957
  451SOL    HW2 2253   0.751   2.541   3.092
  452SOL     OW 2254   7.001   4.844   6.541
  452SOL    HW1 2255   6.983   4.834   6.443
  452SOL    HW2 2256   6.927   4.800   6.593
  453SOL     OW 2257   2.806   1.322   6.351
  453SOL    HW1 2258   2.732   1.332   6.418
  453SOL    HW2 2259   2.893   1.345   6.393
  454SOL     OW 2260   1.120   5.960   6.907
  454SOL    HW1 2261   1.103   6.005   6.820
  454SOL    HW2 2262   1.069   6.007   6.980
  455SOL     OW 2263   4.997   1.052   5.599
  455SOL    HW1 2264   5.032   1.075   5.690
  455SOL    HW2 2265   4.931   1.122   5.570
  456SOL     OW 2266   4.773   5.944   6.140
  456SOL    HW1 2267   4.806   5.975   6.051
  456SOL    HW2 2268   4.846   5.893   6.186
  457SOL     OW 2269   2.169   4.816   2.858
  457SOL    HW1 2270   2.204   4.895   2.808
  457SOL    HW2 2271   2.073   4.833   2.884
  458SOL     OW 2272   6.392   5.179   5.625
  458SOL    HW1 2273   6.339   5.152   5.706
  458SOL    HW2 2274   6.472   5.231   5.655
  459SOL     OW 2275   1.817   0.685   2.866
  459SOL    HW1 2276   1.898   0.648   2.821
  459SOL    HW2 2277   1.844   0.743   2.942
  460SOL     OW 2278   6.714   1.955   3.095
  460SOL    HW1 2279   6.812   1.953   3.115
  460SOL    HW2 2280   6.663   1.955   3.182
  461SOL     OW 2281   4.496   6.344   5.350
  461SOL    HW1 2282   4.452   6.278   5.412
  461SOL    HW2 2283   4.562   6.399   5.401
  462SOL     OW 2284   3.115   3.114   6.705
  462SOL    HW1 2285   3.196   3.158   6.743
  462SOL    HW2 2286   3.038   3.178   6.708
  463SOL     OW 2287   6.731   5.134   2.397
  463SOL    HW1 2288   6.681   5.122   2.482
  463SOL    HW2 2289   6.672   5.176   2.328
  464SOL     OW 2290   1.930   1.372   5.859
  464SOL    HW1 2291   1.905   1.392   5.764
  464SOL    HW2 2292   1.915   1.453   5.916
  465SOL     OW 2293   6.719   2.629   4.124
  465SOL    HW1 2294   6.696   2.714   4.075
  465SOL    HW2 2295   6.808   2.597   4.094
  466SOL     OW 2296   1.398   6.893   3.992
  466SOL    HW1 2297   1.483   6.911   4.043
  466SOL    HW2 2298   1.320   6.894   4.055
  467SOL     OW 2299   1.477   0.931   5.458
  467SOL    HW1 2300   1.431   0.896   5.377
  467SOL    HW2 2301   1.419   0.919   5.538
  468SOL     OW 2302   3.545   4.663   1.094
  468SOL    HW1 2303   3.606   4.612   1.154
  468SOL    HW2 2304   3.510   4.744   1.142
  469SOL     OW 2305   2.040   5.730   6.682
  469SOL    HW1 2306   1.941   5.714   6.690
  469SOL    HW2 2307   2.057   5.793   6.606
  470SOL     OW 2308   4.303   0.367   2.562
  470SOL    HW1 2309   4.320   0.453   2.512
  470SOL    HW2 2310   4.341   0.374   2.654
  471SOL     OW 2311   2.126   2.808   4.719
  471SOL    HW1 2312   2.182   2.873   4.771
  471SOL    HW2 2313   2.172   2.788   4.632
  472SOL     OW 2314   4.020   5.166   5.783
  472SOL    HW1 2315   3.982   5.086   5.829
  472SOL    HW2 2316   4.019   5.152   5.684
  473SOL     OW 2317   1.550   3.168   2.912
  473SOL    HW1 2318   1.453   3.147   2.912
  473SOL    HW2 2319   1.564   3.266   2.919
  474SOL     OW 2320   4.333   4.995   4.627
  474SOL    HW1 2321   4.421   5.040   4.633
  474SOL    HW2 2322   4.261   5.063   4.611
  475SOL     OW 2323   0.078   6.807   6.130
  475SOL    HW1 2324   0.052   6.740   6.061
  475SOL    HW2 2325   0.038   6.895   6.108
  476SOL     OW 2326   6.642   4.497   2.541
  476SOL    HW1 2327   6.683   4.514   2.631
  476SOL    HW2 2328   6.708   4.449   2.483
  477SOL     OW 2329   2.182   5.394   3.552
  477SOL    HW1 2330   2.216   5.303   3.572
  477SOL    HW2 2331   2.144   5.397   3.459
  478SOL     OW 2332   3.582   5.299   3.788
  478SOL    HW1 2333   3.557   5.203   3.777
  478SOL    HW2 2334   3.588   5.343   3.698
  479SOL     OW 2335   3.632   2.689   0.870
  479SOL    HW1 2336   3.677   2.697   0.782
  479SOL    HW2 2337   3.699   2.701   0.943
  480SOL     OW 2338   0.737   6.894   2.233
  480SOL    HW1 2339   0.764   6.855   2.322
  480SOL    HW2 2340   0.643   6.869   2.213
  481SOL     OW 2341   3.996   0.181   1.379
  481SOL    HW1 2342   3.961   0.250   1.442
  481SOL    HW2 2343   4.067   0.127   1.424
  482SOL     OW 2344   5.692   4.359   2.404
  482SOL    HW1 2345   5.773   4.305   2.386
  482SOL    HW2 2346   5.719   4.448   2.442
  483SOL     OW 2347   5.772   1.729   2.250
  483SOL    HW1 2348   5.847   1.666   2.271
  483SOL    HW2 2349   5.795   1.783   2.169
  484SOL     OW 2350   0.376   2.851   4.534
  484SOL    HW1 2351   0.463   2.885   4.497
  484SOL    HW2 2352   0.319   2.928   4.560
  485SOL     OW 2353   3.260   5.203   2.264
  485SOL    HW1 2354   3.167   5.168   2.264
  485SOL    HW2 2355   3.306   5.176   2.180
  486SOL     OW 2356   0.625   0.174   0.813
  486SOL    HW1 2357   0.690   0.203   0.743
  486SOL    HW2 2358   0.634   0.076   0.828
  487SOL     OW 2359   0.249   2.499   6.847
  487SOL    HW1 2360   0.309   2.472   6.922
  487SOL    HW2 2361   0.280   2.586   6.809
  488SOL     OW 2362   0.248   2.188   2.074
  488SOL    HW1 2363   0.266   2.224   2.165
  488SOL    HW2 2364   0.149   2.176   2.062
  489SOL     OW 2365   3.131   5.841   6.486
  489SOL    HW1 2366   3.045   5.814   6.528
  489SOL    HW2 2367   3.151   5.936   6.509
  490SOL     OW 2368   6.024   6.359   4.221
  490SOL    HW1 2369   6.093   6.431   4.231
  490SOL    HW2 2370   5.983   6.364   4.130
  491SOL     OW 2371   1.164   2.677   2.518
  491SOL    HW1 2372   1.259   2.652   2.498
  491SOL    HW2 2373   1.129   2.619   2.591
  492SOL     OW 2374   2.093   0.364   5.422
  492SOL    HW1 2375   2.164   0.310   5.468
  492SOL    HW2 2376   2.021   0.303   5.389
  493SOL     OW 2377   6.184   4.552   5.461
  493SOL    HW1 2378   6.113   4.623   5.458
  493SOL    HW2 2379   6.251   4.570   5.389
  494SOL     OW 2380   0.278   0.158   0.660
  494SOL    HW1 2381   0.304   0.251   0.634
  494SOL    HW2 2382   0.345   0.093   0.625
  495SOL     OW 2383   4.879   4.351   1.431
  495SOL    HW1 2384   4.934   4.314   1.506
  495SOL    HW2 2385   4.782   4.332   1.449
  496SOL     OW 2386   5.607   3.497   2.780
  496SOL    HW1 2387   5.607   3.409   2.828
  496SOL    HW2 2388   5.673   3.494   2.705
  497SOL     OW 2389   3.598   0.812   4.766
  497SOL    HW1 2390   3.691   0.829   4.797
  497SOL    HW2 2391   3.589   0.838   4.670
  498SOL     OW 2392   0.783   2.820   2.993
  498SOL    HW1 2393   0.776   2.881   3.072
  498SOL    HW2 2394   0.879   2.812   2.965
  499SOL     OW 2395   3.408   0.946   5.166
  499SOL    HW1 2396   3.334   0.930   5.100
  499SOL    HW2 2397   3.481   0.998   5.121
  500SOL     OW 2398   1.076   3.825   2.702
  500SOL    HW1 2399   1.121   3.898   2.753
  500SOL    HW2 2400   0.978   3.827   2.723
  501SOL     OW 2401   1.366   2.905   6.821
  501SOL    HW1 2402   1.434   2.964   6.863
  501SOL    HW2 2403   1.379   2.811   6.853
  502SOL     OW 2404   4.165   5.176   7.022
  502SOL    HW1 2405   4.099   5.239   0.040
  502SOL    HW2 2406   4.123   5.133   6.942
  503SOL     OW 2407   5.751   4.653   5.503
  503SOL    HW1 2408   5.736   4.731   5.563
  503SOL    HW2 2409   5.781   4.574   5.557
  504SOL     OW 2410   2.312   6.675   4.540
  504SOL    HW1 2411   2.332   6.706   4.447
  504SOL    HW2 2412   2.224   6.629   4.542
  505SOL     OW 2413   4.075   0.108   5.820
  505SOL    HW1 2414   3.987   0.119   5.866
  505SOL    HW2 2415   4.061   0.113   5.721
  506SOL     OW 2416   1.964   4.415   5.663
  506SOL    HW1 2417   1.894   4.446   5.728
  506SOL    HW2 2418   2.011   4.335   5.702
  507SOL     OW 2419   3.234   0.406   4.772
  507SOL    HW1 2420   3.306   0.364   4.717
  507SOL    HW2 2421   3.165   0.336   4.793
  508SOL     OW 2422   6.688   3.883   3.341
  508SOL    HW1 2423   6.636   3.969   3.343
  508SOL    HW2 2424   6.663   3.828   3.421
  509SOL     OW 2425   4.822   1.594   1.862
  509SOL    HW1 2426   4.882   1.623   1.788
  509SOL    HW2 2427   4.846   1.501   1.891
  510SOL     OW 2428   6.639   4.601   4.644
  510SOL    HW1 2429   6.551   4.648   4.649
  510SOL    HW2 2430   6.649   4.557   4.555
  511SOL     OW 2431   0.892   6.611   0.313
  511SOL    HW1 2432   0.966   6.545   0.324
  511SOL    HW2 2433   0.816   6.567   0.265
  512SOL     OW 2434   1.201   4.058   6.139
  512SOL    HW1 2435   1.145   4.005   6.203
  512SOL    HW2 2436   1.230   4.143   6.182
  513SOL     OW 2437   6.412   6.194   4.289
  513SOL    HW1 2438   6.448   6.240   4.371
  513SOL    HW2 2439   6.398   6.097   4.309
  514SOL     OW 2440   6.309   2.221   4.212
  514SOL    HW1 2441   6.235   2.277   4.250
  514SOL    HW2 2442   6.332   2.255   4.121
  515SOL     OW 2443   1.902   6.407   6.035
  515SOL    HW1 2444   1.803   6.397   6.048
  515SOL    HW2 2445   1.943   6.442   6.119
  516SOL     OW 2446   2.336   4.993   1.774
  516SOL    HW1 2447   2.363   5.029   1.863
  516SOL    HW2 2448   2.347   5.065   1.705
  517SOL     OW 2449   4.570   6.923   1.307
  517SOL    HW1 2450   4.572   7.014   1.348
  517SOL    HW2 2451   4.477   6.901   1.278
  518SOL     OW 2452   2.324   2.587   1.426
  518SOL    HW1 2453   2.310   2.489   1.432
  518SOL    HW2 2454   2.366   2.609   1.338
  519SOL     OW 2455   0.236   0.000   5.926
  519SOL    HW1 2456   0.236   6.941   5.871
  519SOL    HW2 2457   0.156   0.001   5.986
  520SOL     OW 2458   5.539   4.961   5.818
  520SOL    HW1 2459   5.576   4.892   5.880
  520SOL    HW2 2460   5.459   4.923   5.771
  521SOL     OW 2461   6.909   1.667   0.102
  521SOL    HW1 2462   6.991   1.722   0.121
  521SOL    HW2 2463   6.912   1.584   0.158
  522SOL     OW 2464   3.845   3.502   3.907
  522SOL    HW1 2465   3.866   3.407   3.883
  522SOL    HW2 2466   3.777   3.539   3.844
  523SOL     OW 2467   6.730   6.902   4.750
  523SOL    HW1 2468   6.772   6.821   4.709
  523SOL    HW2 2469   6.687   6.877   4.836
  524SOL     OW 2470   2.533   1.075   5.788
  524SOL    HW1 2471   2.546   1.094   5.886
  524SOL    HW2 2472   2.599   1.127   5.735
  525SOL     OW 2473   2.739   4.077   6.962
  525SOL    HW1 2474   2.675   4.126   7.020
  525SOL    HW2 2475   2.817   4.046   7.016
  526SOL     OW 2476   3.503   5.784   4.831
  526SOL    HW1 2477   3.547   5.751   4.914
  526SOL    HW2 2478   3.563   5.766   4.752
  527SOL     OW 2479   0.149   0.933   0.049
  527SOL    HW1 2480   0.215   0.876   7.023
  527SOL    HW2 2481   0.187   1.025   0.061
  528SOL     OW 2482   2.033   1.476   5.162
  528SOL    HW1 2483   2.088   1.559   5.167
  528SOL    HW2 2484   2.023   1.437   5.254
  529SOL     OW 2485   1.212   5.303   4.188
  529SOL    HW1 2486   1.243   5.228   4.130
  529SOL    HW2 2487   1.126   5.339   4.151
  530SOL     OW 2488   2.225   3.283   5.383
  530SOL    HW1 2489   2.239   3.372   5.339
  530SOL    HW2 2490   2.221   3.211   5.314
  531SOL     OW 2491   0.969   0.210   1.100
  531SOL    HW1 2492   1.016   0.178   1.018
  531SOL    HW2 2493   0.949   0.132   1.159
  532SOL     OW 2494   0.961   1.552   5.581
  532SOL    HW1 2495   1.038   1.601   5.541
  532SOL    HW2 2496   0.972   1.454   5.568
  533SOL     OW 2497   5.469   6.931   4.879
  533SOL    HW1 2498   5.566   6.929   4.905
  533SOL    HW2 2499   5.460   6.956   4.783
  534SOL     OW 2500   4.852   5.123   2.264
  534SOL    HW1 2501   4.781   5.070   2.309
  534SOL    HW2 2502   4.857   5.098   2.167
  535SOL     OW 2503   0.400   3.787   3.563
  535SOL    HW1 2504   0.362   3.715   3.621
  535SOL    HW2 2505   0.455   3.745   3.491
  536SOL     OW 2506   1.727   5.455   1.126
  536SOL    HW1 2507   1.803   5.396   1.100
  536SOL    HW2 2508   1.740   5.546   1.088
  537SOL     OW 2509   2.322   0.185   2.326
  537SOL    HW1 2510   2.396   0.248   2.351
  537SOL    HW2 2511   2.308   0.119   2.400
  538SOL     OW 2512   0.806   6.353   3.251
  538SOL    HW1 2513   0.747   6.303   3.188
  538SOL    HW2 2514   0.868   6.412   3.199
  539SOL     OW 2515   1.839   4.964   1.658
  539SOL    HW1 2516   1.837   5.063   1.647
  539SOL    HW2 2517   1.932   4.934   1.675
  540SOL     OW 2518   1.869   2.280   2.462
  540SOL    HW1 2519   1.790   2.230   2.498
  540SOL    HW2 2520   1.851   2.378   2.468
  541SOL     OW 2521   2.896   5.623   5.800
  541SOL    HW1 2522   2.856   5.658   5.715
  541SOL    HW2 2523   2.951   5.542   5.781
  542SOL     OW 2524   6.183   5.313   6.777
  542SOL    HW1 2525   6.227   5.402   6.763
  542SOL    HW2 2526   6.193   5.258   6.695
  543SOL     OW 2527   1.266   5.121   6.990
  543SOL    HW1 2528   1.361   5.138   6.962
  543SOL    HW2 2529   1.215   5.082   6.914
  544SOL     OW 2530   1.051   4.711   0.742
  544SOL    HW1 2531   1.083   4.617   0.756
  544SOL    HW2 2532   0.957   4.711   0.710
  545SOL     OW 2533   3.781   1.414   2.706
  545SOL    HW1 2534   3.715   1.473   2.659
  545SOL    HW2 2535   3.748   1.395   2.798
  546SOL     OW 2536   1.873   3.556   0.450
  546SOL    HW1 2537   1.891   3.542   0.547
  546SOL    HW2 2538   1.795   3.617   0.438
  547SOL     OW 2539   2.699   3.553   0.286
  547SOL    HW1 2540   2.762   3.552   0.364
  547SOL    HW2 2541   2.741   3.505   0.209
  548SOL     OW 2542   3.369   2.929   4.158
  548SOL    HW1 2543   3.282   2.957   4.200
  548SOL    HW2 2544   3.415   3.009   4.121
  549SOL     OW 2545   5.829   3.506   1.438
  549SOL    HW1 2546   5.914   3.483   1.390
  549SOL    HW2 2547   5.802   3.429   1.497
  550SOL     OW 2548   0.070   4.395   2.315
  550SOL    HW1 2549   0.103   4.406   2.409
  550SOL    HW2 2550   0.131   4.334   2.264
  551SOL     OW 2551   6.635   2.237   0.523
  551SOL    HW1 2552   6.657   2.182   0.603
  551SOL    HW2 2553   6.572   2.310   0.548
  552SOL     OW 2554   3.537   5.925   0.527
  552SOL    HW1 2555   3.627   5.951   0.492
  552SOL    HW2 2556   3.466   5.958   0.465
  553SOL     OW 2557   1.815   1.241   1.484
  553SOL    HW1 2558   1.821   1.207   1.578
  553SOL    HW2 2559   1.839   1.338   1.483
  554SOL     OW 2560   5.472   6.271   5.201
  554SOL    HW1 2561   5.514   6.352   5.242
  554SOL    HW2 2562   5.383   6.254   5.242
  555SOL     OW 2563   1.325   4.829   4.084
  555SOL    HW1 2564   1.252   4.788   4.139
  555SOL    HW2 2565   1.333   4.926   4.106
  556SOL     OW 2566   5.625   2.691   4.188
  556SOL    HW1 2567   5.525   2.699   4.196
  556SOL    HW2 2568   5.668   2.759   4.248
  557SOL     OW 2569   0.456   6.476   5.730
  557SOL    HW1 2570   0.486   6.454   5.823
  557SOL    HW2 2571   0.517   6.433   5.664
  558SOL     OW 2572   4.054   4.025   5.332
  558SOL    HW1 2573   3.970   3.998   5.285
  558SOL    HW2 2574   4.105   3.944   5.359
  559SOL     OW 2575   6.995   5.950   6.052
  559SOL    HW1 2576   6.895   5.958   6.043
  559SOL    HW2 2577   0.014   6.033   6.018
  560SOL     OW 2578   4.044   0.083   0.068
  560SOL    HW1 2579   4.034   0.033   0.154
  560SOL    HW2 2580   3.964   0.142   0.054
  561SOL     OW 2581   5.152   6.772   0.581
  561SOL    HW1 2582   5.169   6.837   0.656
  561SOL    HW2 2583   5.238   6.749   0.537
  562SOL     OW 2584   5.360   1.509   5.616
  562SOL    HW1 2585   5.372   1.514   5.517
  562SOL    HW2 2586   5.269   1.474   5.637
  563SOL     OW 2587   3.188   6.794   3.963
  563SOL    HW1 2588   3.142   6.706   3.952
  563SOL    HW2 2589   3.121   6.868   3.957
  564SOL     OW 2590   0.338   1.126   7.003
  564SOL    HW1 2591   0.436   1.141   6.992
  564SOL    HW2 2592   0.300   1.090   6.917
  565SOL     OW 2593   4.689   4.045   5.192
  565SOL    HW1 2594   4.709   4.123   5.132
  565SOL    HW2 2595   4.636   4.076   5.270
  566SOL     OW 2596   5.019   4.671   2.671
  566SOL    HW1 2597   5.059   4.707   2.586
  566SOL    HW2 2598   4.933   4.625   2.650
  567SOL     OW 2599   3.475   3.223   4.427
  567SOL    HW1 2600   3.381   3.249   4.451
  567SOL    HW2 2601   3.485   3.124   4.436
  568SOL     OW 2602   2.589   1.688   6.823
  568SOL    HW1 2603   2.574   1.761   6.756
  568SOL    HW2 2604   2.671   1.637   6.800
  569SOL     OW 2605   2.119   2.587   1.173
  569SOL    HW1 2606   2.208   2.633   1.177
  569SOL    HW2 2607   2.088   2.584   1.078
  570SOL     OW 2608   6.853   6.200   1.408
  570SOL    HW1 2609   6.762   6.190   1.368
  570SOL    HW2 2610   6.874   6.120   1.463
  571SOL     OW 2611   4.331   5.330   3.101
  571SOL    HW1 2612   4.251   5.371   3.059
  571SOL    HW2 2613   4.386   5.401   3.146
  572SOL     OW 2614   1.525   3.615   5.083
  572SOL    HW1 2615   1.498   3.709   5.060
  572SOL    HW2 2616   1.622   3.603   5.064
  573SOL     OW 2617   4.042   2.404   5.866
  573SOL    HW1 2618   4.125   2.451   5.898
  573SOL    HW2 2619   4.050   2.306   5.885
  574SOL     OW 2620   2.084   1.374   4.126
  574SOL    HW1 2621   2.068   1.315   4.047
  574SOL    HW2 2622   2.139   1.324   4.193
  575SOL     OW 2623   5.387   2.424   0.137
  575SOL    HW1 2624   5.441   2.473   0.205
  575SOL    HW2 2625   5.416   2.453   0.045
  576SOL     OW 2626   1.140   1.714   2.649
  576SOL    HW1 2627   1.068   1.714   2.580
  576SOL    HW2 2628   1.202   1.791   2.634
  577SOL     OW 2629   3.162   2.088   3.540
  577SOL    HW1 2630   3.229   2.017   3.521
  577SOL    HW2 2631   3.149   2.097   3.639
  578SOL     OW 2632   6.960   3.629   4.008
  578SOL    HW1 2633   6.948   3.616   4.106
  578SOL    HW2 2634   0.033   3.647   3.988
  579SOL     OW 2635   4.544   3.051   6.926
  579SOL    HW1 2636   4.630   3.078   6.882
  579SOL    HW2 2637   4.472   3.042   6.857
  580SOL     OW 2638   1.114   5.533   6.692
  580SOL    HW1 2639   1.202   5.514   6.649
  580SOL    HW2 2640   1.042   5.480   6.647
  581SOL     OW 2641   4.071   3.723   2.831
  581SOL    HW1 2642   4.141   3.729   2.902
  581SOL    HW2 2643   3.983   3.703   2.873
  582SOL     OW 2644   6.030   3.851   2.085
  582SOL    HW1 2645   5.995   3.841   1.992
  582SOL    HW2 2646   6.121   3.893   2.082
  583SOL     OW 2647   2.589   4.885   7.003
  583SOL    HW1 2648   2.503   4.857   6.960
  583SOL    HW2 2649   2.584   4.982   0.002
  584SOL     OW 2650   0.321   4.891   4.839
  584SOL    HW1 2651   0.322   4.836   4.756
  584SOL    HW2 2652   0.369   4.977   4.823
  585SOL     OW 2653   0.153   1.325   0.037
  585SOL    HW1 2654   0.226   1.260   0.016
  585SOL    HW2 2655   0.193   1.416   0.053
  586SOL     OW 2656   2.800   6.511   0.483
  586SOL    HW1 2657   2.882   6.468   0.521
  586SOL    HW2 2658   2.733   6.526   0.556
  587SOL     OW 2659   0.940   2.857   5.296
  587SOL    HW1 2660   0.847   2.862   5.259
  587SOL    HW2 2661   0.939   2.885   5.392
  588SOL     OW 2662   3.287   6.774   1.596
  588SOL    HW1 2663   3.326   6.693   1.551
  588SOL    HW2 2664   3.245   6.747   1.683
  589SOL     OW 2665   4.216   4.947   2.911
  589SOL    HW1 2666   4.164   4.906   2.986
  589SOL    HW2 2667   4.290   5.002   2.947
  590SOL     OW 2668   0.195   1.917   2.088
  590SOL    HW1 2669   0.096   1.910   2.080
  590SOL    HW2 2670   0.221   2.013   2.097
  591SOL     OW 2671   3.745   6.681   3.181
  591SOL    HW1 2672   3.696   6.594   3.188
  591SOL    HW2 2673   3.794   6.698   3.266
  592SOL     OW 2674   5.051   1.110   0.241
  592SOL    HW1 2675   5.009   1.197   0.266
  592SOL    HW2 2676   5.037   1.093   0.143
  593SOL     OW 2677   5.174   1.940   3.502
  593SOL    HW1 2678   5.131   1.970   3.588
  593SOL    HW2 2679   5.262   1.899   3.523
  594SOL     OW 2680   4.151   2.580   1.251
  594SOL    HW1 2681   4.120   2.513   1.184
  594SOL    HW2 2682   4.073   2.618   1.300
  595SOL     OW 2683   3.695   6.935   4.040
  595SOL    HW1 2684   3.685   7.005   3.969
  595SOL    HW2 2685   3.604   6.904   4.068
  596SOL     OW 2686   1.724   4.379   2.636
  596SOL    HW1 2687   1.634   4.396   2.596
  596SOL    HW2 2688   1.763   4.296   2.596
  597SOL     OW 2689   3.826   2.050   5.439
  597SOL    HW1 2690   3.766   2.043   5.519
  597SOL    HW2 2691   3.773   2.080   5.360
  598SOL     OW 2692   3.545   4.466   0.646
  598SOL    HW1 2693   3.566   4.506   0.735
  598SOL    HW2 2694   3.470   4.401   0.655
  599SOL     OW 2695   6.807   6.360   2.583
  599SOL    HW1 2696   6.789   6.287   2.517
  599SOL    HW2 2697   6.761   6.338   2.669
  600SOL     OW 2698   2.333   0.074   6.931
  600SOL    HW1 2699   2.303   0.162   6.968
  600SOL    HW2 2700   2.430   0.079   6.906
  601SOL     OW 2701   3.176   5.236   4.191
  601SOL    HW1 2702   3.145   5.155   4.141
  601SOL    HW2 2703   3.189   5.311   4.127
  602SOL     OW 2704   2.048   0.874   0.962
  602SOL    HW1 2705   2.063   0.799   0.898
  602SOL    HW2 2706   1.974   0.849   1.025
  603SOL     OW 2707   3.955   2.050   3.236
  603SOL    HW1 2708   3.883   2.089   3.179
  603SOL    HW2 2709   3.937   2.074   3.332
  604SOL     OW 2710   0.216   4.130   6.211
  604SOL    HW1 2711   0.140   4.097   6.267
  604SOL    HW2 2712   0.259   4.053   6.164
  605SOL     OW 2713   5.756   0.531   4.606
  605SOL    HW1 2714   5.766   0.488   4.696
  605SOL    HW2 2715   5.704   0.471   4.546
  606SOL     OW 2716   3.609   0.185   3.478
  606SOL    HW1 2717   3.675   0.213   3.409
  606SOL    HW2 2718   3.593   0.086   3.470
  607SOL     OW 2719   4.579   1.306   4.096
  607SOL    HW1 2720   4.556   1.299   4.194
  607SOL    HW2 2721   4.611   1.217   4.063
  608SOL     OW 2722   4.354   1.156   1.459
  608SOL    HW1 2723   4.408   1.202   1.389
  608SOL    HW2 2724   4.320   1.223   1.525
  609SOL     OW 2725   3.513   4.022   4.451
  609SOL    HW1 2726   3.568   4.061   4.377
  609SOL    HW2 2727   3.568   4.015   4.534
  610SOL     OW 2728   5.059   2.275   4.156
  610SOL    HW1 2729   5.013   2.330   4.226
  610SOL    HW2 2730   5.015   2.289   4.067
  611SOL     OW 2731   0.634   6.816   1.090
  611SOL    HW1 2732   0.717   6.812   1.146
  611SOL    HW2 2733   0.554   6.821   1.150
  612SOL     OW 2734   3.216   5.460   5.327
  612SOL    HW1 2735   3.170   5.512   5.399
  612SOL    HW2 2736   3.315   5.467   5.339
  613SOL     OW 2737   3.267   2.218   0.103
  613SOL    HW1 2738   3.348   2.166   0.129
  613SOL    HW2 2739   3.186   2.175   0.144
  614SOL     OW 2740   5.177   4.509   1.016
  614SOL    HW1 2741   5.266   4.480   0.980
  614SOL    HW2 2742   5.187   4.594   1.066
  615SOL     OW 2743   6.203   6.708   0.760
  615SOL    HW1 2744   6.171   6.664   0.845
  615SOL    HW2 2745   6.157   6.796   0.749
  616SOL     OW 2746   5.442   1.797   4.630
  616SOL    HW1 2747   5.347   1.821   4.611
  616SOL    HW2 2748   5.473   1.730   4.563
  617SOL     OW 2749   0.307   5.301   5.406
  617SOL    HW1 2750   0.374   5.347   5.464
  617SOL    HW2 2751   0.249   5.369   5.362
  618SOL     OW 2752   6.263   3.741   0.454
  618SOL    HW1 2753   6.319   3.781   0.526
  618SOL    HW2 2754   6.320   3.682   0.397
  619SOL     OW 2755   2.617   0.515   6.185
  619SOL    HW1 2756   2.631   0.531   6.087
  619SOL    HW2 2757   2.645   0.421   6.207
  620SOL     OW 2758   6.946   2.042   2.364
  620SOL    HW1 2759   6.868   2.019   2.422
  620SOL    HW2 2760   6.977   2.135   2.384
  621SOL     OW 2761   3.326   1.235   6.742
  621SOL    HW1 2762   3.356   1.296   6.669
  621SOL    HW2 2763   3.299   1.147   6.703
  622SOL     OW 2764   1.167   1.994   4.989
  622SOL    HW1 2765   1.129   2.056   5.057
  622SOL    HW2 2766   1.267   1.997   4.992
  623SOL     OW 2767   5.865   7.020   4.179
  623SOL    HW1 2768   5.952   7.012   4.228
  623SOL    HW2 2769   5.879   0.047   4.095
  624SOL     OW 2770   6.440   0.620   6.411
  624SOL    HW1 2771   6.355   0.669   6.428
  624SOL    HW2 2772   6.432   0.567   6.327
  625SOL     OW 2773   2.323   1.768   0.639
  625SOL    HW1 2774   2.276   1.760   0.727
  625SOL    HW2 2775   2.263   1.736   0.566
  626SOL     OW 2776   0.243   5.551   3.650
  626SOL    HW1 2777   0.202   5.481   3.709
  626SOL    HW2 2778   0.342   5.539   3.648
  627SOL     OW 2779   6.229   0.292   0.080
  627SOL    HW1 2780   6.146   0.246   0.111
  627SOL    HW2 2781   6.225   0.389   0.105
  628SOL     OW 2782   4.406   4.496   5.824
  628SOL    HW1 2783   4.478   4.443   5.781
  628SOL    HW2 2784   4.418   4.494   5.924
  629SOL     OW 2785   0.913   6.831   5.993
  629SOL    HW1 2786   0.934   6.734   5.984
  629SOL    HW2 2787   0.819   6.848   5.964
  630SOL     OW 2788   6.616   1.252   1.437
  630SOL    HW1 2789   6.524   1.285   1.457
  630SOL    HW2 2790   6.667   1.243   1.522
  631SOL     OW 2791   1.814   3.018   3.873
  631SOL    HW1 2792   1.909   3.020   3.906
  631SOL    HW2 2793   1.807   2.953   3.797
  632SOL     OW 2794   3.349   3.953   6.489
  632SOL    HW1 2795   3.342   3.856   6.510
  632SOL    HW2 2796   3.396   3.965   6.402
  633SOL     OW 2797   1.604   6.255   1.115
  633SOL    HW1 2798   1.617   6.158   1.095
  633SOL    HW2 2799   1.516   6.286   1.079
  634SOL     OW 2800   3.093   3.052   4.665
  634SOL    HW1 2801   3.003   3.014   4.644
  634SOL    HW2 2802   3.091   3.092   4.756
  635SOL     OW 2803   5.199   0.561   6.683
  635SOL    HW1 2804   5.169   0.655   6.672
  635SOL    HW2 2805   5.232   0.525   6.596
  636SOL     OW 2806   2.709   0.538   5.931
  636SOL    HW1 2807   2.783   0.601   5.911
  636SOL    HW2 2808   2.639   0.545   5.860
  637SOL     OW 2809   6.558   0.540   2.805
  637SOL    HW1 2810   6.643   0.509   2.848
  637SOL    HW2 2811   6.489   0.469   2.812
  638SOL     OW 2812   6.199   3.491   4.524
  638SOL    HW1 2813   6.160   3.398   4.529
  638SOL    HW2 2814   6.207   3.518   4.428
  639SOL     OW 2815   5.806   4.576   2.502
  639SOL    HW1 2816   5.802   4.613   2.409
  639SOL    HW2 2817   5.871   4.629   2.557
  640SOL     OW 2818   0.506   2.274   1.971
  640SOL    HW1 2819   0.415   2.258   2.008
  640SOL    HW2 2820   0.518   2.371   1.954
  641SOL     OW 2821   2.199   5.102   4.209
  641SOL    HW1 2822   2.157   5.180   4.162
  641SOL    HW2 2823   2.134   5.064   4.274
  642SOL     OW 2824   0.970   3.982   4.792
  642SOL    HW1 2825   1.034   4.043   4.745
  642SOL    HW2 2826   0.924   3.923   4.725
  643SOL     OW 2827   5.180   5.590   0.531
  643SOL    HW1 2828   5.112   5.580   0.604
  643SOL    HW2 2829   5.141   5.645   0.457
  644SOL     OW 2830   6.487   6.563   5.227
  644SOL    HW1 2831   6.508   6.473   5.264
  644SOL    HW2 2832   6.508   6.633   5.296
  645SOL     OW 2833   3.700   5.185   2.053
  645SOL    HW1 2834   3.672   5.232   2.137
  645SOL    HW2 2835   3.692   5.247   1.975
  646SOL     OW 2836   3.532   1.706   4.927
  646SOL    HW1 2837   3.615   1.682   4.877
  646SOL    HW2 2838   3.454   1.704   4.865
  647SOL     OW 2839   3.860   2.758   6.201
  647SOL    HW1 2840   3.840   2.701   6.121
  647SOL    HW2 2841   3.855   2.854   6.175
  648SOL     OW 2842   6.211   1.194   2.952
  648SOL    HW1 2843   6.198   1.110   2.898
  648SOL    HW2 2844   6.292   1.242   2.918
  649SOL     OW 2845   1.959   5.832   0.398
  649SOL    HW1 2846   2.022   5.856   0.472
  649SOL    HW2 2847   1.876   5.887   0.404
  650SOL     OW 2848   0.291   3.882   1.160
  650SOL    HW1 2849   0.294   3.929   1.071
  650SOL    HW2 2850   0.299   3.783   1.146
  651SOL     OW 2851   1.187   0.394   4.696
  651SOL    HW1 2852   1.215   0.347   4.780
  651SOL    HW2 2853   1.091   0.420   4.703
  652SOL     OW 2854   3.682   6.101   1.865
  652SOL    HW1 2855   3.730   6.029   1.814
  652SOL    HW2 2856   3.749   6.168   1.898
  653SOL     OW 2857   1.110   6.885   1.996
  653SOL    HW1 2858   1.011   6.894   1.982
  653SOL    HW2 2859   1.143   6.962   2.051
  654SOL     OW 2860   0.051   0.098   4.992
  654SOL    HW1 2861   0.093   0.162   4.927
  654SOL    HW2 2862   0.075   0.126   5.085
  655SOL     OW 2863   6.965   4.003   1.941
  655SOL    HW1 2864   6.955   3.941   1.863
  655SOL    HW2 2865   6.984   3.950   2.023
  656SOL     OW 2866   3.353   6.040   0.361
  656SOL    HW1 2867   3.258   6.017   0.382
  656SOL    HW2 2868   3.362   6.140   0.355
  657SOL     OW 2869   3.843   3.307   2.254
  657SOL    HW1 2870   3.780   3.361   2.198
  657SOL    HW2 2871   3.834   3.210   2.231
  658SOL     OW 2872   1.537   2.275   5.104
  658SOL    HW1 2873   1.614   2.211   5.102
  658SOL    HW2 2874   1.567   2.364   5.069
  659SOL     OW 2875   2.095   5.822   6.183
  659SOL    HW1 2876   2.071   5.837   6.279
  659SOL    HW2 2877   2.168   5.754   6.177
  660SOL     OW 2878   4.798   4.530   2.475
  660SOL    HW1 2879   4.799   4.613   2.419
  660SOL    HW2 2880   4.705   4.515   2.510
  661SOL     OW 2881   4.693   4.207   4.601
  661SOL    HW1 2882   4.604   4.254   4.602
  661SOL    HW2 2883   4.710   4.170   4.510
  662SOL     OW 2884   5.073   3.631   0.014
  662SOL    HW1 2885   5.148   3.581   0.057
  662SOL    HW2 2886   4.986   3.598   0.049
  663SOL     OW 2887   0.224   3.839   0.108
  663SOL    HW1 2888   0.157   3.901   0.149
  663SOL    HW2 2889   0.260   3.880   0.024
  664SOL     OW 2890   2.232   6.799   6.734
  664SOL    HW1 2891   2.273   6.764   6.819
  664SOL    HW2 2892   2.299   6.857   6.687
  665SOL     OW 2893   3.939   4.887   1.508
  665SOL    HW1 2894   3.898   4.818   1.568
  665SOL    HW2 2895   3.993   4.951   1.564
  666SOL     OW 2896   3.718   1.470   0.255
  666SOL    HW1 2897   3.711   1.501   0.350
  666SOL    HW2 2898   3.759   1.379   0.253
  667SOL     OW 2899   1.248   3.070   3.541
  667SOL    HW1 2900   1.293   3.155   3.514
  667SOL    HW2 2901   1.314   2.994   3.534
  668SOL     OW 2902   4.926   6.775   0.430
  668SOL    HW1 2903   5.005   6.754   0.488
  668SOL    HW2 2904   4.849   6.717   0.457
  669SOL     OW 2905   2.064   5.752   3.084
  669SOL    HW1 2906   2.158   5.784   3.077
  669SOL    HW2 2907   2.004   5.829   3.106
  670SOL     OW 2908   3.246   3.054   3.279
  670SOL    HW1 2909   3.196   3.040   3.194
  670SOL    HW2 2910   3.186   3.098   3.346
  671SOL     OW 2911   1.172   0.092   6.110
  671SOL    HW1 2912   1.130   0.010   6.149
  671SOL    HW2 2913   1.246   0.066   6.049
  672SOL     OW 2914   2.338   2.397   3.871
  672SOL    HW1 2915   2.340   2.309   3.822
  672SOL    HW2 2916   2.429   2.417   3.907
  673SOL     OW 2917   5.701   6.575   0.971
  673SOL    HW1 2918   5.710   6.574   0.871
  673SOL    HW2 2919   5.744   6.657   1.007
  674SOL     OW 2920   0.058   2.240   3.619
  674SOL    HW1 2921   0.099   2.314   3.672
  674SOL    HW2 2922   7.002   2.204   3.667
  675SOL     OW 2923   6.185   2.381   4.863
  675SOL    HW1 2924   6.165   2.473   4.829
  675SOL    HW2 2925   6.283   2.363   4.858
  676SOL     OW 2926   2.041   4.525   4.589
  676SOL    HW1 2927   1.995   4.441   4.559
  676SOL    HW2 2928   2.099   4.560   4.515
  677SOL     OW 2929   5.521   6.947   0.648
  677SOL    HW1 2930   5.474   6.995   0.575
  677SOL    HW2 2931   5.569   6.867   0.611
  678SOL     OW 2932   2.218   1.749   6.256
  678SOL    HW1 2933   2.299   1.799   6.287
  678SOL    HW2 2934   2.243   1.690   6.179
  679SOL     OW 2935   5.694   6.777   2.675
  679SOL    HW1 2936   5.678   6.860   2.622
  679SOL    HW2 2937   5.622   6.767   2.743
  680SOL     OW 2938   5.262   4.182   5.261
  680SOL    HW1 2939   5.289   4.099   5.310
  680SOL    HW2 2940   5.326   4.199   5.186
  681SOL     OW 2941   1.963   6.728   2.158
  681SOL    HW1 2942   1.898   6.693   2.225
  681SOL    HW2 2943   2.052   6.744   2.202
  682SOL     OW 2944   1.220   6.213   0.551
  682SOL    HW1 2945   1.175   6.191   0.464
  682SOL    HW2 2946   1.266   6.132   0.586
  683SOL     OW 2947   5.384   1.919   0.418
  683SOL    HW1 2948   5.310   1.853   0.430
  683SOL    HW2 2949   5.430   1.935   0.505
  684SOL     OW 2950   0.245   5.969   6.537
  684SOL    HW1 2951   0.169   5.963   6.472
  684SOL    HW2 2952   0.229   5.906   6.613
  685SOL     OW 2953   5.412   0.898   5.801
  685SOL    HW1 2954   5.479   0.947   5.857
  685SOL    HW2 2955   5.334   0.958   5.785
  686SOL     OW 2956   5.593   5.139   3.479
  686SOL    HW1 2957   5.548   5.201   3.543
  686SOL    HW2 2958   5.562   5.159   3.386
  687SOL     OW 2959   6.364   2.813   5.197
  687SOL    HW1 2960   6.462   2.807   5.217
  687SOL    HW2 2961   6.345   2.769   5.110
  688SOL     OW 2962   6.967   3.931   4.895
  688SOL    HW1 2963   7.016   3.854   4.937
  688SOL    HW2 2964   6.877   3.899   4.862
  689SOL     OW 2965   6.056   4.020   6.393
  689SOL    HW1 2966   5.972   4.037   6.341
  689SOL    HW2 2967   6.118   4.098   6.382
  690SOL     OW 2968   1.146   2.428   3.375
  690SOL    HW1 2969   1.231   2.452   3.420
  690SOL    HW2 2970   1.097   2.511   3.349
  691SOL     OW 2971   0.553   3.096   6.939
  691SOL    HW1 2972   0.531   3.141   6.853
  691SOL    HW2 2973   0.647   3.062   6.937
  692SOL     OW 2974   1.801   0.011   3.169
  692SOL    HW1 2975   1.768   0.103   3.148
  692SOL    HW2 2976   1.843   6.995   3.087
  693SOL     OW 2977   6.777   1.310   2.266
  693SOL    HW1 2978   6.816   1.250   2.197
  693SOL    HW2 2979   6.755   1.257   2.348
  694SOL     OW 2980   1.689   0.495   1.866
  694SOL    HW1 2981   1.784   0.466   1.860
  694SOL    HW2 2982   1.637   0.428   1.920
  695SOL     OW 2983   4.087   6.179   5.904
  695SOL    HW1 2984   4.079   6.213   5.997
  695SOL    HW2 2985   4.018   6.223   5.846
  696SOL     OW 2986   4.622   5.526   2.423
  696SOL    HW1 2987   4.578   5.576   2.348
  696SOL    HW2 2988   4.564   5.450   2.451
  697SOL     OW 2989   1.266   4.043   3.929
  697SOL    HW1 2990   1.323   4.084   3.858
  697SOL    HW2 2991   1.314   3.965   3.970
  698SOL     OW 2992   4.238   6.506   3.822
  698SOL    HW1 2993   4.243   6.417   3.776
  698SOL    HW2 2994   4.295   6.504   3.904
  699SOL     OW 2995   2.103   4.461   0.729
  699SOL    HW1 2996   2.156   4.443   0.646
  699SOL    HW2 2997   2.069   4.375   0.766
  700SOL     OW 2998   1.728   1.029   3.953
  700SOL    HW1 2999   1.670   0.963   4.001
  700SOL    HW2 3000   1.817   0.989   3.933
  701SOL     OW 3001   0.546   4.687   5.906
  701SOL    HW1 3002   0.516   4.699   6.001
  701SOL    HW2 3003   0.521   4.595   5.875
  702SOL     OW 3004   5.936   5.521   4.785
  702SOL    HW1 3005   5.841   5.494   4.772
  702SOL    HW2 3006   5.946   5.619   4.764
  703SOL     OW 3007   4.236   3.858   6.986
  703SOL    HW1 3008   4.306   3.894   0.022
  703SOL    HW2 3009   4.190   3.934   6.940
  704SOL     OW 3010   2.575   6.844   0.944
  704SOL    HW1 3011   2.491   6.824   0.994
  704SOL    HW2 3012   2.565   6.816   0.849
  705SOL     OW 3013   5.990   2.660   2.736
  705SOL    HW1 3014   5.989   2.706   2.647
  705SOL    HW2 3015   5.906   2.608   2.748
  706SOL     OW 3016   4.135   1.930   3.818
  706SOL    HW1 3017   4.080   1.864   3.868
  706SOL    HW2 3018   4.217   1.952   3.871
  707SOL     OW 3019   5.245   1.134   1.511
  707SOL    HW1 3020   5.251   1.137   1.412
  707SOL    HW2 3021   5.303   1.207   1.550
  708SOL     OW 3022   4.279   0.901   1.701
  708SOL    HW1 3023   4.358   0.840   1.692
  708SOL    HW2 3024   4.310   0.992   1.728
  709SOL     OW 3025   1.113   4.696   6.912
  709SOL    HW1 3026   1.200   4.681   6.864
  709SOL    HW2 3027   1.112   4.644   6.997
  710SOL     OW 3028   3.315   4.074   2.666
  710SOL    HW1 3029   3.231   4.049   2.618
  710SOL    HW2 3030   3.385   4.100   2.600
  711SOL     OW 3031   0.969   0.706   3.754
  711SOL    HW1 3032   0.896   0.680   3.691
  711SOL    HW2 3033   0.942   0.789   3.803
  712SOL     OW 3034   1.726   3.874   1.103
  712SOL    HW1 3035   1.658   3.894   1.174
  712SOL    HW2 3036   1.760   3.781   1.114
  713SOL     OW 3037   3.961   3.035   3.138
  713SOL    HW1 3038   3.960   3.062   3.042
  713SOL    HW2 3039   4.002   2.944   3.147
  714SOL     OW 3040   4.634   5.133   5.276
  714SOL    HW1 3041   4.726   5.103   5.298
  714SOL    HW2 3042   4.631   5.167   5.182
  715SOL     OW 3043   4.081   0.649   6.408
  715SOL    HW1 3044   4.141   0.586   6.357
  715SOL    HW2 3045   4.000   0.668   6.353
  716SOL     OW 3046   0.177   4.979   1.657
  716SOL    HW1 3047   0.199   4.916   1.731
  716SOL    HW2 3048   0.237   5.058   1.661
  717SOL     OW 3049   6.343   2.450   0.625
  717SOL    HW1 3050   6.438   2.479   0.613
  717SOL    HW2 3051   6.287   2.488   0.550
  718SOL     OW 3052   3.693   3.899   6.589
  718SOL    HW1 3053   3.662   3.878   6.682
  718SOL    HW2 3054   3.696   3.815   6.535
  719SOL     OW 3055   5.391   4.337   0.355
  719SOL    HW1 3056   5.306   4.377   0.319
  719SOL    HW2 3057   5.368   4.268   0.424
  720SOL     OW 3058   2.424   1.017   6.270
  720SOL    HW1 3059   2.470   0.951   6.210
  720SOL    HW2 3060   2.331   1.032   6.237
  721SOL     OW 3061   1.466   6.709   5.976
  721SOL    HW1 3062   1.404   6.784   5.953
  721SOL    HW2 3063   1.559   6.734   5.950
  722SOL     OW 3064   4.431   0.181   5.616
  722SOL    HW1 3065   4.353   0.242   5.634
  722SOL    HW2 3066   4.464   0.196   5.523
  723SOL     OW 3067   0.947   3.301   1.843
  723SOL    HW1 3068   0.866   3.344   1.882
  723SOL    HW2 3069   1.029   3.347   1.877
  724SOL     OW 3070   6.766   1.383   5.110
  724SOL    HW1 3071   6.787   1.475   5.145
  724SOL    HW2 3072   6.700   1.339   5.171
  725SOL     OW 3073   1.923   5.274   1.052
  725SOL    HW1 3074   2.022   5.284   1.044
  725SOL    HW2 3075   1.886   5.235   0.967
  726SOL     OW 3076   3.978   0.172   6.771
  726SOL    HW1 3077   4.075   0.175   6.795
  726SOL    HW2 3078   3.953   0.255   6.721
  727SOL     OW 3079   2.903   4.813   3.919
  727SOL    HW1 3080   2.829   4.771   3.972
  727SOL    HW2 3081   2.989   4.803   3.969
  728SOL     OW 3082   6.730   3.602   5.041
  728SOL    HW1 3083   6.714   3.672   5.111
  728SOL    HW2 3084   6.789   3.531   5.079
  729SOL     OW 3085   3.124   0.112   1.225
  729SOL    HW1 3086   3.188   0.081   1.155
  729SOL    HW2 3087   3.138   0.210   1.242
  730SOL     OW 3088   6.039   0.443   4.313
  730SOL    HW1 3089   6.115   0.387   4.280
  730SOL    HW2 3090   6.074   0.518   4.370
  731SOL     OW 3091   5.946   3.623   3.649
  731SOL    HW1 3092   5.858   3.575   3.642
  731SOL    HW2 3093   5.978   3.647   3.558
  732SOL     OW 3094   6.655   3.064   1.804
  732SOL    HW1 3095   6.735   3.044   1.748
  732SOL    HW2 3096   6.591   2.987   1.798
  733SOL     OW 3097   4.669   4.274   3.877
  733SOL    HW1 3098   4.596   4.330   3.838
  733SOL    HW2 3099   4.720   4.230   3.803
  734SOL     OW 3100   6.849   4.380   0.832
  734SOL    HW1 3101   6.776   4.442   0.801
  734SOL    HW2 3102   6.811   4.316   0.899
  735SOL     OW 3103   1.774   4.882   6.603
  735SOL    HW1 3104   1.715   4.961   6.588
  735SOL    HW2 3105   1.745   4.807   6.544
  736SOL     OW 3106   6.110   1.140   3.264
  736SOL    HW1 3107   6.195   1.170   3.220
  736SOL    HW2 3108   6.131   1.078   3.339
  737SOL     OW 3109   5.282   3.236   0.530
  737SOL    HW1 3110   5.377   3.227   0.560
  737SOL    HW2 3111   5.230   3.156   0.559
  738SOL     OW 3112   1.000   3.912   4.130
  738SOL    HW1 3113   1.032   3.818   4.140
  738SOL    HW2 3114   1.038   3.952   4.046
  739SOL     OW 3115   4.980   6.167   6.660
  739SOL    HW1 3116   4.881   6.168   6.676
  739SOL    HW2 3117   5.002   6.225   6.582
  740SOL     OW 3118   5.892   6.769   1.624
  740SOL    HW1 3119   5.861   6.675   1.610
  740SOL    HW2 3120   5.854   6.804   1.710
  741SOL     OW 3121   2.246   0.726   2.510
  741SOL    HW1 3122   2.287   0.817   2.505
  741SOL    HW2 3123   2.209   0.710   2.601
  742SOL     OW 3124   1.323   0.141   3.098
  742SOL    HW1 3125   1.308   0.084   3.018
  742SOL    HW2 3126   1.251   0.210   3.105
  743SOL     OW 3127   1.992   4.189   4.762
  743SOL    HW1 3128   1.905   4.222   4.726
  743SOL    HW2 3129   2.064   4.255   4.742
  744SOL     OW 3130   0.181   6.023   0.596
  744SOL    HW1 3131   0.098   6.048   0.645
  744SOL    HW2 3132   0.259   6.020   0.659
  745SOL     OW 3133   1.629   6.140   2.706
  745SOL    HW1 3134   1.628   6.240   2.712
  745SOL    HW2 3135   1.575   6.102   2.781
  746SOL     OW 3136   1.771   0.839   4.563
  746SOL    HW1 3137   1.678   0.825   4.598
  746SOL    HW2 3138   1.835   0.786   4.618
  747SOL     OW 3139   5.075   4.714   2.940
  747SOL    HW1 3140   5.044   4.688   2.849
  747SOL    HW2 3141   5.021   4.793   2.972
  748SOL     OW 3142   4.513   3.673   1.239
  748SOL    HW1 3143   4.452   3.751   1.224
  748SOL    HW2 3144   4.488   3.598   1.178
  749SOL     OW 3145   6.813   1.531   5.485
  749SOL    HW1 3146   6.762   1.604   5.439
  749SOL    HW2 3147   6.806   1.447   5.431
  750SOL     OW 3148   2.340   4.270   0.630
  750SOL    HW1 3149   2.364   4.173   0.629
  750SOL    HW2 3150   2.383   4.316   0.552
  751SOL     OW 3151   4.684   0.687   0.212
  751SOL    HW1 3152   4.747   0.647   0.146
  751SOL    HW2 3153   4.734   0.751   0.271
  752SOL     OW 3154   5.072   2.007   2.144
  752SOL    HW1 3155   5.097   2.085   2.202
  752SOL    HW2 3156   5.019   1.942   2.197
  753SOL     OW 3157   2.013   2.812   3.931
  753SOL    HW1 3158   2.086   2.873   3.900
  753SOL    HW2 3159   1.976   2.763   3.852
  754SOL     OW 3160   4.469   5.476   0.147
  754SOL    HW1 3161   4.544   5.465   0.082
  754SOL    HW2 3162   4.467   5.398   0.210
  755SOL     OW 3163   0.425   5.972   0.781
  755SOL    HW1 3164   0.513   5.963   0.827
  755SOL    HW2 3165   0.363   6.027   0.839
  756SOL     OW 3166   5.105   0.075   3.613
  756SOL    HW1 3167   5.037   0.038   3.676
  756SOL    HW2 3168   5.159   0.001   3.574
  757SOL     OW 3169   0.285   0.618   3.833
  757SOL    HW1 3170   0.208   0.647   3.890
  757SOL    HW2 3171   0.260   0.535   3.783
  758SOL     OW 3172   4.057   2.412   1.068
  758SOL    HW1 3173   4.132   2.346   1.059
  758SOL    HW2 3174   3.993   2.381   1.139
  759SOL     OW 3175   1.364   1.217   6.756
  759SOL    HW1 3176   1.301   1.265   6.696
  759SOL    HW2 3177   1.400   1.280   6.825
  760SOL     OW 3178   4.513   1.944   5.932
  760SOL    HW1 3179   4.435   1.881   5.934
  760SOL    HW2 3180   4.562   1.932   5.846
  761SOL     OW 3181   5.758   2.400   6.873
  761SOL    HW1 3182   5.843   2.348   6.881
  761SOL    HW2 3183   5.779   2.496   6.857
  762SOL     OW 3184   2.476   6.493   3.899
  762SOL    HW1 3185   2.427   6.534   3.823
  762SOL    HW2 3186   2.414   6.431   3.948
  763SOL     OW 3187   4.040   5.931   6.978
  763SOL    HW1 3188   4.042   5.831   6.978
  763SOL    HW2 3189   3.945   5.962   6.979
  764SOL     OW 3190   4.654   1.598   2.479
  764SOL    HW1 3191   4.586   1.527   2.458
  764SOL    HW2 3192   4.610   1.671   2.531
  765SOL     OW 3193   6.668   0.259   3.618
  765SOL    HW1 3194   6.625   0.186   3.671
  765SOL    HW2 3195   6.756   0.226   3.583
  766SOL     OW 3196   0.012   6.110   6.847
  766SOL    HW1 3197   0.069   6.180   6.803
  766SOL    HW2 3198   6.985   6.152   6.922
  767SOL     OW 3199   5.921   0.137   2.474
  767SOL    HW1 3200   5.836   0.188   2.461
  767SOL    HW2 3201   5.991   0.197   2.513
  768SOL     OW 3202   3.183   6.160   3.442
  768SOL    HW1 3203   3.269   6.186   3.487
  768SOL    HW2 3204   3.109   6.218   3.476
  769SOL     OW 3205   3.957   1.250   5.996
  769SOL    HW1 3206   3.991   1.284   5.909
  769SOL    HW2 3207   4.034   1.233   6.058
  770SOL     OW 3208   3.134   4.899   4.072
  770SOL    HW1 3209   3.154   4.945   3.985
  770SOL    HW2 3210   3.220   4.875   4.117
  771SOL     OW 3211   0.763   5.161   3.576
  771SOL    HW1 3212   0.708   5.193   3.498
  771SOL    HW2 3213   0.844   5.219   3.585
  772SOL     OW 3214   6.802   3.958   6.303
  772SOL    HW1 3215   6.790   3.993   6.211
  772SOL    HW2 3216   6.729   3.993   6.362
  773SOL     OW 3217   0.154   4.073   2.406
  773SOL    HW1 3218   0.194   4.009   2.339
  773SOL    HW2 3219   0.061   4.044   2.428
  774SOL     OW 3220   1.322   1.053   1.665
  774SOL    HW1 3221   1.307   1.150   1.648
  774SOL    HW2 3222   1.344   1.006   1.579
  775SOL     OW 3223   2.045   2.193   4.600
  775SOL    HW1 3224   2.116   2.247   4.554
  775SOL    HW2 3225   2.058   2.096   4.578
  776SOL     OW 3226   2.095   0.509   6.165
  776SOL    HW1 3227   2.140   0.496   6.253
  776SOL    HW2 3228   2.130   0.592   6.121
  777SOL     OW 3229   4.432   1.262   0.759
  777SOL    HW1 3230   4.347   1.300   0.724
  777SOL    HW2 3231   4.503   1.271   0.689
  778SOL     OW 3232   3.965   6.623   4.544
  778SOL    HW1 3233   3.934   6.713   4.514
  778SOL    HW2 3234   3.906   6.552   4.504
  779SOL     OW 3235   1.061   1.296   2.392
  779SOL    HW1 3236   1.155   1.290   2.358
  779SOL    HW2 3237   1.060   1.274   2.489
  780SOL     OW 3238   5.698   3.090   5.034
  780SOL    HW1 3239   5.715   3.091   5.133
  780SOL    HW2 3240   5.740   3.171   4.993
  781SOL     OW 3241   6.904   1.102   5.901
  781SOL    HW1 3242   7.001   1.095   5.877
  781SOL    HW2 3243   6.858   1.164   5.837
  782SOL     OW 3244   6.764   3.121   0.848
  782SOL    HW1 3245   6.776   3.091   0.943
  782SOL    HW2 3246   6.668   3.112   0.822
  783SOL     OW 3247   2.787   4.853   0.772
  783SOL    HW1 3248   2.857   4.900   0.826
  783SOL    HW2 3249   2.697   4.888   0.797
  784SOL     OW 3250   4.245   0.716   4.783
  784SOL    HW1 3251   4.302   0.756   4.711
  784SOL    HW2 3252   4.299   0.649   4.835
  785SOL     OW 3253   6.516   3.174   3.011
  785SOL    HW1 3254   6.566   3.244   3.061
  785SOL    HW2 3255   6.475   3.214   2.929
  786SOL     OW 3256   6.804   6.774   0.125
  786SOL    HW1 3257   6.736   6.841   0.094
  786SOL    HW2 3258   6.834   6.798   0.217
  787SOL     OW 3259   3.020   2.297   6.371
  787SOL    HW1 3260   2.955   2.364   6.337
  787SOL    HW2 3261   3.042   2.231   6.299
  788SOL     OW 3262   1.675   3.794   4.226
  788SOL    HW1 3263   1.662   3.844   4.311
  788SOL    HW2 3264   1.746   3.838   4.171
  789SOL     OW 3265   5.500   3.937   0.862
  789SOL    HW1 3266   5.595   3.955   0.839
  789SOL    HW2 3267   5.449   4.023   0.863
  790SOL     OW 3268   3.001   1.682   3.764
  790SOL    HW1 3269   2.918   1.628   3.753
  790SOL    HW2 3270   3.015   1.739   3.683
  791SOL     OW 3271   2.969   1.757   4.020
  791SOL    HW1 3272   2.883   1.807   4.030
  791SOL    HW2 3273   2.980   1.730   3.924
  792SOL     OW 3274   5.664   0.503   3.767
  792SOL    HW1 3275   5.672   0.551   3.854
  792SOL    HW2 3276   5.748   0.513   3.715
  793SOL     OW 3277   5.536   0.186   6.998
  793SOL    HW1 3278   5.622   0.221   0.013
  793SOL    HW2 3279   5.512   0.240   6.917
  794SOL     OW 3280   2.537   5.268   5.667
  794SOL    HW1 3281   2.468   5.203   5.699
  794SOL    HW2 3282   2.627   5.225   5.668
  795SOL     OW 3283   4.694   4.429   6.392
  795SOL    HW1 3284   4.665   4.339   6.360
  795SOL    HW2 3285   4.621   4.495   6.377
  796SOL     OW 3286   0.320   2.394   6.605
  796SOL    HW1 3287   0.278   2.424   6.692
  796SOL    HW2 3288   0.249   2.391   6.534
  797SOL     OW 3289   6.007   3.008   3.874
  797SOL    HW1 3290   6.009   3.017   3.774
  797SOL    HW2 3291   5.977   3.094   3.914
  798SOL     OW 3292   5.273   1.038   6.067
  798SOL    HW1 3293   5.264   1.136   6.084
  798SOL    HW2 3294   5.369   1.017   6.047
  799SOL     OW 3295   6.901   3.280   3.193
  799SOL    HW1 3296   6.893   3.220   3.273
  799SOL    HW2 3297   6.993   3.320   3.191
  800SOL     OW 3298   6.434   1.465   2.215
  800SOL    HW1 3299   6.520   1.503   2.181
  800SOL    HW2 3300   6.399   1.524   2.288
  801SOL     OW 3301   0.456   2.785   3.309
  801SOL    HW1 3302   0.372   2.739   3.337
  801SOL    HW2 3303   0.479   2.857   3.375
  802SOL     OW 3304   5.396   0.994   0.657
  802SOL    HW1 3305   5.438   1.062   0.718
  802SOL    HW2 3306   5.315   1.033   0.614
  803SOL     OW 3307   6.602   6.974   5.104
  803SOL    HW1 3308   6.560   7.019   5.183
  803SOL    HW2 3309   6.555   7.001   5.020
  804SOL     OW 3310   0.319   6.898   0.328
  804SOL    HW1 3311   0.371   6.823   0.287
  804SOL    HW2 3312   0.242   6.861   0.380
  805SOL     OW 3313   2.914   3.025   6.354
  805SOL    HW1 3314   2.936   2.951   6.418
  805SOL    HW2 3315   2.948   3.001   6.263
  806SOL     OW 3316   5.241   0.540   0.597
  806SOL    HW1 3317   5.240   0.622   0.653
  806SOL    HW2 3318   5.332   0.498   0.601
  807SOL     OW 3319   1.651   0.121   3.505
  807SOL    HW1 3320   1.675   0.029   3.537
  807SOL    HW2 3321   1.593   0.114   3.424
  808SOL     OW 3322   5.128   3.183   5.617
  808SOL    HW1 3323   5.043   3.132   5.630
  808SOL    HW2 3324   5.194   3.126   5.567
  809SOL     OW 3325   0.154   4.461   6.491
  809SOL    HW1 3326   0.147   4.432   6.587
  809SOL    HW2 3327   0.068   4.443   6.444
  810SOL     OW 3328   5.873   4.183   0.023
  810SOL    HW1 3329   5.804   4.134   6.994
  810SOL    HW2 3330   5.960   4.182   6.998
  811SOL     OW 3331   5.000   5.115   3.916
  811SOL    HW1 3332   4.969   5.204   3.950
  811SOL    HW2 3333   5.061   5.129   3.838
  812SOL     OW 3334   0.169   6.738   1.698
  812SOL    HW1 3335   0.142   6.834   1.692
  812SOL    HW2 3336   0.103   6.688   1.753
  813SOL     OW 3337   5.333   5.613   2.531
  813SOL    HW1 3338   5.357   5.522   2.500
  813SOL    HW2 3339   5.233   5.620   2.539
  814SOL     OW 3340   5.972   6.422   1.839
  814SOL    HW1 3341   5.987   6.490   1.768
  814SOL    HW2 3342   5.882   6.434   1.879
  815SOL     OW 3343   6.908   2.351   0.937
  815SOL    HW1 3344   6.988   2.317   0.986
  815SOL    HW2 3345   6.825   2.323   0.985
  816SOL     OW 3346   6.642   6.738   0.793
  816SOL    HW1 3347   6.549   6.746   0.828
  816SOL    HW2 3348   6.642   6.683   0.709
  817SOL     OW 3349   1.881   2.821   2.396
  817SOL    HW1 3350   1.978   2.811   2.418
  817SOL    HW2 3351   1.854   2.916   2.408
  818SOL     OW 3352   6.445   1.718   1.329
  818SOL    HW1 3353   6.508   1.790   1.301
  818SOL    HW2 3354   6.487   1.629   1.314
  819SOL     OW 3355   6.688   3.526   4.330
  819SOL    HW1 3356   6.718   3.450   4.272
  819SOL    HW2 3357   6.593   3.549   4.309
  820SOL     OW 3358   1.055   3.314   4.861
  820SOL    HW1 3359   1.023   3.393   4.808
  820SOL    HW2 3360   1.072   3.238   4.800
  821SOL     OW 3361   1.185   3.435   6.852
  821SOL    HW1 3362   1.245   3.426   6.932
  821SOL    HW2 3363   1.093   3.405   6.876
  822SOL     OW 3364   1.657   3.940   4.476
  822SOL    HW1 3365   1.568   3.955   4.520
  822SOL    HW2 3366   1.700   3.860   4.516
  823SOL     OW 3367   3.796   4.185   0.189
  823SOL    HW1 3368   3.743   4.175   0.104
  823SOL    HW2 3369   3.795   4.099   0.239
  824SOL     OW 3370   5.404   2.183   5.836
  824SOL    HW1 3371   5.388   2.215   5.929
  824SOL    HW2 3372   5.394   2.260   5.772
  825SOL     OW 3373   2.233   4.338   2.009
  825SOL    HW1 3374   2.258   4.427   2.046
  825SOL    HW2 3375   2.311   4.299   1.960
  826SOL     OW 3376   0.015   4.054   6.385
  826SOL    HW1 3377   6.963   3.996   6.357
  826SOL    HW2 3378   7.005   4.147   6.403
  827SOL     OW 3379   3.681   6.009   0.207
  827SOL    HW1 3380   3.657   6.103   0.185
  827SOL    HW2 3381   3.760   6.008   0.268
  828SOL     OW 3382   6.176   0.378   5.838
  828SOL    HW1 3383   6.098   0.377   5.901
  828SOL    HW2 3384   6.260   0.396   5.889
  829SOL     OW 3385   3.351   2.964   4.676
  829SOL    HW1 3386   3.387   2.949   4.584
  829SOL    HW2 3387   3.257   2.998   4.670
  830SOL     OW 3388   4.416   4.203   5.546
  830SOL    HW1 3389   4.420   4.251   5.458
  830SOL    HW2 3390   4.343   4.135   5.544
  831SOL     OW 3391   6.508   0.977   4.752
  831SOL    HW1 3392   6.487   0.880   4.736
  831SOL    HW2 3393   6.428   1.032   4.727
  832SOL     OW 3394   1.894   1.622   5.949
  832SOL    HW1 3395   1.808   1.666   5.977
  832SOL    HW2 3396   1.960   1.627   6.024
  833SOL     OW 3397   6.687   6.813   6.010
  833SOL    HW1 3398   6.608   6.771   6.055
  833SOL    HW2 3399   6.730   6.746   5.950
  834SOL     OW 3400   3.173   4.086   5.138
  834SOL    HW1 3401   3.139   4.164   5.189
  834SOL    HW2 3402   3.097   4.038   5.094
  835SOL     OW 3403   3.841   6.749   3.419
  835SOL    HW1 3404   3.879   6.710   3.503
  835SOL    HW2 3405   3.874   6.843   3.408
  836SOL     OW 3406   2.700   1.121   0.479
  836SOL    HW1 3407   2.615   1.158   0.442
  836SOL    HW2 3408   2.768   1.114   0.406
  837SOL     OW 3409   4.922   1.195   5.981
  837SOL    HW1 3410   5.010   1.226   6.016
  837SOL    HW2 3411   4.855   1.269   5.988
  838SOL     OW 3412   2.358   5.307   3.302
  838SOL    HW1 3413   2.374   5.243   3.377
  838SOL    HW2 3414   2.259   5.321   3.291
  839SOL     OW 3415   3.007   1.882   2.797
  839SOL    HW1 3416   3.076   1.949   2.825
  839SOL    HW2 3417   2.924   1.929   2.768
  840SOL     OW 3418   0.883   1.231   6.688
  840SOL    HW1 3419   0.952   1.285   6.736
  840SOL    HW2 3420   0.912   1.135   6.686
  841SOL     OW 3421   0.938   3.387   6.968
  841SOL    HW1 3422   0.857   3.443   6.952
  841SOL    HW2 3423   0.963   3.391   0.040
  842SOL     OW 3424   3.477   5.185   3.378
  842SOL    HW1 3425   3.568   5.189   3.336
  842SOL    HW2 3426   3.459   5.092   3.408
  843SOL     OW 3427   6.431   2.324   1.950
  843SOL    HW1 3428   6.410   2.230   1.922
  843SOL    HW2 3429   6.398   2.338   2.044
  844SOL     OW 3430   5.384   5.848   0.539
  844SOL    HW1 3431   5.445   5.790   0.593
  844SOL    HW2 3432   5.296   5.857   0.586
  845SOL     OW 3433   0.580   4.691   5.305
  845SOL    HW1 3434   0.570   4.604   5.353
  845SOL    HW2 3435   0.677   4.707   5.285
  846SOL     OW 3436   6.077   1.741   6.532
  846SOL    HW1 3437   6.155   1.795   6.499
  846SOL    HW2 3438   6.084   1.648   6.496
  847SOL     OW 3439   4.980   3.537   2.437
  847SOL    HW1 3440   4.926   3.596   2.377
  847SOL    HW2 3441   5.058   3.588   2.473
  848SOL     OW 3442   5.743   0.686   5.791
  848SOL    HW1 3443   5.800   0.701   5.872
  848SOL    HW2 3444   5.647   0.683   5.818
  849SOL     OW 3445   0.608   5.224   4.320
  849SOL    HW1 3446   0.511   5.227   4.345
  849SOL    HW2 3447   0.662   5.271   4.389
  850SOL     OW 3448   3.515   0.764   2.592
  850SOL    HW1 3449   3.436   0.702   2.593
  850SOL    HW2 3450   3.519   0.810   2.503
  851SOL     OW 3451   1.354   0.323   6.464
  851SOL    HW1 3452   1.312   0.312   6.375
  851SOL    HW2 3453   1.290   0.368   6.527
  852SOL     OW 3454   2.182   3.932   6.561
  852SOL    HW1 3455   2.146   4.016   6.520
  852SOL    HW2 3456   2.108   3.878   6.599
  853SOL     OW 3457   1.700   4.064   1.474
  853SOL    HW1 3458   1.662   4.132   1.411
  853SOL    HW2 3459   1.698   4.100   1.567
  854SOL     OW 3460   5.603   5.085   1.854
  854SOL    HW1 3461   5.586   5.063   1.951
  854SOL    HW2 3462   5.527   5.049   1.799
  855SOL     OW 3463   4.973   0.139   1.914
  855SOL    HW1 3464   5.037   0.215   1.901
  855SOL    HW2 3465   5.016   0.053   1.885
  856SOL     OW 3466   1.800   6.877   5.254
  856SOL    HW1 3467   1.748   6.954   5.215
  856SOL    HW2 3468   1.866   6.912   5.320
  857SOL     OW 3469   6.772   3.687   1.982
  857SOL    HW1 3470   6.734   3.612   1.928
  857SOL    HW2 3471   6.823   3.650   2.060
  858SOL     OW 3472   3.109   4.383   1.223
  858SOL    HW1 3473   3.084   4.314   1.155
  858SOL    HW2 3474   3.200   4.363   1.258
  859SOL     OW 3475   6.789   4.803   6.684
  859SOL    HW1 3476   6.715   4.870   6.688
  859SOL    HW2 3477   6.776   4.734   6.754
  860SOL     OW 3478   1.919   4.631   1.569
  860SOL    HW1 3479   1.913   4.532   1.555
  860SOL    HW2 3480   1.828   4.669   1.584
  861SOL     OW 3481   3.307   5.963   5.391
  861SOL    HW1 3482   3.366   5.912   5.454
  861SOL    HW2 3483   3.351   5.970   5.302
  862SOL     OW 3484   4.754   4.429   4.296
  862SOL    HW1 3485   4.719   4.441   4.389
  862SOL    HW2 3486   4.839   4.377   4.299
  863SOL     OW 3487   5.998   1.144   1.468
  863SOL    HW1 3488   6.013   1.240   1.492
  863SOL    HW2 3489   6.030   1.128   1.374
  864SOL     OW 3490   5.876   4.440   3.115
  864SOL    HW1 3491   5.909   4.481   3.200
  864SOL    HW2 3492   5.783   4.404   3.128
  865SOL     OW 3493   1.641   6.995   4.401
  865SOL    HW1 3494   1.543   7.014   4.392
  865SOL    HW2 3495   1.690   0.007   4.321
  866SOL     OW 3496   3.250   1.746   1.737
  866SOL    HW1 3497   3.333   1.796   1.762
  866SOL    HW2 3498   3.195   1.800   1.674
  867SOL     OW 3499   1.283   3.000   6.171
  867SOL    HW1 3500   1.193   3.024   6.133
  867SOL    HW2 3501   1.318   2.919   6.125
  868SOL     OW 3502   5.249   2.627   3.316
  868SOL    HW1 3503   5.159   2.667   3.299
  868SOL    HW2 3504   5.259   2.542   3.263
  869SOL     OW 3505   6.464   4.878   2.639
  869SOL    HW1 3506   6.380   4.865   2.586
  869SOL    HW2 3507   6.451   4.841   2.731
  870SOL     OW 3508   0.044   1.544   0.907
  870SOL    HW1 3509   0.085   1.472   0.964
  870SOL    HW2 3510   6.997   1.504   0.849
  871SOL     OW 3511   5.948   3.213   0.846
  871SOL    HW1 3512   6.018   3.285   0.840
  871SOL    HW2 3513   5.896   3.211   0.760
  872SOL     OW 3514   5.861   2.147   3.202
  872SOL    HW1 3515   5.843   2.068   3.144
  872SOL    HW2 3516   5.891   2.224   3.146
  873SOL     OW 3517   4.353   6.785   5.644
  873SOL    HW1 3518   4.356   6.800   5.546
  873SOL    HW2 3519   4.440   6.811   5.685
  874SOL     OW 3520   0.603   3.406   5.981
  874SOL    HW1 3521   0.661   3.393   5.900
  874SOL    HW2 3522   0.630   3.340   6.052
  875SOL     OW 3523   6.347   4.656   6.825
  875SOL    HW1 3524   6.404   4.661   6.908
  875SOL    HW2 3525   6.284   4.733   6.823
  876SOL     OW 3526   0.630   3.160   2.125
  876SOL    HW1 3527   0.702   3.101   2.089
  876SOL    HW2 3528   0.662   3.206   2.208
  877SOL     OW 3529   5.756   5.856   0.539
  877SOL    HW1 3530   5.822   5.926   0.513
  877SOL    HW2 3531   5.761   5.841   0.638
  878SOL     OW 3532   3.095   4.375   0.179
  878SOL    HW1 3533   3.096   4.275   0.177
  878SOL    HW2 3534   3.176   4.410   0.132
  879SOL     OW 3535   4.632   2.368   2.107
  879SOL    HW1 3536   4.726   2.401   2.102
  879SOL    HW2 3537   4.571   2.430   2.059
  880SOL     OW 3538   3.827   5.148   0.906
  880SOL    HW1 3539   3.903   5.094   0.941
  880SOL    HW2 3540   3.801   5.217   0.973
  881SOL     OW 3541   4.529   5.399   4.857
  881SOL    HW1 3542   4.451   5.460   4.871
  881SOL    HW2 3543   4.532   5.370   4.761
  882SOL     OW 3544   1.038   1.094   4.479
  882SOL    HW1 3545   1.038   1.068   4.576
  882SOL    HW2 3546   0.993   1.183   4.469
  883SOL     OW 3547   3.030   5.156   6.300
  883SOL    HW1 3548   2.961   5.174   6.230
  883SOL    HW2 3549   3.063   5.062   6.292
  884SOL     OW 3550   4.624   3.997   1.329
  884SOL    HW1 3551   4.686   3.953   1.264
  884SOL    HW2 3552   4.534   3.954   1.324
  885SOL     OW 3553   4.259   6.452   0.387
  885SOL    HW1 3554   4.191   6.394   0.433
  885SOL    HW2 3555   4.235   6.548   0.401
  886SOL     OW 3556   4.477   1.724   6.193
  886SOL    HW1 3557   4.397   1.714   6.133
  886SOL    HW2 3558   4.544   1.784   6.148
  887SOL     OW 3559   4.512   0.706   6.354
  887SOL    HW1 3560   4.502   0.797   6.314
  887SOL    HW2 3561   4.448   0.695   6.429
  888SOL     OW 3562   6.620   5.998   3.269
  888SOL    HW1 3563   6.610   6.072   3.203
  888SOL    HW2 3564   6.545   5.932   3.257
  889SOL     OW 3565   0.476   6.950   4.620
  889SOL    HW1 3566   0.444   6.956   4.526
  889SOL    HW2 3567   0.527   6.864   4.632
  890SOL     OW 3568   2.694   4.713   2.147
  890SOL    HW1 3569   2.699   4.713   2.247
  890SOL    HW2 3570   2.775   4.670   2.108
  891SOL     OW 3571   5.822   3.264   6.438
  891SOL    HW1 3572   5.870   3.351   6.447
  891SOL    HW2 3573   5.887   3.193   6.410
  892SOL     OW 3574   3.182   5.153   1.857
  892SOL    HW1 3575   3.143   5.240   1.827
  892SOL    HW2 3576   3.108   5.089   1.878
  893SOL     OW 3577   2.199   0.339   0.254
  893SOL    HW1 3578   2.232   0.434   0.259
  893SOL    HW2 3579   2.101   0.336   0.274
  894SOL     OW 3580   0.986   5.719   3.587
  894SOL    HW1 3581   1.039   5.638   3.611
  894SOL    HW2 3582   0.947   5.759   3.670
  895SOL     OW 3583   1.930   6.670   5.064
  895SOL    HW1 3584   1.923   6.705   4.970
  895SOL    HW2 3585   1.848   6.695   5.115
  896SOL     OW 3586   5.195   6.863   3.472
  896SOL    HW1 3587   5.170   6.875   3.376
  896SOL    HW2 3588   5.147   6.784   3.509
  897SOL     OW 3589   5.229   2.820   6.061
  897SOL    HW1 3590   5.282   2.830   6.146
  897SOL    HW2 3591   5.214   2.722   6.043
  898SOL     OW 3592   5.896   6.423   3.936
  898SOL    HW1 3593   5.904   6.323   3.931
  898SOL    HW2 3594   5.860   6.458   3.850
  899SOL     OW 3595   0.254   4.891   6.236
  899SOL    HW1 3596   0.351   4.911   6.250
  899SOL    HW2 3597   0.243   4.827   6.161
  900SOL     OW 3598   1.029   5.985   3.617
  900SOL    HW1 3599   1.048   5.895   3.579
  900SOL    HW2 3600   0.995   6.046   3.545
  901SOL     OW 3601   5.941   2.263   3.799
  901SOL    HW1 3602   5.946   2.355   3.839
  901SOL    HW2 3603   6.033   2.231   3.776
  902SOL     OW 3604   6.902   6.270   0.053
  902SOL    HW1 3605   6.947   6.238   0.136
  902SOL    HW2 3606   6.844   6.349   0.075
  903SOL     OW 3607   1.351   4.639   0.353
  903SOL    HW1 3608   1.255   4.664   0.365
  903SOL    HW2 3609   1.397   4.643   0.442
  904SOL     OW 3610   2.106   1.739   3.231
  904SOL    HW1 3611   2.149   1.820   3.193
  904SOL    HW2 3612   2.162   1.659   3.210
  905SOL     OW 3613   5.456   2.132   5.075
  905SOL    HW1 3614   5.418   2.059   5.019
  905SOL    HW2 3615   5.510   2.094   5.150
  906SOL     OW 3616   6.213   4.078   5.416
  906SOL    HW1 3617   6.177   4.110   5.329
  906SOL    HW2 3618   6.313   4.080   5.413
  907SOL     OW 3619   6.933   3.430   1.799
  907SOL    HW1 3620   6.855   3.436   1.861
  907SOL    HW2 3621   6.901   3.406   1.707
  908SOL     OW 3622   2.117   0.661   3.506
  908SOL    HW1 3623   2.049   0.722   3.466
  908SOL    HW2 3624   2.100   0.652   3.604
  909SOL     OW 3625   3.670   0.781   1.457
  909SOL    HW1 3626   3.609   0.817   1.528
  909SOL    HW2 3627   3.708   0.857   1.404
  910SOL     OW 3628   1.807   1.798   1.246
  910SOL    HW1 3629   1.843   1.882   1.286
  910SOL    HW2 3630   1.847   1.719   1.293
  911SOL     OW 3631   0.418   4.251   1.142
  911SOL    HW1 3632   0.451   4.262   1.236
  911SOL    HW2 3633   0.471   4.179   1.097
  912SOL     OW 3634   0.888   0.324   5.704
  912SOL    HW1 3635   0.805   0.274   5.730
  912SOL    HW2 3636   0.864   0.416   5.675
  913SOL     OW 3637   2.632   1.359   1.984
  913SOL    HW1 3638   2.658   1.439   2.038
  913SOL    HW2 3639   2.696   1.349   1.908
  914SOL     OW 3640   3.611   6.610   2.902
  914SOL    HW1 3641   3.540   6.678   2.883
  914SOL    HW2 3642   3.699   6.655   2.914
  915SOL     OW 3643   0.704   2.556   6.982
  915SOL    HW1 3644   0.703   2.567   6.883
  915SOL    HW2 3645   0.790   2.513   7.010
  916SOL     OW 3646   1.813   3.307   2.965
  916SOL    HW1 3647   1.912   3.297   2.954
  916SOL    HW2 3648   1.781   3.253   3.043
  917SOL     OW 3649   3.356   2.362   6.936
  917SOL    HW1 3650   3.375   2.309   6.853
  917SOL    HW2 3651   3.331   2.300   7.010
  918SOL     OW 3652   1.016   0.941   5.627
  918SOL    HW1 3653   0.999   0.893   5.713
  918SOL    HW2 3654   0.956   1.021   5.622
  919SOL     OW 3655   2.552   6.282   1.699
  919SOL    HW1 3656   2.554   6.257   1.602
  919SOL    HW2 3657   2.512   6.373   1.709
  920SOL     OW 3658   1.892   0.493   4.180
  920SOL    HW1 3659   1.958   0.419   4.169
  920SOL    HW2 3660   1.920   0.572   4.127
  921SOL     OW 3661   5.265   4.927   5.902
  921SOL    HW1 3662   5.244   4.979   5.819
  921SOL    HW2 3663   5.242   4.982   5.982
  922SOL     OW 3664   2.367   3.795   6.722
  922SOL    HW1 3665   2.304   3.829   6.652
  922SOL    HW2 3666   2.412   3.873   6.767
  923SOL     OW 3667   3.898   0.799   6.573
  923SOL    HW1 3668   3.997   0.805   6.561
  923SOL    HW2 3669   3.854   0.857   6.504
  924SOL     OW 3670   6.333   3.837   3.136
  924SOL    HW1 3671   6.270   3.768   3.101
  924SOL    HW2 3672   6.427   3.804   3.127
  925SOL     OW 3673   6.573   1.908   3.338
  925SOL    HW1 3674   6.530   1.832   3.385
  925SOL    HW2 3675   6.506   1.981   3.323
  926SOL     OW 3676   5.321   6.493   0.719
  926SOL    HW1 3677   5.249   6.541   0.770
  926SOL    HW2 3678   5.351   6.413   0.772
  927SOL     OW 3679   4.180   5.052   4.909
  927SOL    HW1 3680   4.257   5.022   4.965
  927SOL    HW2 3681   4.126   4.973   4.881
  928SOL     OW 3682   0.621   1.241   1.218
  928SOL    HW1 3683   0.565   1.303   1.162
  928SOL    HW2 3684   0.575   1.153   1.226
  929SOL     OW 3685   0.846   2.785   2.622
  929SOL    HW1 3686   0.865   2.697   2.667
  929SOL    HW2 3687   0.881   2.859   2.680
  930SOL     OW 3688   4.980   6.052   3.643
  930SOL    HW1 3689   5.021   5.962   3.631
  930SOL    HW2 3690   4.960   6.067   3.740
  931SOL     OW 3691   1.701   3.040   1.993
  931SOL    HW1 3692   1.779   3.010   2.048
  931SOL    HW2 3693   1.637   3.090   2.052
  932SOL     OW 3694   4.372   6.304   1.563
  932SOL    HW1 3695   4.404   6.212   1.539
  932SOL    HW2 3696   4.396   6.368   1.490
  933SOL     OW 3697   2.199   6.163   3.128
  933SOL    HW1 3698   2.171   6.136   3.036
  933SOL    HW2 3699   2.297   6.147   3.139
  934SOL     OW 3700   3.241   1.385   5.322
  934SOL    HW1 3701   3.173   1.432   5.377
  934SOL    HW2 3702   3.276   1.447   5.252
  935SOL     OW 3703   2.892   3.297   6.813
  935SOL    HW1 3704   2.847   3.385   6.803
  935SOL    HW2 3705   2.839   3.226   6.766
  936SOL     OW 3706   0.608   1.492   1.891
  936SOL    HW1 3707   0.641   1.463   1.801
  936SOL    HW2 3708   0.509   1.477   1.896
  937SOL     OW 3709   4.706   2.158   3.952
  937SOL    HW1 3710   4.708   2.256   3.971
  937SOL    HW2 3711   4.753   2.139   3.867
  938SOL     OW 3712   7.011   2.065   0.094
  938SOL    HW1 3713   7.013   2.150   0.147
  938SOL    HW2 3714   7.022   2.087   7.021
  939SOL     OW 3715   6.064   1.384   6.009
  939SOL    HW1 3716   5.978   1.373   5.959
  939SOL    HW2 3717   6.087   1.481   6.016
  940SOL     OW 3718   0.501   0.757   4.242
  940SOL    HW1 3719   0.490   0.729   4.147
  940SOL    HW2 3720   0.584   0.812   4.252
  941SOL     OW 3721   5.480   2.753   4.979
  941SOL    HW1 3722   5.549   2.682   4.988
  941SOL    HW2 3723   5.415   2.746   5.055
  942SOL     OW 3724   5.338   0.141   5.228
  942SOL    HW1 3725   5.293   0.117   5.314
  942SOL    HW2 3726   5.378   0.059   5.188
  943SOL     OW 3727   5.920   1.612   0.119
  943SOL    HW1 3728   5.855   1.608   0.042
  943SOL    HW2 3729   5.872   1.642   0.201
  944SOL     OW 3730   6.455   3.856   4.998
  944SOL    HW1 3731   6.379   3.920   5.007
  944SOL    HW2 3732   6.432   3.770   5.043
  945SOL     OW 3733   5.389   4.439   5.267
  945SOL    HW1 3734   5.316   4.373   5.251
  945SOL    HW2 3735   5.463   4.396   5.319
  946SOL     OW 3736   5.798   2.901   5.775
  946SOL    HW1 3737   5.741   2.839   5.829
  946SOL    HW2 3738   5.867   2.943   5.835
  947SOL     OW 3739   1.917   3.206   5.682
  947SOL    HW1 3740   1.857   3.195   5.762
  947SOL    HW2 3741   2.006   3.241   5.711
  948SOL     OW 3742   3.667   1.895   0.245
  948SOL    HW1 3743   3.757   1.934   0.227
  948SOL    HW2 3744   3.652   1.891   0.344
  949SOL     OW 3745   5.376   5.865   6.349
  949SOL    HW1 3746   5.383   5.812   6.433
  949SOL    HW2 3747   5.279   5.879   6.326
  950SOL     OW 3748   4.032   5.343   0.818
  950SOL    HW1 3749   4.099   5.386   0.879
  950SOL    HW2 3750   3.952   5.314   0.871
  951SOL     OW 3751   1.403   2.502   2.995
  951SOL    HW1 3752   1.310   2.532   3.016
  951SOL    HW2 3753   1.426   2.529   2.902
  952SOL     OW 3754   5.133   1.637   1.826
  952SOL    HW1 3755   5.207   1.597   1.773
  952SOL    HW2 3756   5.170   1.699   1.895
  953SOL     OW 3757   3.458   6.995   6.319
  953SOL    HW1 3758   3.549   6.987   6.360
  953SOL    HW2 3759   3.464   6.974   6.221
  954SOL     OW 3760   6.668   6.048   0.560
  954SOL    HW1 3761   6.736   6.104   0.512
  954SOL    HW2 3762   6.666   5.957   0.519
  955SOL     OW 3763   6.356   6.975   2.500
  955SOL    HW1 3764   6.338   6.877   2.508
  955SOL    HW2 3765   6.301   0.001   2.566
  956SOL     OW 3766   0.936   2.280   0.504
  956SOL    HW1 3767   0.910   2.208   0.568
  956SOL    HW2 3768   1.006   2.244   0.442
  957SOL     OW 3769   2.591   6.456   5.255
  957SOL    HW1 3770   2.552   6.402   5.180
  957SOL    HW2 3771   2.521   6.515   5.295
  958SOL     OW 3772   5.003   2.302   0.452
  958SOL    HW1 3773   4.961   2.226   0.503
  958SOL    HW2 3774   5.103   2.295   0.458
  959SOL     OW 3775   1.424   4.440   2.775
  959SOL    HW1 3776   1.391   4.497   2.851
  959SOL    HW2 3777   1.449   4.350   2.810
  960SOL     OW 3778   1.882   5.531   5.538
  960SOL    HW1 3779   1.843   5.439   5.540
  960SOL    HW2 3780   1.975   5.526   5.501
  961SOL     OW 3781   3.490   6.563   1.747
  961SOL    HW1 3782   3.430   6.587   1.823
  961SOL    HW2 3783   3.478   6.467   1.724
  962SOL     OW 3784   1.394   0.087   4.417
  962SOL    HW1 3785   1.314   0.048   4.461
  962SOL    HW2 3786   1.393   0.187   4.428
  963SOL     OW 3787   6.037   0.364   1.408
  963SOL    HW1 3788   6.053   0.276   1.363
  963SOL    HW2 3789   6.037   0.351   1.507
  964SOL     OW 3790   5.075   4.054   1.335
  964SOL    HW1 3791   5.044   4.139   1.292
  964SOL    HW2 3792   5.009   4.025   1.404
  965SOL     OW 3793   0.924   2.216   0.900
  965SOL    HW1 3794   0.942   2.313   0.887
  965SOL    HW2 3795   0.877   2.202   0.987
  966SOL     OW 3796   0.283   1.811   1.601
  966SOL    HW1 3797   0.363   1.830   1.657
  966SOL    HW2 3798   0.300   1.730   1.545
  967SOL     OW 3799   0.640   6.258   2.517
  967SOL    HW1 3800   0.729   6.303   2.508
  967SOL    HW2 3801   0.588   6.300   2.591
  968SOL     OW 3802   6.259   3.674   2.501
  968SOL    HW1 3803   6.178   3.615   2.499
  968SOL    HW2 3804   6.230   3.770   2.496
  969SOL     OW 3805   4.734   6.202   5.755
  969SOL    HW1 3806   4.763   6.223   5.662
  969SOL    HW2 3807   4.721   6.104   5.765
  970SOL     OW 3808   4.316   2.197   5.265
  970SOL    HW1 3809   4.316   2.102   5.297
  970SOL    HW2 3810   4.373   2.205   5.183
  971SOL     OW 3811   6.609   1.990   1.643
  971SOL    HW1 3812   6.647   2.067   1.695
  971SOL    HW2 3813   6.681   1.948   1.588
  972SOL     OW 3814   6.903   5.404   1.198
  972SOL    HW1 3815   6.809   5.383   1.225
  972SOL    HW2 3816   6.907   5.497   1.161
  973SOL     OW 3817   6.073   4.230   5.820
  973SOL    HW1 3818   6.067   4.290   5.740
  973SOL    HW2 3819   6.152   4.170   5.810
  974SOL     OW 3820   2.764   1.299   4.130
  974SOL    HW1 3821   2.797   1.388   4.163
  974SOL    HW2 3822   2.806   1.279   4.041
  975SOL     OW 3823   3.404   0.008   5.755
  975SOL    HW1 3824   3.375   0.067   5.830
  975SOL    HW2 3825   3.412   6.938   5.787
  976SOL     OW 3826   0.505   5.319   3.920
  976SOL    HW1 3827   0.493   5.375   3.838
  976SOL    HW2 3828   0.529   5.378   3.998
  977SOL     OW 3829   1.762   1.333   3.607
  977SOL    HW1 3830   1.700   1.275   3.660
  977SOL    HW2 3831   1.731   1.428   3.613
  978SOL     OW 3832   6.031   3.128   4.856
  978SOL    HW1 3833   5.962   3.186   4.901
  978SOL    HW2 3834   6.055   3.053   4.917
  979SOL     OW 3835   5.397   0.792   3.141
  979SOL    HW1 3836   5.431   0.755   3.054
  979SOL    HW2 3837   5.320   0.737   3.173
  980SOL     OW 3838   5.796   0.941   4.925
  980SOL    HW1 3839   5.703   0.975   4.929
  980SOL    HW2 3840   5.859   1.011   4.959
  981SOL     OW 3841   0.088   2.761   5.616
  981SOL    HW1 3842   0.160   2.802   5.672
  981SOL    HW2 3843   0.022   2.831   5.591
  982SOL     OW 3844   1.395   2.919   1.324
  982SOL    HW1 3845   1.482   2.941   1.369
  982SOL    HW2 3846   1.410   2.908   1.225
  983SOL     OW 3847   5.446   1.315   2.974
  983SOL    HW1 3848   5.401   1.244   2.919
  983SOL    HW2 3849   5.520   1.273   3.027
  984SOL     OW 3850   4.967   0.754   3.976
  984SOL    HW1 3851   4.887   0.697   3.955
  984SOL    HW2 3852   4.967   0.835   3.918
  985SOL     OW 3853   3.231   5.859   0.001
  985SOL    HW1 3854   3.326   5.855   0.032
  985SOL    HW2 3855   3.180   5.925   0.057
  986SOL     OW 3856   4.531   5.067   6.095
  986SOL    HW1 3857   4.499   5.146   6.147
  986SOL    HW2 3858   4.582   5.098   6.015
  987SOL     OW 3859   3.803   0.080   2.600
  987SOL    HW1 3860   3.870   0.007   2.596
  987SOL    HW2 3861   3.746   0.070   2.681
  988SOL     OW 3862   3.376   4.073   1.901
  988SOL    HW1 3863   3.280   4.046   1.900
  988SOL    HW2 3864   3.429   4.007   1.847
  989SOL     OW 3865   1.025   6.826   5.302
  989SOL    HW1 3866   1.036   6.880   5.385
  989SOL    HW2 3867   1.077   6.741   5.310
  990SOL     OW 3868   4.577   5.984   3.709
  990SOL    HW1 3869   4.621   6.070   3.685
  990SOL    HW2 3870   4.556   5.932   3.626
  991SOL     OW 3871   6.124   1.940   5.090
  991SOL    HW1 3872   6.044   1.920   5.033
  991SOL    HW2 3873   6.124   2.037   5.114
  992SOL     OW 3874   0.480   3.292   0.801
  992SOL    HW1 3875   0.466   3.361   0.730
  992SOL    HW2 3876   0.441   3.205   0.770
  993SOL     OW 3877   3.512   5.044   3.798
  993SOL    HW1 3878   3.567   5.011   3.875
  993SOL    HW2 3879   3.501   4.970   3.732
  994SOL     OW 3880   2.958   3.621   2.748
  994SOL    HW1 3881   2.977   3.715   2.778
  994SOL    HW2 3882   2.939   3.563   2.827
  995SOL     OW 3883   1.160   1.337   4.740
  995SOL    HW1 3884   1.110   1.421   4.720
  995SOL    HW2 3885   1.252   1.360   4.772
  996SOL     OW 3886   1.474   3.770   2.548
  996SOL    HW1 3887   1.504   3.865   2.558
  996SOL    HW2 3888   1.378   3.762   2.575
  997SOL     OW 3889   6.602   0.903   1.704
  997SOL    HW1 3890   6.514   0.858   1.689
  997SOL    HW2 3891   6.597   0.959   1.787
  998SOL     OW 3892   5.109   6.934   3.168
  998SOL    HW1 3893   5.153   6.945   3.079
  998SOL    HW2 3894   5.069   7.021   3.196
  999SOL     OW 3895   0.217   5.157   1.135
  999SOL    HW1 3896   0.270   5.137   1.218
  999SOL    HW2 3897   0.280   5.174   1.059
 1000SOL     OW 3898   4.099   1.636   3.746
 1000SOL    HW1 3899   4.103   1.684   3.658
 1000SOL    HW2 3900   4.052   1.548   3.734
 1001SOL     OW 3901   4.524   0.528   5.199
 1001SOL    HW1 3902   4.510   0.584   5.280
 1001SOL    HW2 3903   4.521   0.431   5.224
 1002SOL     OW 3904   6.619   1.922   1.255
 1002SOL    HW1 3905   6.639   1.888   1.163
 1002SOL    HW2 3906   6.597   2.020   1.250
 1003SOL     OW 3907   4.566   5.127   2.519
 1003SOL    HW1 3908   4.504   5.203   2.500
 1003SOL    HW2 3909   4.553   5.055   2.451
 1004SOL     OW 3910   5.960   5.962   6.802
 1004SOL    HW1 3911   6.004   6.016   6.873
 1004SOL    HW2 3912   6.023   5.892   6.769
 1005SOL     OW 3913   6.772   6.442   3.554
 1005SOL    HW1 3914   6.740   6.358   3.597
 1005SOL    HW2 3915   6.812   6.502   3.624
 1006SOL     OW 3916   2.277   4.546   1.003
 1006SOL    HW1 3917   2.247   4.543   1.098
 1006SOL    HW2 3918   2.299   4.454   0.971
 1007SOL     OW 3919   0.469   1.132   3.425
 1007SOL    HW1 3920   0.460   1.201   3.352
 1007SOL    HW2 3921   0.560   1.139   3.466
 1008SOL     OW 3922   2.121   3.307   3.450
 1008SOL    HW1 3923   2.070   3.325   3.534
 1008SOL    HW2 3924   2.110   3.385   3.388
 1009SOL     OW 3925   1.432   6.155   5.001
 1009SOL    HW1 3926   1.483   6.240   5.010
 1009SOL    HW2 3927   1.352   6.170   4.943
 1010SOL     OW 3928   5.035   1.634   0.272
 1010SOL    HW1 3929   5.067   1.705   0.209
 1010SOL    HW2 3930   4.979   1.568   0.222
 1011SOL     OW 3931   3.696   6.050   3.095
 1011SOL    HW1 3932   3.631   6.015   3.028
 1011SOL    HW2 3933   3.647   6.082   3.176
 1012SOL     OW 3934   4.658   5.440   6.974
 1012SOL    HW1 3935   4.654   5.343   6.952
 1012SOL    HW2 3936   4.753   5.471   6.972
 1013SOL     OW 3937   0.804   0.882   1.303
 1013SOL    HW1 3938   0.792   0.792   1.345
 1013SOL    HW2 3939   0.889   0.923   1.335
 1014SOL     OW 3940   4.233   0.337   5.832
 1014SOL    HW1 3941   4.168   0.262   5.842
 1014SOL    HW2 3942   4.311   0.321   5.893
 1015SOL     OW 3943   3.219   6.015   4.127
 1015SOL    HW1 3944   3.224   6.093   4.191
 1015SOL    HW2 3945   3.186   5.934   4.176
 1016SOL     OW 3946   4.587   2.746   1.340
 1016SOL    HW1 3947   4.582   2.846   1.347
 1016SOL    HW2 3948   4.494   2.709   1.343
 1017SOL     OW 3949   4.117   1.734   6.635
 1017SOL    HW1 3950   4.067   1.818   6.654
 1017SOL    HW2 3951   4.094   1.701   6.544
 1018SOL     OW 3952   1.597   3.861   2.783
 1018SOL    HW1 3953   1.522   3.836   2.844
 1018SOL    HW2 3954   1.624   3.782   2.729
 1019SOL     OW 3955   6.442   0.883   0.135
 1019SOL    HW1 3956   6.448   0.808   0.070
 1019SOL    HW2 3957   6.466   0.849   0.227
 1020SOL     OW 3958   2.512   1.764   1.654
 1020SOL    HW1 3959   2.610   1.784   1.644
 1020SOL    HW2 3960   2.467   1.776   1.566
 1021SOL     OW 3961   6.683   1.170   1.191
 1021SOL    HW1 3962   6.766   1.218   1.162
 1021SOL    HW2 3963   6.659   1.198   1.283
 1022SOL     OW 3964   4.088   3.263   6.470
 1022SOL    HW1 3965   4.028   3.184   6.459
 1022SOL    HW2 3966   4.038   3.338   6.514
 1023SOL     OW 3967   5.158   0.886   3.377
 1023SOL    HW1 3968   5.190   0.953   3.310
 1023SOL    HW2 3969   5.058   0.889   3.382
 1024SOL     OW 3970   6.498   1.456   3.260
 1024SOL    HW1 3971   6.402   1.473   3.282
 1024SOL    HW2 3972   6.518   1.358   3.271
 1025SOL     OW 3973   2.951   4.759   1.254
 1025SOL    HW1 3974   2.962   4.685   1.320
 1025SOL    HW2 3975   2.872   4.741   1.196
 1026SOL     OW 3976   1.173   2.203   0.357
 1026SOL    HW1 3977   1.193   2.106   0.348
 1026SOL    HW2 3978   1.215   2.254   0.282
 1027SOL     OW 3979   2.666   4.736   2.426
 1027SOL    HW1 3980   2.646   4.721   2.523
 1027SOL    HW2 3981   2.764   4.755   2.415
 1028SOL     OW 3982   1.606   6.457   0.395
 1028SOL    HW1 3983   1.683   6.437   0.335
 1028SOL    HW2 3984   1.640   6.477   0.487
 1029SOL     OW 3985   2.967   0.469   6.114
 1029SOL    HW1 3986   2.872   0.498   6.105
 1029SOL    HW2 3987   3.027   0.547   6.098
 1030SOL     OW 3988   3.906   4.104   4.807
 1030SOL    HW1 3989   3.871   4.061   4.890
 1030SOL    HW2 3990   3.945   4.193   4.830
 1031SOL     OW 3991   2.274   5.490   1.312
 1031SOL    HW1 3992   2.325   5.575   1.321
 1031SOL    HW2 3993   2.177   5.510   1.298
 1032SOL     OW 3994   1.740   0.728   4.128
 1032SOL    HW1 3995   1.732   0.630   4.146
 1032SOL    HW2 3996   1.745   0.778   4.215
 1033SOL     OW 3997   2.256   6.050   3.452
 1033SOL    HW1 3998   2.310   5.977   3.412
 1033SOL    HW2 3999   2.178   6.012   3.502
 1034SOL     OW 4000   1.255   5.029   3.824
 1034SOL    HW1 4001   1.300   5.065   3.906
 1034SOL    HW2 4002   1.178   4.971   3.851
 1035SOL     OW 4003   2.490   1.290   4.468
 1035SOL    HW1 4004   2.392   1.268   4.461
 1035SOL    HW2 4005   2.537   1.260   4.386
 1036SOL     OW 4006   4.908   2.063   0.512
 1036SOL    HW1 4007   4.834   2.030   0.453
 1036SOL    HW2 4008   4.915   2.004   0.593
 1037SOL     OW 4009   2.561   1.894   6.617
 1037SOL    HW1 4010   2.477   1.947   6.603
 1037SOL    HW2 4011   2.639   1.957   6.626
 1038SOL     OW 4012   2.219   0.807   4.442
 1038SOL    HW1 4013   2.258   0.720   4.412
 1038SOL    HW2 4014   2.155   0.841   4.373
 1039SOL     OW 4015   4.168   1.662   3.287
 1039SOL    HW1 4016   4.109   1.680   3.365
 1039SOL    HW2 4017   4.131   1.709   3.206
 1040SOL     OW 4018   6.541   4.124   3.236
 1040SOL    HW1 4019   6.469   4.191   3.253
 1040SOL    HW2 4020   6.515   4.067   3.158
 1041SOL     OW 4021   0.864   0.193   4.282
 1041SOL    HW1 4022   0.962   0.214   4.287
 1041SOL    HW2 4023   0.829   0.182   4.375
 1042SOL     OW 4024   5.261   4.578   0.580
 1042SOL    HW1 4025   5.221   4.646   0.641
 1042SOL    HW2 4026   5.190   4.514   0.549
 1043SOL     OW 4027   3.059   0.898   6.566
 1043SOL    HW1 4028   3.074   0.985   6.519
 1043SOL    HW2 4029   3.137   0.878   6.626
 1044SOL     OW 4030   4.452   3.403   1.600
 1044SOL    HW1 4031   4.352   3.405   1.609
 1044SOL    HW2 4032   4.487   3.497   1.602
 1045SOL     OW 4033   3.123   1.416   3.175
 1045SOL    HW1 4034   3.219   1.396   3.194
 1045SOL    HW2 4035   3.102   1.510   3.203
 1046SOL     OW 4036   3.892   0.778   1.937
 1046SOL    HW1 4037   3.971   0.805   1.993
 1046SOL    HW2 4038   3.853   0.860   1.894
 1047SOL     OW 4039   1.073   5.026   2.308
 1047SOL    HW1 4040   1.069   4.951   2.373
 1047SOL    HW2 4041   1.149   5.087   2.331
 1048SOL     OW 4042   5.761   4.447   5.647
 1048SOL    HW1 4043   5.770   4.407   5.555
 1048SOL    HW2 4044   5.736   4.376   5.712
 1049SOL     OW 4045   0.480   3.316   4.982
 1049SOL    HW1 4046   0.548   3.269   4.925
 1049SOL    HW2 4047   0.524   3.391   5.030
 1050SOL     OW 4048   2.974   0.448   6.705
 1050SOL    HW1 4049   3.038   0.412   6.773
 1050SOL    HW2 4050   2.977   0.390   6.623
 1051SOL     OW 4051   4.399   4.385   1.420
 1051SOL    HW1 4052   4.325   4.362   1.484
 1051SOL    HW2 4053   4.484   4.342   1.451
 1052SOL     OW 4054   3.589   0.205   4.238
 1052SOL    HW1 4055   3.519   0.201   4.166
 1052SOL    HW2 4056   3.605   0.300   4.263
 1053SOL     OW 4057   4.088   4.794   3.712
 1053SOL    HW1 4058   4.178   4.790   3.755
 1053SOL    HW2 4059   4.098   4.820   3.616
 1054SOL     OW 4060   3.860   6.262   4.559
 1054SOL    HW1 4061   3.946   6.304   4.589
 1054SOL    HW2 4062   3.798   6.333   4.526
 1055SOL     OW 4063   4.589   5.183   4.995
 1055SOL    HW1 4064   4.564   5.098   4.949
 1055SOL    HW2 4065   4.573   5.260   4.932
 1056SOL     OW 4066   1.211   6.677   5.038
 1056SOL    HW1 4067   1.285   6.614   5.014
 1056SOL    HW2 4068   1.243   6.743   5.106
 1057SOL     OW 4069   3.791   3.897   1.939
 1057SOL    HW1 4070   3.764   3.866   2.030
 1057SOL    HW2 4071   3.709   3.908   1.882
 1058SOL     OW 4072   4.111   1.070   1.381
 1058SOL    HW1 4073   4.191   1.107   1.428
 1058SOL    HW2 4074   4.120   0.971   1.373
 1059SOL     OW 4075   3.243   1.580   0.983
 1059SOL    HW1 4076   3.227   1.646   1.057
 1059SOL    HW2 4077   3.264   1.490   1.023
 1060SOL     OW 4078   2.451   2.518   5.226
 1060SOL    HW1 4079   2.442   2.587   5.155
 1060SOL    HW2 4080   2.501   2.556   5.304
 1061SOL     OW 4081   3.161   5.799   1.410
 1061SOL    HW1 4082   3.119   5.850   1.335
 1061SOL    HW2 4083   3.225   5.858   1.459
 1062SOL     OW 4084   5.504   4.627   5.101
 1062SOL    HW1 4085   5.486   4.551   5.164
 1062SOL    HW2 4086   5.461   4.710   5.135
 1063SOL     OW 4087   1.900   2.987   6.422
 1063SOL    HW1 4088   1.949   2.909   6.381
 1063SOL    HW2 4089   1.807   2.960   6.445
 1064SOL     OW 4090   0.036   3.186   1.464
 1064SOL    HW1 4091   0.105   3.245   1.422
 1064SOL    HW2 4092   6.991   3.243   1.509
 1065SOL     OW 4093   6.292   5.949   5.086
 1065SOL    HW1 4094   6.305   5.854   5.113
 1065SOL    HW2 4095   6.230   5.953   5.007
 1066SOL     OW 4096   3.884   0.587   3.401
 1066SOL    HW1 4097   3.863   0.558   3.308
 1066SOL    HW2 4098   3.908   0.508   3.457
 1067SOL     OW 4099   1.673   2.941   1.438
 1067SOL    HW1 4100   1.664   2.917   1.534
 1067SOL    HW2 4101   1.770   2.942   1.412
 1068SOL     OW 4102   0.561   3.732   1.654
 1068SOL    HW1 4103   0.526   3.767   1.741
 1068SOL    HW2 4104   0.558   3.805   1.585
 1069SOL     OW 4105   3.699   3.564   1.605
 1069SOL    HW1 4106   3.766   3.494   1.582
 1069SOL    HW2 4107   3.678   3.618   1.523
 1070SOL     OW 4108   2.036   1.004   6.891
 1070SOL    HW1 4109   1.995   0.949   6.818
 1070SOL    HW2 4110   1.980   0.998   6.973
 1071SOL     OW 4111   3.950   6.620   3.611
 1071SOL    HW1 4112   3.967   6.556   3.535
 1071SOL    HW2 4113   3.942   6.568   3.696
 1072SOL     OW 4114   3.873   5.521   3.004
 1072SOL    HW1 4115   3.794   5.582   2.996
 1072SOL    HW2 4116   3.887   5.473   2.917
 1073SOL     OW 4117   2.550   4.745   2.700
 1073SOL    HW1 4118   2.605   4.747   2.784
 1073SOL    HW2 4119   2.479   4.676   2.709
 1074SOL     OW 4120   1.296   5.183   2.311
 1074SOL    HW1 4121   1.362   5.203   2.383
 1074SOL    HW2 4122   1.234   5.261   2.299
 1075SOL     OW 4123   0.270   4.257   3.672
 1075SOL    HW1 4124   0.261   4.168   3.628
 1075SOL    HW2 4125   0.258   4.329   3.603
 1076SOL     OW 4126   0.483   5.340   3.424
 1076SOL    HW1 4127   0.543   5.340   3.344
 1076SOL    HW2 4128   0.392   5.371   3.397
 1077SOL     OW 4129   4.734   0.126   0.747
 1077SOL    HW1 4130   4.689   0.046   0.708
 1077SOL    HW2 4131   4.726   0.203   0.684
 1078SOL     OW 4132   0.617   1.974   1.142
 1078SOL    HW1 4133   0.590   1.913   1.217
 1078SOL    HW2 4134   0.581   1.939   1.056
 1079SOL     OW 4135   2.349   5.628   2.745
 1079SOL    HW1 4136   2.420   5.676   2.795
 1079SOL    HW2 4137   2.387   5.545   2.704
 1080SOL     OW 4138   1.776   5.192   4.355
 1080SOL    HW1 4139   1.862   5.170   4.401
 1080SOL    HW2 4140   1.702   5.193   4.423
 1081SOL     OW 4141   1.331   0.985   6.963
 1081SOL    HW1 4142   1.351   1.017   0.032
 1081SOL    HW2 4143   1.329   1.063   6.901
 1082SOL     OW 4144   1.993   0.174   6.641
 1082SOL    HW1 4145   1.991   0.250   6.706
 1082SOL    HW2 4146   2.087   0.141   6.630
 1083SOL     OW 4147   4.118   3.231   1.386
 1083SOL    HW1 4148   4.022   3.241   1.409
 1083SOL    HW2 4149   4.144   3.134   1.392
 1084SOL     OW 4150   6.433   3.919   0.578
 1084SOL    HW1 4151   6.458   4.003   0.531
 1084SOL    HW2 4152   6.394   3.941   0.668
 1085SOL     OW 4153   2.164   3.826   3.786
 1085SOL    HW1 4154   2.174   3.859   3.880
 1085SOL    HW2 4155   2.132   3.732   3.787
 1086SOL     OW 4156   4.207   5.293   2.039
 1086SOL    HW1 4157   4.123   5.238   2.047
 1086SOL    HW2 4158   4.184   5.384   2.003
 1087SOL     OW 4159   4.269   3.060   5.349
 1087SOL    HW1 4160   4.193   3.102   5.397
 1087SOL    HW2 4161   4.259   2.960   5.352
 1088SOL     OW 4162   5.168   3.710   3.328
 1088SOL    HW1 4163   5.120   3.626   3.302
 1088SOL    HW2 4164   5.266   3.692   3.335
 1089SOL     OW 4165   6.005   0.361   3.501
 1089SOL    HW1 4166   5.905   0.371   3.507
 1089SOL    HW2 4167   6.048   0.451   3.499
 1090SOL     OW 4168   0.596   2.275   5.494
 1090SOL    HW1 4169   0.646   2.202   5.448
 1090SOL    HW2 4170   0.498   2.263   5.481
 1091SOL     OW 4171   1.074   1.927   4.751
 1091SOL    HW1 4172   1.133   1.950   4.673
 1091SOL    HW2 4173   1.122   1.950   4.836
 1092SOL     OW 4174   2.227   4.579   1.264
 1092SOL    HW1 4175   2.154   4.638   1.298
 1092SOL    HW2 4176   2.295   4.565   1.336
 1093SOL     OW 4177   0.566   1.854   2.740
 1093SOL    HW1 4178   0.602   1.911   2.666
 1093SOL    HW2 4179   0.478   1.816   2.713
 1094SOL     OW 4180   0.967   6.309   1.762
 1094SOL    HW1 4181   0.997   6.213   1.763
 1094SOL    HW2 4182   0.907   6.326   1.840
 1095SOL     OW 4183   6.279   3.569   6.152
 1095SOL    HW1 4184   6.328   3.650   6.184
 1095SOL    HW2 4185   6.317   3.541   6.063
 1096SOL     OW 4186   3.613   4.208   1.824
 1096SOL    HW1 4187   3.592   4.177   1.732
 1096SOL    HW2 4188   3.539   4.179   1.886
 1097SOL     OW 4189   1.837   4.907   5.243
 1097SOL    HW1 4190   1.818   4.972   5.316
 1097SOL    HW2 4191   1.778   4.926   5.165
 1098SOL     OW 4192   3.983   1.210   3.208
 1098SOL    HW1 4193   3.978   1.253   3.298
 1098SOL    HW2 4194   4.069   1.159   3.201
 1099SOL     OW 4195   3.449   1.906   2.676
 1099SOL    HW1 4196   3.449   1.829   2.740
 1099SOL    HW2 4197   3.531   1.901   2.619
 1100SOL     OW 4198   1.010   0.419   0.717
 1100SOL    HW1 4199   0.962   0.362   0.784
 1100SOL    HW2 4200   0.984   0.391   0.625
 1101SOL     OW 4201   5.424   2.771   0.778
 1101SOL    HW1 4202   5.328   2.748   0.762
 1101SOL    HW2 4203   5.479   2.738   0.702
 1102SOL     OW 4204   0.777   4.882   3.256
 1102SOL    HW1 4205   0.858   4.872   3.314
 1102SOL    HW2 4206   0.699   4.836   3.299
 1103SOL     OW 4207   0.588   2.909   1.229
 1103SOL    HW1 4208   0.621   2.907   1.324
 1103SOL    HW2 4209   0.632   2.985   1.181
 1104SOL     OW 4210   2.963   5.143   5.389
 1104SOL    HW1 4211   2.987   5.108   5.299
 1104SOL    HW2 4212   2.938   5.066   5.449
 1105SOL     OW 4213   4.294   5.810   0.267
 1105SOL    HW1 4214   4.383   5.843   0.298
 1105SOL    HW2 4215   4.307   5.746   0.191
 1106SOL     OW 4216   0.534   2.014   6.047
 1106SOL    HW1 4217   0.451   1.963   6.025
 1106SOL    HW2 4218   0.512   2.110   6.059
 1107SOL     OW 4219   1.676   0.311   1.318
 1107SOL    HW1 4220   1.581   0.304   1.287
 1107SOL    HW2 4221   1.678   0.336   1.415
 1108SOL     OW 4222   0.830   1.864   6.174
 1108SOL    HW1 4223   0.915   1.916   6.174
 1108SOL    HW2 4224   0.766   1.905   6.239
 1109SOL     OW 4225   5.105   1.026   4.321
 1109SOL    HW1 4226   5.005   1.020   4.318
 1109SOL    HW2 4227   5.132   1.113   4.363
 1110SOL     OW 4228   3.708   2.836   2.141
 1110SOL    HW1 4229   3.633   2.872   2.086
 1110SOL    HW2 4230   3.751   2.760   2.092
 1111SOL     OW 4231   5.508   6.512   0.102
 1111SOL    HW1 4232   5.444   6.587   0.117
 1111SOL    HW2 4233   5.554   6.490   0.188
 1112SOL     OW 4234   5.968   0.703   2.752
 1112SOL    HW1 4235   6.019   0.676   2.834
 1112SOL    HW2 4236   6.015   0.779   2.707
 1113SOL     OW 4237   6.219   3.921   1.627
 1113SOL    HW1 4238   6.128   3.942   1.592
 1113SOL    HW2 4239   6.211   3.860   1.706
 1114SOL     OW 4240   5.079   1.507   4.957
 1114SOL    HW1 4241   5.032   1.586   4.918
 1114SOL    HW2 4242   5.148   1.474   4.893
 1115SOL     OW 4243   2.109   2.939   0.959
 1115SOL    HW1 4244   2.166   2.920   0.879
 1115SOL    HW2 4245   2.132   2.874   1.032
 1116SOL     OW 4246   4.345   5.826   4.848
 1116SOL    HW1 4247   4.309   5.756   4.909
 1116SOL    HW2 4248   4.273   5.859   4.788
 1117SOL     OW 4249   2.579   3.312   0.594
 1117SOL    HW1 4250   2.554   3.383   0.660
 1117SOL    HW2 4251   2.674   3.327   0.564
 1118SOL     OW 4252   2.015   3.824   3.573
 1118SOL    HW1 4253   2.088   3.836   3.641
 1118SOL    HW2 4254   2.041   3.871   3.488
 1119SOL     OW 4255   3.492   4.179   2.107
 1119SOL    HW1 4256   3.453   4.113   2.042
 1119SOL    HW2 4257   3.431   4.258   2.114
 1120SOL     OW 4258   4.401   0.539   4.090
 1120SOL    HW1 4259   4.354   0.495   4.166
 1120SOL    HW2 4260   4.460   0.612   4.125
 1121SOL     OW 4261   5.523   3.409   2.318
 1121SOL    HW1 4262   5.568   3.452   2.240
 1121SOL    HW2 4263   5.442   3.461   2.344
 1122SOL     OW 4264   4.975   4.686   6.795
 1122SOL    HW1 4265   5.026   4.601   6.791
 1122SOL    HW2 4266   4.880   4.667   6.821
 1123SOL     OW 4267   3.479   0.893   1.610
 1123SOL    HW1 4268   3.465   0.840   1.693
 1123SOL    HW2 4269   3.516   0.983   1.633
 1124SOL     OW 4270   1.172   4.606   4.473
 1124SOL    HW1 4271   1.257   4.592   4.524
 1124SOL    HW2 4272   1.096   4.613   4.537
 1125SOL     OW 4273   4.015   3.425   5.012
 1125SOL    HW1 4274   4.075   3.460   4.940
 1125SOL    HW2 4275   3.950   3.360   4.973
 1126SOL     OW 4276   5.896   6.905   2.416
 1126SOL    HW1 4277   5.884   7.004   2.408
 1126SOL    HW2 4278   5.855   6.859   2.337
 1127SOL     OW 4279   1.570   4.784   0.245
 1127SOL    HW1 4280   1.498   4.719   0.271
 1127SOL    HW2 4281   1.530   4.876   0.238
 1128SOL     OW 4282   2.890   1.877   4.435
 1128SOL    HW1 4283   2.826   1.802   4.454
 1128SOL    HW2 4284   2.844   1.946   4.379
 1129SOL     OW 4285   5.207   0.025   0.060
 1129SOL    HW1 4286   5.173   0.119   0.066
 1129SOL    HW2 4287   5.298   0.020   0.100
 1130SOL     OW 4288   0.202   4.996   5.792
 1130SOL    HW1 4289   0.138   5.045   5.851
 1130SOL    HW2 4290   0.265   5.060   5.749
 1131SOL     OW 4291   0.526   4.967   6.242
 1131SOL    HW1 4292   0.547   5.034   6.313
 1131SOL    HW2 4293   0.558   5.000   6.153
 1132SOL     OW 4294   4.437   0.312   6.045
 1132SOL    HW1 4295   4.393   0.238   6.095
 1132SOL    HW2 4296   4.503   0.359   6.104
 1133SOL     OW 4297   0.797   2.956   0.834
 1133SOL    HW1 4298   0.857   2.885   0.871
 1133SOL    HW2 4299   0.772   3.020   0.907
 1134SOL     OW 4300   6.168   3.168   5.900
 1134SOL    HW1 4301   6.130   3.213   5.820
 1134SOL    HW2 4302   6.267   3.159   5.889
 1135SOL     OW 4303   4.828   1.490   3.116
 1135SOL    HW1 4304   4.826   1.590   3.107
 1135SOL    HW2 4305   4.738   1.458   3.144
 1136SOL     OW 4306   3.623   5.327   4.456
 1136SOL    HW1 4307   3.536   5.332   4.506
 1136SOL    HW2 4308   3.618   5.385   4.374
 1137SOL     OW 4309   1.747   1.252   5.592
 1137SOL    HW1 4310   1.788   1.172   5.636
 1137SOL    HW2 4311   1.814   1.326   5.589
 1138SOL     OW 4312   0.744   4.245   5.537
 1138SOL    HW1 4313   0.731   4.335   5.578
 1138SOL    HW2 4314   0.834   4.209   5.564
 1139SOL     OW 4315   1.419   6.447   1.764
 1139SOL    HW1 4316   1.498   6.416   1.711
 1139SOL    HW2 4317   1.338   6.450   1.705
 1140SOL     OW 4318   3.226   1.883   4.057
 1140SOL    HW1 4319   3.133   1.849   4.042
 1140SOL    HW2 4320   3.285   1.807   4.087
 1141SOL     OW 4321   6.689   5.608   5.704
 1141SOL    HW1 4322   6.729   5.520   5.731
 1141SOL    HW2 4323   6.743   5.682   5.743
 1142SOL     OW 4324   6.052   1.031   3.506
 1142SOL    HW1 4325   6.017   1.119   3.474
 1142SOL    HW2 4326   5.986   0.959   3.481
 1143SOL     OW 4327   4.731   1.835   2.694
 1143SOL    HW1 4328   4.750   1.738   2.712
 1143SOL    HW2 4329   4.802   1.891   2.736
 1144SOL     OW 4330   0.092   6.413   5.108
 1144SOL    HW1 4331   0.049   6.341   5.163
 1144SOL    HW2 4332   0.191   6.405   5.113
 1145SOL     OW 4333   1.086   5.195   5.567
 1145SOL    HW1 4334   0.987   5.182   5.566
 1145SOL    HW2 4335   1.123   5.176   5.476
 1146SOL     OW 4336   5.568   2.344   0.683
 1146SOL    HW1 4337   5.607   2.252   0.681
 1146SOL    HW2 4338   5.560   2.375   0.777
 1147SOL     OW 4339   6.167   2.352   1.663
 1147SOL    HW1 4340   6.259   2.373   1.630
 1147SOL    HW2 4341   6.104   2.346   1.586
 1148SOL     OW 4342   4.009   0.286   0.438
 1148SOL    HW1 4343   4.017   0.296   0.537
 1148SOL    HW2 4344   4.100   0.291   0.396
 1149SOL     OW 4345   6.943   3.518   2.782
 1149SOL    HW1 4346   6.850   3.500   2.748
 1149SOL    HW2 4347   6.941   3.597   2.843
 1150SOL     OW 4348   1.283   5.034   6.670
 1150SOL    HW1 4349   1.362   5.092   6.649
 1150SOL    HW2 4350   1.200   5.081   6.642
 1151SOL     OW 4351   4.811   5.284   0.198
 1151SOL    HW1 4352   4.864   5.358   0.156
 1151SOL    HW2 4353   4.840   5.197   0.160
 1152SOL     OW 4354   0.270   0.599   4.652
 1152SOL    HW1 4355   0.180   0.600   4.697
 1152SOL    HW2 4356   0.261   0.556   4.562
 1153SOL     OW 4357   2.451   5.308   2.517
 1153SOL    HW1 4358   2.435   5.339   2.423
 1153SOL    HW2 4359   2.549   5.310   2.536
 1154SOL     OW 4360   1.691   4.638   1.833
 1154SOL    HW1 4361   1.695   4.733   1.863
 1154SOL    HW2 4362   1.776   4.591   1.858
 1155SOL     OW 4363   3.147   5.555   1.882
 1155SOL    HW1 4364   3.114   5.489   1.814
 1155SOL    HW2 4365   3.148   5.511   1.972
 1156SOL     OW 4366   1.985   0.710   4.029
 1156SOL    HW1 4367   1.899   0.741   4.070
 1156SOL    HW2 4368   1.998   0.756   3.941
 1157SOL     OW 4369   1.403   2.157   4.253
 1157SOL    HW1 4370   1.436   2.246   4.285
 1157SOL    HW2 4371   1.351   2.169   4.168
 1158SOL     OW 4372   4.557   5.386   5.377
 1158SOL    HW1 4373   4.460   5.367   5.384
 1158SOL    HW2 4374   4.604   5.307   5.337
 1159SOL     OW 4375   4.902   4.960   3.013
 1159SOL    HW1 4376   4.805   4.970   3.035
 1159SOL    HW2 4377   4.956   5.019   3.073
 1160SOL     OW 4378   2.854   3.214   0.545
 1160SOL    HW1 4379   2.851   3.186   0.449
 1160SOL    HW2 4380   2.943   3.193   0.584
 1161SOL     OW 4381   4.183   0.223   3.844
 1161SOL    HW1 4382   4.276   0.257   3.826
 1161SOL    HW2 4383   4.125   0.300   3.871
 1162SOL     OW 4384   3.697   4.445   1.710
 1162SOL    HW1 4385   3.660   4.363   1.752
 1162SOL    HW2 4386   3.644   4.525   1.739
 1163SOL     OW 4387   4.883   2.579   2.612
 1163SOL    HW1 4388   4.803   2.525   2.639
 1163SOL    HW2 4389   4.935   2.603   2.694
 1164SOL     OW 4390   6.117   3.273   3.730
 1164SOL    HW1 4391   6.095   3.257   3.634
 1164SOL    HW2 4392   6.035   3.307   3.777
 1165SOL     OW 4393   1.566   4.746   2.170
 1165SOL    HW1 4394   1.532   4.772   2.079
 1165SOL    HW2 4395   1.537   4.814   2.237
 1166SOL     OW 4396   3.757   3.242   6.534
 1166SOL    HW1 4397   3.743   3.164   6.473
 1166SOL    HW2 4398   3.672   3.262   6.583
 1167SOL     OW 4399   4.610   1.475   4.804
 1167SOL    HW1 4400   4.583   1.453   4.898
 1167SOL    HW2 4401   4.682   1.545   4.806
 1168SOL     OW 4402   6.250   6.089   3.690
 1168SOL    HW1 4403   6.234   6.180   3.729
 1168SOL    HW2 4404   6.340   6.057   3.718
 1169SOL     OW 4405   1.360   3.642   1.795
 1169SOL    HW1 4406   1.374   3.561   1.853
 1169SOL    HW2 4407   1.272   3.634   1.748
 1170SOL     OW 4408   2.959   0.492   0.962
 1170SOL    HW1 4409   2.896   0.416   0.980
 1170SOL    HW2 4410   2.928   0.543   0.882
 1171SOL     OW 4411   2.057   6.567   0.256
 1171SOL    HW1 4412   1.995   6.609   0.189
 1171SOL    HW2 4413   2.103   6.489   0.214
 1172SOL     OW 4414   3.327   3.605   5.125
 1172SOL    HW1 4415   3.321   3.631   5.221
 1172SOL    HW2 4416   3.307   3.684   5.067
 1173SOL     OW 4417   4.584   0.969   6.264
 1173SOL    HW1 4418   4.599   0.934   6.172
 1173SOL    HW2 4419   4.670   1.001   6.302
 1174SOL     OW 4420   3.128   6.286   1.070
 1174SOL    HW1 4421   3.058   6.295   1.141
 1174SOL    HW2 4422   3.185   6.206   1.088
 1175SOL     OW 4423   6.096   4.944   5.410
 1175SOL    HW1 4424   6.165   4.920   5.478
 1175SOL    HW2 4425   6.140   4.984   5.330
 1176SOL     OW 4426   6.162   3.548   0.591
 1176SOL    HW1 4427   6.062   3.555   0.599
 1176SOL    HW2 4428   6.197   3.625   0.537
 1177SOL     OW 4429   6.256   2.839   6.968
 1177SOL    HW1 4430   6.266   2.913   6.902
 1177SOL    HW2 4431   6.332   2.774   6.958
 1178SOL     OW 4432   5.401   4.229   1.834
 1178SOL    HW1 4433   5.472   4.298   1.846
 1178SOL    HW2 4434   5.383   4.217   1.736
 1179SOL     OW 4435   2.577   6.180   6.277
 1179SOL    HW1 4436   2.590   6.163   6.375
 1179SOL    HW2 4437   2.633   6.259   6.249
 1180SOL     OW 4438   2.325   1.908   3.896
 1180SOL    HW1 4439   2.386   1.884   3.972
 1180SOL    HW2 4440   2.232   1.882   3.918
 1181SOL     OW 4441   2.364   4.388   2.667
 1181SOL    HW1 4442   2.350   4.309   2.725
 1181SOL    HW2 4443   2.402   4.359   2.579
 1182SOL     OW 4444   1.227   4.633   2.994
 1182SOL    HW1 4445   1.240   4.724   2.956
 1182SOL    HW2 4446   1.132   4.604   2.980
 1183SOL     OW 4447   4.587   5.686   1.408
 1183SOL    HW1 4448   4.685   5.707   1.401
 1183SOL    HW2 4449   4.535   5.750   1.351
 1184SOL     OW 4450   2.902   3.216   5.063
 1184SOL    HW1 4451   2.808   3.248   5.055
 1184SOL    HW2 4452   2.902   3.120   5.093
 1185SOL     OW 4453   1.880   1.671   6.799
 1185SOL    HW1 4454   1.916   1.629   6.883
 1185SOL    HW2 4455   1.937   1.642   6.722
 1186SOL     OW 4456   3.898   1.366   5.439
 1186SOL    HW1 4457   3.800   1.373   5.424
 1186SOL    HW2 4458   3.939   1.308   5.368
 1187SOL     OW 4459   6.509   1.007   5.147
 1187SOL    HW1 4460   6.427   1.051   5.110
 1187SOL    HW2 4461   6.588   1.032   5.092
 1188SOL     OW 4462   1.321   0.266   5.388
 1188SOL    HW1 4463   1.342   0.344   5.330
 1188SOL    HW2 4464   1.225   0.272   5.418
 1189SOL     OW 4465   6.917   0.890   2.012
 1189SOL    HW1 4466   7.010   0.875   2.044
 1189SOL    HW2 4467   6.869   0.802   2.008
 1190SOL     OW 4468   4.307   4.748   3.084
 1190SOL    HW1 4469   4.341   4.796   3.165
 1190SOL    HW2 4470   4.374   4.757   3.010
 1191SOL     OW 4471   3.601   5.258   6.624
 1191SOL    HW1 4472   3.685   5.227   6.579
 1191SOL    HW2 4473   3.522   5.223   6.574
 1192SOL     OW 4474   4.553   4.943   2.296
 1192SOL    HW1 4475   4.577   4.870   2.231
 1192SOL    HW2 4476   4.455   4.961   2.290
 1193SOL     OW 4477   4.215   6.792   3.791
 1193SOL    HW1 4478   4.124   6.799   3.750
 1193SOL    HW2 4479   4.235   6.696   3.812
 1194SOL     OW 4480   6.351   0.118   0.887
 1194SOL    HW1 4481   6.408   0.174   0.826
 1194SOL    HW2 4482   6.347   0.161   0.977
 1195SOL     OW 4483   3.943   0.420   6.632
 1195SOL    HW1 4484   3.874   0.483   6.599
 1195SOL    HW2 4485   4.028   0.470   6.651
 1196SOL     OW 4486   6.898   5.322   2.518
 1196SOL    HW1 4487   6.889   5.287   2.611
 1196SOL    HW2 4488   6.845   5.265   2.456
 1197SOL     OW 4489   3.174   5.168   5.694
 1197SOL    HW1 4490   3.176   5.069   5.707
 1197SOL    HW2 4491   3.205   5.214   5.777
 1198SOL     OW 4492   3.056   1.621   2.863
 1198SOL    HW1 4493   3.102   1.601   2.949
 1198SOL    HW2 4494   3.040   1.719   2.855
 1199SOL     OW 4495   3.708   4.102   3.430
 1199SOL    HW1 4496   3.696   4.163   3.352
 1199SOL    HW2 4497   3.799   4.061   3.428
 1200SOL     OW 4498   3.808   4.674   0.243
 1200SOL    HW1 4499   3.858   4.590   0.223
 1200SOL    HW2 4500   3.772   4.669   0.337
 1201SOL     OW 4501   1.297   0.898   4.563
 1201SOL    HW1 4502   1.297   0.845   4.478
 1201SOL    HW2 4503   1.328   0.991   4.544
 1202SOL     OW 4504   6.004   0.306   4.901
 1202SOL    HW1 4505   6.089   0.330   4.855
 1202SOL    HW2 4506   6.019   0.303   5.000
 1203SOL     OW 4507   5.922   6.827   1.907
 1203SOL    HW1 4508   6.005   6.772   1.918
 1203SOL    HW2 4509   5.946   6.924   1.910
 1204SOL     OW 4510   3.256   0.577   0.612
 1204SOL    HW1 4511   3.260   0.546   0.517
 1204SOL    HW2 4512   3.165   0.559   0.649
 1205SOL     OW 4513   0.237   2.344   4.936
 1205SOL    HW1 4514   0.274   2.377   4.849
 1205SOL    HW2 4515   0.240   2.244   4.937
 1206SOL     OW 4516   1.006   1.581   4.677
 1206SOL    HW1 4517   0.942   1.606   4.750
 1206SOL    HW2 4518   0.979   1.626   4.592
 1207SOL     OW 4519   5.495   6.095   0.099
 1207SOL    HW1 4520   5.486   6.026   0.027
 1207SOL    HW2 4521   5.446   6.178   0.071
 1208SOL     OW 4522   3.825   3.903   3.772
 1208SOL    HW1 4523   3.847   3.938   3.863
 1208SOL    HW2 4524   3.902   3.849   3.737
 1209SOL     OW 4525   6.285   5.181   4.229
 1209SOL    HW1 4526   6.246   5.209   4.141
 1209SOL    HW2 4527   6.305   5.263   4.283
 1210SOL     OW 4528   2.987   6.822   2.797
 1210SOL    HW1 4529   3.023   6.835   2.705
 1210SOL    HW2 4530   2.933   6.902   2.824
 1211SOL     OW 4531   1.478   3.520   4.554
 1211SOL    HW1 4532   1.394   3.512   4.499
 1211SOL    HW2 4533   1.474   3.604   4.608
 1212SOL     OW 4534   2.195   4.028   4.431
 1212SOL    HW1 4535   2.216   3.931   4.421
 1212SOL    HW2 4536   2.179   4.048   4.528
 1213SOL     OW 4537   6.195   2.858   5.699
 1213SOL    HW1 4538   6.156   2.769   5.723
 1213SOL    HW2 4539   6.264   2.883   5.767
 1214SOL     OW 4540   2.013   2.544   3.077
 1214SOL    HW1 4541   2.008   2.568   2.980
 1214SOL    HW2 4542   2.104   2.507   3.098
 1215SOL     OW 4543   0.711   5.042   1.483
 1215SOL    HW1 4544   0.809   5.056   1.468
 1215SOL    HW2 4545   0.695   5.015   1.578
 1216SOL     OW 4546   2.883   0.046   2.059
 1216SOL    HW1 4547   2.862   0.010   1.968
 1216SOL    HW2 4548   2.978   0.077   2.061
 1217SOL     OW 4549   1.321   1.192   2.543
 1217SOL    HW1 4550   1.307   1.133   2.463
 1217SOL    HW2 4551   1.380   1.145   2.609
 1218SOL     OW 4552   0.577   3.475   4.093
 1218SOL    HW1 4553   0.502   3.512   4.147
 1218SOL    HW2 4554   0.564   3.497   3.997
 1219SOL     OW 4555   2.828   5.989   2.811
 1219SOL    HW1 4556   2.828   6.089   2.813
 1219SOL    HW2 4557   2.805   5.957   2.719
 1220SOL     OW 4558   6.712   3.962   2.848
 1220SOL    HW1 4559   6.766   3.946   2.931
 1220SOL    HW2 4560   6.663   4.048   2.857
 1221SOL     OW 4561   5.073   3.216   0.052
 1221SOL    HW1 4562   5.094   3.120   0.073
 1221SOL    HW2 4563   4.977   3.234   0.073
 1222SOL     OW 4564   6.281   6.537   1.213
 1222SOL    HW1 4565   6.370   6.581   1.228
 1222SOL    HW2 4566   6.253   6.490   1.296
 1223SOL     OW 4567   6.208   6.075   5.336
 1223SOL    HW1 4568   6.170   6.157   5.293
 1223SOL    HW2 4569   6.240   6.012   5.265
 1224SOL     OW 4570   5.555   5.026   2.114
 1224SOL    HW1 4571   5.640   5.027   2.167
 1224SOL    HW2 4572   5.478   5.047   2.175
 1225SOL     OW 4573   4.840   1.443   0.173
 1225SOL    HW1 4574   4.872   1.387   0.249
 1225SOL    HW2 4575   4.742   1.429   0.160
 1226SOL     OW 4576   5.230   4.736   0.214
 1226SOL    HW1 4577   5.329   4.723   0.210
 1226SOL    HW2 4578   5.199   4.782   0.130
 1227SOL     OW 4579   5.089   4.438   6.751
 1227SOL    HW1 4580   5.025   4.397   6.686
 1227SOL    HW2 4581   5.134   4.365   6.803
 1228SOL     OW 4582   3.908   3.261   3.848
 1228SOL    HW1 4583   3.969   3.248   3.770
 1228SOL    HW2 4584   3.904   3.177   3.902
 1229SOL     OW 4585   1.663   5.580   3.206
 1229SOL    HW1 4586   1.630   5.499   3.255
 1229SOL    HW2 4587   1.762   5.572   3.194
 1230SOL     OW 4588   5.532   4.642   1.497
 1230SOL    HW1 4589   5.539   4.741   1.487
 1230SOL    HW2 4590   5.598   4.598   1.436
 1231SOL     OW 4591   1.819   1.963   6.895
 1231SOL    HW1 4592   1.849   1.886   6.839
 1231SOL    HW2 4593   1.736   1.938   6.945
 1232SOL     OW 4594   2.633   0.617   5.155
 1232SOL    HW1 4595   2.676   0.589   5.069
 1232SOL    HW2 4596   2.535   0.596   5.151
 1233SOL     OW 4597   0.926   5.612   5.430
 1233SOL    HW1 4598   0.944   5.605   5.332
 1233SOL    HW2 4599   0.992   5.675   5.471
 1234SOL     OW 4600   6.752   3.460   0.375
 1234SOL    HW1 4601   6.721   3.369   0.406
 1234SOL    HW2 4602   6.842   3.452   0.334
 1235SOL     OW 4603   6.100   4.646   1.399
 1235SOL    HW1 4604   6.182   4.702   1.384
 1235SOL    HW2 4605   6.106   4.562   1.345
 1236SOL     OW 4606   1.779   1.484   2.763
 1236SOL    HW1 4607   1.855   1.446   2.710
 1236SOL    HW2 4608   1.741   1.564   2.715
 1237SOL     OW 4609   0.423   6.693   5.148
 1237SOL    HW1 4610   0.431   6.791   5.167
 1237SOL    HW2 4611   0.393   6.645   5.231
 1238SOL     OW 4612   0.546   0.481   4.640
 1238SOL    HW1 4613   0.460   0.531   4.638
 1238SOL    HW2 4614   0.558   0.438   4.729
 1239SOL     OW 4615   5.498   5.241   4.500
 1239SOL    HW1 4616   5.520   5.209   4.592
 1239SOL    HW2 4617   5.408   5.207   4.474
 1240SOL     OW 4618   0.557   3.944   2.482
 1240SOL    HW1 4619   0.523   4.037   2.496
 1240SOL    HW2 4620   0.482   3.879   2.496
 1241SOL     OW 4621   4.387   4.928   5.045
 1241SOL    HW1 4622   4.425   4.955   5.133
 1241SOL    HW2 4623   4.430   4.843   5.014
 1242SOL     OW 4624   2.088   5.022   0.843
 1242SOL    HW1 4625   2.081   4.928   0.809
 1242SOL    HW2 4626   1.996   5.062   0.850
 1243SOL     OW 4627   1.057   3.938   5.332
 1243SOL    HW1 4628   1.102   3.935   5.243
 1243SOL    HW2 4629   1.107   3.879   5.396
 1244SOL     OW 4630   5.893   0.227   5.443
 1244SOL    HW1 4631   5.801   0.217   5.405
 1244SOL    HW2 4632   5.930   0.317   5.418
 1245SOL     OW 4633   4.581   6.227   1.319
 1245SOL    HW1 4634   4.605   6.231   1.222
 1245SOL    HW2 4635   4.496   6.278   1.334
 1246SOL     OW 4636   4.622   0.460   0.574
 1246SOL    HW1 4637   4.603   0.501   0.664
 1246SOL    HW2 4638   4.571   0.509   0.504
 1247SOL     OW 4639   6.563   0.208   3.095
 1247SOL    HW1 4640   6.559   0.150   3.176
 1247SOL    HW2 4641   6.629   0.170   3.030
 1248SOL     OW 4642   1.382   6.490   4.855
 1248SOL    HW1 4643   1.442   6.549   4.909
 1248SOL    HW2 4644   1.430   6.459   4.773
 1249SOL     OW 4645   5.238   5.697   6.629
 1249SOL    HW1 4646   5.206   5.784   6.668
 1249SOL    HW2 4647   5.296   5.650   6.695
 1250SOL     OW 4648   6.718   3.232   4.996
 1250SOL    HW1 4649   6.759   3.322   5.010
 1250SOL    HW2 4650   6.747   3.171   5.070
 1251SOL     OW 4651   2.791   0.601   2.573
 1251SOL    HW1 4652   2.877   0.620   2.525
 1251SOL    HW2 4653   2.773   0.673   2.640
 1252SOL     OW 4654   1.897   6.196   6.267
 1252SOL    HW1 4655   1.830   6.123   6.262
 1252SOL    HW2 4656   1.981   6.168   6.220
 1253SOL     OW 4657   2.889   0.193   0.405
 1253SOL    HW1 4658   2.907   0.235   0.494
 1253SOL    HW2 4659   2.963   0.216   0.342
 1254SOL     OW 4660   5.983   0.285   2.977
 1254SOL    HW1 4661   5.955   0.189   2.979
 1254SOL    HW2 4662   6.039   0.305   3.057
 1255SOL     OW 4663   5.627   1.821   5.768
 1255SOL    HW1 4664   5.544   1.833   5.822
 1255SOL    HW2 4665   5.623   1.881   5.688
 1256SOL     OW 4666   0.919   5.154   4.545
 1256SOL    HW1 4667   0.911   5.233   4.484
 1256SOL    HW2 4668   0.870   5.172   4.630
 1257SOL     OW 4669   0.939   6.323   3.797
 1257SOL    HW1 4670   0.964   6.367   3.711
 1257SOL    HW2 4671   1.010   6.257   3.823
 1258SOL     OW 4672   4.344   6.124   5.445
 1258SOL    HW1 4673   4.389   6.037   5.426
 1258SOL    HW2 4674   4.292   6.117   5.529
 1259SOL     OW 4675   5.739   0.296   4.837
 1259SOL    HW1 4676   5.830   0.322   4.868
 1259SOL    HW2 4677   5.676   0.296   4.914
 1260SOL     OW 4678   2.595   1.400   1.553
 1260SOL    HW1 4679   2.548   1.441   1.631
 1260SOL    HW2 4680   2.676   1.453   1.530
 1261SOL     OW 4681   6.332   4.339   5.933
 1261SOL    HW1 4682   6.242   4.363   5.970
 1261SOL    HW2 4683   6.401   4.346   6.006
 1262SOL     OW 4684   4.051   4.977   0.920
 1262SOL    HW1 4685   3.984   4.903   0.922
 1262SOL    HW2 4686   4.068   5.004   0.825
 1263SOL     OW 4687   6.907   2.193   1.332
 1263SOL    HW1 4688   7.005   2.198   1.350
 1263SOL    HW2 4689   6.859   2.169   1.417
 1264SOL     OW 4690   0.224   3.332   4.140
 1264SOL    HW1 4691   0.137   3.309   4.183
 1264SOL    HW2 4692   0.278   3.248   4.128
 1265SOL     OW 4693   6.627   5.252   4.812
 1265SOL    HW1 4694   6.673   5.324   4.863
 1265SOL    HW2 4695   6.651   5.257   4.715
 1266SOL     OW 4696   1.832   1.605   4.470
 1266SOL    HW1 4697   1.863   1.599   4.565
 1266SOL    HW2 4698   1.736   1.634   4.467
 1267SOL     OW 4699   6.761   4.851   2.260
 1267SOL    HW1 4700   6.711   4.825   2.343
 1267SOL    HW2 4701   6.799   4.942   2.271
 1268SOL     OW 4702   6.604   3.280   0.131
 1268SOL    HW1 4703   6.546   3.232   0.198
 1268SOL    HW2 4704   6.699   3.275   0.160
 1269SOL     OW 4705   6.969   5.427   6.021
 1269SOL    HW1 4706   6.930   5.517   6.042
 1269SOL    HW2 4707   6.991   5.379   6.105
 1270SOL     OW 4708   1.322   3.111   4.868
 1270SOL    HW1 4709   1.276   3.072   4.948
 1270SOL    HW2 4710   1.412   3.143   4.895
 1271SOL     OW 4711   5.319   2.019   2.859
 1271SOL    HW1 4712   5.228   2.018   2.901
 1271SOL    HW2 4713   5.322   1.952   2.785
 1272SOL     OW 4714   0.583   6.231   1.568
 1272SOL    HW1 4715   0.498   6.197   1.527
 1272SOL    HW2 4716   0.612   6.168   1.641
 1273SOL     OW 4717   2.846   6.782   6.220
 1273SOL    HW1 4718   2.942   6.794   6.245
 1273SOL    HW2 4719   2.796   6.740   6.296
 1274SOL     OW 4720   6.276   3.075   1.594
 1274SOL    HW1 4721   6.375   3.067   1.583
 1274SOL    HW2 4722   6.256   3.122   1.680
 1275SOL     OW 4723   3.735   1.674   3.758
 1275SOL    HW1 4724   3.692   1.584   3.766
 1275SOL    HW2 4725   3.761   1.690   3.662
 1276SOL     OW 4726   6.205   0.447   3.907
 1276SOL    HW1 4727   6.301   0.430   3.887
 1276SOL    HW2 4728   6.198   0.524   3.971
 1277SOL     OW 4729   0.440   1.020   5.160
 1277SOL    HW1 4730   0.525   0.980   5.126
 1277SOL    HW2 4731   0.417   0.980   5.248
 1278SOL     OW 4732   2.187   1.806   5.475
 1278SOL    HW1 4733   2.266   1.748   5.492
 1278SOL    HW2 4734   2.110   1.751   5.443
 1279SOL     OW 4735   2.383   5.457   6.546
 1279SOL    HW1 4736   2.364   5.369   6.502
 1279SOL    HW2 4737   2.482   5.467   6.559
 1280SOL     OW 4738   1.963   6.908   3.398
 1280SOL    HW1 4739   1.989   6.811   3.395
 1280SOL    HW2 4740   1.880   6.921   3.343
 1281SOL     OW 4741   1.141   6.610   3.760
 1281SOL    HW1 4742   1.076   6.667   3.810
 1281SOL    HW2 4743   1.205   6.568   3.824
 1282SOL     OW 4744   1.300   0.266   2.153
 1282SOL    HW1 4745   1.300   0.278   2.054
 1282SOL    HW2 4746   1.370   0.199   2.178
 1283SOL     OW 4747   5.280   5.533   6.150
 1283SOL    HW1 4748   5.368   5.540   6.197
 1283SOL    HW2 4749   5.220   5.607   6.180
 1284SOL     OW 4750   2.715   2.123   1.748
 1284SOL    HW1 4751   2.774   2.197   1.716
 1284SOL    HW2 4752   2.698   2.134   1.846
 1285SOL     OW 4753   4.643   2.440   5.591
 1285SOL    HW1 4754   4.688   2.403   5.673
 1285SOL    HW2 4755   4.711   2.483   5.532
 1286SOL     OW 4756   6.575   5.146   1.682
 1286SOL    HW1 4757   6.527   5.104   1.605
 1286SOL    HW2 4758   6.594   5.242   1.661
 1287SOL     OW 4759   6.880   4.838   6.291
 1287SOL    HW1 4760   6.935   4.816   6.210
 1287SOL    HW2 4761   6.796   4.884   6.262
 1288SOL     OW 4762   6.352   3.013   2.483
 1288SOL    HW1 4763   6.334   3.000   2.386
 1288SOL    HW2 4764   6.448   3.039   2.496
 1289SOL     OW 4765   0.060   6.535   3.067
 1289SOL    HW1 4766   0.076   6.516   2.970
 1289SOL    HW2 4767   0.128   6.486   3.122
 1290SOL     OW 4768   0.779   6.397   1.568
 1290SOL    HW1 4769   0.700   6.336   1.567
 1290SOL    HW2 4770   0.857   6.350   1.609
 1291SOL     OW 4771   2.333   6.244   0.347
 1291SOL    HW1 4772   2.247   6.244   0.399
 1291SOL    HW2 4773   2.353   6.337   0.317
 1292SOL     OW 4774   0.982   5.803   0.485
 1292SOL    HW1 4775   1.066   5.783   0.434
 1292SOL    HW2 4776   0.922   5.723   0.484
 1293SOL     OW 4777   0.186   2.378   5.806
 1293SOL    HW1 4778   0.256   2.307   5.812
 1293SOL    HW2 4779   0.196   2.441   5.884
 1294SOL     OW 4780   0.350   2.144   2.590
 1294SOL    HW1 4781   0.266   2.089   2.591
 1294SOL    HW2 4782   0.348   2.208   2.666
 1295SOL     OW 4783   6.128   2.992   1.366
 1295SOL    HW1 4784   6.197   3.028   1.304
 1295SOL    HW2 4785   6.155   3.009   1.461
 1296SOL     OW 4786   4.074   2.282   6.159
 1296SOL    HW1 4787   4.014   2.202   6.159
 1296SOL    HW2 4788   4.023   2.363   6.188
 1297SOL     OW 4789   6.288   1.339   6.141
 1297SOL    HW1 4790   6.210   1.335   6.079
 1297SOL    HW2 4791   6.355   1.269   6.114
 1298SOL     OW 4792   5.685   3.375   3.332
 1298SOL    HW1 4793   5.677   3.371   3.233
 1298SOL    HW2 4794   5.745   3.301   3.364
 1299SOL     OW 4795   1.068   4.218   3.956
 1299SOL    HW1 4796   1.153   4.174   3.928
 1299SOL    HW2 4797   0.991   4.157   3.940
 1300SOL     OW 4798   3.110   3.470   1.685
 1300SOL    HW1 4799   3.184   3.414   1.721
 1300SOL    HW2 4800   3.058   3.417   1.617
 1301SOL     OW 4801   0.557   0.100   2.931
 1301SOL    HW1 4802   0.555   0.140   2.839
 1301SOL    HW2 4803   0.648   0.112   2.970
 1302SOL     OW 4804   2.832   6.100   4.811
 1302SOL    HW1 4805   2.770   6.042   4.863
 1302SOL    HW2 4806   2.909   6.045   4.779
 1303SOL     OW 4807   4.109   1.679   1.122
 1303SOL    HW1 4808   4.205   1.651   1.116
 1303SOL    HW2 4809   4.067   1.671   1.031
 1304SOL     OW 4810   2.366   0.746   6.757
 1304SOL    HW1 4811   2.408   0.768   6.669
 1304SOL    HW2 4812   2.323   0.828   6.796
 1305SOL     OW 4813   4.634   6.611   5.058
 1305SOL    HW1 4814   4.599   6.694   5.101
 1305SOL    HW2 4815   4.712   6.634   5.000
 1306SOL     OW 4816   1.122   4.691   4.184
 1306SOL    HW1 4817   1.132   4.622   4.112
 1306SOL    HW2 4818   1.150   4.653   4.272
 1307SOL     OW 4819   1.470   2.009   4.576
 1307SOL    HW1 4820   1.473   1.927   4.634
 1307SOL    HW2 4821   1.533   1.998   4.500
 1308SOL     OW 4822   5.300   6.055   3.001
 1308SOL    HW1 4823   5.307   6.127   2.932
 1308SOL    HW2 4824   5.388   6.047   3.049
 1309SOL     OW 4825   5.519   3.001   4.616
 1309SOL    HW1 4826   5.604   2.949   4.621
 1309SOL    HW2 4827   5.442   2.941   4.635
 1310SOL     OW 4828   4.700   3.725   5.391
 1310SOL    HW1 4829   4.700   3.680   5.481
 1310SOL    HW2 4830   4.648   3.670   5.326
 1311SOL     OW 4831   5.724   5.990   5.339
 1311SOL    HW1 4832   5.627   6.013   5.344
 1311SOL    HW2 4833   5.734   5.890   5.334
 1312SOL     OW 4834   1.124   6.820   0.757
 1312SOL    HW1 4835   1.105   6.768   0.673
 1312SOL    HW2 4836   1.125   6.918   0.736
 1313SOL     OW 4837   3.489   5.187   5.196
 1313SOL    HW1 4838   3.443   5.182   5.285
 1313SOL    HW2 4839   3.574   5.134   5.199
 1314SOL     OW 4840   6.710   1.428   4.621
 1314SOL    HW1 4841   6.680   1.521   4.600
 1314SOL    HW2 4842   6.727   1.378   4.536
 1315SOL     OW 4843   1.945   1.319   2.451
 1315SOL    HW1 4844   1.966   1.221   2.461
 1315SOL    HW2 4845   1.961   1.346   2.356
 1316SOL     OW 4846   3.238   6.836   2.472
 1316SOL    HW1 4847   3.234   6.932   2.448
 1316SOL    HW2 4848   3.330   6.800   2.451
 1317SOL     OW 4849   0.150   5.825   3.909
 1317SOL    HW1 4850   0.185   5.912   3.874
 1317SOL    HW2 4851   0.050   5.828   3.910
 1318SOL     OW 4852   6.861   6.623   0.490
 1318SOL    HW1 4853   6.828   6.717   0.487
 1318SOL    HW2 4854   6.927   6.613   0.564
 1319SOL     OW 4855   6.297   0.705   6.891
 1319SOL    HW1 4856   6.209   0.691   6.844
 1319SOL    HW2 4857   6.357   0.760   6.832
 1320SOL     OW 4858   5.367   5.183   6.567
 1320SOL    HW1 4859   5.403   5.124   6.495
 1320SOL    HW2 4860   5.285   5.231   6.535
 1321SOL     OW 4861   3.849   2.362   6.768
 1321SOL    HW1 4862   3.825   2.292   6.701
 1321SOL    HW2 4863   3.854   2.321   6.859
 1322SOL     OW 4864   6.157   1.672   4.836
 1322SOL    HW1 4865   6.192   1.697   4.746
 1322SOL    HW2 4866   6.069   1.718   4.852
 1323SOL     OW 4867   6.389   1.726   4.953
 1323SOL    HW1 4868   6.436   1.786   4.887
 1323SOL    HW2 4869   6.291   1.732   4.939
 1324SOL     OW 4870   1.683   3.567   0.890
 1324SOL    HW1 4871   1.681   3.502   0.814
 1324SOL    HW2 4872   1.602   3.626   0.886
 1325SOL     OW 4873   3.238   6.061   2.449
 1325SOL    HW1 4874   3.325   6.021   2.477
 1325SOL    HW2 4875   3.254   6.146   2.399
 1326SOL     OW 4876   5.655   3.415   4.122
 1326SOL    HW1 4877   5.744   3.432   4.079
 1326SOL    HW2 4878   5.616   3.331   4.085
 1327SOL     OW 4879   3.221   5.226   3.224
 1327SOL    HW1 4880   3.301   5.168   3.236
 1327SOL    HW2 4881   3.146   5.172   3.187
 1328SOL     OW 4882   1.706   2.500   6.523
 1328SOL    HW1 4883   1.691   2.537   6.615
 1328SOL    HW2 4884   1.641   2.426   6.506
 1329SOL     OW 4885   0.798   0.159   0.591
 1329SOL    HW1 4886   0.789   0.060   0.599
 1329SOL    HW2 4887   0.731   0.193   0.525
 1330SOL     OW 4888   5.763   6.281   1.062
 1330SOL    HW1 4889   5.689   6.287   1.128
 1330SOL    HW2 4890   5.851   6.281   1.110
 1331SOL     OW 4891   5.836   0.312   1.802
 1331SOL    HW1 4892   5.794   0.235   1.754
 1331SOL    HW2 4893   5.779   0.336   1.881
 1332SOL     OW 4894   4.465   1.454   1.801
 1332SOL    HW1 4895   4.467   1.490   1.894
 1332SOL    HW2 4896   4.556   1.462   1.760
 1333SOL     OW 4897   3.523   4.542   5.340
 1333SOL    HW1 4898   3.612   4.499   5.354
 1333SOL    HW2 4899   3.530   4.640   5.356
 1334SOL     OW 4900   0.120   3.963   4.630
 1334SOL    HW1 4901   0.110   4.057   4.660
 1334SOL    HW2 4902   0.217   3.943   4.611
 1335SOL     OW 4903   2.754   4.993   2.954
 1335SOL    HW1 4904   2.688   4.945   3.011
 1335SOL    HW2 4905   2.708   5.063   2.899
 1336SOL     OW 4906   0.040   0.733   5.159
 1336SOL    HW1 4907   0.055   0.674   5.238
 1336SOL    HW2 4908   0.084   0.821   5.174
 1337SOL     OW 4909   2.226   1.775   5.933
 1337SOL    HW1 4910   2.169   1.855   5.915
 1337SOL    HW2 4911   2.322   1.804   5.942
 1338SOL     OW 4912   3.917   5.372   0.585
 1338SOL    HW1 4913   3.962   5.337   0.667
 1338SOL    HW2 4914   3.827   5.328   0.576
 1339SOL     OW 4915   0.037   4.454   5.690
 1339SOL    HW1 4916   0.111   4.451   5.622
 1339SOL    HW2 4917   0.018   4.549   5.715
 1340SOL     OW 4918   1.791   1.781   6.179
 1340SOL    HW1 4919   1.878   1.828   6.170
 1340SOL    HW2 4920   1.734   1.828   6.247
 1341SOL     OW 4921   4.322   1.458   3.217
 1341SOL    HW1 4922   4.294   1.377   3.269
 1341SOL    HW2 4923   4.264   1.535   3.241
 1342SOL     OW 4924   0.344   6.416   0.653
 1342SOL    HW1 4925   0.292   6.386   0.733
 1342SOL    HW2 4926   0.373   6.511   0.665
 1343SOL     OW 4927   4.134   4.956   3.475
 1343SOL    HW1 4928   4.122   4.990   3.382
 1343SOL    HW2 4929   4.126   5.032   3.540
 1344SOL     OW 4930   6.646   0.988   2.607
 1344SOL    HW1 4931   6.579   0.933   2.558
 1344SOL    HW2 4932   6.641   1.083   2.576
 1345SOL     OW 4933   0.626   0.064   3.493
 1345SOL    HW1 4934   0.592   0.113   3.413
 1345SOL    HW2 4935   0.717   0.098   3.517
 1346SOL     OW 4936   0.307   1.051   3.925
 1346SOL    HW1 4937   0.392   1.094   3.893
 1346SOL    HW2 4938   0.304   1.053   4.025
 1347SOL     OW 4939   5.817   0.637   3.099
 1347SOL    HW1 4940   5.778   0.555   3.056
 1347SOL    HW2 4941   5.909   0.653   3.063
 1348SOL     OW 4942   5.233   4.372   5.013
 1348SOL    HW1 4943   5.137   4.391   4.993
 1348SOL    HW2 4944   5.288   4.453   4.991
 1349SOL     OW 4945   4.245   3.094   6.846
 1349SOL    HW1 4946   4.207   3.155   6.777
 1349SOL    HW2 4947   4.243   3.140   6.935
 1350SOL     OW 4948   3.117   0.724   6.083
 1350SOL    HW1 4949   3.193   0.757   6.139
 1350SOL    HW2 4950   3.030   0.758   6.120
 1351SOL     OW 4951   0.742   0.910   4.753
 1351SOL    HW1 4952   0.715   0.898   4.848
 1351SOL    HW2 4953   0.813   0.979   4.747
 1352SOL     OW 4954   0.325   0.932   3.306
 1352SOL    HW1 4955   0.297   0.967   3.217
 1352SOL    HW2 4956   0.361   1.007   3.362
 1353SOL     OW 4957   1.417   4.193   3.787
 1353SOL    HW1 4958   1.487   4.180   3.716
 1353SOL    HW2 4959   1.449   4.260   3.854
 1354SOL     OW 4960   0.653   0.068   1.841
 1354SOL    HW1 4961   0.681   6.999   1.820
 1354SOL    HW2 4962   0.671   0.087   1.938
 1355SOL     OW 4963   4.807   3.097   6.842
 1355SOL    HW1 4964   4.892   3.046   6.852
 1355SOL    HW2 4965   4.827   3.189   6.808
 1356SOL     OW 4966   3.106   4.032   2.507
 1356SOL    HW1 4967   3.084   3.996   2.416
 1356SOL    HW2 4968   3.023   4.071   2.548
 1357SOL     OW 4969   2.914   3.022   5.290
 1357SOL    HW1 4970   2.831   2.994   5.337
 1357SOL    HW2 4971   2.990   3.027   5.355
 1358SOL     OW 4972   2.069   2.389   5.702
 1358SOL    HW1 4973   2.076   2.305   5.647
 1358SOL    HW2 4974   2.148   2.448   5.682
 1359SOL     OW 4975   6.708   1.019   0.254
 1359SOL    HW1 4976   6.634   1.034   0.189
 1359SOL    HW2 4977   6.762   0.940   0.225
 1360SOL     OW 4978   3.456   3.895   4.783
 1360SOL    HW1 4979   3.487   3.846   4.701
 1360SOL    HW2 4980   3.456   3.994   4.764
 1361SOL     OW 4981   0.569   6.180   0.695
 1361SOL    HW1 4982   0.500   6.114   0.727
 1361SOL    HW2 4983   0.660   6.140   0.705
 1362SOL     OW 4984   3.276   3.045   6.415
 1362SOL    HW1 4985   3.228   2.997   6.341
 1362SOL    HW2 4986   3.358   2.994   6.441
 1363SOL     OW 4987   5.799   6.489   2.272
 1363SOL    HW1 4988   5.757   6.489   2.181
 1363SOL    HW2 4989   5.846   6.403   2.287
 1364SOL     OW 4990   0.546   3.283   1.352
 1364SOL    HW1 4991   0.537   3.268   1.253
 1364SOL    HW2 4992   0.627   3.339   1.369
 1365SOL     OW 4993   1.029   3.643   5.951
 1365SOL    HW1 4994   1.019   3.548   5.920
 1365SOL    HW2 4995   0.939   3.687   5.951
 1366SOL     OW 4996   5.658   0.685   0.899
 1366SOL    HW1 4997   5.607   0.601   0.918
 1366SOL    HW2 4998   5.620   0.730   0.818
 1367SOL     OW 4999   0.793   5.983   4.296
 1367SOL    HW1 5000   0.744   5.899   4.318
 1367SOL    HW2 5001   0.780   6.050   4.370
 1368SOL     OW 5002   0.901   6.187   5.686
 1368SOL    HW1 5003   0.971   6.239   5.734
 1368SOL    HW2 5004   0.944   6.117   5.629
 1369SOL     OW 5005   3.108   6.495   3.117
 1369SOL    HW1 5006   3.135   6.429   3.046
 1369SOL    HW2 5007   3.012   6.521   3.104
 1370SOL     OW 5008   6.234   2.556   2.833
 1370SOL    HW1 5009   6.154   2.594   2.786
 1370SOL    HW2 5010   6.226   2.573   2.931
 1371SOL     OW 5011   5.984   1.639   5.417
 1371SOL    HW1 5012   5.957   1.555   5.464
 1371SOL    HW2 5013   5.954   1.635   5.321
 1372SOL     OW 5014   6.314   2.891   0.266
 1372SOL    HW1 5015   6.371   2.814   0.294
 1372SOL    HW2 5016   6.304   2.891   0.166
 1373SOL     OW 5017   5.202   2.784   2.071
 1373SOL    HW1 5018   5.140   2.860   2.055
 1373SOL    HW2 5019   5.196   2.755   2.167
 1374SOL     OW 5020   4.081   4.141   0.123
 1374SOL    HW1 5021   3.984   4.164   0.134
 1374SOL    HW2 5022   4.107   4.075   0.193
 1375SOL     OW 5023   5.423   5.734   4.270
 1375SOL    HW1 5024   5.475   5.751   4.353
 1375SOL    HW2 5025   5.445   5.804   4.202
 1376SOL     OW 5026   2.874   4.970   5.854
 1376SOL    HW1 5027   2.903   4.970   5.950
 1376SOL    HW2 5028   2.906   4.886   5.811
 1377SOL     OW 5029   1.886   1.330   3.192
 1377SOL    HW1 5030   1.810   1.380   3.150
 1377SOL    HW2 5031   1.853   1.242   3.226
 1378SOL     OW 5032   4.869   2.505   4.201
 1378SOL    HW1 5033   4.856   2.470   4.109
 1378SOL    HW2 5034   4.800   2.576   4.220
 1379SOL     OW 5035   4.897   5.550   1.121
 1379SOL    HW1 5036   4.953   5.473   1.151
 1379SOL    HW2 5037   4.878   5.610   1.199
 1380SOL     OW 5038   6.817   5.732   1.989
 1380SOL    HW1 5039   6.746   5.673   2.029
 1380SOL    HW2 5040   6.892   5.675   1.954
 1381SOL     OW 5041   6.053   2.171   5.724
 1381SOL    HW1 5042   6.111   2.252   5.730
 1381SOL    HW2 5043   5.963   2.191   5.764
 1382SOL     OW 5044   4.776   2.390   0.299
 1382SOL    HW1 5045   4.826   2.336   0.367
 1382SOL    HW2 5046   4.678   2.389   0.322
 1383SOL     OW 5047   0.408   1.166   2.062
 1383SOL    HW1 5048   0.480   1.210   2.116
 1383SOL    HW2 5049   0.432   1.172   1.965
 1384SOL     OW 5050   6.149   1.525   1.882
 1384SOL    HW1 5051   6.109   1.588   1.816
 1384SOL    HW2 5052   6.087   1.448   1.897
 1385SOL     OW 5053   1.148   5.746   1.917
 1385SOL    HW1 5054   1.052   5.763   1.895
 1385SOL    HW2 5055   1.171   5.651   1.899
 1386SOL     OW 5056   2.456   6.015   4.474
 1386SOL    HW1 5057   2.491   5.926   4.503
 1386SOL    HW2 5058   2.472   6.082   4.546
 1387SOL     OW 5059   3.254   5.707   2.286
 1387SOL    HW1 5060   3.212   5.632   2.235
 1387SOL    HW2 5061   3.354   5.696   2.285
 1388SOL     OW 5062   6.765   0.202   1.607
 1388SOL    HW1 5063   6.849   0.199   1.661
 1388SOL    HW2 5064   6.789   0.200   1.510
 1389SOL     OW 5065   6.162   1.199   2.622
 1389SOL    HW1 5066   6.217   1.229   2.544
 1389SOL    HW2 5067   6.148   1.100   2.618
 1390SOL     OW 5068   0.076   2.196   6.049
 1390SOL    HW1 5069   0.024   2.197   5.964
 1390SOL    HW2 5070   0.016   2.171   6.124
 1391SOL     OW 5071   0.914   3.091   2.623
 1391SOL    HW1 5072   0.837   3.117   2.565
 1391SOL    HW2 5073   0.984   3.047   2.568
 1392SOL     OW 5074   4.946   4.836   5.175
 1392SOL    HW1 5075   5.022   4.775   5.197
 1392SOL    HW2 5076   4.932   4.837   5.076
 1393SOL     OW 5077   3.822   6.504   5.768
 1393SOL    HW1 5078   3.860   6.591   5.798
 1393SOL    HW2 5079   3.750   6.520   5.700
 1394SOL     OW 5080   2.394   6.179   5.502
 1394SOL    HW1 5081   2.433   6.162   5.592
 1394SOL    HW2 5082   2.465   6.167   5.432
 1395SOL     OW 5083   3.507   4.660   5.706
 1395SOL    HW1 5084   3.433   4.602   5.741
 1395SOL    HW2 5085   3.477   4.756   5.706
 1396SOL     OW 5086   5.960   5.881   4.232
 1396SOL    HW1 5087   5.917   5.832   4.157
 1396SOL    HW2 5088   5.895   5.947   4.270
 1397SOL     OW 5089   4.519   5.966   4.964
 1397SOL    HW1 5090   4.486   5.889   4.909
 1397SOL    HW2 5091   4.522   6.049   4.908
 1398SOL     OW 5092   1.427   1.333   4.763
 1398SOL    HW1 5093   1.491   1.259   4.784
 1398SOL    HW2 5094   1.456   1.380   4.680
 1399SOL     OW 5095   3.172   6.429   1.565
 1399SOL    HW1 5096   3.239   6.362   1.597
 1399SOL    HW2 5097   3.082   6.386   1.560
 1400SOL     OW 5098   1.106   0.071   1.448
 1400SOL    HW1 5099   1.029   0.078   1.384
 1400SOL    HW2 5100   1.075   0.030   1.533
 1401SOL     OW 5101   6.866   1.170   4.678
 1401SOL    HW1 5102   6.864   1.238   4.751
 1401SOL    HW2 5103   6.871   1.078   4.717
 1402SOL     OW 5104   6.494   2.707   0.383
 1402SOL    HW1 5105   6.577   2.720   0.436
 1402SOL    HW2 5106   6.473   2.609   0.376
 1403SOL     OW 5107   2.178   0.214   1.891
 1403SOL    HW1 5108   2.157   0.164   1.807
 1403SOL    HW2 5109   2.234   0.293   1.870
 1404SOL     OW 5110   5.593   0.501   0.253
 1404SOL    HW1 5111   5.563   0.487   0.348
 1404SOL    HW2 5112   5.513   0.521   0.195
 1405SOL     OW 5113   2.229   3.538   0.993
 1405SOL    HW1 5114   2.251   3.630   0.958
 1405SOL    HW2 5115   2.252   3.470   0.923
 1406SOL     OW 5116   1.736   4.380   1.159
 1406SOL    HW1 5117   1.733   4.372   1.060
 1406SOL    HW2 5118   1.830   4.370   1.191
 1407SOL     OW 5119   6.600   1.983   2.500
 1407SOL    HW1 5120   6.570   1.895   2.538
 1407SOL    HW2 5121   6.682   2.013   2.547
 1408SOL     OW 5122   5.698   0.443   6.172
 1408SOL    HW1 5123   5.779   0.463   6.227
 1408SOL    HW2 5124   5.623   0.415   6.231
 1409SOL     OW 5125   6.958   0.506   4.457
 1409SOL    HW1 5126   6.981   0.557   4.540
 1409SOL    HW2 5127   0.012   0.506   4.395
 1410SOL     OW 5128   0.298   3.145   7.010
 1410SOL    HW1 5129   0.246   3.066   0.018
 1410SOL    HW2 5130   0.394   3.119   6.998
 1411SOL     OW 5131   1.724   6.640   2.320
 1411SOL    HW1 5132   1.671   6.724   2.336
 1411SOL    HW2 5133   1.710   6.577   2.396
 1412SOL     OW 5134   1.099   2.858   0.923
 1412SOL    HW1 5135   1.111   2.801   0.841
 1412SOL    HW2 5136   1.188   2.890   0.954
 1413SOL     OW 5137   2.446   0.293   4.150
 1413SOL    HW1 5138   2.419   0.378   4.195
 1413SOL    HW2 5139   2.525   0.310   4.090
 1414SOL     OW 5140   2.149   1.631   1.768
 1414SOL    HW1 5141   2.156   1.533   1.748
 1414SOL    HW2 5142   2.087   1.645   1.845
 1415SOL     OW 5143   3.917   6.266   5.715
 1415SOL    HW1 5144   3.893   6.362   5.732
 1415SOL    HW2 5145   3.977   6.260   5.636
 1416SOL     OW 5146   4.373   5.079   2.009
 1416SOL    HW1 5147   4.352   5.040   2.098
 1416SOL    HW2 5148   4.312   5.156   1.991
 1417SOL     OW 5149   2.624   1.688   6.355
 1417SOL    HW1 5150   2.568   1.766   6.384
 1417SOL    HW2 5151   2.578   1.603   6.380
 1418SOL     OW 5152   3.516   4.155   3.049
 1418SOL    HW1 5153   3.468   4.161   3.136
 1418SOL    HW2 5154   3.614   4.153   3.065
 1419SOL     OW 5155   3.953   6.579   4.869
 1419SOL    HW1 5156   3.944   6.600   4.771
 1419SOL    HW2 5157   3.992   6.658   4.916
 1420SOL     OW 5158   1.172   5.684   2.199
 1420SOL    HW1 5159   1.133   5.725   2.116
 1420SOL    HW2 5160   1.115   5.707   2.277
 1421SOL     OW 5161   2.952   2.216   2.255
 1421SOL    HW1 5162   2.955   2.262   2.166
 1421SOL    HW2 5163   2.982   2.121   2.245
 1422SOL     OW 5164   2.251   5.153   0.695
 1422SOL    HW1 5165   2.208   5.092   0.761
 1422SOL    HW2 5166   2.212   5.245   0.705
 1423SOL     OW 5167   5.078   6.830   2.750
 1423SOL    HW1 5168   5.010   6.858   2.818
 1423SOL    HW2 5169   5.037   6.838   2.659
 1424SOL     OW 5170   6.104   5.308   4.823
 1424SOL    HW1 5171   6.201   5.332   4.824
 1424SOL    HW2 5172   6.049   5.391   4.810
 1425SOL     OW 5173   2.071   6.986   3.694
 1425SOL    HW1 5174   2.147   0.024   3.714
 1425SOL    HW2 5175   2.055   6.983   3.595
 1426SOL     OW 5176   1.117   1.548   5.900
 1426SOL    HW1 5177   1.068   1.575   5.983
 1426SOL    HW2 5178   1.058   1.489   5.844
 1427SOL     OW 5179   5.941   0.429   3.852
 1427SOL    HW1 5180   6.040   0.440   3.859
 1427SOL    HW2 5181   5.904   0.405   3.942
 1428SOL     OW 5182   5.560   2.039   6.893
 1428SOL    HW1 5183   5.498   2.098   6.946
 1428SOL    HW2 5184   5.643   2.021   6.946
 1429SOL     OW 5185   0.099   0.832   0.923
 1429SOL    HW1 5186   0.193   0.833   0.957
 1429SOL    HW2 5187   0.067   0.737   0.916
 1430SOL     OW 5188   1.865   4.738   3.049
 1430SOL    HW1 5189   1.770   4.705   3.041
 1430SOL    HW2 5190   1.871   4.831   3.013
 1431SOL     OW 5191   2.818   0.489   1.639
 1431SOL    HW1 5192   2.754   0.563   1.618
 1431SOL    HW2 5193   2.901   0.527   1.679
 1432SOL     OW 5194   2.444   1.297   2.348
 1432SOL    HW1 5195   2.397   1.384   2.336
 1432SOL    HW2 5196   2.454   1.253   2.258
 1433SOL     OW 5197   3.888   0.388   4.014
 1433SOL    HW1 5198   3.806   0.395   3.956
 1433SOL    HW2 5199   3.866   0.419   4.106
 1434SOL     OW 5200   1.008   0.948   5.323
 1434SOL    HW1 5201   0.994   0.923   5.419
 1434SOL    HW2 5202   1.055   1.036   5.318
 1435SOL     OW 5203   6.380   1.884   2.671
 1435SOL    HW1 5204   6.423   1.974   2.682
 1435SOL    HW2 5205   6.446   1.813   2.695
 1436SOL     OW 5206   4.372   3.623   0.320
 1436SOL    HW1 5207   4.300   3.673   0.271
 1436SOL    HW2 5208   4.360   3.636   0.419
 1437SOL     OW 5209   3.268   0.636   2.533
 1437SOL    HW1 5210   3.220   0.705   2.480
 1437SOL    HW2 5211   3.307   0.567   2.472
 1438SOL     OW 5212   2.982   6.363   1.288
 1438SOL    HW1 5213   2.924   6.384   1.366
 1438SOL    HW2 5214   2.968   6.432   1.216
 1439SOL     OW 5215   0.417   6.041   2.510
 1439SOL    HW1 5216   0.486   6.110   2.531
 1439SOL    HW2 5217   0.390   5.994   2.594
 1440SOL     OW 5218   2.690   3.623   0.740
 1440SOL    HW1 5219   2.722   3.626   0.646
 1440SOL    HW2 5220   2.754   3.572   0.796
 1441SOL     OW 5221   6.002   6.669   1.301
 1441SOL    HW1 5222   6.004   6.569   1.306
 1441SOL    HW2 5223   5.909   6.700   1.283
 1442SOL     OW 5224   5.858   5.382   0.605
 1442SOL    HW1 5225   5.798   5.404   0.528
 1442SOL    HW2 5226   5.953   5.377   0.574
 1443SOL     OW 5227   1.728   2.686   2.807
 1443SOL    HW1 5228   1.654   2.622   2.787
 1443SOL    HW2 5229   1.695   2.780   2.792
 1444SOL     OW 5230   6.152   5.648   0.072
 1444SOL    HW1 5231   6.178   5.738   0.107
 1444SOL    HW2 5232   6.054   5.634   0.086
 1445SOL     OW 5233   1.080   3.443   2.562
 1445SOL    HW1 5234   1.177   3.418   2.566
 1445SOL    HW2 5235   1.042   3.443   2.654
 1446SOL     OW 5236   6.358   7.019   6.590
 1446SOL    HW1 5237   6.405   0.057   6.654
 1446SOL    HW2 5238   6.280   6.978   6.636
 1447SOL     OW 5239   6.033   5.052   4.947
 1447SOL    HW1 5240   5.959   5.048   5.014
 1447SOL    HW2 5241   6.062   5.147   4.934
 1448SOL     OW 5242   0.851   2.743   5.672
 1448SOL    HW1 5243   0.809   2.690   5.598
 1448SOL    HW2 5244   0.878   2.833   5.638
 1449SOL     OW 5245   1.548   4.352   4.342
 1449SOL    HW1 5246   1.480   4.383   4.275
 1449SOL    HW2 5247   1.602   4.278   4.303
 1450SOL     OW 5248   2.215   2.443   4.812
 1450SOL    HW1 5249   2.157   2.465   4.734
 1450SOL    HW2 5250   2.200   2.509   4.885
 1451SOL     OW 5251   2.462   6.945   1.985
 1451SOL    HW1 5252   2.472   7.019   1.919
 1451SOL    HW2 5253   2.365   6.937   2.011
 1452SOL     OW 5254   4.917   3.291   5.874
 1452SOL    HW1 5255   4.854   3.221   5.838
 1452SOL    HW2 5256   5.003   3.247   5.900
 1453SOL     OW 5257   1.006   4.202   5.108
 1453SOL    HW1 5258   0.922   4.178   5.060
 1453SOL    HW2 5259   1.009   4.154   5.196
 1454SOL     OW 5260   2.967   1.638   3.378
 1454SOL    HW1 5261   3.046   1.669   3.326
 1454SOL    HW2 5262   2.967   1.538   3.381
 1455SOL     OW 5263   1.285   5.473   2.321
 1455SOL    HW1 5264   1.385   5.474   2.320
 1455SOL    HW2 5265   1.251   5.548   2.264
 1456SOL     OW 5266   6.098   5.481   5.973
 1456SOL    HW1 5267   6.151   5.550   5.924
 1456SOL    HW2 5268   6.025   5.448   5.914
 1457SOL     OW 5269   0.562   3.933   6.172
 1457SOL    HW1 5270   0.602   4.013   6.128
 1457SOL    HW2 5271   0.578   3.852   6.116
 1458SOL     OW 5272   5.304   4.854   5.193
 1458SOL    HW1 5273   5.312   4.950   5.167
 1458SOL    HW2 5274   5.220   4.816   5.154
 1459SOL     OW 5275   4.859   6.836   5.169
 1459SOL    HW1 5276   4.910   6.831   5.255
 1459SOL    HW2 5277   4.888   6.762   5.108
 1460SOL     OW 5278   1.896   6.299   5.320
 1460SOL    HW1 5279   1.850   6.237   5.383
 1460SOL    HW2 5280   1.994   6.299   5.338
 1461SOL     OW 5281   0.423   3.022   2.923
 1461SOL    HW1 5282   0.456   3.048   3.014
 1461SOL    HW2 5283   0.405   3.104   2.870
 1462SOL     OW 5284   0.719   6.912   0.599
 1462SOL    HW1 5285   0.709   6.818   0.565
 1462SOL    HW2 5286   0.753   6.911   0.693
 1463SOL     OW 5287   1.800   5.676   6.400
 1463SOL    HW1 5288   1.810   5.589   6.449
 1463SOL    HW2 5289   1.746   5.739   6.455
 1464SOL     OW 5290   6.866   4.470   4.265
 1464SOL    HW1 5291   6.810   4.447   4.345
 1464SOL    HW2 5292   6.962   4.448   4.285
 1465SOL     OW 5293   1.313   1.837   3.370
 1465SOL    HW1 5294   1.404   1.871   3.346
 1465SOL    HW2 5295   1.246   1.871   3.303
 1466SOL     OW 5296   4.339   1.939   1.745
 1466SOL    HW1 5297   4.422   1.884   1.748
 1466SOL    HW2 5298   4.261   1.885   1.777
 1467SOL     OW 5299   1.245   0.848   4.010
 1467SOL    HW1 5300   1.295   0.923   4.053
 1467SOL    HW2 5301   1.310   0.787   3.965
 1468SOL     OW 5302   2.192   6.049   2.580
 1468SOL    HW1 5303   2.279   6.045   2.531
 1468SOL    HW2 5304   2.117   6.057   2.513
 1469SOL     OW 5305   6.361   5.201   3.255
 1469SOL    HW1 5306   6.424   5.243   3.189
 1469SOL    HW2 5307   6.277   5.174   3.207
 1470SOL     OW 5308   6.602   2.046   0.747
 1470SOL    HW1 5309   6.545   2.096   0.812
 1470SOL    HW2 5310   6.556   1.962   0.719
 1471SOL     OW 5311   5.246   6.934   1.669
 1471SOL    HW1 5312   5.151   6.933   1.639
 1471SOL    HW2 5313   5.268   6.846   1.711
 1472SOL     OW 5314   1.956   6.701   6.164
 1472SOL    HW1 5315   1.922   6.736   6.252
 1472SOL    HW2 5316   1.934   6.767   6.092
 1473SOL     OW 5317   2.953   5.087   4.442
 1473SOL    HW1 5318   2.915   5.169   4.399
 1473SOL    HW2 5319   3.045   5.106   4.476
 1474SOL     OW 5320   4.272   4.894   1.507
 1474SOL    HW1 5321   4.293   4.833   1.584
 1474SOL    HW2 5322   4.283   4.989   1.536
 1475SOL     OW 5323   4.685   0.313   0.105
 1475SOL    HW1 5324   4.592   0.283   0.084
 1475SOL    HW2 5325   4.750   0.262   0.049
 1476SOL     OW 5326   3.817   1.040   1.764
 1476SOL    HW1 5327   3.723   1.070   1.745
 1476SOL    HW2 5328   3.840   1.060   1.859
 1477SOL     OW 5329   4.210   5.202   1.590
 1477SOL    HW1 5330   4.201   5.245   1.500
 1477SOL    HW2 5331   4.120   5.168   1.619
 1478SOL     OW 5332   5.230   5.806   5.654
 1478SOL    HW1 5333   5.130   5.807   5.651
 1478SOL    HW2 5334   5.264   5.721   5.613
 1479SOL     OW 5335   3.564   3.447   1.227
 1479SOL    HW1 5336   3.663   3.456   1.235
 1479SOL    HW2 5337   3.530   3.390   1.303
 1480SOL     OW 5338   2.826   0.400   4.766
 1480SOL    HW1 5339   2.756   0.432   4.830
 1480SOL    HW2 5340   2.852   0.475   4.705
 1481SOL     OW 5341   5.300   2.496   5.688
 1481SOL    HW1 5342   5.277   2.539   5.601
 1481SOL    HW2 5343   5.216   2.481   5.741
 1482SOL     OW 5344   4.575   1.353   0.511
 1482SOL    HW1 5345   4.586   1.442   0.555
 1482SOL    HW2 5346   4.518   1.363   0.429
 1483SOL     OW 5347   4.785   1.411   6.232
 1483SOL    HW1 5348   4.757   1.438   6.140
 1483SOL    HW2 5349   4.766   1.486   6.296
 1484SOL     OW 5350   3.038   5.915   4.846
 1484SOL    HW1 5351   2.988   5.828   4.842
 1484SOL    HW2 5352   3.121   5.908   4.792
 1485SOL     OW 5353   5.124   2.771   2.825
 1485SOL    HW1 5354   5.068   2.748   2.904
 1485SOL    HW2 5355   5.197   2.703   2.815
 1486SOL     OW 5356   4.679   6.834   3.845
 1486SOL    HW1 5357   4.591   6.849   3.800
 1486SOL    HW2 5358   4.707   6.739   3.833
 1487SOL     OW 5359   6.700   0.209   0.473
 1487SOL    HW1 5360   6.751   0.166   0.399
 1487SOL    HW2 5361   6.748   0.292   0.503
 1488SOL     OW 5362   5.978   0.921   3.099
 1488SOL    HW1 5363   6.011   1.001   3.148
 1488SOL    HW2 5364   5.957   0.848   3.164
 1489SOL     OW 5365   4.473   4.553   6.124
 1489SOL    HW1 5366   4.467   4.568   6.223
 1489SOL    HW2 5367   4.506   4.637   6.080
 1490SOL     OW 5368   0.292   2.320   2.298
 1490SOL    HW1 5369   0.267   2.414   2.320
 1490SOL    HW2 5370   0.311   2.270   2.383
 1491SOL     OW 5371   6.936   3.118   2.420
 1491SOL    HW1 5372   6.964   3.037   2.470
 1491SOL    HW2 5373   6.888   3.091   2.336
 1492SOL     OW 5374   6.119   1.396   3.136
 1492SOL    HW1 5375   6.136   1.327   3.066
 1492SOL    HW2 5376   6.155   1.484   3.106
 1493SOL     OW 5377   4.555   2.570   5.909
 1493SOL    HW1 5378   4.459   2.544   5.926
 1493SOL    HW2 5379   4.558   2.643   5.842
 1494SOL     OW 5380   6.185   3.970   6.031
 1494SOL    HW1 5381   6.232   4.016   5.955
 1494SOL    HW2 5382   6.235   3.986   6.116
 1495SOL     OW 5383   6.183   4.249   4.378
 1495SOL    HW1 5384   6.197   4.196   4.462
 1495SOL    HW2 5385   6.210   4.193   4.299
 1496SOL     OW 5386   7.002   5.582   6.574
 1496SOL    HW1 5387   6.935   5.645   6.613
 1496SOL    HW2 5388   7.005   5.498   6.628
 1497SOL     OW 5389   5.486   3.178   2.778
 1497SOL    HW1 5390   5.453   3.092   2.818
 1497SOL    HW2 5391   5.493   3.168   2.679
 1498SOL     OW 5392   3.062   4.862   0.895
 1498SOL    HW1 5393   3.030   4.805   0.819
 1498SOL    HW2 5394   3.101   4.947   0.859
 1499SOL     OW 5395   0.655   3.902   5.767
 1499SOL    HW1 5396   0.646   3.941   5.676
 1499SOL    HW2 5397   0.660   3.976   5.835
 1500SOL     OW 5398   0.941   5.476   1.493
 1500SOL    HW1 5399   0.861   5.436   1.537
 1500SOL    HW2 5400   0.962   5.425   1.410
 1501SOL     OW 5401   5.731   1.433   6.829
 1501SOL    HW1 5402   5.649   1.390   6.792
 1501SOL    HW2 5403   5.811   1.379   6.804
 1502SOL     OW 5404   6.133   6.906   6.749
 1502SOL    HW1 5405   6.139   6.905   6.849
 1502SOL    HW2 5406   6.161   6.816   6.713
 1503SOL     OW 5407   0.531   4.333   1.923
 1503SOL    HW1 5408   0.616   4.283   1.933
 1503SOL    HW2 5409   0.517   4.391   2.004
 1504SOL     OW 5410   0.567   0.800   3.292
 1504SOL    HW1 5411   0.475   0.839   3.282
 1504SOL    HW2 5412   0.586   0.783   3.388
 1505SOL     OW 5413   5.121   5.850   4.844
 1505SOL    HW1 5414   5.064   5.775   4.811
 1505SOL    HW2 5415   5.192   5.871   4.777
 1506SOL     OW 5416   0.811   0.792   0.601
 1506SOL    HW1 5417   0.722   0.747   0.609
 1506SOL    HW2 5418   0.854   0.797   0.691
 1507SOL     OW 5419   1.948   2.582   4.623
 1507SOL    HW1 5420   1.956   2.668   4.674
 1507SOL    HW2 5421   2.014   2.582   4.547
 1508SOL     OW 5422   0.876   0.614   0.370
 1508SOL    HW1 5423   0.914   0.522   0.372
 1508SOL    HW2 5424   0.898   0.661   0.456
 1509SOL     OW 5425   5.181   0.499   4.133
 1509SOL    HW1 5426   5.214   0.591   4.112
 1509SOL    HW2 5427   5.216   0.471   4.222
 1510SOL     OW 5428   3.738   5.880   3.971
 1510SOL    HW1 5429   3.653   5.931   3.959
 1510SOL    HW2 5430   3.810   5.940   4.006
 1511SOL     OW 5431   3.957   3.385   4.326
 1511SOL    HW1 5432   4.016   3.465   4.331
 1511SOL    HW2 5433   3.891   3.396   4.251
 1512SOL     OW 5434   6.595   6.387   1.070
 1512SOL    HW1 5435   6.672   6.450   1.077
 1512SOL    HW2 5436   6.515   6.436   1.033
 1513SOL     OW 5437   3.045   0.228   6.242
 1513SOL    HW1 5438   2.971   0.172   6.205
 1513SOL    HW2 5439   3.035   0.322   6.210
 1514SOL     OW 5440   3.447   2.315   5.684
 1514SOL    HW1 5441   3.442   2.286   5.589
 1514SOL    HW2 5442   3.542   2.312   5.715
 1515SOL     OW 5443   6.204   1.934   2.287
 1515SOL    HW1 5444   6.285   1.907   2.235
 1515SOL    HW2 5445   6.144   1.855   2.300
 1516SOL     OW 5446   6.079   6.416   4.642
 1516SOL    HW1 5447   6.026   6.345   4.596
 1516SOL    HW2 5448   6.098   6.491   4.579
 1517SOL     OW 5449   3.746   6.300   3.884
 1517SOL    HW1 5450   3.799   6.384   3.901
 1517SOL    HW2 5451   3.783   6.254   3.804
 1518SOL     OW 5452   0.445   2.505   0.314
 1518SOL    HW1 5453   0.501   2.431   0.350
 1518SOL    HW2 5454   0.453   2.584   0.375
 1519SOL     OW 5455   6.742   4.223   6.885
 1519SOL    HW1 5456   6.791   4.288   6.826
 1519SOL    HW2 5457   6.666   4.270   6.930
 1520SOL     OW 5458   0.051   5.870   2.222
 1520SOL    HW1 5459   0.011   5.779   2.228
 1520SOL    HW2 5460   7.024   5.925   2.156
 1521SOL     OW 5461   1.943   5.005   6.238
 1521SOL    HW1 5462   2.039   4.986   6.259
 1521SOL    HW2 5463   1.910   4.940   6.169
 1522SOL     OW 5464   5.086   5.207   4.802
 1522SOL    HW1 5465   5.055   5.222   4.896
 1522SOL    HW2 5466   5.010   5.176   4.746
 1523SOL     OW 5467   3.883   6.000   6.580
 1523SOL    HW1 5468   3.973   5.976   6.544
 1523SOL    HW2 5469   3.849   6.081   6.533
 1524SOL     OW 5470   2.239   1.750   2.387
 1524SOL    HW1 5471   2.214   1.750   2.290
 1524SOL    HW2 5472   2.338   1.758   2.396
 1525SOL     OW 5473   5.533   2.728   0.244
 1525SOL    HW1 5474   5.548   2.769   0.334
 1525SOL    HW2 5475   5.449   2.765   0.205
 1526SOL     OW 5476   1.008   1.089   0.547
 1526SOL    HW1 5477   0.928   1.148   0.537
 1526SOL    HW2 5478   0.990   1.019   0.616
 1527SOL     OW 5479   3.514   1.469   4.284
 1527SOL    HW1 5480   3.517   1.389   4.225
 1527SOL    HW2 5481   3.449   1.455   4.358
 1528SOL     OW 5482   4.725   4.004   0.919
 1528SOL    HW1 5483   4.758   3.951   0.998
 1528SOL    HW2 5484   4.769   4.094   0.920
 1529SOL     OW 5485   4.758   1.425   5.957
 1529SOL    HW1 5486   4.823   1.496   5.933
 1529SOL    HW2 5487   4.673   1.438   5.905
 1530SOL     OW 5488   3.766   6.530   1.341
 1530SOL    HW1 5489   3.733   6.437   1.325
 1530SOL    HW2 5490   3.726   6.566   1.426
 1531SOL     OW 5491   3.189   6.510   4.549
 1531SOL    HW1 5492   3.198   6.583   4.617
 1531SOL    HW2 5493   3.229   6.426   4.585
 1532SOL     OW 5494   2.625   5.473   5.871
 1532SOL    HW1 5495   2.594   5.391   5.824
 1532SOL    HW2 5496   2.619   5.551   5.810
 1533SOL     OW 5497   5.657   5.297   1.403
 1533SOL    HW1 5498   5.749   5.315   1.438
 1533SOL    HW2 5499   5.662   5.286   1.304
 1534SOL     OW 5500   3.802   5.668   6.556
 1534SOL    HW1 5501   3.705   5.645   6.556
 1534SOL    HW2 5502   3.813   5.766   6.534
 1535SOL     OW 5503   6.159   6.586   4.441
 1535SOL    HW1 5504   6.134   6.589   4.345
 1535SOL    HW2 5505   6.194   6.675   4.470
 1536SOL     OW 5506   4.216   4.191   6.684
 1536SOL    HW1 5507   4.160   4.265   6.646
 1536SOL    HW2 5508   4.242   4.127   6.612
 1537SOL     OW 5509   3.160   5.215   3.876
 1537SOL    HW1 5510   3.219   5.167   3.810
 1537SOL    HW2 5511   3.067   5.179   3.869
 1538SOL     OW 5512   3.266   1.562   6.920
 1538SOL    HW1 5513   3.353   1.606   6.941
 1538SOL    HW2 5514   3.241   1.500   6.994
 1539SOL     OW 5515   5.689   3.182   0.970
 1539SOL    HW1 5516   5.669   3.193   0.873
 1539SOL    HW2 5517   5.727   3.268   1.006
 1540SOL     OW 5518   2.772   0.199   5.007
 1540SOL    HW1 5519   2.802   0.247   4.924
 1540SOL    HW2 5520   2.672   0.198   5.010
 1541SOL     OW 5521   3.752   2.992   4.462
 1541SOL    HW1 5522   3.814   2.985   4.384
 1541SOL    HW2 5523   3.789   3.059   4.527
 1542SOL     OW 5524   6.632   0.278   2.360
 1542SOL    HW1 5525   6.675   0.216   2.427
 1542SOL    HW2 5526   6.558   0.230   2.313
 1543SOL     OW 5527   2.662   5.155   6.465
 1543SOL    HW1 5528   2.707   5.156   6.555
 1543SOL    HW2 5529   2.619   5.244   6.449
 1544SOL     OW 5530   3.922   2.985   3.663
 1544SOL    HW1 5531   3.841   2.955   3.612
 1544SOL    HW2 5532   3.897   3.000   3.759
 1545SOL     OW 5533   6.371   6.644   2.736
 1545SOL    HW1 5534   6.423   6.579   2.792
 1545SOL    HW2 5535   6.274   6.618   2.737
 1546SOL     OW 5536   4.787   6.556   5.866
 1546SOL    HW1 5537   4.791   6.565   5.767
 1546SOL    HW2 5538   4.859   6.611   5.908
 1547SOL     OW 5539   1.651   3.787   6.310
 1547SOL    HW1 5540   1.740   3.832   6.303
 1547SOL    HW2 5541   1.653   3.722   6.386
 1548SOL     OW 5542   5.822   1.798   6.898
 1548SOL    HW1 5543   5.914   1.760   6.884
 1548SOL    HW2 5544   5.830   1.890   6.936
 1549SOL     OW 5545   4.366   1.139   4.715
 1549SOL    HW1 5546   4.328   1.081   4.643
 1549SOL    HW2 5547   4.296   1.201   4.749
 1550SOL     OW 5548   3.541   2.943   3.003
 1550SOL    HW1 5549   3.564   2.944   2.906
 1550SOL    HW2 5550   3.617   2.983   3.055
 1551SOL     OW 5551   0.058   5.299   6.321
 1551SOL    HW1 5552   0.121   5.237   6.368
 1551SOL    HW2 5553   6.993   5.297   6.367
 1552SOL     OW 5554   2.740   4.153   1.679
 1552SOL    HW1 5555   2.793   4.115   1.603
 1552SOL    HW2 5556   2.709   4.245   1.656
 1553SOL     OW 5557   6.844   1.570   5.770
 1553SOL    HW1 5558   6.756   1.576   5.818
 1553SOL    HW2 5559   6.827   1.566   5.671
 1554SOL     OW 5560   2.991   1.851   3.549
 1554SOL    HW1 5561   3.059   1.920   3.524
 1554SOL    HW2 5562   2.972   1.794   3.469
 1555SOL     OW 5563   6.733   3.231   6.063
 1555SOL    HW1 5564   6.711   3.243   6.160
 1555SOL    HW2 5565   6.812   3.287   6.040
 1556SOL     OW 5566   2.202   1.329   5.905
 1556SOL    HW1 5567   2.103   1.334   5.910
 1556SOL    HW2 5568   2.228   1.250   5.849
 1557SOL     OW 5569   0.808   3.362   6.678
 1557SOL    HW1 5570   0.731   3.417   6.713
 1557SOL    HW2 5571   0.888   3.421   6.666
 1558SOL     OW 5572   6.764   0.714   5.420
 1558SOL    HW1 5573   6.793   0.630   5.375
 1558SOL    HW2 5574   6.752   0.697   5.518
 1559SOL     OW 5575   0.538   2.399   5.736
 1559SOL    HW1 5576   0.561   2.359   5.647
 1559SOL    HW2 5577   0.474   2.339   5.784
 1560SOL     OW 5578   0.090   0.304   6.239
 1560SOL    HW1 5579   0.089   0.279   6.336
 1560SOL    HW2 5580   0.172   0.357   6.218
 1561SOL     OW 5581   5.712   5.869   2.608
 1561SOL    HW1 5582   5.803   5.892   2.644
 1561SOL    HW2 5583   5.643   5.927   2.651
 1562SOL     OW 5584   5.643   0.439   3.031
 1562SOL    HW1 5585   5.612   0.379   3.105
 1562SOL    HW2 5586   5.686   0.384   2.960
 1563SOL     OW 5587   3.586   1.809   5.795
 1563SOL    HW1 5588   3.549   1.818   5.888
 1563SOL    HW2 5589   3.528   1.747   5.743
 1564SOL     OW 5590   2.125   2.133   2.064
 1564SOL    HW1 5591   2.101   2.120   2.161
 1564SOL    HW2 5592   2.210   2.085   2.044
 1565SOL     OW 5593   5.167   3.884   1.965
 1565SOL    HW1 5594   5.139   3.822   2.039
 1565SOL    HW2 5595   5.261   3.913   1.980
 1566SOL     OW 5596   5.467   4.126   3.493
 1566SOL    HW1 5597   5.410   4.066   3.437
 1566SOL    HW2 5598   5.544   4.075   3.530
 1567SOL     OW 5599   6.848   5.391   5.763
 1567SOL    HW1 5600   6.929   5.395   5.703
 1567SOL    HW2 5601   6.877   5.395   5.858
 1568SOL     OW 5602   0.536   0.448   0.837
 1568SOL    HW1 5603   0.572   0.355   0.842
 1568SOL    HW2 5604   0.466   0.459   0.908
 1569SOL     OW 5605   4.042   6.351   5.477
 1569SOL    HW1 5606   4.063   6.285   5.405
 1569SOL    HW2 5607   4.126   6.397   5.507
 1570SOL     OW 5608   3.179   1.820   1.473
 1570SOL    HW1 5609   3.273   1.811   1.440
 1570SOL    HW2 5610   3.118   1.768   1.413
 1571SOL     OW 5611   6.592   3.588   1.409
 1571SOL    HW1 5612   6.537   3.672   1.412
 1571SOL    HW2 5613   6.582   3.539   1.496
 1572SOL     OW 5614   1.422   0.075   2.012
 1572SOL    HW1 5615   1.407   0.132   1.931
 1572SOL    HW2 5616   1.411   7.002   1.987
 1573SOL     OW 5617   4.101   0.405   1.853
 1573SOL    HW1 5618   4.015   0.455   1.840
 1573SOL    HW2 5619   4.149   0.442   1.932
 1574SOL     OW 5620   6.716   2.225   2.070
 1574SOL    HW1 5621   6.757   2.277   2.145
 1574SOL    HW2 5622   6.663   2.149   2.108
 1575SOL     OW 5623   1.931   2.024   0.643
 1575SOL    HW1 5624   1.883   2.104   0.607
 1575SOL    HW2 5625   1.949   1.959   0.569
 1576SOL     OW 5626   5.953   6.109   3.916
 1576SOL    HW1 5627   5.965   6.092   3.818
 1576SOL    HW2 5628   6.016   6.051   3.968
 1577SOL     OW 5629   2.812   0.377   5.628
 1577SOL    HW1 5630   2.756   0.302   5.662
 1577SOL    HW2 5631   2.768   0.418   5.548
 1578SOL     OW 5632   5.976   4.617   5.792
 1578SOL    HW1 5633   5.928   4.530   5.796
 1578SOL    HW2 5634   5.922   4.683   5.740
 1579SOL     OW 5635   0.834   1.058   3.563
 1579SOL    HW1 5636   0.838   1.023   3.656
 1579SOL    HW2 5637   0.915   1.028   3.513
 1580SOL     OW 5638   3.059   4.302   5.272
 1580SOL    HW1 5639   3.145   4.337   5.308
 1580SOL    HW2 5640   3.001   4.379   5.243
 1581SOL     OW 5641   6.686   4.391   4.444
 1581SOL    HW1 5642   6.712   4.295   4.449
 1581SOL    HW2 5643   6.588   4.400   4.462
 1582SOL     OW 5644   0.154   5.414   4.466
 1582SOL    HW1 5645   0.190   5.437   4.376
 1582SOL    HW2 5646   0.216   5.350   4.511
 1583SOL     OW 5647   1.585   3.071   3.314
 1583SOL    HW1 5648   1.627   3.051   3.225
 1583SOL    HW2 5649   1.555   3.167   3.315
 1584SOL     OW 5650   2.150   0.202   6.139
 1584SOL    HW1 5651   2.105   0.289   6.160
 1584SOL    HW2 5652   2.096   0.127   6.177
 1585SOL     OW 5653   5.039   1.542   4.255
 1585SOL    HW1 5654   5.040   1.569   4.352
 1585SOL    HW2 5655   4.948   1.509   4.231
 1586SOL     OW 5656   3.886   3.822   2.635
 1586SOL    HW1 5657   3.894   3.866   2.546
 1586SOL    HW2 5658   3.978   3.795   2.666
 1587SOL     OW 5659   3.607   6.841   6.731
 1587SOL    HW1 5660   3.568   6.811   6.818
 1587SOL    HW2 5661   3.694   6.794   6.716
 1588SOL     OW 5662   5.797   3.146   1.964
 1588SOL    HW1 5663   5.773   3.070   1.904
 1588SOL    HW2 5664   5.853   3.212   1.914
 1589SOL     OW 5665   5.852   4.162   4.321
 1589SOL    HW1 5666   5.926   4.227   4.300
 1589SOL    HW2 5667   5.764   4.206   4.303
 1590SOL     OW 5668   1.190   0.355   6.207
 1590SOL    HW1 5669   1.190   0.258   6.181
 1590SOL    HW2 5670   1.221   0.410   6.129
 1591SOL     OW 5671   1.211   4.768   2.144
 1591SOL    HW1 5672   1.250   4.859   2.134
 1591SOL    HW2 5673   1.193   4.729   2.054
 1592SOL     OW 5674   3.215   3.495   2.855
 1592SOL    HW1 5675   3.183   3.498   2.950
 1592SOL    HW2 5676   3.150   3.543   2.796
 1593SOL     OW 5677   1.010   5.259   5.046
 1593SOL    HW1 5678   0.916   5.270   5.013
 1593SOL    HW2 5679   1.073   5.264   4.968
 1594SOL     OW 5680   6.983   4.963   2.793
 1594SOL    HW1 5681   6.974   4.880   2.738
 1594SOL    HW2 5682   6.946   4.947   2.884
 1595SOL     OW 5683   6.281   5.026   6.380
 1595SOL    HW1 5684   6.340   4.962   6.429
 1595SOL    HW2 5685   6.335   5.105   6.351
 1596SOL     OW 5686   2.816   5.183   5.671
 1596SOL    HW1 5687   2.868   5.167   5.588
 1596SOL    HW2 5688   2.837   5.112   5.738
 1597SOL     OW 5689   2.902   6.075   1.507
 1597SOL    HW1 5690   2.839   6.003   1.481
 1597SOL    HW2 5691   2.879   6.159   1.458
 1598SOL     OW 5692   7.024   5.176   1.350
 1598SOL    HW1 5693   6.985   5.255   1.302
 1598SOL    HW2 5694   0.048   5.117   1.285
 1599SOL     OW 5695   3.649   5.100   0.037
 1599SOL    HW1 5696   3.710   5.128   6.986
 1599SOL    HW2 5697   3.662   5.003   0.057
 1600SOL     OW 5698   4.274   1.164   4.297
 1600SOL    HW1 5699   4.194   1.216   4.268
 1600SOL    HW2 5700   4.351   1.226   4.312
 1601SOL     OW 5701   1.419   5.283   3.825
 1601SOL    HW1 5702   1.362   5.299   3.744
 1601SOL    HW2 5703   1.476   5.364   3.841
 1602SOL     OW 5704   1.078   5.052   3.608
 1602SOL    HW1 5705   0.993   5.002   3.622
 1602SOL    HW2 5706   1.132   5.050   3.692
 1603SOL     OW 5707   0.030   6.579   1.896
 1603SOL    HW1 5708   6.998   6.611   1.973
 1603SOL    HW2 5709   6.995   6.550   1.821
 1604SOL     OW 5710   0.622   5.695   6.373
 1604SOL    HW1 5711   0.634   5.785   6.330
 1604SOL    HW2 5712   0.639   5.624   6.305
 1605SOL     OW 5713   5.581   6.661   3.230
 1605SOL    HW1 5714   5.635   6.682   3.311
 1605SOL    HW2 5715   5.632   6.598   3.171
 1606SOL     OW 5716   5.241   6.886   6.244
 1606SOL    HW1 5717   5.187   6.803   6.231
 1606SOL    HW2 5718   5.187   6.953   6.296
 1607SOL     OW 5719   4.287   2.275   1.079
 1607SOL    HW1 5720   4.335   2.321   1.005
 1607SOL    HW2 5721   4.341   2.283   1.163
 1608SOL     OW 5722   2.336   0.074   0.296
 1608SOL    HW1 5723   2.269   0.002   0.281
 1608SOL    HW2 5724   2.290   0.163   0.301
 1609SOL     OW 5725   4.809   2.140   5.514
 1609SOL    HW1 5726   4.786   2.051   5.554
 1609SOL    HW2 5727   4.845   2.200   5.585
 1610SOL     OW 5728   6.337   5.374   4.423
 1610SOL    HW1 5729   6.244   5.409   4.424
 1610SOL    HW2 5730   6.338   5.282   4.463
 1611SOL     OW 5731   3.013   3.792   1.424
 1611SOL    HW1 5732   2.969   3.736   1.494
 1611SOL    HW2 5733   2.943   3.828   1.362
 1612SOL     OW 5734   2.749   0.941   4.598
 1612SOL    HW1 5735   2.841   0.920   4.630
 1612SOL    HW2 5736   2.728   0.886   4.517
 1613SOL     OW 5737   2.130   5.868   0.631
 1613SOL    HW1 5738   2.227   5.876   0.609
 1613SOL    HW2 5739   2.114   5.899   0.725
 1614SOL     OW 5740   5.798   2.024   0.015
 1614SOL    HW1 5741   5.807   2.039   0.114
 1614SOL    HW2 5742   5.863   2.083   6.991
 1615SOL     OW 5743   6.538   4.940   6.805
 1615SOL    HW1 5744   6.530   4.852   6.852
 1615SOL    HW2 5745   6.543   5.013   6.873
 1616SOL     OW 5746   3.241   2.101   5.948
 1616SOL    HW1 5747   3.252   2.160   5.868
 1616SOL    HW2 5748   3.230   2.006   5.919
 1617SOL     OW 5749   4.775   0.229   3.707
 1617SOL    HW1 5750   4.816   0.139   3.720
 1617SOL    HW2 5751   4.818   0.294   3.771
 1618SOL     OW 5752   5.431   2.703   1.285
 1618SOL    HW1 5753   5.364   2.736   1.351
 1618SOL    HW2 5754   5.413   2.742   1.196
 1619SOL     OW 5755   1.528   3.266   4.620
 1619SOL    HW1 5756   1.503   3.363   4.623
 1619SOL    HW2 5757   1.529   3.235   4.525
 1620SOL     OW 5758   3.011   5.223   1.504
 1620SOL    HW1 5759   3.093   5.236   1.449
 1620SOL    HW2 5760   2.987   5.126   1.506
 1621SOL     OW 5761   1.553   0.768   1.161
 1621SOL    HW1 5762   1.536   0.865   1.180
 1621SOL    HW2 5763   1.495   0.712   1.221
 1622SOL     OW 5764   2.494   2.054   5.037
 1622SOL    HW1 5765   2.421   1.986   5.044
 1622SOL    HW2 5766   2.456   2.142   5.009
 1623SOL     OW 5767   2.876   2.282   5.130
 1623SOL    HW1 5768   2.902   2.309   5.223
 1623SOL    HW2 5769   2.958   2.271   5.075
 1624SOL     OW 5770   2.145   1.268   0.223
 1624SOL    HW1 5771   2.184   1.335   0.159
 1624SOL    HW2 5772   2.175   1.176   0.198
 1625SOL     OW 5773   0.537   5.398   1.825
 1625SOL    HW1 5774   0.493   5.487   1.835
 1625SOL    HW2 5775   0.587   5.376   1.909
 1626SOL     OW 5776   1.958   2.427   6.493
 1626SOL    HW1 5777   1.862   2.430   6.463
 1626SOL    HW2 5778   1.969   2.357   6.563
 1627SOL     OW 5779   5.666   3.120   3.718
 1627SOL    HW1 5780   5.640   3.040   3.772
 1627SOL    HW2 5781   5.741   3.096   3.656
 1628SOL     OW 5782   3.128   4.004   0.345
 1628SOL    HW1 5783   3.079   3.919   0.363
 1628SOL    HW2 5784   3.068   4.068   0.298
 1629SOL     OW 5785   4.094   2.196   3.688
 1629SOL    HW1 5786   4.107   2.110   3.737
 1629SOL    HW2 5787   3.997   2.206   3.663
 1630SOL     OW 5788   0.232   4.860   5.105
 1630SOL    HW1 5789   0.184   4.943   5.134
 1630SOL    HW2 5790   0.257   4.868   5.009
 1631SOL     OW 5791   0.245   6.817   5.742
 1631SOL    HW1 5792   0.255   6.847   5.648
 1631SOL    HW2 5793   0.189   6.734   5.745
 1632SOL     OW 5794   6.164   1.078   1.218
 1632SOL    HW1 5795   6.261   1.072   1.193
 1632SOL    HW2 5796   6.111   1.015   1.162
 1633SOL     OW 5797   5.994   2.493   3.940
 1633SOL    HW1 5798   6.014   2.461   4.032
 1633SOL    HW2 5799   5.898   2.522   3.934
 1634SOL     OW 5800   3.345   0.991   6.534
 1634SOL    HW1 5801   3.425   0.954   6.488
 1634SOL    HW2 5802   3.301   1.060   6.476
 1635SOL     OW 5803   0.472   5.580   4.429
 1635SOL    HW1 5804   0.449   5.483   4.424
 1635SOL    HW2 5805   0.435   5.619   4.514
 1636SOL     OW 5806   2.263   6.310   1.390
 1636SOL    HW1 5807   2.329   6.342   1.322
 1636SOL    HW2 5808   2.176   6.291   1.345
 1637SOL     OW 5809   0.181   3.514   1.526
 1637SOL    HW1 5810   0.206   3.487   1.619
 1637SOL    HW2 5811   0.102   3.574   1.528
 1638SOL     OW 5812   0.814   3.456   5.024
 1638SOL    HW1 5813   0.852   3.369   5.056
 1638SOL    HW2 5814   0.715   3.456   5.035
 1639SOL     OW 5815   5.350   5.067   2.286
 1639SOL    HW1 5816   5.265   5.113   2.262
 1639SOL    HW2 5817   5.377   5.092   2.378
 1640SOL     OW 5818   6.484   0.335   1.122
 1640SOL    HW1 5819   6.559   0.399   1.106
 1640SOL    HW2 5820   6.398   0.377   1.095
 1641SOL     OW 5821   5.964   2.511   5.604
 1641SOL    HW1 5822   5.984   2.566   5.523
 1641SOL    HW2 5823   5.865   2.503   5.615
 1642SOL     OW 5824   6.753   2.430   1.845
 1642SOL    HW1 5825   6.715   2.361   1.907
 1642SOL    HW2 5826   6.841   2.398   1.810
 1643SOL     OW 5827   4.414   0.461   5.642
 1643SOL    HW1 5828   4.488   0.523   5.667
 1643SOL    HW2 5829   4.346   0.460   5.715
 1644SOL     OW 5830   3.044   0.730   1.203
 1644SOL    HW1 5831   3.024   0.751   1.299
 1644SOL    HW2 5832   3.020   0.635   1.185
 1645SOL     OW 5833   2.279   0.051   6.465
 1645SOL    HW1 5834   2.328   0.009   6.542
 1645SOL    HW2 5835   2.241   7.003   6.407
 1646SOL     OW 5836   0.955   3.672   1.234
 1646SOL    HW1 5837   0.965   3.626   1.146
 1646SOL    HW2 5838   0.890   3.622   1.291
 1647SOL     OW 5839   5.685   3.513   3.575
 1647SOL    HW1 5840   5.630   3.468   3.645
 1647SOL    HW2 5841   5.702   3.450   3.500
 1648SOL     OW 5842   4.394   0.060   2.130
 1648SOL    HW1 5843   4.389   0.121   2.209
 1648SOL    HW2 5844   4.432   6.996   2.159
 1649SOL     OW 5845   3.016   0.713   3.460
 1649SOL    HW1 5846   2.993   0.774   3.385
 1649SOL    HW2 5847   2.973   0.624   3.446
 1650SOL     OW 5848   2.997   6.302   3.568
 1650SOL    HW1 5849   3.052   6.300   3.652
 1650SOL    HW2 5850   2.959   6.394   3.556
 1651SOL     OW 5851   1.338   6.882   0.466
 1651SOL    HW1 5852   1.296   6.838   0.387
 1651SOL    HW2 5853   1.284   6.962   0.494
 1652SOL     OW 5854   2.870   2.327   1.660
 1652SOL    HW1 5855   2.958   2.295   1.625
 1652SOL    HW2 5856   2.885   2.386   1.739
 1653SOL     OW 5857   1.154   5.863   1.625
 1653SOL    HW1 5858   1.122   5.947   1.582
 1653SOL    HW2 5859   1.123   5.784   1.572
 1654SOL     OW 5860   0.352   3.275   2.840
 1654SOL    HW1 5861   0.272   3.320   2.879
 1654SOL    HW2 5862   0.432   3.334   2.850
 1655SOL     OW 5863   4.976   4.731   6.200
 1655SOL    HW1 5864   5.052   4.736   6.264
 1655SOL    HW2 5865   4.936   4.639   6.202
 1656SOL     OW 5866   0.709   5.137   3.198
 1656SOL    HW1 5867   0.622   5.124   3.152
 1656SOL    HW2 5868   0.748   5.048   3.223
 1657SOL     OW 5869   1.524   0.734   5.019
 1657SOL    HW1 5870   1.601   0.722   5.082
 1657SOL    HW2 5871   1.470   0.650   5.016
 1658SOL     OW 5872   6.204   6.034   2.929
 1658SOL    HW1 5873   6.295   5.996   2.943
 1658SOL    HW2 5874   6.148   5.970   2.876
 1659SOL     OW 5875   3.967   2.615   5.708
 1659SOL    HW1 5876   4.026   2.694   5.719
 1659SOL    HW2 5877   3.998   2.541   5.767
 1660SOL     OW 5878   2.064   5.875   3.508
 1660SOL    HW1 5879   2.139   5.816   3.477
 1660SOL    HW2 5880   1.998   5.821   3.559
 1661SOL     OW 5881   2.906   0.348   2.328
 1661SOL    HW1 5882   2.997   0.312   2.307
 1661SOL    HW2 5883   2.903   0.446   2.309
 1662SOL     OW 5884   0.640   0.500   3.263
 1662SOL    HW1 5885   0.567   0.453   3.214
 1662SOL    HW2 5886   0.623   0.599   3.263
 1663SOL     OW 5887   2.887   6.978   3.165
 1663SOL    HW1 5888   2.985   6.967   3.183
 1663SOL    HW2 5889   2.873   6.989   3.066
 1664SOL     OW 5890   2.353   5.776   4.198
 1664SOL    HW1 5891   2.277   5.838   4.179
 1664SOL    HW2 5892   2.440   5.823   4.182
 1665SOL     OW 5893   0.141   0.428   4.019
 1665SOL    HW1 5894   0.093   0.493   3.960
 1665SOL    HW2 5895   0.077   0.360   4.053
 1666SOL     OW 5896   5.843   2.651   6.130
 1666SOL    HW1 5897   5.940   2.667   6.113
 1666SOL    HW2 5898   5.810   2.715   6.199
 1667SOL     OW 5899   6.345   0.534   6.062
 1667SOL    HW1 5900   6.331   0.628   6.092
 1667SOL    HW2 5901   6.431   0.528   6.011
 1668SOL     OW 5902   3.579   1.408   5.563
 1668SOL    HW1 5903   3.653   1.393   5.628
 1668SOL    HW2 5904   3.513   1.333   5.570
 1669SOL     OW 5905   5.752   6.603   6.336
 1669SOL    HW1 5906   5.740   6.651   6.249
 1669SOL    HW2 5907   5.751   6.669   6.411
 1670SOL     OW 5908   5.669   4.268   5.896
 1670SOL    HW1 5909   5.587   4.219   5.925
 1670SOL    HW2 5910   5.742   4.203   5.874
 1671SOL     OW 5911   5.519   3.366   0.354
 1671SOL    HW1 5912   5.538   3.300   0.428
 1671SOL    HW2 5913   5.441   3.333   0.300
 1672SOL     OW 5914   1.694   5.078   2.542
 1672SOL    HW1 5915   1.610   5.127   2.568
 1672SOL    HW2 5916   1.774   5.131   2.570
 1673SOL     OW 5917   0.277   2.678   3.899
 1673SOL    HW1 5918   0.304   2.631   3.983
 1673SOL    HW2 5919   0.353   2.734   3.866
 1674SOL     OW 5920   0.605   4.162   6.551
 1674SOL    HW1 5921   0.594   4.063   6.545
 1674SOL    HW2 5922   0.534   4.206   6.496
 1675SOL     OW 5923   4.721   1.884   6.777
 1675SOL    HW1 5924   4.754   1.975   6.803
 1675SOL    HW2 5925   4.625   1.890   6.751
 1676SOL     OW 5926   1.252   0.024   2.839
 1676SOL    HW1 5927   1.241   6.952   2.865
 1676SOL    HW2 5928   1.282   0.029   2.744
 1677SOL     OW 5929   5.689   1.789   5.128
 1677SOL    HW1 5930   5.764   1.723   5.118
 1677SOL    HW2 5931   5.682   1.844   5.046
 1678SOL     OW 5932   5.344   0.172   1.360
 1678SOL    HW1 5933   5.405   0.111   1.309
 1678SOL    HW2 5934   5.249   0.142   1.348
 1679SOL     OW 5935   0.566   3.499   6.728
 1679SOL    HW1 5936   0.551   3.517   6.631
 1679SOL    HW2 5937   0.512   3.419   6.756
 1680SOL     OW 5938   1.024   1.674   4.235
 1680SOL    HW1 5939   1.073   1.618   4.168
 1680SOL    HW2 5940   1.077   1.756   4.255
 1681SOL     OW 5941   6.336   5.405   1.206
 1681SOL    HW1 5942   6.309   5.501   1.195
 1681SOL    HW2 5943   6.286   5.349   1.140
 1682SOL     OW 5944   6.497   3.727   5.434
 1682SOL    HW1 5945   6.507   3.822   5.465
 1682SOL    HW2 5946   6.527   3.665   5.507
 1683SOL     OW 5947   5.549   6.048   0.923
 1683SOL    HW1 5948   5.572   5.964   0.971
 1683SOL    HW2 5949   5.632   6.095   0.895
 1684SOL     OW 5950   1.120   6.059   4.843
 1684SOL    HW1 5951   1.141   5.983   4.780
 1684SOL    HW2 5952   1.172   6.140   4.816
 1685SOL     OW 5953   1.527   1.377   0.118
 1685SOL    HW1 5954   1.581   1.301   0.155
 1685SOL    HW2 5955   1.501   1.438   0.193
 1686SOL     OW 5956   1.505   6.905   0.133
 1686SOL    HW1 5957   1.576   6.966   0.096
 1686SOL    HW2 5958   1.541   6.859   0.214
 1687SOL     OW 5959   1.435   6.526   2.054
 1687SOL    HW1 5960   1.410   6.507   1.959
 1687SOL    HW2 5961   1.534   6.540   2.060
 1688SOL     OW 5962   1.074   2.179   3.213
 1688SOL    HW1 5963   1.112   2.258   3.262
 1688SOL    HW2 5964   1.007   2.211   3.145
 1689SOL     OW 5965   2.098   1.660   2.890
 1689SOL    HW1 5966   2.118   1.588   2.956
 1689SOL    HW2 5967   2.005   1.693   2.904
 1690SOL     OW 5968   1.160   1.042   0.914
 1690SOL    HW1 5969   1.226   0.977   0.950
 1690SOL    HW2 5970   1.109   1.083   0.990
 1691SOL     OW 5971   5.197   4.381   2.568
 1691SOL    HW1 5972   5.240   4.337   2.490
 1691SOL    HW2 5973   5.221   4.478   2.570
 1692SOL     OW 5974   1.439   0.597   2.874
 1692SOL    HW1 5975   1.502   0.623   2.801
 1692SOL    HW2 5976   1.409   0.502   2.861
 1693SOL     OW 5977   2.846   2.206   3.574
 1693SOL    HW1 5978   2.919   2.166   3.518
 1693SOL    HW2 5979   2.808   2.137   3.635
 1694SOL     OW 5980   5.310   5.995   4.968
 1694SOL    HW1 5981   5.340   6.082   4.931
 1694SOL    HW2 5982   5.231   5.962   4.915
 1695SOL     OW 5983   2.796   2.746   5.878
 1695SOL    HW1 5984   2.840   2.697   5.803
 1695SOL    HW2 5985   2.698   2.756   5.859
 1696SOL     OW 5986   4.455   6.176   0.503
 1696SOL    HW1 5987   4.517   6.125   0.444
 1696SOL    HW2 5988   4.367   6.129   0.508
 1697SOL     OW 5989   0.842   1.316   1.890
 1697SOL    HW1 5990   0.792   1.335   1.975
 1697SOL    HW2 5991   0.795   1.360   1.814
 1698SOL     OW 5992   4.828   1.930   1.533
 1698SOL    HW1 5993   4.843   2.021   1.494
 1698SOL    HW2 5994   4.866   1.927   1.625
 1699SOL     OW 5995   2.448   3.320   1.220
 1699SOL    HW1 5996   2.389   3.302   1.299
 1699SOL    HW2 5997   2.457   3.237   1.165
 1700SOL     OW 5998   6.866   3.461   3.613
 1700SOL    HW1 5999   6.925   3.386   3.583
 1700SOL    HW2 6000   6.859   3.461   3.713
 1701SOL     OW 6001   5.629   3.361   4.462
 1701SOL    HW1 6002   5.596   3.284   4.407
 1701SOL    HW2 6003   5.586   3.445   4.431
 1702SOL     OW 6004   4.840   3.279   0.624
 1702SOL    HW1 6005   4.919   3.293   0.563
 1702SOL    HW2 6006   4.867   3.298   0.718
 1703SOL     OW 6007   1.527   3.842   0.200
 1703SOL    HW1 6008   1.607   3.883   0.156
 1703SOL    HW2 6009   1.483   3.780   0.135
 1704SOL     OW 6010   0.781   1.099   2.162
 1704SOL    HW1 6011   0.838   1.181   2.155
 1704SOL    HW2 6012   0.717   1.110   2.238
 1705SOL     OW 6013   4.475   3.130   1.620
 1705SOL    HW1 6014   4.467   3.230   1.614
 1705SOL    HW2 6015   4.543   3.106   1.688
 1706SOL     OW 6016   2.709   0.956   0.223
 1706SOL    HW1 6017   2.767   1.035   0.205
 1706SOL    HW2 6018   2.761   0.886   0.273
 1707SOL     OW 6019   5.394   2.171   3.173
 1707SOL    HW1 6020   5.375   2.214   3.262
 1707SOL    HW2 6021   5.318   2.190   3.111
 1708SOL     OW 6022   0.295   5.050   3.322
 1708SOL    HW1 6023   0.218   5.113   3.326
 1708SOL    HW2 6024   0.263   4.957   3.339
 1709SOL     OW 6025   2.821   5.991   2.350
 1709SOL    HW1 6026   2.835   6.084   2.386
 1709SOL    HW2 6027   2.910   5.950   2.330
 1710SOL     OW 6028   0.467   5.984   4.160
 1710SOL    HW1 6029   0.450   5.885   4.162
 1710SOL    HW2 6030   0.434   6.022   4.074
 1711SOL     OW 6031   1.536   4.615   5.655
 1711SOL    HW1 6032   1.440   4.591   5.638
 1711SOL    HW2 6033   1.594   4.537   5.633
 1712SOL     OW 6034   0.724   4.310   0.596
 1712SOL    HW1 6035   0.773   4.283   0.680
 1712SOL    HW2 6036   0.637   4.261   0.592
 1713SOL     OW 6037   0.886   2.748   1.077
 1713SOL    HW1 6038   0.936   2.792   1.003
 1713SOL    HW2 6039   0.794   2.724   1.046
 1714SOL     OW 6040   2.875   1.783   0.500
 1714SOL    HW1 6041   2.822   1.777   0.585
 1714SOL    HW2 6042   2.906   1.692   0.474
 1715SOL     OW 6043   0.049   3.288   3.549
 1715SOL    HW1 6044   0.135   3.307   3.501
 1715SOL    HW2 6045   0.064   3.216   3.616
 1716SOL     OW 6046   0.032   6.499   0.344
 1716SOL    HW1 6047   0.042   6.574   0.278
 1716SOL    HW2 6048   7.001   6.531   0.422
 1717SOL     OW 6049   2.928   0.704   6.746
 1717SOL    HW1 6050   2.949   0.606   6.750
 1717SOL    HW2 6051   2.985   0.747   6.676
 1718SOL     OW 6052   1.560   4.726   6.456
 1718SOL    HW1 6053   1.569   4.629   6.479
 1718SOL    HW2 6054   1.484   4.765   6.506
 1719SOL     OW 6055   2.097   3.645   1.532
 1719SOL    HW1 6056   2.024   3.580   1.551
 1719SOL    HW2 6057   2.131   3.684   1.618
 1720SOL     OW 6058   6.721   0.425   1.357
 1720SOL    HW1 6059   6.707   0.464   1.266
 1720SOL    HW2 6060   6.691   0.490   1.426
 1721SOL     OW 6061   2.136   6.379   3.490
 1721SOL    HW1 6062   2.175   6.288   3.509
 1721SOL    HW2 6063   2.210   6.443   3.470
 1722SOL     OW 6064   6.059   6.568   2.352
 1722SOL    HW1 6065   6.107   6.635   2.294
 1722SOL    HW2 6066   5.961   6.588   2.350
 1723SOL     OW 6067   6.486   1.485   2.613
 1723SOL    HW1 6068   6.544   1.565   2.596
 1723SOL    HW2 6069   6.391   1.509   2.594
 1724SOL     OW 6070   5.055   1.071   6.977
 1724SOL    HW1 6071   5.082   1.165   6.959
 1724SOL    HW2 6072   5.008   1.033   6.897
 1725SOL     OW 6073   4.009   4.304   1.628
 1725SOL    HW1 6074   3.975   4.232   1.690
 1725SOL    HW2 6075   4.016   4.267   1.535
 1726SOL     OW 6076   0.828   4.212   4.405
 1726SOL    HW1 6077   0.834   4.303   4.364
 1726SOL    HW2 6078   0.876   4.212   4.493
 1727SOL     OW 6079   3.633   3.787   5.475
 1727SOL    HW1 6080   3.533   3.790   5.475
 1727SOL    HW2 6081   3.667   3.817   5.564
 1728SOL     OW 6082   4.486   4.525   3.098
 1728SOL    HW1 6083   4.400   4.559   3.137
 1728SOL    HW2 6084   4.477   4.516   2.999
 1729SOL     OW 6085   2.023   3.809   2.911
 1729SOL    HW1 6086   1.975   3.897   2.911
 1729SOL    HW2 6087   2.060   3.791   2.820
 1730SOL     OW 6088   6.002   2.702   5.403
 1730SOL    HW1 6089   6.002   2.796   5.439
 1730SOL    HW2 6090   5.949   2.699   5.319
 1731SOL     OW 6091   1.677   5.269   0.677
 1731SOL    HW1 6092   1.752   5.320   0.636
 1731SOL    HW2 6093   1.608   5.333   0.712
 1732SOL     OW 6094   0.280   4.507   6.805
 1732SOL    HW1 6095   0.356   4.500   6.741
 1732SOL    HW2 6096   0.222   4.584   6.779
 1733SOL     OW 6097   1.777   3.373   0.696
 1733SOL    HW1 6098   1.729   3.285   0.685
 1733SOL    HW2 6099   1.852   3.362   0.761
 1734SOL     OW 6100   4.981   2.285   1.068
 1734SOL    HW1 6101   4.958   2.192   1.041
 1734SOL    HW2 6102   4.954   2.349   0.995
 1735SOL     OW 6103   6.516   5.112   1.377
 1735SOL    HW1 6104   6.571   5.107   1.293
 1735SOL    HW2 6105   6.482   5.205   1.389
 1736SOL     OW 6106   3.779   3.374   0.484
 1736SOL    HW1 6107   3.756   3.278   0.504
 1736SOL    HW2 6108   3.695   3.429   0.487
 1737SOL     OW 6109   2.083   6.661   3.615
 1737SOL    HW1 6110   2.059   6.567   3.638
 1737SOL    HW2 6111   2.046   6.684   3.525
 1738SOL     OW 6112   2.211   3.041   2.273
 1738SOL    HW1 6113   2.154   3.112   2.231
 1738SOL    HW2 6114   2.233   2.971   2.205
 1739SOL     OW 6115   4.337   1.821   4.898
 1739SOL    HW1 6116   4.314   1.910   4.937
 1739SOL    HW2 6117   4.333   1.826   4.798
 1740SOL     OW 6118   0.516   1.239   5.729
 1740SOL    HW1 6119   0.447   1.286   5.674
 1740SOL    HW2 6120   0.498   1.140   5.727
 1741SOL     OW 6121   1.118   0.243   2.750
 1741SOL    HW1 6122   1.132   0.150   2.784
 1741SOL    HW2 6123   1.204   0.281   2.719
 1742SOL     OW 6124   6.212   1.006   4.768
 1742SOL    HW1 6125   6.226   1.004   4.867
 1742SOL    HW2 6126   6.198   0.913   4.734
 1743SOL     OW 6127   4.141   1.307   1.043
 1743SOL    HW1 6128   4.068   1.332   1.107
 1743SOL    HW2 6129   4.146   1.375   0.970
 1744SOL     OW 6130   3.172   0.392   1.267
 1744SOL    HW1 6131   3.238   0.442   1.324
 1744SOL    HW2 6132   3.091   0.372   1.321
 1745SOL     OW 6133   0.195   2.320   3.021
 1745SOL    HW1 6134   0.165   2.290   2.930
 1745SOL    HW2 6135   0.201   2.420   3.022
 1746SOL     OW 6136   2.720   1.167   5.631
 1746SOL    HW1 6137   2.813   1.202   5.636
 1746SOL    HW2 6138   2.699   1.139   5.538
 1747SOL     OW 6139   3.330   0.386   2.009
 1747SOL    HW1 6140   3.259   0.454   2.027
 1747SOL    HW2 6141   3.302   0.328   1.932
 1748SOL     OW 6142   5.301   1.849   2.390
 1748SOL    HW1 6143   5.346   1.883   2.307
 1748SOL    HW2 6144   5.263   1.758   2.372
 1749SOL     OW 6145   4.069   0.270   6.365
 1749SOL    HW1 6146   3.984   0.276   6.313
 1749SOL    HW2 6147   4.057   0.312   6.454
 1750SOL     OW 6148   4.505   1.153   3.088
 1750SOL    HW1 6149   4.504   1.251   3.112
 1750SOL    HW2 6150   4.463   1.140   2.998
 1751SOL     OW 6151   1.899   5.683   3.646
 1751SOL    HW1 6152   1.976   5.620   3.659
 1751SOL    HW2 6153   1.830   5.640   3.588
 1752SOL     OW 6154   6.164   2.116   0.616
 1752SOL    HW1 6155   6.160   2.030   0.565
 1752SOL    HW2 6156   6.240   2.113   0.680
 1753SOL     OW 6157   1.727   0.181   1.790
 1753SOL    HW1 6158   1.634   0.171   1.754
 1753SOL    HW2 6159   1.789   0.204   1.715
 1754SOL     OW 6160   4.032   3.402   0.491
 1754SOL    HW1 6161   4.075   3.351   0.566
 1754SOL    HW2 6162   3.933   3.400   0.503
 1755SOL     OW 6163   5.346   4.196   0.831
 1755SOL    HW1 6164   5.267   4.150   0.871
 1755SOL    HW2 6165   5.348   4.291   0.862
 1756SOL     OW 6166   6.629   5.482   4.420
 1756SOL    HW1 6167   6.706   5.485   4.357
 1756SOL    HW2 6168   6.615   5.388   4.452
 1757SOL     OW 6169   2.878   6.693   4.705
 1757SOL    HW1 6170   2.858   6.633   4.782
 1757SOL    HW2 6171   2.904   6.784   4.739
 1758SOL     OW 6172   2.042   0.564   3.148
 1758SOL    HW1 6173   1.956   0.597   3.187
 1758SOL    HW2 6174   2.024   0.512   3.065
 1759SOL     OW 6175   0.559   5.999   6.759
 1759SOL    HW1 6176   0.519   6.074   6.707
 1759SOL    HW2 6177   0.655   5.988   6.734
 1760SOL     OW 6178   6.070   0.641   3.005
 1760SOL    HW1 6179   6.126   0.720   3.028
 1760SOL    HW2 6180   6.129   0.564   2.981
 1761SOL     OW 6181   6.741   2.333   1.172
 1761SOL    HW1 6182   6.805   2.276   1.223
 1761SOL    HW2 6183   6.709   2.407   1.230
 1762SOL     OW 6184   6.350   1.603   6.095
 1762SOL    HW1 6185   6.340   1.504   6.099
 1762SOL    HW2 6186   6.261   1.645   6.074
 1763SOL     OW 6187   2.163   3.852   4.067
 1763SOL    HW1 6188   2.072   3.822   4.039
 1763SOL    HW2 6189   2.189   3.805   4.152
 1764SOL     OW 6190   0.208   3.414   3.879
 1764SOL    HW1 6191   0.226   3.509   3.904
 1764SOL    HW2 6192   0.197   3.359   3.961
 1765SOL     OW 6193   2.700   2.382   6.290
 1765SOL    HW1 6194   2.649   2.413   6.370
 1765SOL    HW2 6195   2.759   2.456   6.257
 1766SOL     OW 6196   5.299   2.747   5.200
 1766SOL    HW1 6197   5.268   2.832   5.243
 1766SOL    HW2 6198   5.228   2.677   5.211
 1767SOL     OW 6199   5.668   3.301   2.553
 1767SOL    HW1 6200   5.754   3.351   2.567
 1767SOL    HW2 6201   5.603   3.361   2.507
 1768SOL     OW 6202   5.242   6.609   3.983
 1768SOL    HW1 6203   5.335   6.594   3.950
 1768SOL    HW2 6204   5.244   6.644   4.076
 1769SOL     OW 6205   4.102   1.328   2.308
 1769SOL    HW1 6206   4.133   1.273   2.385
 1769SOL    HW2 6207   4.014   1.371   2.330
 1770SOL     OW 6208   2.197   5.710   5.363
 1770SOL    HW1 6209   2.191   5.772   5.442
 1770SOL    HW2 6210   2.284   5.724   5.316
 1771SOL     OW 6211   4.352   5.705   6.792
 1771SOL    HW1 6212   4.381   5.673   6.701
 1771SOL    HW2 6213   4.281   5.775   6.782
 1772SOL     OW 6214   3.609   6.067   2.783
 1772SOL    HW1 6215   3.540   6.133   2.813
 1772SOL    HW2 6216   3.576   6.020   2.701
 1773SOL     OW 6217   1.483   5.704   6.212
 1773SOL    HW1 6218   1.477   5.762   6.131
 1773SOL    HW2 6219   1.573   5.661   6.216
 1774SOL     OW 6220   3.987   5.731   1.605
 1774SOL    HW1 6221   4.054   5.799   1.573
 1774SOL    HW2 6222   4.035   5.655   1.648
 1775SOL     OW 6223   0.679   3.986   2.220
 1775SOL    HW1 6224   0.613   3.983   2.295
 1775SOL    HW2 6225   0.673   3.901   2.167
 1776SOL     OW 6226   3.611   6.167   5.246
 1776SOL    HW1 6227   3.596   6.163   5.345
 1776SOL    HW2 6228   3.574   6.086   5.203
 1777SOL     OW 6229   4.015   6.449   1.054
 1777SOL    HW1 6230   4.037   6.508   1.132
 1777SOL    HW2 6231   4.043   6.355   1.074
 1778SOL     OW 6232   5.280   3.882   5.688
 1778SOL    HW1 6233   5.232   3.795   5.687
 1778SOL    HW2 6234   5.369   3.870   5.734
 1779SOL     OW 6235   3.720   0.411   5.047
 1779SOL    HW1 6236   3.709   0.327   5.101
 1779SOL    HW2 6237   3.634   0.431   5.000
 1780SOL     OW 6238   3.348   3.293   6.410
 1780SOL    HW1 6239   3.312   3.204   6.437
 1780SOL    HW2 6240   3.412   3.282   6.334
 1781SOL     OW 6241   3.752   5.244   3.209
 1781SOL    HW1 6242   3.801   5.326   3.238
 1781SOL    HW2 6243   3.697   5.264   3.128
 1782SOL     OW 6244   2.841   0.858   3.269
 1782SOL    HW1 6245   2.908   0.901   3.208
 1782SOL    HW2 6246   2.822   0.919   3.346
 1783SOL     OW 6247   2.187   6.020   6.628
 1783SOL    HW1 6248   2.227   6.106   6.596
 1783SOL    HW2 6249   2.239   5.985   6.706
 1784SOL     OW 6250   3.287   0.074   5.999
 1784SOL    HW1 6251   3.265   0.120   6.085
 1784SOL    HW2 6252   3.313   7.004   6.017
 1785SOL     OW 6253   6.399   3.540   2.694
 1785SOL    HW1 6254   6.335   3.598   2.643
 1785SOL    HW2 6255   6.463   3.598   2.745
 1786SOL     OW 6256   3.107   2.333   0.738
 1786SOL    HW1 6257   3.013   2.299   0.737
 1786SOL    HW2 6258   3.153   2.306   0.653
 1787SOL     OW 6259   3.244   1.708   6.132
 1787SOL    HW1 6260   3.270   1.751   6.045
 1787SOL    HW2 6261   3.176   1.764   6.178
 1788SOL     OW 6262   1.928   5.063   5.458
 1788SOL    HW1 6263   1.873   5.130   5.507
 1788SOL    HW2 6264   1.944   4.984   5.517
 1789SOL     OW 6265   6.125   1.428   0.116
 1789SOL    HW1 6266   6.041   1.478   0.138
 1789SOL    HW2 6267   6.160   1.459   0.028
 1790SOL     OW 6268   3.967   6.498   3.856
 1790SOL    HW1 6269   4.065   6.514   3.842
 1790SOL    HW2 6270   3.930   6.571   3.914
 1791SOL     OW 6271   6.857   6.845   2.658
 1791SOL    HW1 6272   6.938   6.817   2.606
 1791SOL    HW2 6273   6.883   6.910   2.729
 1792SOL     OW 6274   1.027   3.598   5.217
 1792SOL    HW1 6275   1.008   3.536   5.141
 1792SOL    HW2 6276   0.950   3.598   5.281
 1793SOL     OW 6277   6.988   0.563   3.831
 1793SOL    HW1 6278   6.991   0.663   3.831
 1793SOL    HW2 6279   6.895   0.533   3.812
 1794SOL     OW 6280   5.057   5.214   5.906
 1794SOL    HW1 6281   5.012   5.249   5.988
 1794SOL    HW2 6282   5.054   5.283   5.834
 1795SOL     OW 6283   0.282   2.867   0.483
 1795SOL    HW1 6284   0.215   2.811   0.532
 1795SOL    HW2 6285   0.239   2.951   0.451
 1796SOL     OW 6286   2.508   0.794   5.846
 1796SOL    HW1 6287   2.525   0.739   5.764
 1796SOL    HW2 6288   2.519   0.890   5.824
 1797SOL     OW 6289   1.124   6.657   0.541
 1797SOL    HW1 6290   1.206   6.690   0.494
 1797SOL    HW2 6291   1.056   6.629   0.474
 1798SOL     OW 6292   4.563   2.433   3.035
 1798SOL    HW1 6293   4.644   2.408   2.983
 1798SOL    HW2 6294   4.581   2.421   3.133
 1799SOL     OW 6295   1.036   2.065   6.377
 1799SOL    HW1 6296   0.970   2.125   6.333
 1799SOL    HW2 6297   0.992   2.018   6.454
 1800SOL     OW 6298   4.191   4.648   1.290
 1800SOL    HW1 6299   4.277   4.626   1.244
 1800SOL    HW2 6300   4.117   4.592   1.253
 1801SOL     OW 6301   0.065   6.831   2.490
 1801SOL    HW1 6302   0.143   6.887   2.462
 1801SOL    HW2 6303   0.069   6.743   2.444
 1802SOL     OW 6304   6.328   5.686   4.524
 1802SOL    HW1 6305   6.237   5.646   4.536
 1802SOL    HW2 6306   6.351   5.688   4.427
 1803SOL     OW 6307   6.962   5.776   0.552
 1803SOL    HW1 6308   7.004   5.726   0.627
 1803SOL    HW2 6309   0.004   5.785   0.476
 1804SOL     OW 6310   2.889   3.770   5.384
 1804SOL    HW1 6311   2.899   3.759   5.285
 1804SOL    HW2 6312   2.948   3.704   5.431
 1805SOL     OW 6313   5.320   3.608   5.963
 1805SOL    HW1 6314   5.243   3.604   6.026
 1805SOL    HW2 6315   5.389   3.541   5.990
 1806SOL     OW 6316   1.772   6.840   1.285
 1806SOL    HW1 6317   1.780   6.923   1.339
 1806SOL    HW2 6318   1.791   6.760   1.343
 1807SOL     OW 6319   6.240   1.968   4.788
 1807SOL    HW1 6320   6.339   1.975   4.791
 1807SOL    HW2 6321   6.201   2.003   4.873
 1808SOL     OW 6322   0.462   4.386   4.243
 1808SOL    HW1 6323   0.475   4.321   4.318
 1808SOL    HW2 6324   0.461   4.337   4.156
 1809SOL     OW 6325   2.856   1.978   5.727
 1809SOL    HW1 6326   2.764   1.984   5.689
 1809SOL    HW2 6327   2.870   1.888   5.769
 1810SOL     OW 6328   3.487   6.356   2.912
 1810SOL    HW1 6329   3.422   6.369   2.987
 1810SOL    HW2 6330   3.532   6.443   2.892
 1811SOL     OW 6331   6.059   5.772   3.475
 1811SOL    HW1 6332   6.139   5.727   3.513
 1811SOL    HW2 6333   6.060   5.765   3.375
 1812SOL     OW 6334   4.307   5.607   5.861
 1812SOL    HW1 6335   4.301   5.668   5.940
 1812SOL    HW2 6336   4.217   5.599   5.818
 1813SOL     OW 6337   6.221   4.525   0.079
 1813SOL    HW1 6338   6.189   4.479   0.162
 1813SOL    HW2 6339   6.224   4.459   0.004
 1814SOL     OW 6340   4.644   6.541   2.400
 1814SOL    HW1 6341   4.587   6.571   2.476
 1814SOL    HW2 6342   4.740   6.564   2.420
 1815SOL     OW 6343   0.106   0.454   2.894
 1815SOL    HW1 6344   0.127   0.549   2.870
 1815SOL    HW2 6345   0.177   0.394   2.856
 1816SOL     OW 6346   1.615   3.868   6.889
 1816SOL    HW1 6347   1.708   3.896   6.863
 1816SOL    HW2 6348   1.611   3.769   6.895
 1817SOL     OW 6349   1.762   5.354   2.315
 1817SOL    HW1 6350   1.791   5.324   2.406
 1817SOL    HW2 6351   1.760   5.276   2.253
 1818SOL     OW 6352   1.591   0.679   3.092
 1818SOL    HW1 6353   1.579   0.650   2.998
 1818SOL    HW2 6354   1.503   0.684   3.138
 1819SOL     OW 6355   1.514   4.586   1.262
 1819SOL    HW1 6356   1.560   4.521   1.202
 1819SOL    HW2 6357   1.423   4.551   1.285
 1820SOL     OW 6358   4.916   0.170   2.823
 1820SOL    HW1 6359   5.000   0.175   2.878
 1820SOL    HW2 6360   4.940   0.151   2.728
 1821SOL     OW 6361   2.461   2.241   2.909
 1821SOL    HW1 6362   2.414   2.163   2.868
 1821SOL    HW2 6363   2.476   2.311   2.839
 1822SOL     OW 6364   3.554   2.726   1.819
 1822SOL    HW1 6365   3.527   2.797   1.884
 1822SOL    HW2 6366   3.481   2.712   1.752
 1823SOL     OW 6367   4.291   6.739   2.050
 1823SOL    HW1 6368   4.297   6.688   1.965
 1823SOL    HW2 6369   4.204   6.788   2.054
 1824SOL     OW 6370   4.956   2.676   1.618
 1824SOL    HW1 6371   4.936   2.675   1.716
 1824SOL    HW2 6372   4.998   2.590   1.591
 1825SOL     OW 6373   1.286   0.484   1.635
 1825SOL    HW1 6374   1.272   0.403   1.577
 1825SOL    HW2 6375   1.205   0.542   1.631
 1826SOL     OW 6376   3.125   0.370   6.934
 1826SOL    HW1 6377   3.161   0.426   7.009
 1826SOL    HW2 6378   3.082   0.287   6.972
 1827SOL     OW 6379   7.019   5.709   1.544
 1827SOL    HW1 6380   0.088   5.703   1.510
 1827SOL    HW2 6381   6.991   5.621   1.582
 1828SOL     OW 6382   0.642   2.387   6.277
 1828SOL    HW1 6383   0.611   2.480   6.256
 1828SOL    HW2 6384   0.630   2.369   6.375
 1829SOL     OW 6385   5.589   5.591   2.869
 1829SOL    HW1 6386   5.630   5.597   2.778
 1829SOL    HW2 6387   5.521   5.663   2.880
 1830SOL     OW 6388   4.685   6.060   3.197
 1830SOL    HW1 6389   4.718   6.149   3.229
 1830SOL    HW2 6390   4.745   5.988   3.231
 1831SOL     OW 6391   5.286   6.455   1.987
 1831SOL    HW1 6392   5.295   6.451   1.887
 1831SOL    HW2 6393   5.313   6.546   2.018
 1832SOL     OW 6394   4.828   2.426   0.858
 1832SOL    HW1 6395   4.913   2.467   0.827
 1832SOL    HW2 6396   4.755   2.494   0.855
 1833SOL     OW 6397   4.565   0.751   4.780
 1833SOL    HW1 6398   4.593   0.710   4.867
 1833SOL    HW2 6399   4.622   0.714   4.706
 1834SOL     OW 6400   3.863   3.434   1.237
 1834SOL    HW1 6401   3.906   3.355   1.191
 1834SOL    HW2 6402   3.848   3.412   1.333
 1835SOL     OW 6403   1.483   5.284   1.054
 1835SOL    HW1 6404   1.520   5.359   1.109
 1835SOL    HW2 6405   1.536   5.201   1.073
 1836SOL     OW 6406   0.464   6.999   0.545
 1836SOL    HW1 6407   0.427   6.977   0.455
 1836SOL    HW2 6408   0.562   6.979   0.547
 1837SOL     OW 6409   0.911   2.133   4.647
 1837SOL    HW1 6410   0.899   2.208   4.713
 1837SOL    HW2 6411   0.997   2.087   4.665
 1838SOL     OW 6412   6.994   2.871   4.167
 1838SOL    HW1 6413   6.939   2.792   4.192
 1838SOL    HW2 6414   6.948   2.955   4.195
 1839SOL     OW 6415   6.671   2.850   5.520
 1839SOL    HW1 6416   6.718   2.779   5.467
 1839SOL    HW2 6417   6.576   2.823   5.533
 1840SOL     OW 6418   2.337   5.854   0.305
 1840SOL    HW1 6419   2.261   5.888   0.249
 1840SOL    HW2 6420   2.418   5.841   0.247
 1841SOL     OW 6421   2.335   2.826   3.395
 1841SOL    HW1 6422   2.365   2.764   3.468
 1841SOL    HW2 6423   2.350   2.783   3.306
 1842SOL     OW 6424   1.149   4.438   0.788
 1842SOL    HW1 6425   1.243   4.409   0.770
 1842SOL    HW2 6426   1.088   4.359   0.786
 1843SOL     OW 6427   2.360   1.557   4.916
 1843SOL    HW1 6428   2.400   1.466   4.903
 1843SOL    HW2 6429   2.382   1.590   5.008
 1844SOL     OW 6430   4.136   2.234   3.958
 1844SOL    HW1 6431   4.086   2.147   3.959
 1844SOL    HW2 6432   4.096   2.295   3.890
 1845SOL     OW 6433   3.661   0.452   0.104
 1845SOL    HW1 6434   3.707   0.441   0.192
 1845SOL    HW2 6435   3.570   0.411   0.109
 1846SOL     OW 6436   2.775   2.066   6.652
 1846SOL    HW1 6437   2.851   2.007   6.627
 1846SOL    HW2 6438   2.791   2.105   6.743
 1847SOL     OW 6439   0.390   0.484   1.088
 1847SOL    HW1 6440   0.403   0.385   1.081
 1847SOL    HW2 6441   0.320   0.503   1.157
 1848SOL     OW 6442   2.802   6.704   2.152
 1848SOL    HW1 6443   2.752   6.718   2.067
 1848SOL    HW2 6444   2.807   6.790   2.203
 1849SOL     OW 6445   3.452   2.037   6.813
 1849SOL    HW1 6446   3.550   2.036   6.789
 1849SOL    HW2 6447   3.404   2.102   6.755
 1850SOL     OW 6448   6.201   2.961   2.911
 1850SOL    HW1 6449   6.181   3.027   2.984
 1850SOL    HW2 6450   6.135   2.973   2.837
 1851SOL     OW 6451   0.568   2.681   2.338
 1851SOL    HW1 6452   0.494   2.613   2.335
 1851SOL    HW2 6453   0.554   2.742   2.416
 1852SOL     OW 6454   4.324   3.111   0.106
 1852SOL    HW1 6455   4.275   3.185   0.154
 1852SOL    HW2 6456   4.404   3.149   0.059
 1853SOL     OW 6457   1.113   4.632   1.618
 1853SOL    HW1 6458   1.023   4.674   1.630
 1853SOL    HW2 6459   1.110   4.569   1.541
 1854SOL     OW 6460   2.539   5.511   4.815
 1854SOL    HW1 6461   2.447   5.540   4.788
 1854SOL    HW2 6462   2.532   5.446   4.891
 1855SOL     OW 6463   5.354   5.119   0.660
 1855SOL    HW1 6464   5.397   5.040   0.701
 1855SOL    HW2 6465   5.261   5.096   0.632
 1856SOL     OW 6466   5.615   2.112   4.697
 1856SOL    HW1 6467   5.599   2.210   4.679
 1856SOL    HW2 6468   5.567   2.058   4.627
 1857SOL     OW 6469   4.197   1.140   3.617
 1857SOL    HW1 6470   4.125   1.086   3.661
 1857SOL    HW2 6471   4.196   1.233   3.653
 1858SOL     OW 6472   5.028   2.771   4.073
 1858SOL    HW1 6473   4.960   2.837   4.105
 1858SOL    HW2 6474   5.074   2.730   4.152
 1859SOL     OW 6475   4.412   2.204   3.151
 1859SOL    HW1 6476   4.402   2.192   3.052
 1859SOL    HW2 6477   4.456   2.292   3.170
 1860SOL     OW 6478   5.804   1.135   4.443
 1860SOL    HW1 6479   5.823   1.218   4.497
 1860SOL    HW2 6480   5.795   1.057   4.504
 1861SOL     OW 6481   5.385   6.446   3.051
 1861SOL    HW1 6482   5.407   6.367   3.109
 1861SOL    HW2 6483   5.338   6.515   3.106
 1862SOL     OW 6484   2.133   1.360   0.497
 1862SOL    HW1 6485   2.161   1.370   0.402
 1862SOL    HW2 6486   2.086   1.442   0.527
 1863SOL     OW 6487   2.710   3.111   1.489
 1863SOL    HW1 6488   2.793   3.078   1.532
 1863SOL    HW2 6489   2.694   3.060   1.404
 1864SOL     OW 6490   0.897   6.742   4.772
 1864SOL    HW1 6491   0.824   6.683   4.737
 1864SOL    HW2 6492   0.985   6.698   4.755
 1865SOL     OW 6493   4.252   2.173   6.367
 1865SOL    HW1 6494   4.333   2.226   6.390
 1865SOL    HW2 6495   4.195   2.224   6.303
 1866SOL     OW 6496   4.652   4.357   2.182
 1866SOL    HW1 6497   4.623   4.308   2.100
 1866SOL    HW2 6498   4.590   4.435   2.197
 1867SOL     OW 6499   0.345   4.228   0.104
 1867SOL    HW1 6500   0.352   4.144   0.157
 1867SOL    HW2 6501   0.251   4.240   0.073
 1868SOL     OW 6502   6.015   4.271   6.071
 1868SOL    HW1 6503   5.930   4.245   6.117
 1868SOL    HW2 6504   6.016   4.232   5.979
 1869SOL     OW 6505   6.204   1.396   4.944
 1869SOL    HW1 6506   6.229   1.350   4.859
 1869SOL    HW2 6507   6.212   1.495   4.931
 1870SOL     OW 6508   1.663   5.440   4.559
 1870SOL    HW1 6509   1.625   5.356   4.521
 1870SOL    HW2 6510   1.721   5.484   4.490
 1871SOL     OW 6511   2.037   0.036   0.290
 1871SOL    HW1 6512   2.041   6.960   0.290
 1871SOL    HW2 6513   2.013   0.068   0.198
 1872SOL     OW 6514   1.852   4.230   0.202
 1872SOL    HW1 6515   1.878   4.193   0.113
 1872SOL    HW2 6516   1.871   4.162   0.273
 1873SOL     OW 6517   4.585   1.391   6.706
 1873SOL    HW1 6518   4.505   1.449   6.686
 1873SOL    HW2 6519   4.612   1.342   6.623
 1874SOL     OW 6520   1.481   1.413   2.569
 1874SOL    HW1 6521   1.413   1.343   2.549
 1874SOL    HW2 6522   1.474   1.439   2.666
 1875SOL     OW 6523   0.677   6.698   6.539
 1875SOL    HW1 6524   0.668   6.622   6.475
 1875SOL    HW2 6525   0.619   6.681   6.619
 1876SOL     OW 6526   2.960   0.034   3.950
 1876SOL    HW1 6527   3.022   0.101   3.910
 1876SOL    HW2 6528   2.957   0.046   4.050
 1877SOL     OW 6529   0.463   6.908   3.101
 1877SOL    HW1 6530   0.502   6.988   3.056
 1877SOL    HW2 6531   0.420   6.935   3.187
 1878SOL     OW 6532   6.559   2.598   4.827
 1878SOL    HW1 6533   6.613   2.530   4.778
 1878SOL    HW2 6534   6.604   2.687   4.823
 1879SOL     OW 6535   1.204   3.953   5.063
 1879SOL    HW1 6536   1.298   3.921   5.076
 1879SOL    HW2 6537   1.194   3.992   4.971
 1880SOL     OW 6538   5.816   1.421   5.062
 1880SOL    HW1 6539   5.787   1.419   5.158
 1880SOL    HW2 6540   5.735   1.417   5.003
 1881SOL     OW 6541   6.872   1.723   0.804
 1881SOL    HW1 6542   6.814   1.771   0.869
 1881SOL    HW2 6543   6.950   1.683   0.851
 1882SOL     OW 6544   0.921   3.962   6.167
 1882SOL    HW1 6545   0.879   3.900   6.100
 1882SOL    HW2 6546   0.867   4.047   6.172
 1883SOL     OW 6547   0.122   2.851   3.476
 1883SOL    HW1 6548   0.089   2.758   3.489
 1883SOL    HW2 6549   0.126   2.871   3.378
 1884SOL     OW 6550   0.135   2.219   1.366
 1884SOL    HW1 6551   0.204   2.161   1.322
 1884SOL    HW2 6552   0.179   2.281   1.430
 1885SOL     OW 6553   2.358   1.719   5.139
 1885SOL    HW1 6554   2.389   1.717   5.235
 1885SOL    HW2 6555   2.259   1.737   5.137
 1886SOL     OW 6556   1.618   6.618   3.678
 1886SOL    HW1 6557   1.523   6.616   3.646
 1886SOL    HW2 6558   1.678   6.584   3.606
 1887SOL     OW 6559   1.048   6.362   6.384
 1887SOL    HW1 6560   1.070   6.451   6.345
 1887SOL    HW2 6561   1.047   6.294   6.310
 1888SOL     OW 6562   2.723   0.998   1.410
 1888SOL    HW1 6563   2.642   1.050   1.439
 1888SOL    HW2 6564   2.776   0.973   1.490
 1889SOL     OW 6565   1.399   3.623   3.510
 1889SOL    HW1 6566   1.485   3.584   3.544
 1889SOL    HW2 6567   1.360   3.683   3.579
 1890SOL     OW 6568   0.620   5.809   3.746
 1890SOL    HW1 6569   0.531   5.799   3.791
 1890SOL    HW2 6570   0.688   5.752   3.792
 1891SOL     OW 6571   4.130   3.565   2.458
 1891SOL    HW1 6572   4.134   3.478   2.409
 1891SOL    HW2 6573   4.185   3.633   2.409
 1892SOL     OW 6574   0.674   0.657   2.106
 1892SOL    HW1 6575   0.717   0.601   2.178
 1892SOL    HW2 6576   0.649   0.598   2.029
 1893SOL     OW 6577   3.469   3.415   3.484
 1893SOL    HW1 6578   3.483   3.445   3.578
 1893SOL    HW2 6579   3.542   3.353   3.458
 1894SOL     OW 6580   3.670   4.074   4.655
 1894SOL    HW1 6581   3.758   4.055   4.699
 1894SOL    HW2 6582   3.618   4.139   4.711
 1895SOL     OW 6583   3.778   6.496   6.934
 1895SOL    HW1 6584   3.878   6.499   6.939
 1895SOL    HW2 6585   3.748   6.531   6.845
 1896SOL     OW 6586   5.522   2.043   1.168
 1896SOL    HW1 6587   5.431   2.082   1.155
 1896SOL    HW2 6588   5.553   2.001   1.083
 1897SOL     OW 6589   2.292   5.007   3.226
 1897SOL    HW1 6590   2.347   4.953   3.289
 1897SOL    HW2 6591   2.202   4.965   3.215
 1898SOL     OW 6592   1.655   6.119   3.648
 1898SOL    HW1 6593   1.652   6.205   3.699
 1898SOL    HW2 6594   1.721   6.057   3.691
 1899SOL     OW 6595   6.797   0.134   2.095
 1899SOL    HW1 6596   6.751   0.082   2.167
 1899SOL    HW2 6597   6.885   0.168   2.130
 1900SOL     OW 6598   2.622   0.092   0.050
 1900SOL    HW1 6599   2.554   0.077   0.121
 1900SOL    HW2 6600   2.713   0.071   0.086
 1901SOL     OW 6601   2.867   3.815   0.558
 1901SOL    HW1 6602   2.899   3.880   0.627
 1901SOL    HW2 6603   2.807   3.862   0.493
 1902SOL     OW 6604   1.687   6.776   4.538
 1902SOL    HW1 6605   1.668   6.860   4.487
 1902SOL    HW2 6606   1.764   6.791   4.600
 1903SOL     OW 6607   1.337   2.748   4.831
 1903SOL    HW1 6608   1.271   2.742   4.756
 1903SOL    HW2 6609   1.415   2.805   4.801
 1904SOL     OW 6610   5.793   5.567   2.429
 1904SOL    HW1 6611   5.794   5.474   2.392
 1904SOL    HW2 6612   5.716   5.577   2.492
 1905SOL     OW 6613   0.345   0.813   3.630
 1905SOL    HW1 6614   0.325   0.742   3.698
 1905SOL    HW2 6615   0.298   0.897   3.656
 1906SOL     OW 6616   2.264   0.079   5.920
 1906SOL    HW1 6617   2.341   0.134   5.886
 1906SOL    HW2 6618   2.235   0.114   6.009
 1907SOL     OW 6619   4.982   2.878   0.108
 1907SOL    HW1 6620   4.946   2.794   0.147
 1907SOL    HW2 6621   5.019   2.860   0.016
 1908SOL     OW 6622   3.700   1.395   1.090
 1908SOL    HW1 6623   3.792   1.386   1.128
 1908SOL    HW2 6624   3.695   1.345   1.003
 1909SOL     OW 6625   7.009   4.719   5.138
 1909SOL    HW1 6626   0.080   4.750   5.131
 1909SOL    HW2 6627   6.975   4.695   5.047
 1910SOL     OW 6628   6.532   6.238   5.631
 1910SOL    HW1 6629   6.494   6.159   5.583
 1910SOL    HW2 6630   6.466   6.272   5.697
 1911SOL     OW 6631   0.004   5.053   4.256
 1911SOL    HW1 6632   6.974   5.129   4.291
 1911SOL    HW2 6633   6.977   4.968   4.266
 1912SOL     OW 6634   2.537   5.025   2.713
 1912SOL    HW1 6635   2.611   5.085   2.681
 1912SOL    HW2 6636   2.559   4.931   2.690
 1913SOL     OW 6637   2.846   4.628   5.392
 1913SOL    HW1 6638   2.882   4.585   5.310
 1913SOL    HW2 6639   2.751   4.656   5.376
 1914SOL     OW 6640   2.520   4.253   6.618
 1914SOL    HW1 6641   2.512   4.174   6.557
 1914SOL    HW2 6642   2.617   4.275   6.632
 1915SOL     OW 6643   4.582   2.198   6.536
 1915SOL    HW1 6644   4.553   2.104   6.518
 1915SOL    HW2 6645   4.681   2.205   6.525
 1916SOL     OW 6646   3.821   0.549   2.117
 1916SOL    HW1 6647   3.907   0.535   2.166
 1916SOL    HW2 6648   3.838   0.603   2.034
 1917SOL     OW 6649   2.880   4.098   1.461
 1917SOL    HW1 6650   2.867   4.197   1.463
 1917SOL    HW2 6651   2.872   4.064   1.368
 1918SOL     OW 6652   6.499   2.329   4.373
 1918SOL    HW1 6653   6.429   2.260   4.355
 1918SOL    HW2 6654   6.518   2.380   4.290
 1919SOL     OW 6655   1.035   1.991   1.131
 1919SOL    HW1 6656   1.105   1.927   1.098
 1919SOL    HW2 6657   1.025   2.065   1.064
 1920SOL     OW 6658   5.232   2.064   0.792
 1920SOL    HW1 6659   5.222   2.163   0.782
 1920SOL    HW2 6660   5.142   2.021   0.786
 1921SOL     OW 6661   1.919   3.010   6.762
 1921SOL    HW1 6662   1.883   2.974   6.677
 1921SOL    HW2 6663   1.904   2.944   6.836
 1922SOL     OW 6664   3.036   3.880   2.281
 1922SOL    HW1 6665   2.998   3.817   2.349
 1922SOL    HW2 6666   2.987   3.869   2.195
 1923SOL     OW 6667   4.048   0.343   5.230
 1923SOL    HW1 6668   4.125   0.339   5.294
 1923SOL    HW2 6669   3.986   0.416   5.257
 1924SOL     OW 6670   4.348   0.182   0.999
 1924SOL    HW1 6671   4.319   0.146   0.911
 1924SOL    HW2 6672   4.447   0.198   0.998
 1925SOL     OW 6673   1.206   4.881   1.419
 1925SOL    HW1 6674   1.192   4.828   1.503
 1925SOL    HW2 6675   1.300   4.916   1.417
 1926SOL     OW 6676   3.132   0.070   2.009
 1926SOL    HW1 6677   3.130   6.995   1.997
 1926SOL    HW2 6678   3.198   0.109   1.945
 1927SOL     OW 6679   2.143   5.267   1.755
 1927SOL    HW1 6680   2.219   5.265   1.691
 1927SOL    HW2 6681   2.065   5.315   1.714
 1928SOL     OW 6682   5.072   4.128   2.987
 1928SOL    HW1 6683   5.080   4.204   2.922
 1928SOL    HW2 6684   5.013   4.057   2.949
 1929SOL     OW 6685   2.871   0.029   2.920
 1929SOL    HW1 6686   2.792   0.089   2.906
 1929SOL    HW2 6687   2.953   0.073   2.884
 1930SOL     OW 6688   4.849   2.801   6.193
 1930SOL    HW1 6689   4.754   2.786   6.219
 1930SOL    HW2 6690   4.869   2.899   6.191
 1931SOL     OW 6691   0.881   1.695   4.473
 1931SOL    HW1 6692   0.841   1.787   4.477
 1931SOL    HW2 6693   0.916   1.677   4.381
 1932SOL     OW 6694   4.565   2.561   2.393
 1932SOL    HW1 6695   4.505   2.585   2.317
 1932SOL    HW2 6696   4.611   2.643   2.427
 1933SOL     OW 6697   1.229   1.381   1.012
 1933SOL    HW1 6698   1.299   1.309   1.007
 1933SOL    HW2 6699   1.220   1.425   0.923
 1934SOL     OW 6700   0.268   0.250   5.821
 1934SOL    HW1 6701   0.197   0.316   5.796
 1934SOL    HW2 6702   0.225   0.165   5.852
 1935SOL     OW 6703   0.094   5.362   3.781
 1935SOL    HW1 6704   0.003   5.380   3.744
 1935SOL    HW2 6705   0.111   5.264   3.782
 1936SOL     OW 6706   4.522   3.141   5.380
 1936SOL    HW1 6707   4.531   3.241   5.378
 1936SOL    HW2 6708   4.427   3.116   5.363
 1937SOL     OW 6709   5.549   5.138   6.770
 1937SOL    HW1 6710   5.542   5.108   6.865
 1937SOL    HW2 6711   5.458   5.163   6.735
 1938SOL     OW 6712   0.731   3.205   6.468
 1938SOL    HW1 6713   0.774   3.247   6.548
 1938SOL    HW2 6714   0.674   3.129   6.498
 1939SOL     OW 6715   0.907   0.367   4.724
 1939SOL    HW1 6716   0.856   0.339   4.642
 1939SOL    HW2 6717   0.881   0.460   4.748
 1940SOL     OW 6718   6.729   4.710   0.809
 1940SOL    HW1 6719   6.789   4.654   0.752
 1940SOL    HW2 6720   6.712   4.664   0.896
 1941SOL     OW 6721   6.645   1.960   4.498
 1941SOL    HW1 6722   6.692   2.036   4.453
 1941SOL    HW2 6723   6.562   1.937   4.448
 1942SOL     OW 6724   5.662   3.774   2.448
 1942SOL    HW1 6725   5.757   3.778   2.417
 1942SOL    HW2 6726   5.657   3.798   2.545
 1943SOL     OW 6727   1.084   1.242   2.666
 1943SOL    HW1 6728   1.181   1.242   2.643
 1943SOL    HW2 6729   1.069   1.300   2.746
 1944SOL     OW 6730   0.106   3.038   2.952
 1944SOL    HW1 6731   0.185   2.985   2.983
 1944SOL    HW2 6732   0.028   2.977   2.937
 1945SOL     OW 6733   5.025   0.700   1.981
 1945SOL    HW1 6734   4.966   0.693   1.900
 1945SOL    HW2 6735   5.010   0.788   2.026
 1946SOL     OW 6736   6.291   5.418   1.480
 1946SOL    HW1 6737   6.308   5.387   1.386
 1946SOL    HW2 6738   6.353   5.494   1.502
 1947SOL     OW 6739   6.127   4.899   3.914
 1947SOL    HW1 6740   6.146   4.804   3.940
 1947SOL    HW2 6741   6.031   4.907   3.886
 1948SOL     OW 6742   4.860   3.641   3.453
 1948SOL    HW1 6743   4.789   3.701   3.417
 1948SOL    HW2 6744   4.914   3.691   3.520
 1949SOL     OW 6745   3.828   4.899   6.580
 1949SOL    HW1 6746   3.895   4.969   6.558
 1949SOL    HW2 6747   3.809   4.843   6.499
 1950SOL     OW 6748   3.151   4.037   3.362
 1950SOL    HW1 6749   3.104   4.064   3.446
 1950SOL    HW2 6750   3.165   3.938   3.363
 1951SOL     OW 6751   6.133   4.518   6.034
 1951SOL    HW1 6752   6.094   4.545   5.947
 1951SOL    HW2 6753   6.097   4.428   6.060
 1952SOL     OW 6754   5.683   5.248   0.050
 1952SOL    HW1 6755   5.587   5.223   0.038
 1952SOL    HW2 6756   5.741   5.171   0.026
 1953SOL     OW 6757   0.518   0.750   6.777
 1953SOL    HW1 6758   0.599   0.694   6.795
 1953SOL    HW2 6759   0.468   0.711   6.699
 1954SOL     OW 6760   3.876   0.191   2.049
 1954SOL    HW1 6761   3.907   0.260   2.115
 1954SOL    HW2 6762   3.941   0.186   1.974
 1955SOL     OW 6763   0.571   2.364   2.886
 1955SOL    HW1 6764   0.643   2.357   2.816
 1955SOL    HW2 6765   0.537   2.272   2.907
 1956SOL     OW 6766   5.650   0.286   1.487
 1956SOL    HW1 6767   5.660   0.370   1.433
 1956SOL    HW2 6768   5.557   0.281   1.523
 1957SOL     OW 6769   5.496   2.060   4.454
 1957SOL    HW1 6770   5.415   2.098   4.409
 1957SOL    HW2 6771   5.538   1.992   4.394
 1958SOL     OW 6772   4.655   1.970   0.855
 1958SOL    HW1 6773   4.651   2.060   0.899
 1958SOL    HW2 6774   4.570   1.954   0.805
 1959SOL     OW 6775   0.385   0.774   4.824
 1959SOL    HW1 6776   0.451   0.833   4.776
 1959SOL    HW2 6777   0.348   0.706   4.760
 1960SOL     OW 6778   6.051   3.989   4.319
 1960SOL    HW1 6779   5.958   4.024   4.311
 1960SOL    HW2 6780   6.061   3.940   4.406
 1961SOL     OW 6781   6.746   4.178   4.788
 1961SOL    HW1 6782   6.835   4.196   4.829
 1961SOL    HW2 6783   6.728   4.079   4.788
 1962SOL     OW 6784   0.849   0.369   2.352
 1962SOL    HW1 6785   0.933   0.317   2.343
 1962SOL    HW2 6786   0.774   0.308   2.378
 1963SOL     OW 6787   0.617   2.078   1.791
 1963SOL    HW1 6788   0.569   2.141   1.852
 1963SOL    HW2 6789   0.635   2.123   1.704
 1964SOL     OW 6790   5.496   3.641   1.219
 1964SOL    HW1 6791   5.567   3.683   1.276
 1964SOL    HW2 6792   5.510   3.667   1.123
 1965SOL     OW 6793   0.161   4.511   4.105
 1965SOL    HW1 6794   0.084   4.522   4.042
 1965SOL    HW2 6795   0.227   4.448   4.065
 1966SOL     OW 6796   1.969   4.979   0.023
 1966SOL    HW1 6797   1.935   4.942   0.110
 1966SOL    HW2 6798   1.904   4.959   6.974
 1967SOL     OW 6799   6.145   3.580   3.097
 1967SOL    HW1 6800   6.237   3.542   3.105
 1967SOL    HW2 6801   6.128   3.605   3.001
 1968SOL     OW 6802   2.776   1.206   5.223
 1968SOL    HW1 6803   2.738   1.261   5.297
 1968SOL    HW2 6804   2.873   1.192   5.238
 1969SOL     OW 6805   2.883   6.295   0.262
 1969SOL    HW1 6806   2.958   6.360   0.276
 1969SOL    HW2 6807   2.842   6.311   0.172
 1970SOL     OW 6808   6.281   5.512   5.371
 1970SOL    HW1 6809   6.223   5.495   5.291
 1970SOL    HW2 6810   6.230   5.491   5.454
 1971SOL     OW 6811   1.800   5.755   4.605
 1971SOL    HW1 6812   1.883   5.710   4.639
 1971SOL    HW2 6813   1.794   5.847   4.643
 1972SOL     OW 6814   6.378   2.863   2.689
 1972SOL    HW1 6815   6.319   2.877   2.768
 1972SOL    HW2 6816   6.340   2.912   2.610
 1973SOL     OW 6817   2.383   3.237   6.920
 1973SOL    HW1 6818   2.322   3.178   6.868
 1973SOL    HW2 6819   2.403   3.319   6.867
 1974SOL     OW 6820   3.251   6.646   4.793
 1974SOL    HW1 6821   3.208   6.681   4.876
 1974SOL    HW2 6822   3.321   6.579   4.817
 1975SOL     OW 6823   1.914   2.409   3.426
 1975SOL    HW1 6824   1.883   2.376   3.337
 1975SOL    HW2 6825   1.995   2.357   3.454
 1976SOL     OW 6826   6.680   0.065   6.338
 1976SOL    HW1 6827   6.661   0.159   6.366
 1976SOL    HW2 6828   6.733   0.019   6.409
 1977SOL     OW 6829   2.103   4.552   5.930
 1977SOL    HW1 6830   2.071   4.472   5.880
 1977SOL    HW2 6831   2.093   4.536   6.029
 1978SOL     OW 6832   2.750   6.990   1.616
 1978SOL    HW1 6833   2.788   6.903   1.586
 1978SOL    HW2 6834   2.652   6.980   1.635
 1979SOL     OW 6835   0.119   5.040   6.445
 1979SOL    HW1 6836   0.069   4.978   6.505
 1979SOL    HW2 6837   0.163   4.988   6.372
 1980SOL     OW 6838   3.181   1.590   0.690
 1980SOL    HW1 6839   3.271   1.577   0.647
 1980SOL    HW2 6840   3.194   1.625   0.783
 1981SOL     OW 6841   3.617   2.081   2.856
 1981SOL    HW1 6842   3.654   2.146   2.790
 1981SOL    HW2 6843   3.519   2.069   2.839
 1982SOL     OW 6844   0.253   2.916   5.387
 1982SOL    HW1 6845   0.316   2.871   5.450
 1982SOL    HW2 6846   0.162   2.921   5.429
 1983SOL     OW 6847   0.177   0.665   2.478
 1983SOL    HW1 6848   0.110   0.724   2.434
 1983SOL    HW2 6849   0.268   0.707   2.471
 1984SOL     OW 6850   5.228   2.986   5.419
 1984SOL    HW1 6851   5.278   3.029   5.344
 1984SOL    HW2 6852   5.129   2.996   5.403
 1985SOL     OW 6853   6.451   3.634   2.266
 1985SOL    HW1 6854   6.426   3.614   2.360
 1985SOL    HW2 6855   6.368   3.646   2.211
 1986SOL     OW 6856   4.203   2.614   1.664
 1986SOL    HW1 6857   4.286   2.573   1.701
 1986SOL    HW2 6858   4.127   2.551   1.676
 1987SOL     OW 6859   2.637   1.153   1.682
 1987SOL    HW1 6860   2.708   1.085   1.670
 1987SOL    HW2 6861   2.654   1.231   1.621
 1988SOL     OW 6862   0.110   2.296   1.085
 1988SOL    HW1 6863   0.113   2.303   1.184
 1988SOL    HW2 6864   0.201   2.315   1.047
 1989SOL     OW 6865   2.589   5.122   4.798
 1989SOL    HW1 6866   2.659   5.052   4.789
 1989SOL    HW2 6867   2.550   5.142   4.708
 1990SOL     OW 6868   3.912   0.282   0.864
 1990SOL    HW1 6869   3.823   0.235   0.859
 1990SOL    HW2 6870   3.951   0.269   0.955
 1991SOL     OW 6871   2.585   5.051   1.169
 1991SOL    HW1 6872   2.508   5.062   1.107
 1991SOL    HW2 6873   2.563   4.979   1.236
 1992SOL     OW 6874   0.522   5.992   1.120
 1992SOL    HW1 6875   0.577   6.075   1.132
 1992SOL    HW2 6876   0.554   5.942   1.039
 1993SOL     OW 6877   2.333   2.704   3.767
 1993SOL    HW1 6878   2.370   2.675   3.855
 1993SOL    HW2 6879   2.245   2.659   3.751
 1994SOL     OW 6880   3.448   2.401   0.764
 1994SOL    HW1 6881   3.395   2.475   0.721
 1994SOL    HW2 6882   3.477   2.430   0.856
 1995SOL     OW 6883   5.713   2.236   4.376
 1995SOL    HW1 6884   5.652   2.177   4.430
 1995SOL    HW2 6885   5.661   2.311   4.336
 1996SOL     OW 6886   3.894   1.714   0.927
 1996SOL    HW1 6887   3.833   1.697   1.004
 1996SOL    HW2 6888   3.858   1.788   0.871
 1997SOL     OW 6889   4.001   0.352   3.539
 1997SOL    HW1 6890   3.993   0.255   3.559
 1997SOL    HW2 6891   4.040   0.399   3.618
 1998SOL     OW 6892   1.924   3.292   1.235
 1998SOL    HW1 6893   1.996   3.223   1.249
 1998SOL    HW2 6894   1.844   3.267   1.290
 1999SOL     OW 6895   1.810   6.646   6.597
 1999SOL    HW1 6896   1.810   6.569   6.533
 1999SOL    HW2 6897   1.726   6.644   6.652
 2000SOL     OW 6898   3.759   4.345   5.874
 2000SOL    HW1 6899   3.807   4.258   5.887
 2000SOL    HW2 6900   3.822   4.421   5.890
 2001SOL     OW 6901   1.980   1.582   0.677
 2001SOL    HW1 6902   1.989   1.628   0.766
 2001SOL    HW2 6903   2.014   1.642   0.605
 2002SOL     OW 6904   0.142   4.439   0.260
 2002SOL    HW1 6905   0.151   4.340   0.273
 2002SOL    HW2 6906   0.045   4.462   0.249
 2003SOL     OW 6907   6.593   5.130   3.015
 2003SOL    HW1 6908   6.624   5.124   3.110
 2003SOL    HW2 6909   6.672   5.144   2.955
 2004SOL     OW 6910   3.581   6.938   3.415
 2004SOL    HW1 6911   3.639   6.870   3.459
 2004SOL    HW2 6912   3.558   6.909   3.323
 2005SOL     OW 6913   1.544   6.168   0.483
 2005SOL    HW1 6914   1.537   6.234   0.408
 2005SOL    HW2 6915   1.453   6.131   0.503
 2006SOL     OW 6916   5.945   6.854   2.789
 2006SOL    HW1 6917   5.855   6.841   2.747
 2006SOL    HW2 6918   6.011   6.881   2.719
 2007SOL     OW 6919   5.764   4.857   6.891
 2007SOL    HW1 6920   5.825   4.786   6.925
 2007SOL    HW2 6921   5.751   4.846   6.793
 2008SOL     OW 6922   1.370   3.867   4.114
 2008SOL    HW1 6923   1.421   3.949   4.137
 2008SOL    HW2 6924   1.422   3.786   4.144
 2009SOL     OW 6925   6.169   0.364   3.175
 2009SOL    HW1 6926   6.116   0.343   3.257
 2009SOL    HW2 6927   6.239   0.432   3.197
 2010SOL     OW 6928   1.382   1.932   1.732
 2010SOL    HW1 6929   1.381   2.029   1.755
 2010SOL    HW2 6930   1.458   1.913   1.669
 2011SOL     OW 6931   0.660   6.881   5.911
 2011SOL    HW1 6932   0.606   6.965   5.921
 2011SOL    HW2 6933   0.618   6.823   5.841
 2012SOL     OW 6934   1.667   3.247   1.763
 2012SOL    HW1 6935   1.580   3.282   1.730
 2012SOL    HW2 6936   1.650   3.182   1.838
 2013SOL     OW 6937   0.653   3.335   2.365
 2013SOL    HW1 6938   0.709   3.373   2.438
 2013SOL    HW2 6939   0.559   3.366   2.375
 2014SOL     OW 6940   3.536   0.828   4.497
 2014SOL    HW1 6941   3.442   0.794   4.483
 2014SOL    HW2 6942   3.598   0.750   4.509
 2015SOL     OW 6943   4.319   0.731   1.925
 2015SOL    HW1 6944   4.415   0.737   1.900
 2015SOL    HW2 6945   4.263   0.779   1.857
 2016SOL     OW 6946   1.422   0.683   5.847
 2016SOL    HW1 6947   1.421   0.709   5.750
 2016SOL    HW2 6948   1.512   0.703   5.885
 2017SOL     OW 6949   4.032   6.414   3.434
 2017SOL    HW1 6950   4.065   6.322   3.453
 2017SOL    HW2 6951   3.995   6.418   3.342
 2018SOL     OW 6952   1.402   1.270   3.824
 2018SOL    HW1 6953   1.430   1.309   3.912
 2018SOL    HW2 6954   1.306   1.243   3.829
 2019SOL     OW 6955   5.763   5.081   6.428
 2019SOL    HW1 6956   5.719   5.159   6.382
 2019SOL    HW2 6957   5.805   5.112   6.514
 2020SOL     OW 6958   2.399   5.981   6.392
 2020SOL    HW1 6959   2.362   5.891   6.368
 2020SOL    HW2 6960   2.431   6.027   6.310
 2021SOL     OW 6961   6.876   6.298   4.164
 2021SOL    HW1 6962   6.893   6.315   4.261
 2021SOL    HW2 6963   6.829   6.210   4.154
 2022SOL     OW 6964   1.627   4.233   5.229
 2022SOL    HW1 6965   1.577   4.189   5.154
 2022SOL    HW2 6966   1.714   4.268   5.195
 2023SOL     OW 6967   6.701   6.415   0.387
 2023SOL    HW1 6968   6.642   6.361   0.447
 2023SOL    HW2 6969   6.743   6.489   0.440
 2024SOL     OW 6970   0.442   6.113   4.415
 2024SOL    HW1 6971   0.443   6.089   4.318
 2024SOL    HW2 6972   0.523   6.074   4.459
 2025SOL     OW 6973   1.171   7.018   4.609
 2025SOL    HW1 6974   1.078   7.018   4.573
 2025SOL    HW2 6975   1.173   6.970   4.697
 2026SOL     OW 6976   6.652   0.156   5.889
 2026SOL    HW1 6977   6.701   0.084   5.938
 2026SOL    HW2 6978   6.600   0.116   5.814
 2027SOL     OW 6979   6.782   6.158   2.406
 2027SOL    HW1 6980   6.842   6.088   2.445
 2027SOL    HW2 6981   6.821   6.190   2.320
 2028SOL     OW 6982   3.206   5.197   4.459
 2028SOL    HW1 6983   3.204   5.228   4.363
 2028SOL    HW2 6984   3.262   5.114   4.466
 2029SOL     OW 6985   6.120   2.596   6.885
 2029SOL    HW1 6986   6.117   2.691   6.915
 2029SOL    HW2 6987   6.102   2.592   6.787
 2030SOL     OW 6988   2.492   6.568   2.363
 2030SOL    HW1 6989   2.457   6.649   2.314
 2030SOL    HW2 6990   2.587   6.553   2.338
 2031SOL     OW 6991   6.896   5.933   3.911
 2031SOL    HW1 6992   6.817   5.912   3.969
 2031SOL    HW2 6993   6.873   5.916   3.815
 2032SOL     OW 6994   2.406   1.932   6.366
 2032SOL    HW1 6995   2.347   2.012   6.370
 2032SOL    HW2 6996   2.502   1.961   6.365
 2033SOL     OW 6997   2.328   2.066   0.654
 2033SOL    HW1 6998   2.285   2.053   0.565
 2033SOL    HW2 6999   2.324   1.981   0.706
 2034SOL     OW 7000   6.944   4.377   4.949
 2034SOL    HW1 7001   6.942   4.349   5.045
 2034SOL    HW2 7002   7.013   4.449   4.937
 2035SOL     OW 7003   5.790   0.041   2.869
 2035SOL    HW1 7004   5.730   0.007   2.941
 2035SOL    HW2 7005   5.854   6.993   2.842
 2036SOL     OW 7006   1.151   4.164   1.405
 2036SOL    HW1 7007   1.072   4.216   1.437
 2036SOL    HW2 7008   1.214   4.148   1.482
 2037SOL     OW 7009   0.323   2.473   0.083
 2037SOL    HW1 7010   0.242   2.525   0.109
 2037SOL    HW2 7011   0.396   2.490   0.149
 2038SOL     OW 7012   1.433   1.185   6.327
 2038SOL    HW1 7013   1.469   1.218   6.240
 2038SOL    HW2 7014   1.338   1.214   6.338
 2039SOL     OW 7015   5.805   6.387   2.806
 2039SOL    HW1 7016   5.892   6.359   2.848
 2039SOL    HW2 7017   5.824   6.436   2.720
 2040SOL     OW 7018   1.738   2.751   0.813
 2040SOL    HW1 7019   1.756   2.776   0.908
 2040SOL    HW2 7020   1.823   2.723   0.769
 2041SOL     OW 7021   2.373   0.554   6.323
 2041SOL    HW1 7022   2.438   0.490   6.282
 2041SOL    HW2 7023   2.317   0.506   6.391
 2042SOL     OW 7024   5.122   1.385   5.626
 2042SOL    HW1 7025   5.084   1.297   5.599
 2042SOL    HW2 7026   5.049   1.444   5.659
 2043SOL     OW 7027   0.140   3.946   1.365
 2043SOL    HW1 7028   0.205   3.925   1.292
 2043SOL    HW2 7029   0.184   4.005   1.432
 2044SOL     OW 7030   4.155   0.641   0.853
 2044SOL    HW1 7031   4.089   0.657   0.779
 2044SOL    HW2 7032   4.132   0.696   0.932
 2045SOL     OW 7033   1.155   6.170   5.240
 2045SOL    HW1 7034   1.076   6.204   5.292
 2045SOL    HW2 7035   1.183   6.238   5.173
 2046SOL     OW 7036   0.828   1.634   4.869
 2046SOL    HW1 7037   0.735   1.602   4.885
 2046SOL    HW2 7038   0.845   1.717   4.921
 2047SOL     OW 7039   0.342   0.874   1.122
 2047SOL    HW1 7040   0.407   0.917   1.184
 2047SOL    HW2 7041   0.347   0.774   1.132
 2048SOL     OW 7042   0.761   1.957   4.490
 2048SOL    HW1 7043   0.683   1.985   4.546
 2048SOL    HW2 7044   0.838   2.018   4.507
 2049SOL     OW 7045   4.908   1.844   5.233
 2049SOL    HW1 7046   4.814   1.817   5.253
 2049SOL    HW2 7047   4.908   1.920   5.168
 2050SOL     OW 7048   0.486   1.422   4.077
 2050SOL    HW1 7049   0.498   1.491   4.149
 2050SOL    HW2 7050   0.552   1.348   4.092
 2051SOL     OW 7051   2.834   6.696   0.108
 2051SOL    HW1 7052   2.906   6.758   0.077
 2051SOL    HW2 7053   2.865   6.647   0.190
 2052SOL     OW 7054   1.094   4.551   6.489
 2052SOL    HW1 7055   1.049   4.581   6.405
 2052SOL    HW2 7056   1.168   4.615   6.511
 2053SOL     OW 7057   7.018   6.372   3.403
 2053SOL    HW1 7058   6.929   6.385   3.446
 2053SOL    HW2 7059   7.013   6.292   3.343
 2054SOL     OW 7060   3.235   3.694   3.167
 2054SOL    HW1 7061   3.274   3.751   3.095
 2054SOL    HW2 7062   3.276   3.603   3.165
 2055SOL     OW 7063   3.203   2.311   5.773
 2055SOL    HW1 7064   3.298   2.312   5.741
 2055SOL    HW2 7065   3.142   2.322   5.695
 2056SOL     OW 7066   4.181   4.401   0.768
 2056SOL    HW1 7067   4.262   4.411   0.710
 2056SOL    HW2 7068   4.172   4.482   0.826
 2057SOL     OW 7069   5.522   2.280   3.985
 2057SOL    HW1 7070   5.500   2.303   3.890
 2057SOL    HW2 7071   5.439   2.284   4.041
 2058SOL     OW 7072   6.661   6.675   2.777
 2058SOL    HW1 7073   6.705   6.764   2.765
 2058SOL    HW2 7074   6.654   6.654   2.875
 2059SOL     OW 7075   0.881   0.625   5.640
 2059SOL    HW1 7076   0.905   0.663   5.729
 2059SOL    HW2 7077   0.796   0.665   5.608
 2060SOL     OW 7078   1.515   2.313   6.826
 2060SOL    HW1 7079   1.425   2.290   6.864
 2060SOL    HW2 7080   1.577   2.337   6.900
 2061SOL     OW 7081   1.955   2.584   2.290
 2061SOL    HW1 7082   1.963   2.684   2.293
 2061SOL    HW2 7083   1.928   2.556   2.198
 2062SOL     OW 7084   0.637   5.306   4.616
 2062SOL    HW1 7085   0.701   5.373   4.577
 2062SOL    HW2 7086   0.625   5.324   4.714
 2063SOL     OW 7087   0.689   1.064   5.029
 2063SOL    HW1 7088   0.636   1.148   5.021
 2063SOL    HW2 7089   0.768   1.081   5.089
 2064SOL     OW 7090   0.740   2.900   3.774
 2064SOL    HW1 7091   0.811   2.837   3.805
 2064SOL    HW2 7092   0.734   2.897   3.675
 2065SOL     OW 7093   4.083   3.583   5.494
 2065SOL    HW1 7094   4.103   3.511   5.560
 2065SOL    HW2 7095   4.125   3.668   5.524
 2066SOL     OW 7096   0.681   3.156   5.722
 2066SOL    HW1 7097   0.678   3.074   5.664
 2066SOL    HW2 7098   0.677   3.129   5.818
 2067SOL     OW 7099   6.706   4.907   1.461
 2067SOL    HW1 7100   6.796   4.940   1.490
 2067SOL    HW2 7101   6.648   4.985   1.436
 2068SOL     OW 7102   4.535   0.764   4.432
 2068SOL    HW1 7103   4.500   0.675   4.403
 2068SOL    HW2 7104   4.633   0.769   4.415
 2069SOL     OW 7105   0.440   2.285   3.854
 2069SOL    HW1 7106   0.492   2.284   3.939
 2069SOL    HW2 7107   0.465   2.205   3.799
 2070SOL     OW 7108   0.714   4.870   0.903
 2070SOL    HW1 7109   0.798   4.923   0.915
 2070SOL    HW2 7110   0.662   4.871   0.989
 2071SOL     OW 7111   0.064   1.624   5.381
 2071SOL    HW1 7112   0.087   1.720   5.391
 2071SOL    HW2 7113   6.989   1.613   5.390
 2072SOL     OW 7114   4.248   4.579   5.461
 2072SOL    HW1 7115   4.273   4.627   5.546
 2072SOL    HW2 7116   4.236   4.482   5.480
 2073SOL     OW 7117   2.901   5.381   6.488
 2073SOL    HW1 7118   2.910   5.398   6.390
 2073SOL    HW2 7119   2.966   5.310   6.516
 2074SOL     OW 7120   1.068   4.236   5.975
 2074SOL    HW1 7121   1.038   4.310   6.035
 2074SOL    HW2 7122   1.140   4.184   6.020
 2075SOL     OW 7123   6.532   2.454   0.985
 2075SOL    HW1 7124   6.604   2.405   1.033
 2075SOL    HW2 7125   6.466   2.489   1.052
 2076SOL     OW 7126   6.253   6.848   4.498
 2076SOL    HW1 7127   6.181   6.897   4.547
 2076SOL    HW2 7128   6.326   6.823   4.562
 2077SOL     OW 7129   6.310   4.748   0.732
 2077SOL    HW1 7130   6.259   4.796   0.661
 2077SOL    HW2 7131   6.320   4.652   0.706
 2078SOL     OW 7132   0.929   2.960   5.553
 2078SOL    HW1 7133   0.869   3.037   5.536
 2078SOL    HW2 7134   1.015   2.992   5.592
 2079SOL     OW 7135   5.525   1.274   2.274
 2079SOL    HW1 7136   5.520   1.269   2.373
 2079SOL    HW2 7137   5.433   1.277   2.235
 2080SOL     OW 7138   2.688   3.087   6.231
 2080SOL    HW1 7139   2.763   3.055   6.289
 2080SOL    HW2 7140   2.601   3.059   6.272
 2081SOL     OW 7141   6.163   5.743   2.254
 2081SOL    HW1 7142   6.074   5.767   2.294
 2081SOL    HW2 7143   6.236   5.773   2.315
 2082SOL     OW 7144   6.455   5.906   4.334
 2082SOL    HW1 7145   6.437   5.819   4.288
 2082SOL    HW2 7146   6.523   5.893   4.406
 2083SOL     OW 7147   0.218   6.564   3.781
 2083SOL    HW1 7148   0.306   6.521   3.760
 2083SOL    HW2 7149   0.218   6.595   3.876
 2084SOL     OW 7150   6.019   2.280   1.001
 2084SOL    HW1 7151   6.016   2.180   1.004
 2084SOL    HW2 7152   6.028   2.309   0.906
 2085SOL     OW 7153   6.012   5.911   0.764
 2085SOL    HW1 7154   6.046   5.861   0.685
 2085SOL    HW2 7155   6.007   5.850   0.843
 2086SOL     OW 7156   4.973   1.062   6.716
 2086SOL    HW1 7157   4.921   1.028   6.638
 2086SOL    HW2 7158   4.971   1.162   6.717
 2087SOL     OW 7159   4.508   1.557   6.943
 2087SOL    HW1 7160   4.418   1.601   6.946
 2087SOL    HW2 7161   4.532   1.538   6.848
 2088SOL     OW 7162   0.656   5.655   6.030
 2088SOL    HW1 7163   0.571   5.675   6.078
 2088SOL    HW2 7164   0.646   5.675   5.933
 2089SOL     OW 7165   2.294   3.902   0.070
 2089SOL    HW1 7166   2.383   3.932   0.035
 2089SOL    HW2 7167   2.294   3.910   0.170
 2090SOL     OW 7168   5.405   2.967   5.938
 2090SOL    HW1 7169   5.415   2.969   5.838
 2090SOL    HW2 7170   5.346   2.891   5.964
 2091SOL     OW 7171   5.418   6.340   1.639
 2091SOL    HW1 7172   5.360   6.266   1.673
 2091SOL    HW2 7173   5.491   6.302   1.582
 2092SOL     OW 7174   3.892   3.751   1.739
 2092SOL    HW1 7175   3.843   3.793   1.815
 2092SOL    HW2 7176   3.832   3.687   1.691
 2093SOL     OW 7177   3.904   1.342   1.789
 2093SOL    HW1 7178   3.949   1.316   1.874
 2093SOL    HW2 7179   3.909   1.266   1.724
 2094SOL     OW 7180   5.346   1.991   6.241
 2094SOL    HW1 7181   5.442   1.967   6.247
 2094SOL    HW2 7182   5.326   2.065   6.305
 2095SOL     OW 7183   5.650   5.609   4.103
 2095SOL    HW1 7184   5.567   5.665   4.093
 2095SOL    HW2 7185   5.655   5.574   4.197
 2096SOL     OW 7186   4.823   0.235   2.178
 2096SOL    HW1 7187   4.763   0.310   2.152
 2096SOL    HW2 7188   4.855   0.187   2.096
 2097SOL     OW 7189   0.994   5.807   6.380
 2097SOL    HW1 7190   0.936   5.769   6.452
 2097SOL    HW2 7191   0.958   5.780   6.291
 2098SOL     OW 7192   2.945   5.939   3.709
 2098SOL    HW1 7193   2.923   5.975   3.618
 2098SOL    HW2 7194   3.003   5.858   3.699
 2099SOL     OW 7195   4.937   1.735   6.250
 2099SOL    HW1 7196   4.994   1.714   6.330
 2099SOL    HW2 7197   4.850   1.773   6.280
 2100SOL     OW 7198   5.004   6.912   1.533
 2100SOL    HW1 7199   5.019   6.978   1.459
 2100SOL    HW2 7200   5.046   6.824   1.507
 2101SOL     OW 7201   0.712   0.127   2.110
 2101SOL    HW1 7202   0.705   0.033   2.142
 2101SOL    HW2 7203   0.647   0.185   2.160
 2102SOL     OW 7204   3.596   2.109   1.153
 2102SOL    HW1 7205   3.652   2.192   1.156
 2102SOL    HW2 7206   3.646   2.034   1.196
 2103SOL     OW 7207   2.761   5.826   0.236
 2103SOL    HW1 7208   2.710   5.897   0.187
 2103SOL    HW2 7209   2.832   5.869   0.292
 2104SOL     OW 7210   1.564   4.055   3.313
 2104SOL    HW1 7211   1.566   3.957   3.334
 2104SOL    HW2 7212   1.658   4.086   3.295
 2105SOL     OW 7213   5.959   5.736   5.078
 2105SOL    HW1 7214   5.885   5.673   5.104
 2105SOL    HW2 7215   6.035   5.726   5.142
 2106SOL     OW 7216   4.155   3.262   0.692
 2106SOL    HW1 7217   4.134   3.327   0.765
 2106SOL    HW2 7218   4.150   3.169   0.729
 2107SOL     OW 7219   5.455   4.849   5.446
 2107SOL    HW1 7220   5.397   4.855   5.527
 2107SOL    HW2 7221   5.399   4.853   5.364
 2108SOL     OW 7222   5.203   0.372   5.240
 2108SOL    HW1 7223   5.286   0.329   5.274
 2108SOL    HW2 7224   5.207   0.470   5.256
 2109SOL     OW 7225   2.970   6.807   2.522
 2109SOL    HW1 7226   2.913   6.879   2.483
 2109SOL    HW2 7227   3.065   6.824   2.497
 2110SOL     OW 7228   3.490   6.627   0.273
 2110SOL    HW1 7229   3.574   6.600   0.319
 2110SOL    HW2 7230   3.485   6.583   0.184
 2111SOL     OW 7231   0.924   2.226   5.963
 2111SOL    HW1 7232   1.024   2.220   5.975
 2111SOL    HW2 7233   0.900   2.317   5.929
 2112SOL     OW 7234   0.748   0.610   6.768
 2112SOL    HW1 7235   0.842   0.593   6.800
 2112SOL    HW2 7236   0.706   0.523   6.742
 2113SOL     OW 7237   0.276   1.073   4.729
 2113SOL    HW1 7238   0.238   1.072   4.821
 2113SOL    HW2 7239   0.364   1.026   4.728
 2114SOL     OW 7240   1.280   1.405   6.115
 2114SOL    HW1 7241   1.293   1.505   6.114
 2114SOL    HW2 7242   1.366   1.361   6.140
 2115SOL     OW 7243   6.576   6.218   3.127
 2115SOL    HW1 7244   6.605   6.285   3.195
 2115SOL    HW2 7245   6.503   6.257   3.071
 2116SOL     OW 7246   0.974   1.997   0.155
 2116SOL    HW1 7247   1.068   1.973   0.132
 2116SOL    HW2 7248   0.959   2.094   0.137
 2117SOL     OW 7249   6.624   1.983   2.233
 2117SOL    HW1 7250   6.603   1.995   2.330
 2117SOL    HW2 7251   6.541   1.956   2.183
 2118SOL     OW 7252   6.864   2.851   2.347
 2118SOL    HW1 7253   6.779   2.858   2.295
 2118SOL    HW2 7254   6.849   2.794   2.428
 2119SOL     OW 7255   1.529   1.047   0.419
 2119SOL    HW1 7256   1.594   0.988   0.467
 2119SOL    HW2 7257   1.540   1.141   0.452
 2120SOL     OW 7258   6.083   1.402   1.125
 2120SOL    HW1 7259   6.022   1.331   1.088
 2120SOL    HW2 7260   6.041   1.444   1.205
 2121SOL     OW 7261   1.513   0.373   6.869
 2121SOL    HW1 7262   1.463   0.448   6.911
 2121SOL    HW2 7263   1.456   0.329   6.799
 2122SOL     OW 7264   6.226   1.382   3.872
 2122SOL    HW1 7265   6.183   1.466   3.906
 2122SOL    HW2 7266   6.156   1.318   3.843
 2123SOL     OW 7267   1.308   5.304   2.918
 2123SOL    HW1 7268   1.221   5.302   2.870
 2123SOL    HW2 7269   1.382   5.318   2.852
 2124SOL     OW 7270   4.081   3.772   6.169
 2124SOL    HW1 7271   4.133   3.858   6.167
 2124SOL    HW2 7272   4.125   3.706   6.109
 2125SOL     OW 7273   1.847   6.444   4.558
 2125SOL    HW1 7274   1.768   6.426   4.499
 2125SOL    HW2 7275   1.914   6.370   4.548
 2126SOL     OW 7276   2.810   4.329   0.115
 2126SOL    HW1 7277   2.769   4.416   0.144
 2126SOL    HW2 7278   2.910   4.338   0.113
 2127SOL     OW 7279   0.557   2.440   4.523
 2127SOL    HW1 7280   0.610   2.409   4.601
 2127SOL    HW2 7281   0.506   2.362   4.485
 2128SOL     OW 7282   5.139   3.177   1.516
 2128SOL    HW1 7283   5.151   3.276   1.523
 2128SOL    HW2 7284   5.214   3.130   1.562
 2129SOL     OW 7285   5.297   3.838   4.537
 2129SOL    HW1 7286   5.336   3.757   4.581
 2129SOL    HW2 7287   5.270   3.816   4.444
 2130SOL     OW 7288   3.084   1.310   1.729
 2130SOL    HW1 7289   3.165   1.368   1.722
 2130SOL    HW2 7290   3.021   1.332   1.654
 2131SOL     OW 7291   5.499   0.433   5.350
 2131SOL    HW1 7292   5.578   0.437   5.289
 2131SOL    HW2 7293   5.422   0.483   5.308
 2132SOL     OW 7294   2.303   2.302   0.759
 2132SOL    HW1 7295   2.328   2.298   0.856
 2132SOL    HW2 7296   2.327   2.215   0.716
 2133SOL     OW 7297   3.290   2.388   1.676
 2133SOL    HW1 7298   3.367   2.347   1.724
 2133SOL    HW2 7299   3.204   2.356   1.716
 2134SOL     OW 7300   2.059   6.636   4.471
 2134SOL    HW1 7301   2.019   6.698   4.404
 2134SOL    HW2 7302   1.987   6.583   4.515
 2135SOL     OW 7303   1.118   0.268   4.298
 2135SOL    HW1 7304   1.146   0.297   4.206
 2135SOL    HW2 7305   1.187   0.297   4.364
 2136SOL     OW 7306   1.271   4.533   3.732
 2136SOL    HW1 7307   1.316   4.616   3.766
 2136SOL    HW2 7308   1.274   4.531   3.632
 2137SOL     OW 7309   1.044   0.858   4.758
 2137SOL    HW1 7310   0.993   0.779   4.794
 2137SOL    HW2 7311   1.141   0.835   4.754
 2138SOL     OW 7312   0.411   2.828   0.248
 2138SOL    HW1 7313   0.373   2.837   0.340
 2138SOL    HW2 7314   0.509   2.811   0.254
 2139SOL     OW 7315   2.381   1.279   4.876
 2139SOL    HW1 7316   2.462   1.253   4.823
 2139SOL    HW2 7317   2.300   1.268   4.819
 2140SOL     OW 7318   2.118   5.920   4.121
 2140SOL    HW1 7319   2.136   5.920   4.022
 2140SOL    HW2 7320   2.136   6.011   4.158
 2141SOL     OW 7321   6.448   1.561   6.905
 2141SOL    HW1 7322   6.478   1.466   6.899
 2141SOL    HW2 7323   6.516   1.614   6.955
 2142SOL     OW 7324   2.903   1.376   3.312
 2142SOL    HW1 7325   2.819   1.420   3.280
 2142SOL    HW2 7326   2.976   1.391   3.246
 2143SOL     OW 7327   3.515   6.520   0.034
 2143SOL    HW1 7328   3.468   6.549   6.975
 2143SOL    HW2 7329   3.613   6.510   0.014
 2144SOL     OW 7330   6.984   0.985   2.884
 2144SOL    HW1 7331   6.895   1.017   2.917
 2144SOL    HW2 7332   0.018   0.959   2.961
 2145SOL     OW 7333   4.000   5.193   2.999
 2145SOL    HW1 7334   3.929   5.232   3.057
 2145SOL    HW2 7335   4.058   5.266   2.964
 2146SOL     OW 7336   3.841   3.125   1.349
 2146SOL    HW1 7337   3.783   3.143   1.270
 2146SOL    HW2 7338   3.789   3.073   1.417
 2147SOL     OW 7339   0.040   1.096   4.911
 2147SOL    HW1 7340   7.019   1.185   4.904
 2147SOL    HW2 7341   6.996   1.023   4.899
 2148SOL     OW 7342   4.896   3.212   3.021
 2148SOL    HW1 7343   4.843   3.212   3.106
 2148SOL    HW2 7344   4.955   3.293   3.019
 2149SOL     OW 7345   3.403   0.877   3.245
 2149SOL    HW1 7346   3.487   0.826   3.225
 2149SOL    HW2 7347   3.329   0.845   3.187
 2150SOL     OW 7348   3.660   1.553   2.499
 2150SOL    HW1 7349   3.575   1.575   2.452
 2150SOL    HW2 7350   3.698   1.635   2.541
 2151SOL     OW 7351   3.500   2.931   5.684
 2151SOL    HW1 7352   3.415   2.912   5.734
 2151SOL    HW2 7353   3.478   2.984   5.601
 2152SOL     OW 7354   6.453   5.959   1.985
 2152SOL    HW1 7355   6.461   6.035   2.050
 2152SOL    HW2 7356   6.408   5.991   1.902
 2153SOL     OW 7357   4.835   2.878   2.901
 2153SOL    HW1 7358   4.834   2.954   2.966
 2153SOL    HW2 7359   4.835   2.914   2.808
 2154SOL     OW 7360   4.393   5.748   5.154
 2154SOL    HW1 7361   4.444   5.832   5.138
 2154SOL    HW2 7362   4.456   5.672   5.165
 2155SOL     OW 7363   6.481   3.609   0.299
 2155SOL    HW1 7364   6.555   3.546   0.319
 2155SOL    HW2 7365   6.518   3.698   0.273
 2156SOL     OW 7366   1.148   1.294   1.675
 2156SOL    HW1 7367   1.155   1.217   1.739
 2156SOL    HW2 7368   1.105   1.372   1.721
 2157SOL     OW 7369   0.699   1.285   4.743
 2157SOL    HW1 7370   0.780   1.234   4.772
 2157SOL    HW2 7371   0.639   1.299   4.821
 2158SOL     OW 7372   4.866   6.184   2.395
 2158SOL    HW1 7373   4.962   6.160   2.409
 2158SOL    HW2 7374   4.852   6.213   2.300
 2159SOL     OW 7375   2.158   5.926   4.524
 2159SOL    HW1 7376   2.241   5.976   4.497
 2159SOL    HW2 7377   2.135   5.949   4.619
 2160SOL     OW 7378   2.894   3.498   0.449
 2160SOL    HW1 7379   2.984   3.504   0.492
 2160SOL    HW2 7380   2.862   3.403   0.453
 2161SOL     OW 7381   5.318   2.330   3.467
 2161SOL    HW1 7382   5.352   2.293   3.554
 2161SOL    HW2 7383   5.392   2.380   3.422
 2162SOL     OW 7384   0.912   1.600   6.912
 2162SOL    HW1 7385   0.860   1.649   6.981
 2162SOL    HW2 7386   0.889   1.635   6.821
 2163SOL     OW 7387   2.541   2.605   0.447
 2163SOL    HW1 7388   2.639   2.585   0.452
 2163SOL    HW2 7389   2.517   2.625   0.352
 2164SOL     OW 7390   1.301   6.922   1.479
 2164SOL    HW1 7391   1.254   6.843   1.519
 2164SOL    HW2 7392   1.234   6.994   1.460
 2165SOL     OW 7393   2.814   6.736   1.591
 2165SOL    HW1 7394   2.812   6.727   1.491
 2165SOL    HW2 7395   2.879   6.670   1.629
 2166SOL     OW 7396   6.262   1.913   6.912
 2166SOL    HW1 7397   6.324   1.836   6.923
 2166SOL    HW2 7398   6.314   1.997   6.902
 2167SOL     OW 7399   2.629   0.682   1.513
 2167SOL    HW1 7400   2.606   0.763   1.460
 2167SOL    HW2 7401   2.633   0.603   1.453
 2168SOL     OW 7402   6.096   5.551   4.519
 2168SOL    HW1 7403   6.050   5.468   4.550
 2168SOL    HW2 7404   6.032   5.607   4.467
 2169SOL     OW 7405   5.328   2.034   4.842
 2169SOL    HW1 7406   5.243   2.027   4.789
 2169SOL    HW2 7407   5.406   2.042   4.780
 2170SOL     OW 7408   5.405   4.884   4.539
 2170SOL    HW1 7409   5.354   4.860   4.457
 2170SOL    HW2 7410   5.378   4.976   4.568
 2171SOL     OW 7411   6.682   1.829   0.405
 2171SOL    HW1 7412   6.695   1.741   0.451
 2171SOL    HW2 7413   6.762   1.887   0.422
 2172SOL     OW 7414   2.620   0.658   0.590
 2172SOL    HW1 7415   2.620   0.612   0.501
 2172SOL    HW2 7416   2.561   0.738   0.585
 2173SOL     OW 7417   4.932   1.375   5.162
 2173SOL    HW1 7418   4.986   1.427   5.096
 2173SOL    HW2 7419   4.880   1.438   5.220
 2174SOL     OW 7420   1.355   5.257   4.797
 2174SOL    HW1 7421   1.269   5.222   4.760
 2174SOL    HW2 7422   1.398   5.187   4.854
 2175SOL     OW 7423   2.258   6.594   4.868
 2175SOL    HW1 7424   2.289   6.515   4.815
 2175SOL    HW2 7425   2.334   6.631   4.921
 2176SOL     OW 7426   2.075   2.413   1.996
 2176SOL    HW1 7427   1.996   2.405   1.935
 2176SOL    HW2 7428   2.089   2.326   2.044
 2177SOL     OW 7429   6.677   1.252   1.747
 2177SOL    HW1 7430   6.588   1.286   1.717
 2177SOL    HW2 7431   6.665   1.180   1.815
 2178SOL     OW 7432   0.602   5.149   0.486
 2178SOL    HW1 7433   0.698   5.132   0.509
 2178SOL    HW2 7434   0.595   5.186   0.394
 2179SOL     OW 7435   0.731   4.781   3.885
 2179SOL    HW1 7436   0.635   4.780   3.915
 2179SOL    HW2 7437   0.742   4.847   3.811
 2180SOL     OW 7438   4.003   3.104   2.007
 2180SOL    HW1 7439   4.065   3.164   2.058
 2180SOL    HW2 7440   4.040   3.089   1.915
 2181SOL     OW 7441   4.630   6.274   0.052
 2181SOL    HW1 7442   4.552   6.251   0.110
 2181SOL    HW2 7443   4.701   6.204   0.063
 2182SOL     OW 7444   5.881   1.906   0.468
 2182SOL    HW1 7445   5.849   1.812   0.480
 2182SOL    HW2 7446   5.981   1.907   0.457
 2183SOL     OW 7447   2.972   2.769   1.278
 2183SOL    HW1 7448   2.980   2.694   1.212
 2183SOL    HW2 7449   2.965   2.856   1.230
 2184SOL     OW 7450   4.119   2.946   6.277
 2184SOL    HW1 7451   4.211   2.934   6.315
 2184SOL    HW2 7452   4.123   2.945   6.177
 2185SOL     OW 7453   1.294   0.842   1.029
 2185SOL    HW1 7454   1.240   0.794   1.099
 2185SOL    HW2 7455   1.391   0.835   1.052
 2186SOL     OW 7456   0.174   5.107   2.672
 2186SOL    HW1 7457   0.240   5.056   2.617
 2186SOL    HW2 7458   0.105   5.044   2.708
 2187SOL     OW 7459   0.620   1.609   6.748
 2187SOL    HW1 7460   0.602   1.708   6.752
 2187SOL    HW2 7461   0.638   1.582   6.654
 2188SOL     OW 7462   5.081   0.799   3.052
 2188SOL    HW1 7463   5.144   0.871   3.082
 2188SOL    HW2 7464   5.021   0.835   2.981
 2189SOL     OW 7465   2.610   0.355   6.754
 2189SOL    HW1 7466   2.676   0.368   6.828
 2189SOL    HW2 7467   2.529   0.410   6.771
 2190SOL     OW 7468   5.219   1.808   1.418
 2190SOL    HW1 7469   5.310   1.849   1.410
 2190SOL    HW2 7470   5.152   1.869   1.375
 2191SOL     OW 7471   2.757   1.616   7.020
 2191SOL    HW1 7472   2.677   1.648   6.969
 2191SOL    HW2 7473   2.735   1.531   0.044
 2192SOL     OW 7474   4.061   5.165   3.628
 2192SOL    HW1 7475   4.098   5.158   3.721
 2192SOL    HW2 7476   3.977   5.219   3.630
 2193SOL     OW 7477   0.341   5.246   6.099
 2193SOL    HW1 7478   0.246   5.220   6.080
 2193SOL    HW2 7479   0.401   5.167   6.085
 2194SOL     OW 7480   3.420   0.200   1.472
 2194SOL    HW1 7481   3.512   0.160   1.471
 2194SOL    HW2 7482   3.357   0.137   1.426
 2195SOL     OW 7483   1.628   4.496   2.240
 2195SOL    HW1 7484   1.556   4.471   2.305
 2195SOL    HW2 7485   1.614   4.590   2.209
 2196SOL     OW 7486   4.001   3.227   7.009
 2196SOL    HW1 7487   3.972   3.131   6.998
 2196SOL    HW2 7488   4.016   3.245   0.082
 2197SOL     OW 7489   4.370   4.443   0.591
 2197SOL    HW1 7490   4.460   4.405   0.610
 2197SOL    HW2 7491   4.336   4.407   0.504
 2198SOL     OW 7492   6.043   4.472   0.283
 2198SOL    HW1 7493   5.964   4.532   0.272
 2198SOL    HW2 7494   6.014   4.385   0.324
 2199SOL     OW 7495   4.560   0.785   2.340
 2199SOL    HW1 7496   4.541   0.728   2.261
 2199SOL    HW2 7497   4.659   0.786   2.358
 2200SOL     OW 7498   2.400   6.961   4.101
 2200SOL    HW1 7499   2.358   6.876   4.132
 2200SOL    HW2 7500   2.415   6.957   4.002
 2201SOL     OW 7501   4.820   4.160   2.231
 2201SOL    HW1 7502   4.741   4.218   2.217
 2201SOL    HW2 7503   4.888   4.208   2.288
 2202SOL     OW 7504   4.846   5.734   3.600
 2202SOL    HW1 7505   4.856   5.748   3.699
 2202SOL    HW2 7506   4.902   5.655   3.572
 2203SOL     OW 7507   3.186   2.134   2.904
 2203SOL    HW1 7508   3.247   2.087   2.968
 2203SOL    HW2 7509   3.239   2.172   2.829
 2204SOL     OW 7510   3.129   2.747   1.514
 2204SOL    HW1 7511   3.080   2.763   1.429
 2204SOL    HW2 7512   3.063   2.744   1.590
 2205SOL     OW 7513   2.559   0.308   1.029
 2205SOL    HW1 7514   2.471   0.270   0.999
 2205SOL    HW2 7515   2.547   0.356   1.116
 2206SOL     OW 7516   1.879   3.202   7.009
 2206SOL    HW1 7517   1.892   3.103   7.000
 2206SOL    HW2 7518   1.940   3.250   6.946
 2207SOL     OW 7519   0.638   4.507   4.705
 2207SOL    HW1 7520   0.625   4.430   4.642
 2207SOL    HW2 7521   0.621   4.593   4.657
 2208SOL     OW 7522   6.885   4.571   2.075
 2208SOL    HW1 7523   6.866   4.534   1.984
 2208SOL    HW2 7524   6.917   4.666   2.066
 2209SOL     OW 7525   1.061   6.081   1.472
 2209SOL    HW1 7526   1.129   6.147   1.442
 2209SOL    HW2 7527   1.002   6.057   1.394
 2210SOL     OW 7528   1.304   5.784   4.091
 2210SOL    HW1 7529   1.326   5.691   4.121
 2210SOL    HW2 7530   1.307   5.788   3.992
 2211SOL     OW 7531   0.085   1.523   5.857
 2211SOL    HW1 7532   0.149   1.537   5.782
 2211SOL    HW2 7533   7.016   1.517   5.822
 2212SOL     OW 7534   1.967   6.769   6.793
 2212SOL    HW1 7535   1.908   6.731   6.721
 2212SOL    HW2 7536   2.061   6.775   6.760
 2213SOL     OW 7537   3.390   1.328   3.486
 2213SOL    HW1 7538   3.303   1.355   3.529
 2213SOL    HW2 7539   3.375   1.248   3.428
 2214SOL     OW 7540   4.248   0.139   5.343
 2214SOL    HW1 7541   4.346   0.121   5.354
 2214SOL    HW2 7542   4.210   0.075   5.277
 2215SOL     OW 7543   5.957   3.052   4.492
 2215SOL    HW1 7544   5.928   3.091   4.405
 2215SOL    HW2 7545   5.993   3.125   4.551
 2216SOL     OW 7546   2.331   0.486   1.693
 2216SOL    HW1 7547   2.422   0.449   1.714
 2216SOL    HW2 7548   2.324   0.579   1.727
 2217SOL     OW 7549   4.764   0.934   2.081
 2217SOL    HW1 7550   4.708   1.011   2.112
 2217SOL    HW2 7551   4.712   0.850   2.089
 2218SOL     OW 7552   1.118   6.636   2.396
 2218SOL    HW1 7553   1.203   6.649   2.447
 2218SOL    HW2 7554   1.063   6.566   2.442
 2219SOL     OW 7555   1.570   2.119   2.855
 2219SOL    HW1 7556   1.572   2.192   2.923
 2219SOL    HW2 7557   1.485   2.068   2.863
 2220SOL     OW 7558   0.972   0.493   1.154
 2220SOL    HW1 7559   0.876   0.517   1.138
 2220SOL    HW2 7560   0.984   0.394   1.141
 2221SOL     OW 7561   6.738   1.213   0.013
 2221SOL    HW1 7562   6.738   1.272   0.093
 2221SOL    HW2 7563   6.808   1.143   0.023
 2222SOL     OW 7564   5.997   5.898   2.784
 2222SOL    HW1 7565   5.914   5.926   2.832
 2222SOL    HW2 7566   6.015   5.801   2.802
 2223SOL     OW 7567   6.118   5.154   1.492
 2223SOL    HW1 7568   6.203   5.207   1.497
 2223SOL    HW2 7569   6.041   5.212   1.520
 2224SOL     OW 7570   0.721   5.047   2.008
 2224SOL    HW1 7571   0.689   5.136   2.041
 2224SOL    HW2 7572   0.740   4.988   2.086
 2225SOL     OW 7573   0.414   4.515   1.127
 2225SOL    HW1 7574   0.320   4.547   1.117
 2225SOL    HW2 7575   0.415   4.415   1.135
 2226SOL     OW 7576   4.143   3.907   1.484
 2226SOL    HW1 7577   4.057   3.958   1.476
 2226SOL    HW2 7578   4.188   3.929   1.570
 2227SOL     OW 7579   0.945   3.175   4.272
 2227SOL    HW1 7580   0.846   3.189   4.263
 2227SOL    HW2 7581   0.985   3.251   4.325
 2228SOL     OW 7582   2.976   4.927   4.665
 2228SOL    HW1 7583   2.899   4.927   4.729
 2228SOL    HW2 7584   2.950   4.975   4.581
 2229SOL     OW 7585   5.399   0.105   3.149
 2229SOL    HW1 7586   5.410   0.044   3.228
 2229SOL    HW2 7587   5.348   0.058   3.077
 2230SOL     OW 7588   2.915   5.433   1.094
 2230SOL    HW1 7589   2.887   5.499   1.163
 2230SOL    HW2 7590   3.010   5.406   1.109
 2231SOL     OW 7591   2.404   5.740   1.346
 2231SOL    HW1 7592   2.485   5.698   1.385
 2231SOL    HW2 7593   2.421   5.762   1.250
 2232SOL     OW 7594   6.094   2.770   3.547
 2232SOL    HW1 7595   6.119   2.763   3.644
 2232SOL    HW2 7596   6.160   2.718   3.492
 2233SOL     OW 7597   3.177   1.972   6.860
 2233SOL    HW1 7598   3.151   1.882   6.826
 2233SOL    HW2 7599   3.273   1.991   6.836
 2234SOL     OW 7600   3.261   2.079   1.184
 2234SOL    HW1 7601   3.318   2.106   1.106
 2234SOL    HW2 7602   3.291   2.127   1.266
 2235SOL     OW 7603   2.060   0.491   1.299
 2235SOL    HW1 7604   2.028   0.579   1.334
 2235SOL    HW2 7605   1.986   0.424   1.304
 2236SOL     OW 7606   6.804   3.734   6.438
 2236SOL    HW1 7607   6.825   3.813   6.382
 2236SOL    HW2 7608   6.727   3.754   6.498
 2237SOL     OW 7609   6.558   3.013   4.103
 2237SOL    HW1 7610   6.512   3.090   4.059
 2237SOL    HW2 7611   6.567   3.031   4.201
 2238SOL     OW 7612   6.808   5.980   2.075
 2238SOL    HW1 7613   6.806   5.891   2.029
 2238SOL    HW2 7614   6.717   6.000   2.111
 2239SOL     OW 7615   5.604   5.495   3.128
 2239SOL    HW1 7616   5.619   5.543   3.042
 2239SOL    HW2 7617   5.520   5.530   3.171
 2240SOL     OW 7618   5.935   3.788   1.858
 2240SOL    HW1 7619   5.973   3.717   1.798
 2240SOL    HW2 7620   5.846   3.816   1.823
 2241SOL     OW 7621   0.842   6.815   1.962
 2241SOL    HW1 7622   0.803   6.867   2.038
 2241SOL    HW2 7623   0.882   6.730   1.996
 2242SOL     OW 7624   4.688   2.219   2.645
 2242SOL    HW1 7625   4.671   2.314   2.668
 2242SOL    HW2 7626   4.708   2.212   2.547
 2243SOL     OW 7627   2.827   6.232   5.518
 2243SOL    HW1 7628   2.754   6.169   5.543
 2243SOL    HW2 7629   2.903   6.181   5.476
 2244SOL     OW 7630   2.444   0.798   5.358
 2244SOL    HW1 7631   2.474   0.703   5.366
 2244SOL    HW2 7632   2.356   0.801   5.310
 2245SOL     OW 7633   0.425   1.955   2.313
 2245SOL    HW1 7634   0.348   1.923   2.369
 2245SOL    HW2 7635   0.419   1.915   2.222
 2246SOL     OW 7636   1.379   4.551   4.664
 2246SOL    HW1 7637   1.442   4.611   4.614
 2246SOL    HW2 7638   1.428   4.504   4.737
 2247SOL     OW 7639   1.916   1.466   5.587
 2247SOL    HW1 7640   2.002   1.418   5.568
 2247SOL    HW2 7641   1.926   1.562   5.563
 2248SOL     OW 7642   4.455   4.320   5.292
 2248SOL    HW1 7643   4.374   4.352   5.244
 2248SOL    HW2 7644   4.525   4.391   5.292
 2249SOL     OW 7645   4.528   5.295   4.601
 2249SOL    HW1 7646   4.580   5.366   4.553
 2249SOL    HW2 7647   4.432   5.324   4.608
 2250SOL     OW 7648   5.435   5.531   0.544
 2250SOL    HW1 7649   5.342   5.562   0.559
 2250SOL    HW2 7650   5.456   5.533   0.446
 2251SOL     OW 7651   0.386   0.470   6.236
 2251SOL    HW1 7652   0.426   0.426   6.156
 2251SOL    HW2 7653   0.402   0.569   6.232
 2252SOL     OW 7654   4.028   1.877   5.358
 2252SOL    HW1 7655   3.950   1.937   5.375
 2252SOL    HW2 7656   4.068   1.848   5.444
 2253SOL     OW 7657   1.320   2.506   5.953
 2253SOL    HW1 7658   1.259   2.455   6.014
 2253SOL    HW2 7659   1.408   2.519   5.998
 2254SOL     OW 7660   1.715   3.508   5.497
 2254SOL    HW1 7661   1.806   3.547   5.487
 2254SOL    HW2 7662   1.650   3.581   5.521
 2255SOL     OW 7663   5.278   2.552   1.023
 2255SOL    HW1 7664   5.365   2.599   1.040
 2255SOL    HW2 7665   5.254   2.498   1.103
 2256SOL     OW 7666   3.332   4.880   2.112
 2256SOL    HW1 7667   3.340   4.965   2.059
 2256SOL    HW2 7668   3.380   4.806   2.066
 2257SOL     OW 7669   2.107   3.346   3.983
 2257SOL    HW1 7670   2.176   3.282   3.951
 2257SOL    HW2 7671   2.133   3.381   4.073
 2258SOL     OW 7672   2.450   5.306   5.391
 2258SOL    HW1 7673   2.391   5.226   5.382
 2258SOL    HW2 7674   2.500   5.301   5.478
 2259SOL     OW 7675   5.945   3.493   6.514
 2259SOL    HW1 7676   6.037   3.484   6.476
 2259SOL    HW2 7677   5.906   3.581   6.487
 2260SOL     OW 7678   4.912   4.135   0.629
 2260SOL    HW1 7679   4.935   4.157   0.534
 2260SOL    HW2 7680   4.869   4.045   0.634
 2261SOL     OW 7681   3.564   6.868   5.207
 2261SOL    HW1 7682   3.494   6.813   5.252
 2261SOL    HW2 7683   3.606   6.930   5.273
 2262SOL     OW 7684   3.336   1.833   3.400
 2262SOL    HW1 7685   3.383   1.754   3.440
 2262SOL    HW2 7686   3.398   1.880   3.338
 2263SOL     OW 7687   0.197   4.138   5.800
 2263SOL    HW1 7688   0.133   4.117   5.727
 2263SOL    HW2 7689   0.261   4.062   5.811
 2264SOL     OW 7690   3.943   3.934   4.018
 2264SOL    HW1 7691   4.028   3.881   4.015
 2264SOL    HW2 7692   3.901   3.925   4.108
 2265SOL     OW 7693   0.307   0.127   2.722
 2265SOL    HW1 7694   0.374   0.193   2.688
 2265SOL    HW2 7695   0.217   0.145   2.681
 2266SOL     OW 7696   5.749   6.988   6.805
 2266SOL    HW1 7697   5.798   6.905   6.830
 2266SOL    HW2 7698   5.654   6.965   6.781
 2267SOL     OW 7699   5.451   1.650   5.161
 2267SOL    HW1 7700   5.397   1.715   5.108
 2267SOL    HW2 7701   5.545   1.685   5.172
 2268SOL     OW 7702   6.111   5.125   6.964
 2268SOL    HW1 7703   6.112   5.206   6.905
 2268SOL    HW2 7704   6.183   5.134   0.009
 2269SOL     OW 7705   0.369   5.724   4.168
 2269SOL    HW1 7706   0.270   5.721   4.183
 2269SOL    HW2 7707   0.416   5.676   4.242
 2270SOL     OW 7708   4.095   3.206   2.624
 2270SOL    HW1 7709   4.123   3.208   2.528
 2270SOL    HW2 7710   4.124   3.290   2.669
 2271SOL     OW 7711   0.201   4.247   3.287
 2271SOL    HW1 7712   0.226   4.335   3.247
 2271SOL    HW2 7713   0.263   4.226   3.363
 2272SOL     OW 7714   4.686   1.954   6.186
 2272SOL    HW1 7715   4.728   2.027   6.240
 2272SOL    HW2 7716   4.625   1.994   6.118
 2273SOL     OW 7717   0.548   1.182   3.898
 2273SOL    HW1 7718   0.523   1.274   3.868
 2273SOL    HW2 7719   0.613   1.187   3.973
 2274SOL     OW 7720   1.306   3.643   2.769
 2274SOL    HW1 7721   1.344   3.667   2.858
 2274SOL    HW2 7722   1.213   3.680   2.762
 2275SOL     OW 7723   5.047   6.189   3.428
 2275SOL    HW1 7724   5.088   6.106   3.391
 2275SOL    HW2 7725   4.992   6.166   3.508
 2276SOL     OW 7726   3.393   5.509   1.622
 2276SOL    HW1 7727   3.360   5.546   1.534
 2276SOL    HW2 7728   3.408   5.584   1.686
 2277SOL     OW 7729   3.356   3.119   0.897
 2277SOL    HW1 7730   3.322   3.207   0.932
 2277SOL    HW2 7731   3.387   3.130   0.803
 2278SOL     OW 7732   5.427   6.605   1.020
 2278SOL    HW1 7733   5.370   6.534   0.979
 2278SOL    HW2 7734   5.523   6.583   1.003
 2279SOL     OW 7735   4.957   4.196   5.240
 2279SOL    HW1 7736   4.912   4.194   5.151
 2279SOL    HW2 7737   5.055   4.209   5.227
 2280SOL     OW 7738   5.584   0.119   6.109
 2280SOL    HW1 7739   5.589   0.191   6.040
 2280SOL    HW2 7740   5.555   0.033   6.067
 2281SOL     OW 7741   3.340   2.631   0.643
 2281SOL    HW1 7742   3.331   2.633   0.544
 2281SOL    HW2 7743   3.421   2.684   0.670
 2282SOL     OW 7744   4.275   5.691   2.206
 2282SOL    HW1 7745   4.284   5.592   2.207
 2282SOL    HW2 7746   4.320   5.729   2.287
 2283SOL     OW 7747   6.744   3.995   2.123
 2283SOL    HW1 7748   6.751   3.896   2.110
 2283SOL    HW2 7749   6.811   4.041   2.064
 2284SOL     OW 7750   2.651   2.313   2.042
 2284SOL    HW1 7751   2.624   2.257   2.121
 2284SOL    HW2 7752   2.750   2.324   2.042
 2285SOL     OW 7753   1.924   3.833   6.322
 2285SOL    HW1 7754   2.003   3.795   6.273
 2285SOL    HW2 7755   1.930   3.809   6.419
 2286SOL     OW 7756   5.467   6.958   4.595
 2286SOL    HW1 7757   5.433   6.975   4.502
 2286SOL    HW2 7758   5.563   6.932   4.591
 2287SOL     OW 7759   2.141   2.775   1.515
 2287SOL    HW1 7760   2.069   2.717   1.554
 2287SOL    HW2 7761   2.215   2.717   1.481
 2288SOL     OW 7762   2.140   6.195   4.187
 2288SOL    HW1 7763   2.048   6.193   4.227
 2288SOL    HW2 7764   2.195   6.264   4.234
 2289SOL     OW 7765   4.472   1.890   0.637
 2289SOL    HW1 7766   4.410   1.945   0.692
 2289SOL    HW2 7767   4.528   1.949   0.579
 2290SOL     OW 7768   3.353   3.460   3.235
 2290SOL    HW1 7769   3.382   3.388   3.173
 2290SOL    HW2 7770   3.397   3.448   3.324
 2291SOL     OW 7771   0.877   2.630   6.384
 2291SOL    HW1 7772   0.925   2.662   6.466
 2291SOL    HW2 7773   0.809   2.698   6.356
 2292SOL     OW 7774   5.280   1.736   2.734
 2292SOL    HW1 7775   5.209   1.797   2.699
 2292SOL    HW2 7776   5.241   1.646   2.751
 2293SOL     OW 7777   0.358   0.283   0.408
 2293SOL    HW1 7778   0.344   0.382   0.404
 2293SOL    HW2 7779   0.331   0.242   0.320
 2294SOL     OW 7780   6.478   1.076   5.556
 2294SOL    HW1 7781   6.498   0.994   5.502
 2294SOL    HW2 7782   6.450   1.048   5.648
 2295SOL     OW 7783   5.864   6.090   1.275
 2295SOL    HW1 7784   5.776   6.137   1.263
 2295SOL    HW2 7785   5.854   6.017   1.343
 2296SOL     OW 7786   3.418   4.982   4.152
 2296SOL    HW1 7787   3.518   4.985   4.155
 2296SOL    HW2 7788   3.381   5.075   4.157
 2297SOL     OW 7789   4.771   3.620   5.653
 2297SOL    HW1 7790   4.698   3.682   5.684
 2297SOL    HW2 7791   4.840   3.612   5.724
 2298SOL     OW 7792   3.543   3.739   4.574
 2298SOL    HW1 7793   3.619   3.706   4.630
 2298SOL    HW2 7794   3.572   3.744   4.479
 2299SOL     OW 7795   5.865   2.805   4.667
 2299SOL    HW1 7796   5.814   2.839   4.746
 2299SOL    HW2 7797   5.914   2.880   4.624
 2300SOL     OW 7798   5.038   6.613   2.396
 2300SOL    HW1 7799   5.032   6.514   2.384
 2300SOL    HW2 7800   5.108   6.650   2.335
 2301SOL     OW 7801   3.885   3.123   4.657
 2301SOL    HW1 7802   3.923   3.208   4.620
 2301SOL    HW2 7803   3.956   3.074   4.707
 2302SOL     OW 7804   6.091   2.759   6.059
 2302SOL    HW1 7805   6.142   2.707   5.990
 2302SOL    HW2 7806   6.155   2.803   6.121
 2303SOL     OW 7807   3.089   2.356   6.889
 2303SOL    HW1 7808   3.040   2.271   6.910
 2303SOL    HW2 7809   3.187   2.344   6.908
 2304SOL     OW 7810   6.747   6.199   2.820
 2304SOL    HW1 7811   6.664   6.149   2.796
 2304SOL    HW2 7812   6.738   6.237   2.912
 2305SOL     OW 7813   2.996   0.072   4.280
 2305SOL    HW1 7814   2.909   0.120   4.271
 2305SOL    HW2 7815   2.990   0.005   4.354
 2306SOL     OW 7816   1.426   4.872   4.727
 2306SOL    HW1 7817   1.340   4.829   4.756
 2306SOL    HW2 7818   1.422   4.891   4.629
 2307SOL     OW 7819   6.557   3.368   5.800
 2307SOL    HW1 7820   6.564   3.417   5.713
 2307SOL    HW2 7821   6.569   3.270   5.785
 2308SOL     OW 7822   1.745   4.887   1.906
 2308SOL    HW1 7823   1.778   4.916   1.816
 2308SOL    HW2 7824   1.821   4.851   1.959
 2309SOL     OW 7825   1.642   0.341   5.055
 2309SOL    HW1 7826   1.678   0.434   5.049
 2309SOL    HW2 7827   1.636   0.301   4.963
 2310SOL     OW 7828   4.279   0.437   1.048
 2310SOL    HW1 7829   4.263   0.512   0.985
 2310SOL    HW2 7830   4.332   0.365   1.002
 2311SOL     OW 7831   2.852   5.414   1.425
 2311SOL    HW1 7832   2.899   5.495   1.459
 2311SOL    HW2 7833   2.904   5.332   1.450
 2312SOL     OW 7834   3.389   5.123   2.015
 2312SOL    HW1 7835   3.472   5.109   1.960
 2312SOL    HW2 7836   3.313   5.145   1.955
 2313SOL     OW 7837   5.360   5.639   1.405
 2313SOL    HW1 7838   5.264   5.659   1.426
 2313SOL    HW2 7839   5.382   5.675   1.314
 2314SOL     OW 7840   1.541   4.619   4.452
 2314SOL    HW1 7841   1.637   4.639   4.472
 2314SOL    HW2 7842   1.534   4.531   4.405
 2315SOL     OW 7843   4.347   2.924   6.472
 2315SOL    HW1 7844   4.282   2.876   6.531
 2315SOL    HW2 7845   4.439   2.913   6.509
 2316SOL     OW 7846   5.946   4.186   2.060
 2316SOL    HW1 7847   6.046   4.179   2.056
 2316SOL    HW2 7848   5.907   4.145   1.977
 2317SOL     OW 7849   0.532   5.844   3.490
 2317SOL    HW1 7850   0.607   5.880   3.436
 2317SOL    HW2 7851   0.566   5.815   3.580
 2318SOL     OW 7852   6.355   1.189   4.034
 2318SOL    HW1 7853   6.280   1.152   4.090
 2318SOL    HW2 7854   6.323   1.270   3.986
 2319SOL     OW 7855   0.763   5.064   2.898
 2319SOL    HW1 7856   0.799   4.974   2.922
 2319SOL    HW2 7857   0.791   5.130   2.967
 2320SOL     OW 7858   6.692   5.217   5.356
 2320SOL    HW1 7859   6.771   5.173   5.313
 2320SOL    HW2 7860   6.615   5.154   5.356
 2321SOL     OW 7861   3.920   5.134   5.011
 2321SOL    HW1 7862   3.889   5.167   4.921
 2321SOL    HW2 7863   3.840   5.107   5.065
 2322SOL     OW 7864   3.166   1.214   5.722
 2322SOL    HW1 7865   3.239   1.233   5.656
 2322SOL    HW2 7866   3.168   1.118   5.747
 2323SOL     OW 7867   5.135   4.143   1.864
 2323SOL    HW1 7868   5.222   4.182   1.894
 2323SOL    HW2 7869   5.129   4.048   1.893
 2324SOL     OW 7870   0.029   5.106   3.316
 2324SOL    HW1 7871   6.981   5.143   3.258
 2324SOL    HW2 7872   0.007   5.123   3.412
 2325SOL     OW 7873   0.318   2.137   0.935
 2325SOL    HW1 7874   0.365   2.058   0.894
 2325SOL    HW2 7875   0.224   2.111   0.958
 2326SOL     OW 7876   1.567   4.153   6.433
 2326SOL    HW1 7877   1.583   4.158   6.334
 2326SOL    HW2 7878   1.554   4.058   6.460
 2327SOL     OW 7879   5.456   1.965   3.760
 2327SOL    HW1 7880   5.431   1.893   3.695
 2327SOL    HW2 7881   5.553   1.957   3.784
 2328SOL     OW 7882   5.904   6.849   3.751
 2328SOL    HW1 7883   5.859   6.909   3.684
 2328SOL    HW2 7884   5.834   6.794   3.797
 2329SOL     OW 7885   6.937   5.831   3.364
 2329SOL    HW1 7886   6.894   5.913   3.401
 2329SOL    HW2 7887   6.938   5.759   3.434
 2330SOL     OW 7888   0.350   3.453   1.988
 2330SOL    HW1 7889   0.301   3.495   1.912
 2330SOL    HW2 7890   0.286   3.439   2.064
 2331SOL     OW 7891   0.594   5.110   6.013
 2331SOL    HW1 7892   0.608   5.081   5.918
 2331SOL    HW2 7893   0.610   5.209   6.020
 2332SOL     OW 7894   5.439   2.611   4.524
 2332SOL    HW1 7895   5.468   2.675   4.453
 2332SOL    HW2 7896   5.440   2.657   4.613
 2333SOL     OW 7897   2.527   4.519   3.500
 2333SOL    HW1 7898   2.512   4.543   3.595
 2333SOL    HW2 7899   2.468   4.441   3.475
 2334SOL     OW 7900   3.271   0.244   0.588
 2334SOL    HW1 7901   3.291   0.152   0.623
 2334SOL    HW2 7902   3.290   0.312   0.659
 2335SOL     OW 7903   4.954   5.167   4.507
 2335SOL    HW1 7904   4.964   5.258   4.468
 2335SOL    HW2 7905   4.869   5.161   4.559
 2336SOL     OW 7906   4.172   2.751   6.009
 2336SOL    HW1 7907   4.191   2.671   5.952
 2336SOL    HW2 7908   4.258   2.791   6.041
 2337SOL     OW 7909   5.866   0.378   4.128
 2337SOL    HW1 7910   5.779   0.427   4.133
 2337SOL    HW2 7911   5.926   0.409   4.202
 2338SOL     OW 7912   1.717   6.917   6.718
 2338SOL    HW1 7913   1.816   6.902   6.726
 2338SOL    HW2 7914   1.695   6.949   6.627
 2339SOL     OW 7915   4.349   4.236   6.156
 2339SOL    HW1 7916   4.365   4.280   6.245
 2339SOL    HW2 7917   4.432   4.243   6.100
 2340SOL     OW 7918   3.445   5.286   4.048
 2340SOL    HW1 7919   3.478   5.303   3.955
 2340SOL    HW2 7920   3.375   5.354   4.072
 2341SOL     OW 7921   6.192   5.385   6.422
 2341SOL    HW1 7922   6.279   5.404   6.468
 2341SOL    HW2 7923   6.143   5.314   6.474
 2342SOL     OW 7924   6.425   0.393   5.233
 2342SOL    HW1 7925   6.492   0.398   5.307
 2342SOL    HW2 7926   6.335   0.372   5.271
 2343SOL     OW 7927   0.975   0.025   0.385
 2343SOL    HW1 7928   0.976   6.995   0.301
 2343SOL    HW2 7929   0.892   0.081   0.389
 2344SOL     OW 7930   2.446   1.591   3.212
 2344SOL    HW1 7931   2.358   1.586   3.259
 2344SOL    HW2 7932   2.442   1.539   3.127
 2345SOL     OW 7933   1.723   1.187   3.389
 2345SOL    HW1 7934   1.715   1.236   3.476
 2345SOL    HW2 7935   1.659   1.227   3.323
 2346SOL     OW 7936   5.578   3.545   5.654
 2346SOL    HW1 7937   5.616   3.586   5.736
 2346SOL    HW2 7938   5.491   3.501   5.676
 2347SOL     OW 7939   1.362   3.648   0.844
 2347SOL    HW1 7940   1.424   3.710   0.796
 2347SOL    HW2 7941   1.304   3.702   0.906
 2348SOL     OW 7942   2.735   5.838   1.692
 2348SOL    HW1 7943   2.814   5.811   1.747
 2348SOL    HW2 7944   2.666   5.766   1.695
 2349SOL     OW 7945   4.351   4.717   5.676
 2349SOL    HW1 7946   4.368   4.630   5.723
 2349SOL    HW2 7947   4.431   4.776   5.685
 2350SOL     OW 7948   1.974   5.726   5.212
 2350SOL    HW1 7949   2.061   5.716   5.262
 2350SOL    HW2 7950   1.970   5.659   5.138
 2351SOL     OW 7951   2.338   5.783   3.388
 2351SOL    HW1 7952   2.336   5.718   3.312
 2351SOL    HW2 7953   2.356   5.734   3.473
 2352SOL     OW 7954   6.315   3.946   2.104
 2352SOL    HW1 7955   6.392   3.930   2.041
 2352SOL    HW2 7956   6.281   4.039   2.092
 2353SOL     OW 7957   2.946   3.740   6.374
 2353SOL    HW1 7958   2.878   3.688   6.425
 2353SOL    HW2 7959   3.020   3.767   6.434
 2354SOL     OW 7960   3.999   2.434   1.667
 2354SOL    HW1 7961   3.911   2.480   1.655
 2354SOL    HW2 7962   4.026   2.389   1.582
 2355SOL     OW 7963   6.619   0.593   1.535
 2355SOL    HW1 7964   6.606   0.692   1.537
 2355SOL    HW2 7965   6.635   0.560   1.627
 2356SOL     OW 7966   2.911   5.122   3.876
 2356SOL    HW1 7967   2.861   5.206   3.897
 2356SOL    HW2 7968   2.883   5.050   3.939
 2357SOL     OW 7969   6.387   4.422   0.686
 2357SOL    HW1 7970   6.295   4.386   0.674
 2357SOL    HW2 7971   6.436   4.367   0.754
 2358SOL     OW 7972   3.698   2.121   5.203
 2358SOL    HW1 7973   3.728   2.123   5.107
 2358SOL    HW2 7974   3.610   2.168   5.211
 2359SOL     OW 7975   1.776   1.801   5.776
 2359SOL    HW1 7976   1.840   1.729   5.802
 2359SOL    HW2 7977   1.826   1.883   5.748
 2360SOL     OW 7978   3.601   4.981   6.738
 2360SOL    HW1 7979   3.623   4.965   6.641
 2360SOL    HW2 7980   3.676   5.031   6.782
 2361SOL     OW 7981   4.643   5.682   1.847
 2361SOL    HW1 7982   4.701   5.600   1.852
 2361SOL    HW2 7983   4.692   5.754   1.798
 2362SOL     OW 7984   4.403   4.866   3.820
 2362SOL    HW1 7985   4.441   4.869   3.727
 2362SOL    HW2 7986   4.393   4.960   3.854
 2363SOL     OW 7987   1.681   3.962   0.500
 2363SOL    HW1 7988   1.683   3.866   0.472
 2363SOL    HW2 7989   1.615   4.012   0.445
 2364SOL     OW 7990   3.491   1.314   2.788
 2364SOL    HW1 7991   3.475   1.224   2.747
 2364SOL    HW2 7992   3.407   1.368   2.782
 2365SOL     OW 7993   4.688   4.189   3.384
 2365SOL    HW1 7994   4.749   4.198   3.305
 2365SOL    HW2 7995   4.610   4.250   3.373
 2366SOL     OW 7996   3.143   4.855   4.986
 2366SOL    HW1 7997   3.174   4.826   4.896
 2366SOL    HW2 7998   3.059   4.805   5.010
 2367SOL     OW 7999   5.694   5.317   6.266
 2367SOL    HW1 8000   5.780   5.290   6.223
 2367SOL    HW2 8001   5.618   5.274   6.217
 2368SOL     OW 8002   5.733   6.947   4.912
 2368SOL    HW1 8003   5.737   7.012   4.988
 2368SOL    HW2 8004   5.826   6.925   4.882
 2369SOL     OW 8005   3.165   2.170   4.370
 2369SOL    HW1 8006   3.194   2.110   4.444
 2369SOL    HW2 8007   3.077   2.212   4.393
 2370SOL     OW 8008   6.080   2.578   1.876
 2370SOL    HW1 8009   5.992   2.577   1.829
 2370SOL    HW2 8010   6.132   2.496   1.851
 2371SOL     OW 8011   0.596   6.096   2.843
 2371SOL    HW1 8012   0.693   6.072   2.846
 2371SOL    HW2 8013   0.587   6.195   2.826
 2372SOL     OW 8014   6.017   6.473   6.787
 2372SOL    HW1 8015   6.068   6.426   6.859
 2372SOL    HW2 8016   5.928   6.501   6.822
 2373SOL     OW 8017   6.449   5.197   6.291
 2373SOL    HW1 8018   6.372   5.253   6.261
 2373SOL    HW2 8019   6.526   5.256   6.315
 2374SOL     OW 8020   6.490   6.073   2.690
 2374SOL    HW1 8021   6.409   6.095   2.745
 2374SOL    HW2 8022   6.535   5.992   2.727
 2375SOL     OW 8023   1.448   0.545   3.950
 2375SOL    HW1 8024   1.481   0.616   3.887
 2375SOL    HW2 8025   1.518   0.473   3.958
 2376SOL     OW 8026   5.519   1.915   3.168
 2376SOL    HW1 8027   5.471   2.002   3.181
 2376SOL    HW2 8028   5.455   1.847   3.131
 2377SOL     OW 8029   4.489   4.196   5.936
 2377SOL    HW1 8030   4.539   4.238   5.861
 2377SOL    HW2 8031   4.399   4.167   5.904
 2378SOL     OW 8032   6.784   0.810   0.121
 2378SOL    HW1 8033   6.693   0.803   0.080
 2378SOL    HW2 8034   6.802   0.729   0.176
 2379SOL     OW 8035   6.562   5.252   2.205
 2379SOL    HW1 8036   6.598   5.343   2.182
 2379SOL    HW2 8037   6.531   5.207   2.122
 2380SOL     OW 8038   4.904   6.073   5.940
 2380SOL    HW1 8039   4.947   6.118   6.018
 2380SOL    HW2 8040   4.857   6.141   5.883
 2381SOL     OW 8041   2.170   4.631   4.365
 2381SOL    HW1 8042   2.120   4.672   4.288
 2381SOL    HW2 8043   2.268   4.634   4.346
 2382SOL     OW 8044   0.010   5.726   2.812
 2382SOL    HW1 8045   0.091   5.693   2.764
 2382SOL    HW2 8046   6.961   5.658   2.805
 2383SOL     OW 8047   5.216   4.672   5.950
 2383SOL    HW1 8048   5.214   4.768   5.921
 2383SOL    HW2 8049   5.201   4.667   6.049
 2384SOL     OW 8050   0.428   2.089   2.907
 2384SOL    HW1 8051   0.443   2.029   2.828
 2384SOL    HW2 8052   0.333   2.121   2.907
 2385SOL     OW 8053   0.510   1.151   0.590
 2385SOL    HW1 8054   0.562   1.207   0.655
 2385SOL    HW2 8055   0.571   1.084   0.547
 2386SOL     OW 8056   6.191   5.963   4.049
 2386SOL    HW1 8057   6.195   6.062   4.037
 2386SOL    HW2 8058   6.138   5.941   4.130
 2387SOL     OW 8059   1.244   1.572   3.399
 2387SOL    HW1 8060   1.308   1.509   3.442
 2387SOL    HW2 8061   1.286   1.663   3.392
 2388SOL     OW 8062   6.982   2.456   5.283
 2388SOL    HW1 8063   0.038   2.488   5.334
 2388SOL    HW2 8064   7.009   2.428   5.191
 2389SOL     OW 8065   4.292   4.682   4.009
 2389SOL    HW1 8066   4.370   4.628   4.038
 2389SOL    HW2 8067   4.315   4.733   3.926
 2390SOL     OW 8068   4.746   3.056   5.810
 2390SOL    HW1 8069   4.700   3.123   5.752
 2390SOL    HW2 8070   4.830   3.024   5.765
 2391SOL     OW 8071   3.161   4.059   5.686
 2391SOL    HW1 8072   3.093   4.080   5.757
 2391SOL    HW2 8073   3.116   4.010   5.611
 2392SOL     OW 8074   4.636   4.541   5.337
 2392SOL    HW1 8075   4.685   4.454   5.329
 2392SOL    HW2 8076   4.635   4.569   5.433
 2393SOL     OW 8077   4.032   4.455   1.190
 2393SOL    HW1 8078   4.029   4.358   1.216
 2393SOL    HW2 8079   4.053   4.463   1.093
 2394SOL     OW 8080   0.620   2.557   3.822
 2394SOL    HW1 8081   0.560   2.636   3.808
 2394SOL    HW2 8082   0.571   2.487   3.875
 2395SOL     OW 8083   0.907   2.559   4.488
 2395SOL    HW1 8084   0.885   2.462   4.486
 2395SOL    HW2 8085   0.963   2.583   4.409
 2396SOL     OW 8086   0.578   0.396   5.413
 2396SOL    HW1 8087   0.599   0.491   5.393
 2396SOL    HW2 8088   0.646   0.337   5.369
 2397SOL     OW 8089   6.893   4.083   5.125
 2397SOL    HW1 8090   6.805   4.041   5.144
 2397SOL    HW2 8091   6.932   4.043   5.042
 2398SOL     OW 8092   3.698   6.473   4.475
 2398SOL    HW1 8093   3.642   6.445   4.396
 2398SOL    HW2 8094   3.661   6.558   4.513
 2399SOL     OW 8095   3.485   2.004   3.828
 2399SOL    HW1 8096   3.503   1.923   3.885
 2399SOL    HW2 8097   3.389   2.029   3.835
 2400SOL     OW 8098   1.840   3.792   0.837
 2400SOL    HW1 8099   1.827   3.831   0.928
 2400SOL    HW2 8100   1.859   3.695   0.844
 2401SOL     OW 8101   1.858   6.935   6.036
 2401SOL    HW1 8102   1.824   7.008   5.977
 2401SOL    HW2 8103   1.882   6.973   6.126
 2402SOL     OW 8104   1.488   4.407   1.594
 2402SOL    HW1 8105   1.507   4.367   1.684
 2402SOL    HW2 8106   1.571   4.406   1.539
 2403SOL     OW 8107   4.083   3.198   3.641
 2403SOL    HW1 8108   4.177   3.172   3.620
 2403SOL    HW2 8109   4.026   3.116   3.646
 2404SOL     OW 8110   6.189   1.158   0.941
 2404SOL    HW1 8111   6.130   1.179   1.019
 2404SOL    HW2 8112   6.174   1.064   0.911
 2405SOL     OW 8113   2.094   3.067   0.390
 2405SOL    HW1 8114   2.027   3.009   0.344
 2405SOL    HW2 8115   2.103   3.154   0.341
 2406SOL     OW 8116   2.556   6.212   4.642
 2406SOL    HW1 8117   2.613   6.256   4.574
 2406SOL    HW2 8118   2.610   6.191   4.723
 2407SOL     OW 8119   2.604   0.962   3.423
 2407SOL    HW1 8120   2.586   1.057   3.446
 2407SOL    HW2 8121   2.589   0.948   3.325
 2408SOL     OW 8122   3.806   6.379   5.328
 2408SOL    HW1 8123   3.880   6.368   5.394
 2408SOL    HW2 8124   3.768   6.289   5.305
 2409SOL     OW 8125   1.199   3.415   0.429
 2409SOL    HW1 8126   1.232   3.449   0.517
 2409SOL    HW2 8127   1.262   3.345   0.394
 2410SOL     OW 8128   0.772   2.922   4.683
 2410SOL    HW1 8129   0.859   2.951   4.644
 2410SOL    HW2 8130   0.758   2.824   4.665
 2411SOL     OW 8131   3.187   2.572   0.058
 2411SOL    HW1 8132   3.213   2.509   0.131
 2411SOL    HW2 8133   3.172   2.522   6.997
 2412SOL     OW 8134   3.592   2.107   6.497
 2412SOL    HW1 8135   3.613   2.091   6.593
 2412SOL    HW2 8136   3.653   2.178   6.461
 2413SOL     OW 8137   0.189   3.595   0.431
 2413SOL    HW1 8138   0.253   3.572   0.358
 2413SOL    HW2 8139   0.238   3.598   0.518
 2414SOL     OW 8140   5.857   2.245   5.068
 2414SOL    HW1 8141   5.862   2.248   4.968
 2414SOL    HW2 8142   5.948   2.227   5.105
 2415SOL     OW 8143   2.590   5.852   6.826
 2415SOL    HW1 8144   2.599   5.783   6.754
 2415SOL    HW2 8145   2.649   5.930   6.805
 2416SOL     OW 8146   0.152   3.186   2.208
 2416SOL    HW1 8147   0.131   3.194   2.306
 2416SOL    HW2 8148   0.100   3.110   2.169
 2417SOL     OW 8149   3.030   2.711   1.777
 2417SOL    HW1 8150   3.089   2.752   1.846
 2417SOL    HW2 8151   3.015   2.615   1.798
 2418SOL     OW 8152   4.800   4.190   6.690
 2418SOL    HW1 8153   4.855   4.109   6.668
 2418SOL    HW2 8154   4.837   4.233   6.773
 2419SOL     OW 8155   3.298   6.723   3.057
 2419SOL    HW1 8156   3.279   6.784   2.981
 2419SOL    HW2 8157   3.213   6.679   3.087
 2420SOL     OW 8158   1.564   4.084   2.523
 2420SOL    HW1 8159   1.545   4.113   2.429
 2420SOL    HW2 8160   1.660   4.104   2.545
 2421SOL     OW 8161   2.969   6.611   3.634
 2421SOL    HW1 8162   3.050   6.556   3.653
 2421SOL    HW2 8163   2.943   6.662   3.716
 2422SOL     OW 8164   4.180   5.476   1.033
 2422SOL    HW1 8165   4.130   5.557   1.063
 2422SOL    HW2 8166   4.276   5.483   1.063
 2423SOL     OW 8167   2.535   5.840   2.842
 2423SOL    HW1 8168   2.631   5.818   2.824
 2423SOL    HW2 8169   2.509   5.921   2.789
 2424SOL     OW 8170   5.452   0.087   6.358
 2424SOL    HW1 8171   5.503   0.089   6.272
 2424SOL    HW2 8172   5.361   0.049   6.342
 2425SOL     OW 8173   5.567   5.628   4.932
 2425SOL    HW1 8174   5.482   5.603   4.979
 2425SOL    HW2 8175   5.578   5.727   4.933
 2426SOL     OW 8176   2.183   3.260   5.684
 2426SOL    HW1 8177   2.218   3.351   5.707
 2426SOL    HW2 8178   2.193   3.245   5.586
 2427SOL     OW 8179   5.368   0.430   6.865
 2427SOL    HW1 8180   5.359   0.447   6.963
 2427SOL    HW2 8181   5.296   0.479   6.816
 2428SOL     OW 8182   0.779   0.856   3.098
 2428SOL    HW1 8183   0.846   0.850   3.172
 2428SOL    HW2 8184   0.687   0.839   3.135
 2429SOL     OW 8185   5.566   4.930   1.511
 2429SOL    HW1 8186   5.663   4.952   1.510
 2429SOL    HW2 8187   5.519   4.985   1.441
 2430SOL     OW 8188   5.905   0.578   6.534
 2430SOL    HW1 8189   5.807   0.558   6.545
 2430SOL    HW2 8190   5.953   0.551   6.618
 2431SOL     OW 8191   0.444   2.847   2.007
 2431SOL    HW1 8192   0.366   2.891   1.963
 2431SOL    HW2 8193   0.451   2.879   2.101
 2432SOL     OW 8194   2.622   5.291   2.063
 2432SOL    HW1 8195   2.542   5.335   2.023
 2432SOL    HW2 8196   2.654   5.218   2.004
 2433SOL     OW 8197   6.646   4.237   5.561
 2433SOL    HW1 8198   6.661   4.182   5.644
 2433SOL    HW2 8199   6.732   4.278   5.533
 2434SOL     OW 8200   4.349   0.907   2.624
 2434SOL    HW1 8201   4.342   0.813   2.593
 2434SOL    HW2 8202   4.261   0.937   2.661
 2435SOL     OW 8203   6.399   6.716   6.947
 2435SOL    HW1 8204   6.437   6.623   6.950
 2435SOL    HW2 8205   6.300   6.712   6.957
 2436SOL     OW 8206   1.601   1.963   1.553
 2436SOL    HW1 8207   1.585   2.008   1.465
 2436SOL    HW2 8208   1.625   1.867   1.538
 2437SOL     OW 8209   0.193   4.163   2.987
 2437SOL    HW1 8210   0.109   4.154   2.933
 2437SOL    HW2 8211   0.169   4.167   3.084
 2438SOL     OW 8212   3.236   1.208   4.860
 2438SOL    HW1 8213   3.177   1.288   4.870
 2438SOL    HW2 8214   3.312   1.215   4.924
 2439SOL     OW 8215   2.032   6.380   1.210
 2439SOL    HW1 8216   2.013   6.284   1.231
 2439SOL    HW2 8217   2.098   6.385   1.134
 2440SOL     OW 8218   5.510   1.228   5.363
 2440SOL    HW1 8219   5.508   1.162   5.287
 2440SOL    HW2 8220   5.449   1.304   5.341
 2441SOL     OW 8221   6.094   0.132   0.533
 2441SOL    HW1 8222   6.131   0.195   0.464
 2441SOL    HW2 8223   5.995   0.144   0.539
 2442SOL     OW 8224   5.106   3.117   1.901
 2442SOL    HW1 8225   5.031   3.173   1.864
 2442SOL    HW2 8226   5.187   3.174   1.912
 2443SOL     OW 8227   0.904   3.014   1.946
 2443SOL    HW1 8228   0.948   3.064   1.871
 2443SOL    HW2 8229   0.928   3.057   2.033
 2444SOL     OW 8230   3.873   5.537   1.880
 2444SOL    HW1 8231   3.861   5.636   1.877
 2444SOL    HW2 8232   3.955   5.514   1.932
 2445SOL     OW 8233   0.610   2.608   1.389
 2445SOL    HW1 8234   0.706   2.616   1.417
 2445SOL    HW2 8235   0.560   2.690   1.416
 2446SOL     OW 8236   1.243   5.210   1.421
 2446SOL    HW1 8237   1.265   5.304   1.391
 2446SOL    HW2 8238   1.268   5.199   1.517
 2447SOL     OW 8239   2.283   6.874   0.101
 2447SOL    HW1 8240   2.270   6.782   0.063
 2447SOL    HW2 8241   2.273   6.942   0.029
 2448SOL     OW 8242   6.639   1.670   4.484
 2448SOL    HW1 8243   6.622   1.641   4.390
 2448SOL    HW2 8244   6.642   1.770   4.489
 2449SOL     OW 8245   1.775   4.176   1.745
 2449SOL    HW1 8246   1.798   4.265   1.787
 2449SOL    HW2 8247   1.748   4.112   1.817
 2450SOL     OW 8248   1.403   7.012   5.762
 2450SOL    HW1 8249   1.485   6.956   5.752
 2450SOL    HW2 8250   1.338   6.964   5.822
 2451SOL     OW 8251   0.730   6.509   4.684
 2451SOL    HW1 8252   0.799   6.469   4.744
 2451SOL    HW2 8253   0.720   6.453   4.602
 2452SOL     OW 8254   2.152   2.233   3.442
 2452SOL    HW1 8255   2.065   2.195   3.474
 2452SOL    HW2 8256   2.205   2.161   3.397
 2453SOL     OW 8257   0.241   0.774   6.445
 2453SOL    HW1 8258   0.297   0.700   6.483
 2453SOL    HW2 8259   0.145   0.749   6.448
 2454SOL     OW 8260   3.489   5.653   1.169
 2454SOL    HW1 8261   3.419   5.633   1.238
 2454SOL    HW2 8262   3.445   5.689   1.087
 2455SOL     OW 8263   4.197   2.793   0.685
 2455SOL    HW1 8264   4.148   2.782   0.598
 2455SOL    HW2 8265   4.161   2.728   0.752
 2456SOL     OW 8266   0.732   4.175   6.183
 2456SOL    HW1 8267   0.664   4.188   6.255
 2456SOL    HW2 8268   0.805   4.244   6.193
 2457SOL     OW 8269   4.608   2.055   5.116
 2457SOL    HW1 8270   4.581   2.090   5.027
 2457SOL    HW2 8271   4.669   2.121   5.160
 2458SOL     OW 8272   0.944   0.745   1.923
 2458SOL    HW1 8273   0.878   0.792   1.864
 2458SOL    HW2 8274   0.967   0.803   2.001
 2459SOL     OW 8275   2.563   0.034   0.446
 2459SOL    HW1 8276   2.549   0.097   0.523
 2459SOL    HW2 8277   2.483   0.036   0.385
 2460SOL     OW 8278   1.558   0.808   4.753
 2460SOL    HW1 8279   1.564   0.769   4.845
 2460SOL    HW2 8280   1.487   0.761   4.701
 2461SOL     OW 8281   4.719   6.878   3.511
 2461SOL    HW1 8282   4.774   6.953   3.473
 2461SOL    HW2 8283   4.634   6.915   3.548
 2462SOL     OW 8284   0.219   3.941   0.540
 2462SOL    HW1 8285   0.157   3.979   0.608
 2462SOL    HW2 8286   0.215   3.841   0.544
 2463SOL     OW 8287   6.740   0.551   0.242
 2463SOL    HW1 8288   6.729   0.551   0.341
 2463SOL    HW2 8289   6.653   0.573   0.199
 2464SOL     OW 8290   0.680   2.664   3.214
 2464SOL    HW1 8291   0.591   2.697   3.245
 2464SOL    HW2 8292   0.726   2.735   3.161
 2465SOL     OW 8293   6.950   6.035   5.508
 2465SOL    HW1 8294   0.005   5.991   5.550
 2465SOL    HW2 8295   6.944   6.008   5.412
 2466SOL     OW 8296   0.634   2.211   2.224
 2466SOL    HW1 8297   0.573   2.226   2.146
 2466SOL    HW2 8298   0.632   2.290   2.284
 2467SOL     OW 8299   5.963   1.910   5.335
 2467SOL    HW1 8300   5.970   1.812   5.354
 2467SOL    HW2 8301   5.998   1.929   5.243
 2468SOL     OW 8302   3.011   6.978   5.575
 2468SOL    HW1 8303   3.047   0.000   5.656
 2468SOL    HW2 8304   3.085   6.931   5.528
 2469SOL     OW 8305   3.582   2.677   5.933
 2469SOL    HW1 8306   3.638   2.746   5.887
 2469SOL    HW2 8307   3.516   2.639   5.868
 2470SOL     OW 8308   3.132   4.518   6.067
 2470SOL    HW1 8309   3.085   4.468   5.994
 2470SOL    HW2 8310   3.129   4.616   6.048
 2471SOL     OW 8311   3.387   5.731   1.825
 2471SOL    HW1 8312   3.326   5.666   1.870
 2471SOL    HW2 8313   3.470   5.742   1.881
 2472SOL     OW 8314   4.556   2.015   4.373
 2472SOL    HW1 8315   4.518   1.943   4.315
 2472SOL    HW2 8316   4.634   2.057   4.327
 2473SOL     OW 8317   0.687   4.484   5.017
 2473SOL    HW1 8318   0.666   4.446   4.927
 2473SOL    HW2 8319   0.627   4.562   5.034
 2474SOL     OW 8320   1.393   5.808   1.421
 2474SOL    HW1 8321   1.469   5.773   1.476
 2474SOL    HW2 8322   1.306   5.783   1.464
 2475SOL     OW 8323   5.131   0.731   1.041
 2475SOL    HW1 8324   5.167   0.824   1.049
 2475SOL    HW2 8325   5.046   0.732   0.989
 2476SOL     OW 8326   5.625   0.511   6.560
 2476SOL    HW1 8327   5.626   0.482   6.656
 2476SOL    HW2 8328   5.562   0.453   6.509
 2477SOL     OW 8329   3.784   0.215   3.260
 2477SOL    HW1 8330   3.872   0.260   3.246
 2477SOL    HW2 8331   3.710   0.281   3.246
 2478SOL     OW 8332   4.532   0.108   3.732
 2478SOL    HW1 8333   4.455   0.143   3.677
 2478SOL    HW2 8334   4.611   0.168   3.720
 2479SOL     OW 8335   0.328   3.552   0.183
 2479SOL    HW1 8336   0.314   3.644   0.148
 2479SOL    HW2 8337   0.258   3.491   0.144
 2480SOL     OW 8338   3.355   2.667   1.638
 2480SOL    HW1 8339   3.334   2.574   1.667
 2480SOL    HW2 8340   3.272   2.713   1.606
 2481SOL     OW 8341   3.330   0.022   1.045
 2481SOL    HW1 8342   3.337   0.106   0.990
 2481SOL    HW2 8343   3.380   6.972   0.999
 2482SOL     OW 8344   5.647   3.194   6.631
 2482SOL    HW1 8345   5.711   3.221   6.560
 2482SOL    HW2 8346   5.581   3.268   6.647
 2483SOL     OW 8347   1.037   2.482   0.870
 2483SOL    HW1 8348   1.130   2.513   0.848
 2483SOL    HW2 8349   1.022   2.490   0.969
 2484SOL     OW 8350   5.841   1.321   1.745
 2484SOL    HW1 8351   5.921   1.284   1.792
 2484SOL    HW2 8352   5.815   1.408   1.786
 2485SOL     OW 8353   5.937   2.398   6.172
 2485SOL    HW1 8354   5.891   2.486   6.160
 2485SOL    HW2 8355   5.872   2.331   6.205
 2486SOL     OW 8356   0.649   4.049   5.140
 2486SOL    HW1 8357   0.694   4.076   5.055
 2486SOL    HW2 8358   0.612   4.130   5.185
 2487SOL     OW 8359   4.546   5.876   0.396
 2487SOL    HW1 8360   4.595   5.924   0.470
 2487SOL    HW2 8361   4.612   5.829   0.338
 2488SOL     OW 8362   6.908   3.882   1.359
 2488SOL    HW1 8363   6.918   3.964   1.303
 2488SOL    HW2 8364   6.997   3.859   1.400
 2489SOL     OW 8365   0.252   6.751   4.459
 2489SOL    HW1 8366   0.325   6.737   4.526
 2489SOL    HW2 8367   0.176   6.689   4.478
 2490SOL     OW 8368   3.105   6.404   2.294
 2490SOL    HW1 8369   3.178   6.361   2.347
 2490SOL    HW2 8370   3.049   6.461   2.354
 2491SOL     OW 8371   4.123   4.621   1.587
 2491SOL    HW1 8372   4.154   4.673   1.507
 2491SOL    HW2 8373   4.201   4.600   1.645
 2492SOL     OW 8374   6.512   4.304   0.891
 2492SOL    HW1 8375   6.544   4.383   0.943
 2492SOL    HW2 8376   6.586   4.237   0.883
 2493SOL     OW 8377   6.777   6.450   1.780
 2493SOL    HW1 8378   6.796   6.492   1.691
 2493SOL    HW2 8379   6.733   6.517   1.839
 2494SOL     OW 8380   5.932   3.526   2.009
 2494SOL    HW1 8381   5.933   3.619   1.973
 2494SOL    HW2 8382   5.937   3.461   1.933
 2495SOL     OW 8383   6.458   4.677   3.757
 2495SOL    HW1 8384   6.542   4.697   3.807
 2495SOL    HW2 8385   6.472   4.694   3.659
 2496SOL     OW 8386   6.102   5.147   6.567
 2496SOL    HW1 8387   6.055   5.069   6.607
 2496SOL    HW2 8388   6.159   5.117   6.491
 2497SOL     OW 8389   0.365   0.180   1.808
 2497SOL    HW1 8390   0.451   0.132   1.828
 2497SOL    HW2 8391   0.292   0.142   1.865
 2498SOL     OW 8392   2.080   3.130   6.107
 2498SOL    HW1 8393   2.149   3.201   6.093
 2498SOL    HW2 8394   1.998   3.170   6.148
 2499SOL     OW 8395   6.704   3.436   1.079
 2499SOL    HW1 8396   6.758   3.469   1.156
 2499SOL    HW2 8397   6.763   3.387   1.015
 2500SOL     OW 8398   3.536   4.204   6.908
 2500SOL    HW1 8399   3.462   4.183   6.843
 2500SOL    HW2 8400   3.624   4.194   6.862
 2501SOL     OW 8401   6.354   5.500   0.618
 2501SOL    HW1 8402   6.395   5.416   0.581
 2501SOL    HW2 8403   6.305   5.479   0.702
 2502SOL     OW 8404   2.860   5.813   4.597
 2502SOL    HW1 8405   2.941   5.785   4.648
 2502SOL    HW2 8406   2.782   5.821   4.659
 2503SOL     OW 8407   2.553   6.772   5.562
 2503SOL    HW1 8408   2.633   6.830   5.546
 2503SOL    HW2 8409   2.498   6.811   5.637
 2504SOL     OW 8410   3.177   5.588   2.582
 2504SOL    HW1 8411   3.183   5.628   2.491
 2504SOL    HW2 8412   3.257   5.529   2.598
 2505SOL     OW 8413   0.176   6.078   2.916
 2505SOL    HW1 8414   0.139   6.156   2.866
 2505SOL    HW2 8415   0.227   6.019   2.854
 2506SOL     OW 8416   5.487   5.182   5.696
 2506SOL    HW1 8417   5.512   5.158   5.602
 2506SOL    HW2 8418   5.500   5.103   5.756
 2507SOL     OW 8419   0.147   3.288   0.592
 2507SOL    HW1 8420   0.162   3.213   0.656
 2507SOL    HW2 8421   0.075   3.348   0.628
 2508SOL     OW 8422   3.834   1.826   3.968
 2508SOL    HW1 8423   3.868   1.755   4.030
 2508SOL    HW2 8424   3.781   1.783   3.894
 2509SOL     OW 8425   6.964   3.854   5.934
 2509SOL    HW1 8426   6.958   3.843   5.835
 2509SOL    HW2 8427   6.970   3.764   5.977
 2510SOL     OW 8428   3.086   4.029   1.920
 2510SOL    HW1 8429   3.082   4.054   1.824
 2510SOL    HW2 8430   3.004   3.977   1.944
 2511SOL     OW 8431   2.438   1.063   5.011
 2511SOL    HW1 8432   2.457   1.089   5.106
 2511SOL    HW2 8433   2.418   1.144   4.957
 2512SOL     OW 8434   3.958   4.878   4.566
 2512SOL    HW1 8435   4.013   4.814   4.618
 2512SOL    HW2 8436   3.995   4.971   4.576
 2513SOL     OW 8437   2.473   6.134   6.023
 2513SOL    HW1 8438   2.520   6.146   6.111
 2513SOL    HW2 8439   2.375   6.118   6.041
 2514SOL     OW 8440   1.050   3.017   3.355
 2514SOL    HW1 8441   1.092   2.954   3.289
 2514SOL    HW2 8442   1.110   3.027   3.435
 2515SOL     OW 8443   2.157   1.343   1.126
 2515SOL    HW1 8444   2.250   1.328   1.161
 2515SOL    HW2 8445   2.125   1.262   1.078
 2516SOL     OW 8446   5.642   1.648   3.510
 2516SOL    HW1 8447   5.698   1.646   3.593
 2516SOL    HW2 8448   5.666   1.570   3.452
 2517SOL     OW 8449   0.941   0.852   4.386
 2517SOL    HW1 8450   0.966   0.937   4.431
 2517SOL    HW2 8451   0.859   0.813   4.429
 2518SOL     OW 8452   2.694   4.704   1.103
 2518SOL    HW1 8453   2.681   4.625   1.163
 2518SOL    HW2 8454   2.604   4.740   1.075
 2519SOL     OW 8455   2.163   1.198   0.723
 2519SOL    HW1 8456   2.147   1.258   0.644
 2519SOL    HW2 8457   2.260   1.202   0.748
 2520SOL     OW 8458   3.494   2.663   1.361
 2520SOL    HW1 8459   3.433   2.609   1.302
 2520SOL    HW2 8460   3.505   2.616   1.449
 2521SOL     OW 8461   4.132   1.451   5.250
 2521SOL    HW1 8462   4.090   1.373   5.203
 2521SOL    HW2 8463   4.063   1.521   5.266
 2522SOL     OW 8464   0.394   1.352   5.493
 2522SOL    HW1 8465   0.347   1.434   5.527
 2522SOL    HW2 8466   0.396   1.354   5.393
 2523SOL     OW 8467   2.110   4.383   0.238
 2523SOL    HW1 8468   2.133   4.433   0.155
 2523SOL    HW2 8469   2.011   4.367   0.241
 2524SOL     OW 8470   1.448   6.619   4.185
 2524SOL    HW1 8471   1.497   6.693   4.230
 2524SOL    HW2 8472   1.494   6.595   4.099
 2525SOL     OW 8473   0.646   2.579   4.272
 2525SOL    HW1 8474   0.695   2.666   4.267
 2525SOL    HW2 8475   0.659   2.539   4.362
 2526SOL     OW 8476   0.784   5.706   0.261
 2526SOL    HW1 8477   0.767   5.800   0.232
 2526SOL    HW2 8478   0.802   5.649   0.181
 2527SOL     OW 8479   5.146   5.274   6.458
 2527SOL    HW1 8480   5.076   5.217   6.414
 2527SOL    HW2 8481   5.125   5.371   6.442
 2528SOL     OW 8482   4.715   5.036   6.332
 2528SOL    HW1 8483   4.713   5.125   6.379
 2528SOL    HW2 8484   4.634   5.028   6.274
 2529SOL     OW 8485   0.493   6.740   6.114
 2529SOL    HW1 8486   0.552   6.752   6.034
 2529SOL    HW2 8487   0.436   6.821   6.126
 2530SOL     OW 8488   2.792   5.722   5.573
 2530SOL    HW1 8489   2.756   5.634   5.543
 2530SOL    HW2 8490   2.756   5.795   5.515
 2531SOL     OW 8491   6.536   5.518   5.933
 2531SOL    HW1 8492   6.537   5.542   5.836
 2531SOL    HW2 8493   6.616   5.558   5.978
 2532SOL     OW 8494   0.501   6.521   1.167
 2532SOL    HW1 8495   0.565   6.568   1.107
 2532SOL    HW2 8496   0.415   6.572   1.171
 2533SOL     OW 8497   5.278   0.453   2.968
 2533SOL    HW1 8498   5.364   0.503   2.969
 2533SOL    HW2 8499   5.245   0.443   3.062
 2534SOL     OW 8500   4.803   1.904   1.893
 2534SOL    HW1 8501   4.812   1.984   1.952
 2534SOL    HW2 8502   4.894   1.875   1.863
 2535SOL     OW 8503   3.425   2.634   6.159
 2535SOL    HW1 8504   3.430   2.540   6.192
 2535SOL    HW2 8505   3.480   2.642   6.075
 2536SOL     OW 8506   1.516   1.067   6.581
 2536SOL    HW1 8507   1.492   1.114   6.496
 2536SOL    HW2 8508   1.457   1.101   6.655
 2537SOL     OW 8509   4.283   1.216   0.144
 2537SOL    HW1 8510   4.188   1.189   0.134
 2537SOL    HW2 8511   4.343   1.142   0.115
 2538SOL     OW 8512   6.790   3.845   4.000
 2538SOL    HW1 8513   6.862   3.777   4.004
 2538SOL    HW2 8514   6.757   3.853   3.906
 2539SOL     OW 8515   5.831   1.524   4.369
 2539SOL    HW1 8516   5.841   1.478   4.457
 2539SOL    HW2 8517   5.765   1.475   4.312
 2540SOL     OW 8518   3.747   1.743   2.830
 2540SOL    HW1 8519   3.841   1.728   2.861
 2540SOL    HW2 8520   3.748   1.795   2.744
 2541SOL     OW 8521   2.724   6.961   5.511
 2541SOL    HW1 8522   2.731   6.956   5.412
 2541SOL    HW2 8523   2.815   6.964   5.552
 2542SOL     OW 8524   1.628   4.799   6.837
 2542SOL    HW1 8525   1.688   4.824   6.761
 2542SOL    HW2 8526   1.573   4.879   6.863
 2543SOL     OW 8527   0.872   2.293   4.409
 2543SOL    HW1 8528   0.883   2.241   4.494
 2543SOL    HW2 8529   0.955   2.286   4.354
 2544SOL     OW 8530   0.827   5.029   0.588
 2544SOL    HW1 8531   0.818   4.930   0.590
 2544SOL    HW2 8532   0.923   5.054   0.579
 2545SOL     OW 8533   1.800   6.485   2.765
 2545SOL    HW1 8534   1.802   6.438   2.854
 2545SOL    HW2 8535   1.724   6.550   2.764
 2546SOL     OW 8536   6.144   1.313   0.722
 2546SOL    HW1 8537   6.154   1.252   0.800
 2546SOL    HW2 8538   6.048   1.320   0.697
 2547SOL     OW 8539   6.941   3.818   5.670
 2547SOL    HW1 8540   6.971   3.903   5.626
 2547SOL    HW2 8541   7.013   3.750   5.663
 2548SOL     OW 8542   0.122   6.740   4.054
 2548SOL    HW1 8543   0.221   6.745   4.066
 2548SOL    HW2 8544   0.092   6.645   4.062
 2549SOL     OW 8545   0.783   0.340   1.752
 2549SOL    HW1 8546   0.778   0.352   1.653
 2549SOL    HW2 8547   0.830   0.255   1.774
 2550SOL     OW 8548   6.010   6.142   0.558
 2550SOL    HW1 8549   6.032   6.066   0.619
 2550SOL    HW2 8550   5.911   6.155   0.556
 2551SOL     OW 8551   2.162   4.227   6.807
 2551SOL    HW1 8552   2.249   4.203   6.851
 2551SOL    HW2 8553   2.180   4.277   6.722
 2552SOL     OW 8554   3.289   5.120   3.657
 2552SOL    HW1 8555   3.374   5.121   3.709
 2552SOL    HW2 8556   3.244   5.032   3.669
 2553SOL     OW 8557   4.181   3.682   5.867
 2553SOL    HW1 8558   4.188   3.596   5.817
 2553SOL    HW2 8559   4.272   3.715   5.890
 2554SOL     OW 8560   1.344   1.746   0.827
 2554SOL    HW1 8561   1.430   1.697   0.839
 2554SOL    HW2 8562   1.352   1.809   0.750
 2555SOL     OW 8563   5.157   2.510   5.259
 2555SOL    HW1 8564   5.064   2.512   5.298
 2555SOL    HW2 8565   5.195   2.418   5.270
 2556SOL     OW 8566   3.811   5.991   1.073
 2556SOL    HW1 8567   3.804   5.981   1.172
 2556SOL    HW2 8568   3.844   5.906   1.033
 2557SOL     OW 8569   2.048   4.147   6.414
 2557SOL    HW1 8570   2.095   4.124   6.329
 2557SOL    HW2 8571   1.962   4.193   6.393
 2558SOL     OW 8572   4.623   1.208   5.719
 2558SOL    HW1 8573   4.568   1.286   5.746
 2558SOL    HW2 8574   4.692   1.237   5.652
 2559SOL     OW 8575   0.359   5.026   5.501
 2559SOL    HW1 8576   0.261   5.009   5.489
 2559SOL    HW2 8577   0.385   5.109   5.453
 2560SOL     OW 8578   5.890   1.731   5.800
 2560SOL    HW1 8579   5.795   1.762   5.792
 2560SOL    HW2 8580   5.943   1.771   5.725
 2561SOL     OW 8581   2.710   5.356   4.550
 2561SOL    HW1 8582   2.686   5.393   4.640
 2561SOL    HW2 8583   2.785   5.290   4.560
 2562SOL     OW 8584   1.883   3.603   0.149
 2562SOL    HW1 8585   1.879   3.703   0.146
 2562SOL    HW2 8586   1.899   3.573   0.243
 2563SOL     OW 8587   2.278   1.407   0.014
 2563SOL    HW1 8588   2.364   1.356   0.010
 2563SOL    HW2 8589   2.210   1.362   6.979
 2564SOL     OW 8590   2.080   5.076   1.463
 2564SOL    HW1 8591   2.002   5.129   1.430
 2564SOL    HW2 8592   2.165   5.119   1.434
 2565SOL     OW 8593   1.382   0.620   1.363
 2565SOL    HW1 8594   1.421   0.544   1.414
 2565SOL    HW2 8595   1.411   0.707   1.403
 2566SOL     OW 8596   2.327   6.639   6.945
 2566SOL    HW1 8597   2.311   6.562   7.006
 2566SOL    HW2 8598   2.396   6.614   6.877
 2567SOL     OW 8599   1.915   6.773   0.696
 2567SOL    HW1 8600   1.844   6.719   0.740
 2567SOL    HW2 8601   1.936   6.853   0.753
 2568SOL     OW 8602   4.559   2.181   0.195
 2568SOL    HW1 8603   4.527   2.269   0.163
 2568SOL    HW2 8604   4.494   2.110   0.170
 2569SOL     OW 8605   3.658   0.439   3.861
 2569SOL    HW1 8606   3.644   0.525   3.910
 2569SOL    HW2 8607   3.573   0.409   3.819
 2570SOL     OW 8608   5.790   1.945   6.042
 2570SOL    HW1 8609   5.782   1.846   6.039
 2570SOL    HW2 8610   5.761   1.984   5.955
 2571SOL     OW 8611   1.352   4.762   3.822
 2571SOL    HW1 8612   1.346   4.799   3.915
 2571SOL    HW2 8613   1.335   4.835   3.756
 2572SOL     OW 8614   2.932   5.149   3.091
 2572SOL    HW1 8615   2.871   5.203   3.149
 2572SOL    HW2 8616   2.878   5.081   3.040
 2573SOL     OW 8617   7.019   0.755   1.480
 2573SOL    HW1 8618   6.973   0.839   1.508
 2573SOL    HW2 8619   6.977   0.721   1.396
 2574SOL     OW 8620   5.656   3.459   0.730
 2574SOL    HW1 8621   5.668   3.367   0.693
 2574SOL    HW2 8622   5.728   3.477   0.797
 2575SOL     OW 8623   6.822   5.749   6.735
 2575SOL    HW1 8624   6.748   5.816   6.733
 2575SOL    HW2 8625   6.899   5.786   6.787
 2576SOL     OW 8626   5.322   5.935   3.844
 2576SOL    HW1 8627   5.244   5.875   3.865
 2576SOL    HW2 8628   5.289   6.018   3.799
 2577SOL     OW 8629   2.932   4.821   2.381
 2577SOL    HW1 8630   2.947   4.799   2.285
 2577SOL    HW2 8631   3.020   4.840   2.425
 2578SOL     OW 8632   3.688   1.694   3.496
 2578SOL    HW1 8633   3.644   1.779   3.525
 2578SOL    HW2 8634   3.631   1.616   3.523
 2579SOL     OW 8635   0.751   6.698   3.821
 2579SOL    HW1 8636   0.716   6.767   3.759
 2579SOL    HW2 8637   0.823   6.737   3.878
 2580SOL     OW 8638   2.549   2.863   6.931
 2580SOL    HW1 8639   2.504   2.814   6.856
 2580SOL    HW2 8640   2.639   2.823   6.948
 2581SOL     OW 8641   2.719   0.144   5.761
 2581SOL    HW1 8642   2.733   0.046   5.769
 2581SOL    HW2 8643   2.651   0.173   5.829
 2582SOL     OW 8644   6.899   3.490   1.271
 2582SOL    HW1 8645   6.939   3.579   1.295
 2582SOL    HW2 8646   6.967   3.435   1.222
 2583SOL     OW 8647   6.321   7.015   1.210
 2583SOL    HW1 8648   6.379   0.057   1.257
 2583SOL    HW2 8649   6.378   6.944   1.170
 2584SOL     OW 8650   4.702   4.804   5.276
 2584SOL    HW1 8651   4.692   4.705   5.278
 2584SOL    HW2 8652   4.799   4.829   5.276
 2585SOL     OW 8653   3.333   5.481   6.697
 2585SOL    HW1 8654   3.270   5.421   6.745
 2585SOL    HW2 8655   3.400   5.519   6.762
 2586SOL     OW 8656   1.693   0.674   5.235
 2586SOL    HW1 8657   1.671   0.619   5.316
 2586SOL    HW2 8658   1.738   0.616   5.167
 2587SOL     OW 8659   6.992   1.889   3.150
 2587SOL    HW1 8660   6.976   1.790   3.150
 2587SOL    HW2 8661   0.054   1.909   3.197
 2588SOL     OW 8662   4.205   1.574   4.965
 2588SOL    HW1 8663   4.241   1.667   4.962
 2588SOL    HW2 8664   4.106   1.576   4.981
 2589SOL     OW 8665   1.293   6.826   7.005
 2589SOL    HW1 8666   1.368   6.860   0.038
 2589SOL    HW2 8667   1.267   6.734   0.013
 2590SOL     OW 8668   2.327   5.546   7.019
 2590SOL    HW1 8669   2.386   5.623   0.019
 2590SOL    HW2 8670   2.314   5.543   6.920
 2591SOL     OW 8671   5.767   5.272   4.419
 2591SOL    HW1 8672   5.673   5.284   4.453
 2591SOL    HW2 8673   5.825   5.241   4.494
 2592SOL     OW 8674   3.074   4.641   6.600
 2592SOL    HW1 8675   3.067   4.554   6.552
 2592SOL    HW2 8676   2.982   4.677   6.616
 2593SOL     OW 8677   2.465   4.874   0.844
 2593SOL    HW1 8678   2.409   4.832   0.772
 2593SOL    HW2 8679   2.448   4.827   0.931
 2594SOL     OW 8680   1.728   4.149   4.330
 2594SOL    HW1 8681   1.703   4.074   4.391
 2594SOL    HW2 8682   1.801   4.203   4.373
 2595SOL     OW 8683   1.764   0.546   3.775
 2595SOL    HW1 8684   1.721   0.493   3.848
 2595SOL    HW2 8685   1.786   0.487   3.698
 2596SOL     OW 8686   0.811   2.018   0.381
 2596SOL    HW1 8687   0.875   2.015   0.304
 2596SOL    HW2 8688   0.762   2.105   0.380
 2597SOL     OW 8689   0.550   6.310   5.978
 2597SOL    HW1 8690   0.533   6.329   6.075
 2597SOL    HW2 8691   0.473   6.259   5.940
 2598SOL     OW 8692   5.619   2.411   2.468
 2598SOL    HW1 8693   5.706   2.412   2.419
 2598SOL    HW2 8694   5.575   2.322   2.455
 2599SOL     OW 8695   2.689   0.162   2.388
 2599SOL    HW1 8696   2.741   0.248   2.391
 2599SOL    HW2 8697   2.658   0.146   2.295
 2600SOL     OW 8698   6.092   3.830   4.555
 2600SOL    HW1 8699   6.038   3.887   4.617
 2600SOL    HW2 8700   6.179   3.808   4.599
 2601SOL     OW 8701   1.025   2.053   2.865
 2601SOL    HW1 8702   0.977   1.974   2.826
 2601SOL    HW2 8703   0.958   2.115   2.906
 2602SOL     OW 8704   2.167   5.666   3.795
 2602SOL    HW1 8705   2.234   5.639   3.726
 2602SOL    HW2 8706   2.171   5.765   3.810
 2603SOL     OW 8707   2.869   0.765   2.849
 2603SOL    HW1 8708   2.849   0.861   2.831
 2603SOL    HW2 8709   2.968   0.753   2.861
 2604SOL     OW 8710   5.303   2.363   2.639
 2604SOL    HW1 8711   5.380   2.312   2.677
 2604SOL    HW2 8712   5.298   2.346   2.540
 2605SOL     OW 8713   1.179   3.774   1.995
 2605SOL    HW1 8714   1.229   3.692   1.968
 2605SOL    HW2 8715   1.187   3.843   1.923
 2606SOL     OW 8716   4.071   3.910   0.915
 2606SOL    HW1 8717   4.075   4.006   0.887
 2606SOL    HW2 8718   3.977   3.887   0.941
 2607SOL     OW 8719   2.707   2.001   0.877
 2607SOL    HW1 8720   2.760   2.086   0.883
 2607SOL    HW2 8721   2.652   2.001   0.793
 2608SOL     OW 8722   2.646   5.460   6.617
 2608SOL    HW1 8723   2.735   5.429   6.584
 2608SOL    HW2 8724   2.660   5.524   6.692
 2609SOL     OW 8725   0.198   0.523   1.322
 2609SOL    HW1 8726   0.182   0.619   1.344
 2609SOL    HW2 8727   0.166   0.466   1.397
 2610SOL     OW 8728   1.440   4.896   4.469
 2610SOL    HW1 8729   1.341   4.899   4.479
 2610SOL    HW2 8730   1.466   4.812   4.420
 2611SOL     OW 8731   5.088   6.657   6.261
 2611SOL    HW1 8732   5.143   6.574   6.272
 2611SOL    HW2 8733   5.028   6.668   6.340
 2612SOL     OW 8734   5.814   0.402   5.671
 2612SOL    HW1 8735   5.866   0.433   5.750
 2612SOL    HW2 8736   5.877   0.366   5.602
 2613SOL     OW 8737   1.342   5.810   6.813
 2613SOL    HW1 8738   1.251   5.847   6.833
 2613SOL    HW2 8739   1.388   5.869   6.747
 2614SOL     OW 8740   6.819   1.146   6.746
 2614SOL    HW1 8741   6.816   1.126   6.844
 2614SOL    HW2 8742   6.753   1.218   6.725
 2615SOL     OW 8743   1.137   3.177   0.198
 2615SOL    HW1 8744   1.089   3.134   0.274
 2615SOL    HW2 8745   1.099   3.269   0.183
 2616SOL     OW 8746   1.570   0.606   5.481
 2616SOL    HW1 8747   1.477   0.641   5.483
 2616SOL    HW2 8748   1.570   0.509   5.505
 2617SOL     OW 8749   5.280   0.142   0.949
 2617SOL    HW1 8750   5.217   0.213   0.979
 2617SOL    HW2 8751   5.350   0.128   1.018
 2618SOL     OW 8752   2.148   6.512   6.115
 2618SOL    HW1 8753   2.075   6.580   6.123
 2618SOL    HW2 8754   2.215   6.542   6.048
 2619SOL     OW 8755   4.705   1.152   2.479
 2619SOL    HW1 8756   4.782   1.215   2.484
 2619SOL    HW2 8757   4.700   1.098   2.564
 2620SOL     OW 8758   6.788   6.729   1.612
 2620SOL    HW1 8759   6.704   6.681   1.589
 2620SOL    HW2 8760   6.769   6.827   1.623
 2621SOL     OW 8761   2.042   6.059   2.331
 2621SOL    HW1 8762   2.125   6.073   2.276
 2621SOL    HW2 8763   1.963   6.095   2.282
 2622SOL     OW 8764   3.582   3.297   6.220
 2622SOL    HW1 8765   3.672   3.340   6.229
 2622SOL    HW2 8766   3.592   3.208   6.175
 2623SOL     OW 8767   1.003   6.791   3.953
 2623SOL    HW1 8768   0.998   6.882   3.995
 2623SOL    HW2 8769   1.039   6.726   4.020
 2624SOL     OW 8770   0.118   2.593   4.253
 2624SOL    HW1 8771   0.142   2.498   4.232
 2624SOL    HW2 8772   0.038   2.594   4.314
 2625SOL     OW 8773   1.756   5.268   5.599
 2625SOL    HW1 8774   1.661   5.268   5.568
 2625SOL    HW2 8775   1.760   5.236   5.694
 2626SOL     OW 8776   6.806   5.212   6.360
 2626SOL    HW1 8777   6.732   5.151   6.333
 2626SOL    HW2 8778   6.773   5.306   6.359
 2627SOL     OW 8779   1.628   6.902   5.668
 2627SOL    HW1 8780   1.616   6.851   5.583
 2627SOL    HW2 8781   1.716   6.878   5.709
 2628SOL     OW 8782   1.359   4.489   2.008
 2628SOL    HW1 8783   1.335   4.578   1.969
 2628SOL    HW2 8784   1.423   4.443   1.947
 2629SOL     OW 8785   3.043   3.933   3.608
 2629SOL    HW1 8786   3.000   3.869   3.671
 2629SOL    HW2 8787   3.064   3.885   3.522
 2630SOL     OW 8788   3.947   0.707   4.141
 2630SOL    HW1 8789   3.926   0.799   4.174
 2630SOL    HW2 8790   3.896   0.689   4.057
 2631SOL     OW 8791   6.098   0.746   0.508
 2631SOL    HW1 8792   6.158   0.672   0.540
 2631SOL    HW2 8793   6.017   0.752   0.566
 2632SOL     OW 8794   5.597   4.454   2.134
 2632SOL    HW1 8795   5.588   4.388   2.209
 2632SOL    HW2 8796   5.669   4.520   2.156
 2633SOL     OW 8797   0.194   2.784   6.084
 2633SOL    HW1 8798   0.168   2.836   6.165
 2633SOL    HW2 8799   0.291   2.799   6.065
 2634SOL     OW 8800   6.163   1.000   5.918
 2634SOL    HW1 8801   6.152   0.912   5.873
 2634SOL    HW2 8802   6.115   1.071   5.866
 2635SOL     OW 8803   5.636   4.900   3.573
 2635SOL    HW1 8804   5.629   4.995   3.544
 2635SOL    HW2 8805   5.628   4.895   3.672
 2636SOL     OW 8806   3.918   6.725   5.881
 2636SOL    HW1 8807   3.942   6.752   5.974
 2636SOL    HW2 8808   3.987   6.761   5.817
 2637SOL     OW 8809   1.106   1.915   3.227
 2637SOL    HW1 8810   1.080   2.012   3.228
 2637SOL    HW2 8811   1.068   1.871   3.146
 2638SOL     OW 8812   1.138   6.773   4.366
 2638SOL    HW1 8813   1.077   6.824   4.426
 2638SOL    HW2 8814   1.219   6.743   4.418
 2639SOL     OW 8815   4.114   4.807   5.207
 2639SOL    HW1 8816   4.017   4.791   5.225
 2639SOL    HW2 8817   4.131   4.906   5.200
 2640SOL     OW 8818   1.150   6.647   4.696
 2640SOL    HW1 8819   1.223   6.609   4.640
 2640SOL    HW2 8820   1.186   6.720   4.754
 2641SOL     OW 8821   5.781   2.601   6.676
 2641SOL    HW1 8822   5.849   2.663   6.636
 2641SOL    HW2 8823   5.786   2.512   6.630
 2642SOL     OW 8824   6.341   1.551   3.663
 2642SOL    HW1 8825   6.298   1.482   3.722
 2642SOL    HW2 8826   6.334   1.641   3.707
 2643SOL     OW 8827   2.059   4.872   3.285
 2643SOL    HW1 8828   2.032   4.843   3.377
 2643SOL    HW2 8829   2.008   4.819   3.217
 2644SOL     OW 8830   5.168   5.145   4.232
 2644SOL    HW1 8831   5.075   5.107   4.225
 2644SOL    HW2 8832   5.165   5.228   4.287
 2645SOL     OW 8833   5.151   5.367   2.758
 2645SOL    HW1 8834   5.155   5.315   2.672
 2645SOL    HW2 8835   5.067   5.343   2.806
 2646SOL     OW 8836   0.548   3.009   6.553
 2646SOL    HW1 8837   0.462   3.005   6.503
 2646SOL    HW2 8838   0.558   2.928   6.610
 2647SOL     OW 8839   5.467   0.814   1.639
 2647SOL    HW1 8840   5.447   0.857   1.551
 2647SOL    HW2 8841   5.475   0.884   1.710
 2648SOL     OW 8842   1.074   6.877   6.194
 2648SOL    HW1 8843   1.043   6.869   6.289
 2648SOL    HW2 8844   0.999   6.855   6.132
 2649SOL     OW 8845   5.104   2.393   1.977
 2649SOL    HW1 8846   5.147   2.459   1.915
 2649SOL    HW2 8847   5.090   2.306   1.929
 2650SOL     OW 8848   3.289   6.249   4.374
 2650SOL    HW1 8849   3.213   6.314   4.385
 2650SOL    HW2 8850   3.311   6.208   4.463
 2651SOL     OW 8851   4.223   2.064   4.655
 2651SOL    HW1 8852   4.219   1.966   4.635
 2651SOL    HW2 8853   4.139   2.108   4.623
 2652SOL     OW 8854   4.567   4.893   5.729
 2652SOL    HW1 8855   4.663   4.868   5.719
 2652SOL    HW2 8856   4.560   4.971   5.792
 2653SOL     OW 8857   2.540   5.745   0.055
 2653SOL    HW1 8858   2.636   5.750   0.084
 2653SOL    HW2 8859   2.533   5.768   6.982
 2654SOL     OW 8860   6.619   0.738   0.702
 2654SOL    HW1 8861   6.664   0.822   0.674
 2654SOL    HW2 8862   6.599   0.741   0.800
 2655SOL     OW 8863   5.080   6.209   2.727
 2655SOL    HW1 8864   5.030   6.154   2.793
 2655SOL    HW2 8865   5.164   6.243   2.769
 2656SOL     OW 8866   4.137   6.209   2.973
 2656SOL    HW1 8867   4.049   6.173   2.942
 2656SOL    HW2 8868   4.210   6.162   2.925
 2657SOL     OW 8869   1.405   4.021   6.975
 2657SOL    HW1 8870   1.483   3.964   6.951
 2657SOL    HW2 8871   1.320   3.969   6.964
 2658SOL     OW 8872   4.158   5.321   6.748
 2658SOL    HW1 8873   4.238   5.342   6.804
 2658SOL    HW2 8874   4.104   5.404   6.736
 2659SOL     OW 8875   0.170   2.156   4.349
 2659SOL    HW1 8876   0.192   2.165   4.446
 2659SOL    HW2 8877   0.115   2.074   4.335
 2660SOL     OW 8878   0.944   2.188   2.169
 2660SOL    HW1 8879   0.955   2.190   2.069
 2660SOL    HW2 8880   0.849   2.167   2.192
 2661SOL     OW 8881   1.705   0.911   0.588
 2661SOL    HW1 8882   1.724   1.010   0.591
 2661SOL    HW2 8883   1.773   0.866   0.531
 2662SOL     OW 8884   2.388   0.754   2.016
 2662SOL    HW1 8885   2.435   0.815   1.952
 2662SOL    HW2 8886   2.423   0.660   2.004
 2663SOL     OW 8887   4.502   6.643   0.634
 2663SOL    HW1 8888   4.443   6.598   0.702
 2663SOL    HW2 8889   4.526   6.578   0.562
 2664SOL     OW 8890   4.242   3.454   5.738
 2664SOL    HW1 8891   4.306   3.495   5.673
 2664SOL    HW2 8892   4.256   3.355   5.740
 2665SOL     OW 8893   2.137   3.745   4.344
 2665SOL    HW1 8894   2.094   3.772   4.430
 2665SOL    HW2 8895   2.120   3.648   4.328
 2666SOL     OW 8896   1.742   3.749   1.856
 2666SOL    HW1 8897   1.674   3.742   1.929
 2666SOL    HW2 8898   1.816   3.685   1.873
 2667SOL     OW 8899   6.540   3.447   4.889
 2667SOL    HW1 8900   6.548   3.350   4.913
 2667SOL    HW2 8901   6.590   3.502   4.955
 2668SOL     OW 8902   6.176   0.926   3.767
 2668SOL    HW1 8903   6.150   0.971   3.682
 2668SOL    HW2 8904   6.115   0.957   3.841
 2669SOL     OW 8905   2.557   0.443   0.059
 2669SOL    HW1 8906   2.575   0.410   0.151
 2669SOL    HW2 8907   2.641   0.439   0.005
 2670SOL     OW 8908   0.025   6.850   6.697
 2670SOL    HW1 8909   0.025   6.790   6.617
 2670SOL    HW2 8910   7.013   6.801   6.776
 2671SOL     OW 8911   4.874   4.465   6.199
 2671SOL    HW1 8912   4.798   4.441   6.259
 2671SOL    HW2 8913   4.950   4.402   6.212
 2672SOL     OW 8914   3.401   0.541   1.684
 2672SOL    HW1 8915   3.308   0.514   1.710
 2672SOL    HW2 8916   3.406   0.552   1.585
 2673SOL     OW 8917   4.419   0.357   2.847
 2673SOL    HW1 8918   4.515   0.378   2.832
 2673SOL    HW2 8919   4.387   0.399   2.932
 2674SOL     OW 8920   0.236   4.828   1.855
 2674SOL    HW1 8921   0.222   4.730   1.869
 2674SOL    HW2 8922   0.330   4.852   1.880
 2675SOL     OW 8923   5.309   0.022   4.129
 2675SOL    HW1 8924   5.391   0.019   4.072
 2675SOL    HW2 8925   5.335   0.040   4.224
 2676SOL     OW 8926   3.907   3.972   2.913
 2676SOL    HW1 8927   3.979   3.904   2.901
 2676SOL    HW2 8928   3.844   3.969   2.836
 2677SOL     OW 8929   2.501   4.952   1.445
 2677SOL    HW1 8930   2.427   4.964   1.378
 2677SOL    HW2 8931   2.478   4.877   1.507
 2678SOL     OW 8932   5.094   2.236   2.749
 2678SOL    HW1 8933   5.176   2.268   2.702
 2678SOL    HW2 8934   5.100   2.257   2.846
 2679SOL     OW 8935   2.190   4.227   3.245
 2679SOL    HW1 8936   2.260   4.267   3.186
 2679SOL    HW2 8937   2.107   4.213   3.192
 2680SOL     OW 8938   6.517   1.137   0.422
 2680SOL    HW1 8939   6.477   1.228   0.410
 2680SOL    HW2 8940   6.586   1.122   0.351
 2681SOL     OW 8941   2.139   2.167   4.918
 2681SOL    HW1 8942   2.231   2.156   4.880
 2681SOL    HW2 8943   2.091   2.238   4.868
 2682SOL     OW 8944   3.840   3.960   1.542
 2682SOL    HW1 8945   3.890   4.015   1.609
 2682SOL    HW2 8946   3.847   3.863   1.567
 2683SOL     OW 8947   2.410   4.523   2.107
 2683SOL    HW1 8948   2.426   4.477   2.194
 2683SOL    HW2 8949   2.479   4.595   2.094
 2684SOL     OW 8950   6.446   6.795   3.527
 2684SOL    HW1 8951   6.416   6.704   3.500
 2684SOL    HW2 8952   6.400   6.864   3.470
 2685SOL     OW 8953   1.761   5.692   5.780
 2685SOL    HW1 8954   1.824   5.632   5.731
 2685SOL    HW2 8955   1.806   5.729   5.861
 2686SOL     OW 8956   0.556   1.534   4.946
 2686SOL    HW1 8957   0.523   1.595   5.018
 2686SOL    HW2 8958   0.539   1.439   4.973
 2687SOL     OW 8959   4.308   1.596   1.410
 2687SOL    HW1 8960   4.336   1.587   1.314
 2687SOL    HW2 8961   4.373   1.655   1.458
 2688SOL     OW 8962   3.775   2.992   6.098
 2688SOL    HW1 8963   3.746   2.936   6.021
 2688SOL    HW2 8964   3.813   3.078   6.065
 2689SOL     OW 8965   1.108   3.510   3.189
 2689SOL    HW1 8966   1.016   3.546   3.172
 2689SOL    HW2 8967   1.174   3.585   3.187
 2690SOL     OW 8968   4.068   1.898   5.682
 2690SOL    HW1 8969   4.055   1.833   5.756
 2690SOL    HW2 8970   4.163   1.929   5.680
 2691SOL     OW 8971   6.661   4.074   4.049
 2691SOL    HW1 8972   6.660   4.125   3.963
 2691SOL    HW2 8973   6.724   3.997   4.041
 2692SOL     OW 8974   2.858   5.444   2.430
 2692SOL    HW1 8975   2.857   5.438   2.330
 2692SOL    HW2 8976   2.901   5.530   2.458
 2693SOL     OW 8977   1.993   5.336   2.857
 2693SOL    HW1 8978   2.070   5.373   2.806
 2693SOL    HW2 8979   1.950   5.262   2.804
 2694SOL     OW 8980   3.164   6.997   3.229
 2694SOL    HW1 8981   3.220   0.051   3.257
 2694SOL    HW2 8982   3.163   6.929   3.302
 2695SOL     OW 8983   0.195   5.652   3.106
 2695SOL    HW1 8984   0.284   5.667   3.063
 2695SOL    HW2 8985   0.160   5.739   3.142
 2696SOL     OW 8986   5.287   4.369   6.367
 2696SOL    HW1 8987   5.363   4.342   6.308
 2696SOL    HW2 8988   5.323   4.390   6.458
 2697SOL     OW 8989   4.041   2.284   0.004
 2697SOL    HW1 8990   4.128   2.284   6.979
 2697SOL    HW2 8991   4.057   2.313   0.099
 2698SOL     OW 8992   1.858   4.247   6.220
 2698SOL    HW1 8993   1.785   4.314   6.214
 2698SOL    HW2 8994   1.842   4.174   6.153
 2699SOL     OW 8995   3.021   6.546   2.078
 2699SOL    HW1 8996   2.960   6.619   2.109
 2699SOL    HW2 8997   3.065   6.503   2.157
 2700SOL     OW 8998   3.516   1.853   1.666
 2700SOL    HW1 8999   3.507   1.900   1.754
 2700SOL    HW2 9000   3.603   1.804   1.664
 2701SOL     OW 9001   5.311   3.162   5.167
 2701SOL    HW1 9002   5.378   3.197   5.102
 2701SOL    HW2 9003   5.276   3.238   5.223
 2702SOL     OW 9004   2.586   1.211   4.708
 2702SOL    HW1 9005   2.557   1.238   4.616
 2702SOL    HW2 9006   2.638   1.125   4.702
 2703SOL     OW 9007   1.316   6.630   2.683
 2703SOL    HW1 9008   1.366   6.647   2.598
 2703SOL    HW2 9009   1.223   6.666   2.675
 2704SOL     OW 9010   4.891   0.138   4.106
 2704SOL    HW1 9011   4.859   0.177   4.192
 2704SOL    HW2 9012   4.943   0.054   4.124
 2705SOL     OW 9013   0.081   0.460   5.441
 2705SOL    HW1 9014   0.125   0.542   5.403
 2705SOL    HW2 9015   0.149   0.401   5.483
 2706SOL     OW 9016   0.004   3.645   3.267
 2706SOL    HW1 9017   0.026   3.671   3.361
 2706SOL    HW2 9018   0.059   3.699   3.203
 2707SOL     OW 9019   3.570   0.645   3.139
 2707SOL    HW1 9020   3.629   0.725   3.135
 2707SOL    HW2 9021   3.477   0.670   3.111
 2708SOL     OW 9022   6.159   3.279   6.702
 2708SOL    HW1 9023   6.071   3.234   6.716
 2708SOL    HW2 9024   6.157   3.370   6.742
 2709SOL     OW 9025   4.665   1.161   4.556
 2709SOL    HW1 9026   4.569   1.144   4.579
 2709SOL    HW2 9027   4.718   1.175   4.639
 2710SOL     OW 9028   1.295   2.863   4.277
 2710SOL    HW1 9029   1.318   2.857   4.180
 2710SOL    HW2 9030   1.378   2.881   4.330
 2711SOL     OW 9031   3.448   1.443   1.853
 2711SOL    HW1 9032   3.389   1.436   1.933
 2711SOL    HW2 9033   3.393   1.472   1.774
 2712SOL     OW 9034   4.131   5.541   1.968
 2712SOL    HW1 9035   4.170   5.551   1.877
 2712SOL    HW2 9036   4.162   5.617   2.026
 2713SOL     OW 9037   3.817   4.786   6.305
 2713SOL    HW1 9038   3.827   4.843   6.223
 2713SOL    HW2 9039   3.746   4.718   6.290
 2714SOL     OW 9040   2.915   4.708   6.303
 2714SOL    HW1 9041   2.884   4.726   6.396
 2714SOL    HW2 9042   2.917   4.609   6.287
 2715SOL     OW 9043   4.086   1.025   0.050
 2715SOL    HW1 9044   4.082   0.926   0.063
 2715SOL    HW2 9045   4.067   1.046   6.978
 2716SOL     OW 9046   3.463   1.488   3.263
 2716SOL    HW1 9047   3.462   1.536   3.351
 2716SOL    HW2 9048   3.524   1.409   3.269
 2717SOL     OW 9049   0.751   0.939   2.795
 2717SOL    HW1 9050   0.736   0.922   2.892
 2717SOL    HW2 9051   0.814   1.017   2.784
 2718SOL     OW 9052   0.099   0.888   5.651
 2718SOL    HW1 9053   0.125   0.921   5.561
 2718SOL    HW2 9054   0.109   0.962   5.718
 2719SOL     OW 9055   1.962   4.291   2.085
 2719SOL    HW1 9056   2.058   4.312   2.071
 2719SOL    HW2 9057   1.954   4.207   2.139
 2720SOL     OW 9058   2.493   6.691   6.500
 2720SOL    HW1 9059   2.421   6.662   6.437
 2720SOL    HW2 9060   2.485   6.641   6.586
 2721SOL     OW 9061   3.354   5.884   1.604
 2721SOL    HW1 9062   3.303   5.968   1.625
 2721SOL    HW2 9063   3.353   5.824   1.684
 2722SOL     OW 9064   4.488   6.529   0.165
 2722SOL    HW1 9065   4.482   6.441   0.118
 2722SOL    HW2 9066   4.506   6.514   0.262
 2723SOL     OW 9067   3.508   6.293   6.424
 2723SOL    HW1 9068   3.454   6.257   6.500
 2723SOL    HW2 9069   3.578   6.226   6.398
 2724SOL     OW 9070   0.904   6.254   0.756
 2724SOL    HW1 9071   0.989   6.305   0.745
 2724SOL    HW2 9072   0.900   6.180   0.689
 2725SOL     OW 9073   6.217   3.986   4.985
 2725SOL    HW1 9074   6.164   3.984   4.900
 2725SOL    HW2 9075   6.189   4.065   5.040
 2726SOL     OW 9076   6.943   1.928   2.122
 2726SOL    HW1 9077   6.934   1.965   2.214
 2726SOL    HW2 9078   6.859   1.879   2.097
 2727SOL     OW 9079   2.034   5.084   3.950
 2727SOL    HW1 9080   2.083   5.171   3.949
 2727SOL    HW2 9081   2.098   5.010   3.972
 2728SOL     OW 9082   5.229   5.122   5.704
 2728SOL    HW1 9083   5.323   5.156   5.695
 2728SOL    HW2 9084   5.194   5.148   5.794
 2729SOL     OW 9085   5.012   6.670   5.969
 2729SOL    HW1 9086   5.052   6.617   6.044
 2729SOL    HW2 9087   5.058   6.647   5.883
 2730SOL     OW 9088   0.815   6.298   1.998
 2730SOL    HW1 9089   0.858   6.221   2.045
 2730SOL    HW2 9090   0.722   6.272   1.971
 2731SOL     OW 9091   3.659   3.694   4.322
 2731SOL    HW1 9092   3.568   3.730   4.299
 2731SOL    HW2 9093   3.676   3.610   4.270
 2732SOL     OW 9094   5.950   0.995   1.896
 2732SOL    HW1 9095   5.991   0.916   1.940
 2732SOL    HW2 9096   5.965   0.990   1.797
 2733SOL     OW 9097   1.174   6.362   6.651
 2733SOL    HW1 9098   1.269   6.389   6.662
 2733SOL    HW2 9099   1.145   6.378   6.557
 2734SOL     OW 9100   3.430   6.300   1.730
 2734SOL    HW1 9101   3.424   6.255   1.819
 2734SOL    HW2 9102   3.468   6.236   1.663
 2735SOL     OW 9103   1.031   1.624   1.703
 2735SOL    HW1 9104   1.057   1.669   1.789
 2735SOL    HW2 9105   1.043   1.688   1.627
 2736SOL     OW 9106   5.598   4.355   3.072
 2736SOL    HW1 9107   5.518   4.389   3.122
 2736SOL    HW2 9108   5.588   4.256   3.059
 2737SOL     OW 9109   2.472   1.339   5.582
 2737SOL    HW1 9110   2.525   1.353   5.665
 2737SOL    HW2 9111   2.512   1.394   5.508
 2738SOL     OW 9112   5.586   6.676   1.823
 2738SOL    HW1 9113   5.502   6.690   1.770
 2738SOL    HW2 9114   5.598   6.753   1.886
 2739SOL     OW 9115   6.630   5.839   1.803
 2739SOL    HW1 9116   6.710   5.788   1.833
 2739SOL    HW2 9117   6.579   5.872   1.883
 2740SOL     OW 9118   6.707   5.652   3.813
 2740SOL    HW1 9119   6.691   5.619   3.720
 2740SOL    HW2 9120   6.736   5.576   3.871
 2741SOL     OW 9121   1.428   1.671   5.092
 2741SOL    HW1 9122   1.408   1.757   5.139
 2741SOL    HW2 9123   1.359   1.656   5.021
 2742SOL     OW 9124   2.990   5.629   1.536
 2742SOL    HW1 9125   3.066   5.681   1.498
 2742SOL    HW2 9126   2.937   5.687   1.598
 2743SOL     OW 9127   5.457   3.375   3.017
 2743SOL    HW1 9128   5.448   3.465   2.973
 2743SOL    HW2 9129   5.464   3.305   2.946
 2744SOL     OW 9130   3.522   3.873   3.118
 2744SOL    HW1 9131   3.558   3.966   3.104
 2744SOL    HW2 9132   3.541   3.844   3.212
 2745SOL     OW 9133   0.530   6.737   6.756
 2745SOL    HW1 9134   0.544   6.768   6.850
 2745SOL    HW2 9135   0.457   6.792   6.714
 2746SOL     OW 9136   1.867   0.977   3.292
 2746SOL    HW1 9137   1.814   1.054   3.328
 2746SOL    HW2 9138   1.873   0.905   3.362
 2747SOL     OW 9139   3.672   5.122   0.694
 2747SOL    HW1 9140   3.756   5.127   0.749
 2747SOL    HW2 9141   3.664   5.205   0.638
 2748SOL     OW 9142   4.359   6.660   1.404
 2748SOL    HW1 9143   4.458   6.674   1.404
 2748SOL    HW2 9144   4.319   6.713   1.479
 2749SOL     OW 9145   2.854   3.425   0.082
 2749SOL    HW1 9146   2.947   3.395   0.065
 2749SOL    HW2 9147   2.790   3.360   0.041
 2750SOL     OW 9148   2.249   6.074   2.162
 2750SOL    HW1 9149   2.245   5.977   2.140
 2750SOL    HW2 9150   2.344   6.104   2.167
 2751SOL     OW 9151   5.890   3.597   0.504
 2751SOL    HW1 9152   5.894   3.691   0.471
 2751SOL    HW2 9153   5.795   3.565   0.503
 2752SOL     OW 9154   3.779   5.154   6.837
 2752SOL    HW1 9155   3.868   5.190   6.809
 2752SOL    HW2 9156   3.707   5.203   6.789
 2753SOL     OW 9157   6.449   6.050   5.455
 2753SOL    HW1 9158   6.351   6.055   5.432
 2753SOL    HW2 9159   6.503   6.063   5.372
 2754SOL     OW 9160   0.923   0.217   6.132
 2754SOL    HW1 9161   1.004   0.162   6.113
 2754SOL    HW2 9162   0.846   0.157   6.154
 2755SOL     OW 9163   2.520   0.419   2.389
 2755SOL    HW1 9164   2.427   0.452   2.374
 2755SOL    HW2 9165   2.585   0.493   2.371
 2756SOL     OW 9166   4.784   6.289   0.406
 2756SOL    HW1 9167   4.863   6.312   0.462
 2756SOL    HW2 9168   4.812   6.231   0.329
 2757SOL     OW 9169   0.608   5.182   1.138
 2757SOL    HW1 9170   0.708   5.175   1.140
 2757SOL    HW2 9171   0.576   5.184   1.044
 2758SOL     OW 9172   4.626   0.626   5.697
 2758SOL    HW1 9173   4.701   0.565   5.723
 2758SOL    HW2 9174   4.657   0.721   5.701
 2759SOL     OW 9175   6.004   5.784   4.796
 2759SOL    HW1 9176   6.078   5.851   4.793
 2759SOL    HW2 9177   5.977   5.769   4.891
 2760SOL     OW 9178   2.552   5.333   3.030
 2760SOL    HW1 9179   2.605   5.317   3.113
 2760SOL    HW2 9180   2.468   5.279   3.033
 2761SOL     OW 9181   2.294   5.899   3.009
 2761SOL    HW1 9182   2.339   5.966   3.067
 2761SOL    HW2 9183   2.361   5.858   2.947
 2762SOL     OW 9184   0.731   6.821   4.987
 2762SOL    HW1 9185   0.681   6.906   4.970
 2762SOL    HW2 9186   0.794   6.803   4.911
 2763SOL     OW 9187   5.863   1.497   2.640
 2763SOL    HW1 9188   5.783   1.499   2.701
 2763SOL    HW2 9189   5.917   1.580   2.654
 2764SOL     OW 9190   6.818   1.120   2.077
 2764SOL    HW1 9191   6.862   1.035   2.047
 2764SOL    HW2 9192   6.761   1.155   2.002
 2765SOL     OW 9193   6.372   1.320   1.973
 2765SOL    HW1 9194   6.385   1.370   2.059
 2765SOL    HW2 9195   6.294   1.358   1.924
 2766SOL     OW 9196   5.979   0.977   2.307
 2766SOL    HW1 9197   5.980   0.894   2.363
 2766SOL    HW2 9198   6.071   0.994   2.271
 2767SOL     OW 9199   5.771   4.305   6.229
 2767SOL    HW1 9200   5.792   4.402   6.241
 2767SOL    HW2 9201   5.672   4.292   6.231
 2768SOL     OW 9202   5.272   1.163   6.553
 2768SOL    HW1 9203   5.272   1.205   6.644
 2768SOL    HW2 9204   5.327   1.080   6.555
 2769SOL     OW 9205   0.511   3.893   1.414
 2769SOL    HW1 9206   0.465   3.971   1.457
 2769SOL    HW2 9207   0.447   3.817   1.404
 2770SOL     OW 9208   0.304   5.701   1.517
 2770SOL    HW1 9209   0.321   5.751   1.432
 2770SOL    HW2 9210   0.276   5.765   1.588
 2771SOL     OW 9211   4.957   1.235   1.466
 2771SOL    HW1 9212   5.039   1.183   1.488
 2771SOL    HW2 9213   4.882   1.171   1.445
 2772SOL     OW 9214   3.185   2.493   6.516
 2772SOL    HW1 9215   3.117   2.421   6.501
 2772SOL    HW2 9216   3.176   2.563   6.445
 2773SOL     OW 9217   3.942   3.972   6.462
 2773SOL    HW1 9218   3.847   3.972   6.495
 2773SOL    HW2 9219   3.952   4.040   6.390
 2774SOL     OW 9220   5.516   3.760   2.231
 2774SOL    HW1 9221   5.571   3.760   2.314
 2774SOL    HW2 9222   5.434   3.703   2.244
 2775SOL     OW 9223   0.238   5.863   1.725
 2775SOL    HW1 9224   0.217   5.798   1.799
 2775SOL    HW2 9225   0.177   5.943   1.733
 2776SOL     OW 9226   2.756   6.368   6.225
 2776SOL    HW1 9227   2.780   6.422   6.143
 2776SOL    HW2 9228   2.789   6.415   6.306
 2777SOL     OW 9229   3.267   1.493   2.697
 2777SOL    HW1 9230   3.176   1.518   2.730
 2777SOL    HW2 9231   3.333   1.561   2.728
 2778SOL     OW 9232   2.198   2.081   5.869
 2778SOL    HW1 9233   2.250   2.071   5.954
 2778SOL    HW2 9234   2.261   2.081   5.791
 2779SOL     OW 9235   5.627   0.438   6.810
 2779SOL    HW1 9236   5.528   0.434   6.823
 2779SOL    HW2 9237   5.667   0.497   6.880
 2780SOL     OW 9238   4.944   5.302   6.673
 2780SOL    HW1 9239   4.896   5.333   6.591
 2780SOL    HW2 9240   5.042   5.297   6.654
 2781SOL     OW 9241   5.527   4.559   0.642
 2781SOL    HW1 9242   5.434   4.557   0.605
 2781SOL    HW2 9243   5.562   4.465   0.649
 2782SOL     OW 9244   2.350   2.429   5.842
 2782SOL    HW1 9245   2.311   2.521   5.835
 2782SOL    HW2 9246   2.415   2.426   5.917
 2783SOL     OW 9247   0.104   5.080   5.198
 2783SOL    HW1 9248   0.078   5.036   5.284
 2783SOL    HW2 9249   0.027   5.134   5.163
 2784SOL     OW 9250   2.295   1.576   1.516
 2784SOL    HW1 9251   2.253   1.604   1.602
 2784SOL    HW2 9252   2.392   1.557   1.530
 2785SOL     OW 9253   6.495   0.718   1.023
 2785SOL    HW1 9254   6.480   0.809   0.985
 2785SOL    HW2 9255   6.449   0.711   1.112
 2786SOL     OW 9256   4.038   6.554   1.305
 2786SOL    HW1 9257   4.111   6.605   1.350
 2786SOL    HW2 9258   3.950   6.596   1.326
 2787SOL     OW 9259   2.548   2.978   5.594
 2787SOL    HW1 9260   2.631   2.937   5.556
 2787SOL    HW2 9261   2.468   2.943   5.544
 2788SOL     OW 9262   1.555   3.804   0.746
 2788SOL    HW1 9263   1.655   3.811   0.753
 2788SOL    HW2 9264   1.517   3.893   0.722
 2789SOL     OW 9265   0.639   2.346   4.040
 2789SOL    HW1 9266   0.638   2.283   4.117
 2789SOL    HW2 9267   0.719   2.407   4.047
 2790SOL     OW 9268   4.125   5.441   2.958
 2790SOL    HW1 9269   4.152   5.512   2.893
 2790SOL    HW2 9270   4.048   5.472   3.012
 2791SOL     OW 9271   1.879   3.269   4.914
 2791SOL    HW1 9272   1.898   3.268   4.816
 2791SOL    HW2 9273   1.786   3.300   4.930
 2792SOL     OW 9274   0.716   2.073   5.349
 2792SOL    HW1 9275   0.709   1.989   5.295
 2792SOL    HW2 9276   0.800   2.070   5.404
 2793SOL     OW 9277   4.737   1.275   3.480
 2793SOL    HW1 9278   4.691   1.200   3.526
 2793SOL    HW2 9279   4.822   1.242   3.439
 2794SOL     OW 9280   1.058   0.613   0.890
 2794SOL    HW1 9281   1.064   0.560   0.805
 2794SOL    HW2 9282   1.019   0.556   0.962
 2795SOL     OW 9283   2.890   4.024   1.194
 2795SOL    HW1 9284   2.931   4.100   1.145
 2795SOL    HW2 9285   2.849   3.960   1.129
 2796SOL     OW 9286   5.379   3.843   2.545
 2796SOL    HW1 9287   5.462   3.897   2.534
 2796SOL    HW2 9288   5.403   3.745   2.544
 2797SOL     OW 9289   4.866   4.878   4.840
 2797SOL    HW1 9290   4.940   4.925   4.889
 2797SOL    HW2 9291   4.892   4.865   4.744
 2798SOL     OW 9292   0.830   3.562   4.156
 2798SOL    HW1 9293   0.884   3.547   4.073
 2798SOL    HW2 9294   0.732   3.558   4.134
 2799SOL     OW 9295   6.524   4.708   6.327
 2799SOL    HW1 9296   6.516   4.734   6.424
 2799SOL    HW2 9297   6.588   4.769   6.281
 2800SOL     OW 9298   3.268   4.646   6.804
 2800SOL    HW1 9299   3.300   4.740   6.809
 2800SOL    HW2 9300   3.179   4.643   6.757
 2801SOL     OW 9301   5.646   5.626   1.987
 2801SOL    HW1 9302   5.745   5.612   2.000
 2801SOL    HW2 9303   5.599   5.539   1.995
 2802SOL     OW 9304   4.291   1.751   5.963
 2802SOL    HW1 9305   4.222   1.819   5.989
 2802SOL    HW2 9306   4.246   1.664   5.945
 2803SOL     OW 9307   3.333   6.470   6.640
 2803SOL    HW1 9308   3.329   6.484   6.541
 2803SOL    HW2 9309   3.263   6.525   6.685
 2804SOL     OW 9310   6.946   4.200   3.405
 2804SOL    HW1 9311   0.014   4.204   3.365
 2804SOL    HW2 9312   6.946   4.250   3.492
 2805SOL     OW 9313   5.564   3.088   0.267
 2805SOL    HW1 9314   5.465   3.084   0.257
 2805SOL    HW2 9315   5.601   3.159   0.206
 2806SOL     OW 9316   6.562   5.387   3.217
 2806SOL    HW1 9317   6.630   5.350   3.281
 2806SOL    HW2 9318   6.609   5.438   3.145
 2807SOL     OW 9319   4.541   4.947   3.221
 2807SOL    HW1 9320   4.630   4.904   3.239
 2807SOL    HW2 9321   4.472   4.907   3.281
 2808SOL     OW 9322   5.537   0.937   4.130
 2808SOL    HW1 9323   5.472   1.000   4.088
 2808SOL    HW2 9324   5.488   0.861   4.173
 2809SOL     OW 9325   5.225   2.348   1.202
 2809SOL    HW1 9326   5.289   2.312   1.134
 2809SOL    HW2 9327   5.131   2.341   1.166
 2810SOL     OW 9328   2.118   6.684   5.261
 2810SOL    HW1 9329   2.053   6.670   5.185
 2810SOL    HW2 9330   2.144   6.780   5.265
 2811SOL     OW 9331   6.912   2.166   3.301
 2811SOL    HW1 9332   6.971   2.215   3.366
 2811SOL    HW2 9333   6.898   2.072   3.334
 2812SOL     OW 9334   4.842   3.711   2.279
 2812SOL    HW1 9335   4.751   3.689   2.243
 2812SOL    HW2 9336   4.839   3.802   2.321
 2813SOL     OW 9337   6.091   0.583   6.752
 2813SOL    HW1 9338   6.054   0.510   6.809
 2813SOL    HW2 9339   6.156   0.545   6.687
 2814SOL     OW 9340   4.693   4.067   5.484
 2814SOL    HW1 9341   4.720   4.160   5.461
 2814SOL    HW2 9342   4.775   4.011   5.496
 2815SOL     OW 9343   0.127   1.123   5.166
 2815SOL    HW1 9344   0.106   1.123   5.068
 2815SOL    HW2 9345   0.123   1.217   5.201
 2816SOL     OW 9346   5.696   6.693   3.804
 2816SOL    HW1 9347   5.686   6.730   3.712
 2816SOL    HW2 9348   5.608   6.658   3.836
 2817SOL     OW 9349   1.124   1.575   1.399
 2817SOL    HW1 9350   1.043   1.633   1.388
 2817SOL    HW2 9351   1.191   1.598   1.328
 2818SOL     OW 9352   6.834   4.841   5.391
 2818SOL    HW1 9353   6.747   4.844   5.343
 2818SOL    HW2 9354   6.909   4.840   5.325
 2819SOL     OW 9355   0.120   2.868   1.220
 2819SOL    HW1 9356   0.201   2.893   1.166
 2819SOL    HW2 9357   0.105   2.770   1.214
 2820SOL     OW 9358   6.832   3.386   3.906
 2820SOL    HW1 9359   6.893   3.460   3.936
 2820SOL    HW2 9360   6.873   3.298   3.930
 2821SOL     OW 9361   1.134   4.152   4.607
 2821SOL    HW1 9362   1.192   4.230   4.588
 2821SOL    HW2 9363   1.095   4.117   4.521
 2822SOL     OW 9364   4.738   2.122   6.898
 2822SOL    HW1 9365   4.802   2.172   6.956
 2822SOL    HW2 9366   4.655   2.176   6.886
 2823SOL     OW 9367   1.852   6.507   3.039
 2823SOL    HW1 9368   1.949   6.487   3.025
 2823SOL    HW2 9369   1.812   6.436   3.098
 2824SOL     OW 9370   3.025   1.521   5.430
 2824SOL    HW1 9371   2.947   1.538   5.370
 2824SOL    HW2 9372   3.044   1.602   5.485
 2825SOL     OW 9373   6.511   6.330   1.462
 2825SOL    HW1 9374   6.575   6.289   1.397
 2825SOL    HW2 9375   6.515   6.280   1.548
 2826SOL     OW 9376   4.546   1.528   4.535
 2826SOL    HW1 9377   4.553   1.627   4.519
 2826SOL    HW2 9378   4.573   1.508   4.629
 2827SOL     OW 9379   5.563   1.083   4.978
 2827SOL    HW1 9380   5.589   1.174   4.948
 2827SOL    HW2 9381   5.500   1.090   5.055
 2828SOL     OW 9382   4.019   1.540   5.625
 2828SOL    HW1 9383   3.978   1.490   5.548
 2828SOL    HW2 9384   3.954   1.608   5.660
 2829SOL     OW 9385   2.671   6.916   6.008
 2829SOL    HW1 9386   2.715   6.867   6.083
 2829SOL    HW2 9387   2.584   6.873   5.986
 2830SOL     OW 9388   4.216   3.372   6.885
 2830SOL    HW1 9389   4.227   3.470   6.872
 2830SOL    HW2 9390   4.126   3.353   6.922
 2831SOL     OW 9391   5.765   6.127   4.287
 2831SOL    HW1 9392   5.793   6.221   4.269
 2831SOL    HW2 9393   5.695   6.126   4.358
 2832SOL     OW 9394   0.564   1.203   2.336
 2832SOL    HW1 9395   0.621   1.257   2.398
 2832SOL    HW2 9396   0.509   1.138   2.389
 2833SOL     OW 9397   6.167   3.140   2.122
 2833SOL    HW1 9398   6.128   3.214   2.177
 2833SOL    HW2 9399   6.100   3.067   2.110
 2834SOL     OW 9400   3.707   1.414   5.071
 2834SOL    HW1 9401   3.726   1.316   5.077
 2834SOL    HW2 9402   3.660   1.444   5.153
 2835SOL     OW 9403   0.290   6.993   2.453
 2835SOL    HW1 9404   0.262   0.012   2.539
 2835SOL    HW2 9405   0.347   6.913   2.473
 2836SOL     OW 9406   6.900   0.230   1.373
 2836SOL    HW1 9407   6.829   0.299   1.358
 2836SOL    HW2 9408   6.875   0.146   1.324
 2837SOL     OW 9409   5.124   4.087   4.037
 2837SOL    HW1 9410   5.114   4.017   4.107
 2837SOL    HW2 9411   5.116   4.178   4.078
 2838SOL     OW 9412   3.188   4.902   2.736
 2838SOL    HW1 9413   3.280   4.872   2.709
 2838SOL    HW2 9414   3.171   4.876   2.831
 2839SOL     OW 9415   5.247   2.095   1.569
 2839SOL    HW1 9416   5.230   2.098   1.471
 2839SOL    HW2 9417   5.332   2.142   1.590
 2840SOL     OW 9418   6.458   1.501   5.420
 2840SOL    HW1 9419   6.501   1.425   5.371
 2840SOL    HW2 9420   6.419   1.469   5.506
 2841SOL     OW 9421   0.895   6.230   1.026
 2841SOL    HW1 9422   0.898   6.233   0.926
 2841SOL    HW2 9423   0.915   6.321   1.063
 2842SOL     OW 9424   6.847   3.601   3.073
 2842SOL    HW1 9425   6.878   3.617   3.166
 2842SOL    HW2 9426   6.781   3.671   3.046
 2843SOL     OW 9427   3.910   0.952   4.249
 2843SOL    HW1 9428   3.951   0.924   4.336
 2843SOL    HW2 9429   3.812   0.966   4.261
 2844SOL     OW 9430   0.574   3.903   6.505
 2844SOL    HW1 9431   0.530   3.904   6.415
 2844SOL    HW2 9432   0.644   3.832   6.507
 2845SOL     OW 9433   6.981   4.795   6.049
 2845SOL    HW1 9434   6.958   4.847   5.967
 2845SOL    HW2 9435   0.056   4.788   6.058
 2846SOL     OW 9436   4.738   1.851   6.482
 2846SOL    HW1 9437   4.766   1.932   6.432
 2846SOL    HW2 9438   4.771   1.857   6.576
 2847SOL     OW 9439   5.827   4.610   4.322
 2847SOL    HW1 9440   5.858   4.701   4.350
 2847SOL    HW2 9441   5.905   4.554   4.297
 2848SOL     OW 9442   1.197   4.943   4.560
 2848SOL    HW1 9443   1.164   4.914   4.650
 2848SOL    HW2 9444   1.125   4.925   4.492
 2849SOL     OW 9445   2.991   2.131   1.072
 2849SOL    HW1 9446   3.085   2.099   1.074
 2849SOL    HW2 9447   2.930   2.057   1.100
 2850SOL     OW 9448   3.675   0.639   0.454
 2850SOL    HW1 9449   3.704   0.549   0.424
 2850SOL    HW2 9450   3.701   0.652   0.550
 2851SOL     OW 9451   1.119   4.315   5.617
 2851SOL    HW1 9452   1.108   4.226   5.574
 2851SOL    HW2 9453   1.066   4.318   5.702
 2852SOL     OW 9454   6.994   3.277   6.845
 2852SOL    HW1 9455   6.899   3.248   6.833
 2852SOL    HW2 9456   0.024   3.247   6.766
 2853SOL     OW 9457   3.294   3.388   0.999
 2853SOL    HW1 9458   3.379   3.437   0.979
 2853SOL    HW2 9459   3.278   3.388   1.098
 2854SOL     OW 9460   2.789   0.916   3.642
 2854SOL    HW1 9461   2.733   0.917   3.560
 2854SOL    HW2 9462   2.885   0.933   3.618
 2855SOL     OW 9463   1.976   0.819   5.043
 2855SOL    HW1 9464   1.934   0.908   5.026
 2855SOL    HW2 9465   1.982   0.768   4.957
 2856SOL     OW 9466   2.359   2.893   5.368
 2856SOL    HW1 9467   2.272   2.936   5.343
 2856SOL    HW2 9468   2.425   2.909   5.295
 2857SOL     OW 9469   3.200   3.041   1.629
 2857SOL    HW1 9470   3.167   2.952   1.599
 2857SOL    HW2 9471   3.122   3.102   1.644
 2858SOL     OW 9472   6.806   3.617   2.491
 2858SOL    HW1 9473   6.874   3.544   2.500
 2858SOL    HW2 9474   6.818   3.683   2.566
 2859SOL     OW 9475   5.631   0.284   0.954
 2859SOL    HW1 9476   5.711   0.259   1.009
 2859SOL    HW2 9477   5.571   0.344   1.007
 2860SOL     OW 9478   4.022   1.648   2.024
 2860SOL    HW1 9479   3.994   1.736   2.063
 2860SOL    HW2 9480   3.959   1.622   1.952
 2861SOL     OW 9481   3.483   5.694   5.569
 2861SOL    HW1 9482   3.501   5.642   5.652
 2861SOL    HW2 9483   3.391   5.674   5.536
 2862SOL     OW 9484   6.001   0.972   3.974
 2862SOL    HW1 9485   6.027   0.999   4.067
 2862SOL    HW2 9486   5.939   0.894   3.979
 2863SOL     OW 9487   6.609   1.964   6.879
 2863SOL    HW1 9488   6.682   1.977   6.811
 2863SOL    HW2 9489   6.650   1.939   6.967
 2864SOL     OW 9490   3.943   1.074   0.409
 2864SOL    HW1 9491   4.032   1.031   0.392
 2864SOL    HW2 9492   3.872   1.004   0.406
 2865SOL     OW 9493   4.940   4.453   5.090
 2865SOL    HW1 9494   4.894   4.531   5.047
 2865SOL    HW2 9495   4.871   4.387   5.121
 2866SOL     OW 9496   0.475   6.383   6.247
 2866SOL    HW1 9497   0.403   6.314   6.242
 2866SOL    HW2 9498   0.480   6.420   6.340
 2867SOL     OW 9499   6.227   4.179   3.803
 2867SOL    HW1 9500   6.308   4.175   3.861
 2867SOL    HW2 9501   6.145   4.169   3.859
 2868SOL     OW 9502   1.495   3.941   5.083
 2868SOL    HW1 9503   1.485   4.022   5.025
 2868SOL    HW2 9504   1.590   3.936   5.115
 2869SOL     OW 9505   6.397   0.866   2.012
 2869SOL    HW1 9506   6.351   0.780   1.988
 2869SOL    HW2 9507   6.345   0.912   2.084
 2870SOL     OW 9508   5.834   2.447   2.979
 2870SOL    HW1 9509   5.910   2.383   2.966
 2870SOL    HW2 9510   5.756   2.418   2.925
 2871SOL     OW 9511   1.651   2.081   5.977
 2871SOL    HW1 9512   1.666   1.998   5.923
 2871SOL    HW2 9513   1.739   2.120   6.002
 2872SOL     OW 9514   2.596   0.481   3.367
 2872SOL    HW1 9515   2.503   0.512   3.347
 2872SOL    HW2 9516   2.616   0.399   3.314
 2873SOL     OW 9517   0.309   5.855   2.097
 2873SOL    HW1 9518   0.255   5.801   2.032
 2873SOL    HW2 9519   0.252   5.879   2.175
 2874SOL     OW 9520   5.940   3.082   2.427
 2874SOL    HW1 9521   5.935   3.053   2.331
 2874SOL    HW2 9522   5.850   3.078   2.469
 2875SOL     OW 9523   3.496   5.605   6.275
 2875SOL    HW1 9524   3.508   5.590   6.373
 2875SOL    HW2 9525   3.430   5.679   6.260
 2876SOL     OW 9526   0.325   0.836   1.792
 2876SOL    HW1 9527   0.230   0.850   1.764
 2876SOL    HW2 9528   0.370   0.774   1.728
 2877SOL     OW 9529   3.078   2.713   5.300
 2877SOL    HW1 9530   3.014   2.784   5.272
 2877SOL    HW2 9531   3.171   2.739   5.273
 2878SOL     OW 9532   2.581   4.677   5.332
 2878SOL    HW1 9533   2.509   4.684   5.264
 2878SOL    HW2 9534   2.602   4.768   5.368
 2879SOL     OW 9535   4.812   4.478   0.314
 2879SOL    HW1 9536   4.873   4.534   0.258
 2879SOL    HW2 9537   4.828   4.382   0.295
 2880SOL     OW 9538   1.162   6.442   1.602
 2880SOL    HW1 9539   1.088   6.382   1.633
 2880SOL    HW2 9540   1.145   6.471   1.508
 2881SOL     OW 9541   6.810   6.285   0.733
 2881SOL    HW1 9542   6.718   6.318   0.708
 2881SOL    HW2 9543   6.858   6.257   0.651
 2882SOL     OW 9544   0.504   3.103   3.187
 2882SOL    HW1 9545   0.490   3.201   3.172
 2882SOL    HW2 9546   0.461   3.077   3.274
 2883SOL     OW 9547   3.654   0.046   2.114
 2883SOL    HW1 9548   3.637   6.981   2.070
 2883SOL    HW2 9549   3.747   0.076   2.093
 2884SOL     OW 9550   0.919   5.749   3.275
 2884SOL    HW1 9551   0.878   5.674   3.222
 2884SOL    HW2 9552   1.007   5.720   3.312
 2885SOL     OW 9553   0.958   2.622   2.837
 2885SOL    HW1 9554   0.982   2.542   2.782
 2885SOL    HW2 9555   0.870   2.607   2.881
 2886SOL     OW 9556   2.297   2.197   6.340
 2886SOL    HW1 9557   2.197   2.186   6.346
 2886SOL    HW2 9558   2.326   2.267   6.406
 2887SOL     OW 9559   1.217   0.309   4.935
 2887SOL    HW1 9560   1.229   0.237   5.004
 2887SOL    HW2 9561   1.143   0.370   4.963
 2888SOL     OW 9562   5.879   5.038   0.040
 2888SOL    HW1 9563   5.964   5.075   0.003
 2888SOL    HW2 9564   5.836   4.977   6.997
 2889SOL     OW 9565   0.330   0.209   1.545
 2889SOL    HW1 9566   0.358   0.188   1.638
 2889SOL    HW2 9567   0.234   0.237   1.544
 2890SOL     OW 9568   4.244   0.510   2.068
 2890SOL    HW1 9569   4.290   0.581   2.015
 2890SOL    HW2 9570   4.308   0.468   2.132
 2891SOL     OW 9571   2.423   4.592   3.754
 2891SOL    HW1 9572   2.388   4.532   3.826
 2891SOL    HW2 9573   2.466   4.672   3.796
 2892SOL     OW 9574   4.282   3.741   6.601
 2892SOL    HW1 9575   4.303   3.696   6.688
 2892SOL    HW2 9576   4.320   3.687   6.526
 2893SOL     OW 9577   2.515   0.124   4.928
 2893SOL    HW1 9578   2.531   0.068   5.009
 2893SOL    HW2 9579   2.433   0.180   4.943
 2894SOL     OW 9580   3.549   2.559   0.108
 2894SOL    HW1 9581   3.482   2.491   0.079
 2894SOL    HW2 9582   3.503   2.644   0.130
 2895SOL     OW 9583   3.703   3.736   6.376
 2895SOL    HW1 9584   3.768   3.710   6.305
 2895SOL    HW2 9585   3.633   3.666   6.384
 2896SOL     OW 9586   2.301   5.090   1.050
 2896SOL    HW1 9587   2.246   5.174   1.051
 2896SOL    HW2 9588   2.284   5.040   0.965
 2897SOL     OW 9589   2.368   6.052   3.740
 2897SOL    HW1 9590   2.373   6.123   3.671
 2897SOL    HW2 9591   2.447   5.991   3.732
 2898SOL     OW 9592   3.640   5.383   1.874
 2898SOL    HW1 9593   3.700   5.461   1.857
 2898SOL    HW2 9594   3.588   5.362   1.791
 2899SOL     OW 9595   6.654   6.991   0.059
 2899SOL    HW1 9596   6.723   0.031   0.026
 2899SOL    HW2 9597   6.574   0.018   0.092
 2900SOL     OW 9598   1.456   5.159   5.883
 2900SOL    HW1 9599   1.362   5.194   5.881
 2900SOL    HW2 9600   1.518   5.231   5.914
 2901SOL     OW 9601   2.900   0.394   1.907
 2901SOL    HW1 9602   2.832   0.397   1.980
 2901SOL    HW2 9603   2.885   0.313   1.851
 2902SOL     OW 9604   5.446   6.303   0.878
 2902SOL    HW1 9605   5.449   6.212   0.919
 2902SOL    HW2 9606   5.538   6.339   0.868
 2903SOL     OW 9607   2.481   1.168   2.108
 2903SOL    HW1 9608   2.520   1.253   2.074
 2903SOL    HW2 9609   2.474   1.102   2.033
 2904SOL     OW 9610   2.115   2.733   5.454
 2904SOL    HW1 9611   2.055   2.762   5.528
 2904SOL    HW2 9612   2.194   2.794   5.449
 2905SOL     OW 9613   1.729   1.818   1.938
 2905SOL    HW1 9614   1.681   1.747   1.990
 2905SOL    HW2 9615   1.714   1.907   1.981
 2906SOL     OW 9616   5.821   5.343   2.245
 2906SOL    HW1 9617   5.753   5.385   2.185
 2906SOL    HW2 9618   5.817   5.243   2.236
 2907SOL     OW 9619   6.874   1.614   4.322
 2907SOL    HW1 9620   6.816   1.542   4.284
 2907SOL    HW2 9621   6.832   1.651   4.405
 2908SOL     OW 9622   3.622   6.023   4.272
 2908SOL    HW1 9623   3.634   6.120   4.253
 2908SOL    HW2 9624   3.685   5.970   4.216
 2909SOL     OW 9625   1.130   5.462   4.499
 2909SOL    HW1 9626   1.137   5.482   4.597
 2909SOL    HW2 9627   1.185   5.381   4.478
 2910SOL     OW 9628   4.417   6.182   6.168
 2910SOL    HW1 9629   4.448   6.097   6.212
 2910SOL    HW2 9630   4.344   6.223   6.222
 2911SOL     OW 9631   1.730   4.918   3.258
 2911SOL    HW1 9632   1.631   4.906   3.261
 2911SOL    HW2 9633   1.768   4.861   3.185
 2912SOL     OW 9634   2.591   6.195   0.372
 2912SOL    HW1 9635   2.492   6.207   0.374
 2912SOL    HW2 9636   2.635   6.283   0.351
 2913SOL     OW 9637   1.708   3.646   2.625
 2913SOL    HW1 9638   1.619   3.686   2.603
 2913SOL    HW2 9639   1.708   3.549   2.600
 2914SOL     OW 9640   5.558   5.520   5.981
 2914SOL    HW1 9641   5.542   5.559   6.072
 2914SOL    HW2 9642   5.531   5.424   5.981
 2915SOL     OW 9643   4.495   1.650   3.608
 2915SOL    HW1 9644   4.482   1.682   3.515
 2915SOL    HW2 9645   4.482   1.726   3.672
 2916SOL     OW 9646   6.031   5.474   5.249
 2916SOL    HW1 9647   5.958   5.482   5.317
 2916SOL    HW2 9648   6.036   5.380   5.215
 2917SOL     OW 9649   4.660   0.668   2.050
 2917SOL    HW1 9650   4.680   0.571   2.039
 2917SOL    HW2 9651   4.627   0.705   1.963
 2918SOL     OW 9652   0.571   3.546   3.823
 2918SOL    HW1 9653   0.655   3.501   3.794
 2918SOL    HW2 9654   0.504   3.542   3.748
 2919SOL     OW 9655   5.964   5.997   0.341
 2919SOL    HW1 9656   5.984   6.056   0.419
 2919SOL    HW2 9657   5.881   6.029   0.295
 2920SOL     OW 9658   4.223   2.293   2.604
 2920SOL    HW1 9659   4.231   2.332   2.513
 2920SOL    HW2 9660   4.287   2.340   2.666
 2921SOL     OW 9661   7.020   0.895   2.372
 2921SOL    HW1 9662   0.006   0.993   2.351
 2921SOL    HW2 9663   7.020   0.882   2.471
 2922SOL     OW 9664   4.508   0.208   5.310
 2922SOL    HW1 9665   4.491   0.165   5.222
 2922SOL    HW2 9666   4.606   0.205   5.331
 2923SOL     OW 9667   6.313   4.893   2.174
 2923SOL    HW1 9668   6.281   4.926   2.085
 2923SOL    HW2 9669   6.270   4.946   2.247
 2924SOL     OW 9670   0.451   1.434   5.243
 2924SOL    HW1 9671   0.444   1.517   5.187
 2924SOL    HW2 9672   0.470   1.356   5.184
 2925SOL     OW 9673   5.691   3.363   1.684
 2925SOL    HW1 9674   5.732   3.321   1.765
 2925SOL    HW2 9675   5.664   3.457   1.706
 2926SOL     OW 9676   7.004   2.011   4.749
 2926SOL    HW1 9677   7.007   2.051   4.658
 2926SOL    HW2 9678   0.059   2.042   4.803
 2927SOL     OW 9679   1.091   2.944   2.479
 2927SOL    HW1 9680   1.136   2.854   2.478
 2927SOL    HW2 9681   1.031   2.952   2.399
 2928SOL     OW 9682   5.812   0.088   0.289
 2928SOL    HW1 9683   5.765   0.157   0.233
 2928SOL    HW2 9684   5.804   0.112   0.385
 2929SOL     OW 9685   0.023   0.056   6.098
 2929SOL    HW1 9686   6.948   0.045   6.083
 2929SOL    HW2 9687   0.040   0.143   6.145
 2930SOL     OW 9688   4.158   6.785   4.346
 2930SOL    HW1 9689   4.183   6.874   4.308
 2930SOL    HW2 9690   4.067   6.791   4.388
 2931SOL     OW 9691   4.457   6.750   6.529
 2931SOL    HW1 9692   4.361   6.778   6.531
 2931SOL    HW2 9693   4.474   6.682   6.600
 2932SOL     OW 9694   1.220   3.805   1.018
 2932SOL    HW1 9695   1.244   3.869   1.091
 2932SOL    HW2 9696   1.124   3.778   1.028
 2933SOL     OW 9697   5.100   2.170   3.362
 2933SOL    HW1 9698   5.161   2.236   3.406
 2933SOL    HW2 9699   5.097   2.086   3.416
 2934SOL     OW 9700   2.473   0.689   6.991
 2934SOL    HW1 9701   2.460   0.701   6.892
 2934SOL    HW2 9702   2.506   0.597   7.009
 2935SOL     OW 9703   5.826   2.511   1.345
 2935SOL    HW1 9704   5.854   2.573   1.419
 2935SOL    HW2 9705   5.825   2.561   1.259
 2936SOL     OW 9706   4.770   5.682   0.162
 2936SOL    HW1 9707   4.751   5.773   0.123
 2936SOL    HW2 9708   4.713   5.669   0.243
 2937SOL     OW 9709   3.424   5.924   6.694
 2937SOL    HW1 9710   3.389   6.016   6.674
 2937SOL    HW2 9711   3.352   5.870   6.737
 2938SOL     OW 9712   4.839   5.757   5.385
 2938SOL    HW1 9713   4.924   5.805   5.409
 2938SOL    HW2 9714   4.765   5.823   5.377
 2939SOL     OW 9715   6.592   6.388   5.416
 2939SOL    HW1 9716   6.569   6.330   5.493
 2939SOL    HW2 9717   6.663   6.453   5.442
 2940SOL     OW 9718   4.794   0.204   5.389
 2940SOL    HW1 9719   4.806   0.108   5.415
 2940SOL    HW2 9720   4.836   0.220   5.300
 2941SOL     OW 9721   1.117   2.103   5.345
 2941SOL    HW1 9722   1.147   2.156   5.424
 2941SOL    HW2 9723   1.120   2.160   5.263
 2942SOL     OW 9724   3.512   6.328   2.640
 2942SOL    HW1 9725   3.482   6.339   2.735
 2942SOL    HW2 9726   3.551   6.414   2.607
 2943SOL     OW 9727   6.243   3.911   3.379
 2943SOL    HW1 9728   6.279   3.912   3.286
 2943SOL    HW2 9729   6.189   3.828   3.393
 2944SOL     OW 9730   4.145   5.779   5.334
 2944SOL    HW1 9731   4.194   5.834   5.267
 2944SOL    HW2 9732   4.207   5.710   5.372
 2945SOL     OW 9733   3.027   3.180   3.415
 2945SOL    HW1 9734   2.976   3.151   3.334
 2945SOL    HW2 9735   2.970   3.242   3.469
 2946SOL     OW 9736   0.048   5.947   6.341
 2946SOL    HW1 9737   6.999   6.005   6.379
 2946SOL    HW2 9738   0.035   5.937   6.242
 2947SOL     OW 9739   6.341   4.270   0.236
 2947SOL    HW1 9740   6.285   4.232   0.163
 2947SOL    HW2 9741   6.406   4.336   0.199
 2948SOL     OW 9742   5.533   3.987   4.430
 2948SOL    HW1 9743   5.537   4.045   4.348
 2948SOL    HW2 9744   5.442   3.946   4.437
 2949SOL     OW 9745   1.196   6.744   0.268
 2949SOL    HW1 9746   1.122   6.804   0.239
 2949SOL    HW2 9747   1.200   6.664   0.209
 2950SOL     OW 9748   5.252   3.432   4.247
 2950SOL    HW1 9749   5.326   3.486   4.208
 2950SOL    HW2 9750   5.165   3.480   4.234
 2951SOL     OW 9751   0.546   1.544   1.348
 2951SOL    HW1 9752   0.632   1.518   1.391
 2951SOL    HW2 9753   0.528   1.483   1.271
 2952SOL     OW 9754   1.885   3.870   2.560
 2952SOL    HW1 9755   1.833   3.785   2.565
 2952SOL    HW2 9756   1.879   3.917   2.648
 2953SOL     OW 9757   4.526   2.562   1.943
 2953SOL    HW1 9758   4.514   2.602   1.852
 2953SOL    HW2 9759   4.574   2.627   2.002
 2954SOL     OW 9760   6.592   6.788   3.160
 2954SOL    HW1 9761   6.591   6.688   3.166
 2954SOL    HW2 9762   6.644   6.825   3.236
 2955SOL     OW 9763   0.962   3.007   0.333
 2955SOL    HW1 9764   1.023   2.928   0.333
 2955SOL    HW2 9765   0.934   3.027   0.427
 2956SOL     OW 9766   0.149   4.812   2.948
 2956SOL    HW1 9767   0.076   4.841   2.886
 2956SOL    HW2 9768   0.132   4.850   3.039
 2957SOL     OW 9769   0.724   3.762   2.046
 2957SOL    HW1 9770   0.787   3.738   2.121
 2957SOL    HW2 9771   0.764   3.731   1.959
 2958SOL     OW 9772   2.017   4.473   6.192
 2958SOL    HW1 9773   1.956   4.546   6.223
 2958SOL    HW2 9774   1.973   4.384   6.205
 2959SOL     OW 9775   4.453   5.612   6.549
 2959SOL    HW1 9776   4.472   5.515   6.558
 2959SOL    HW2 9777   4.385   5.626   6.476
 2960SOL     OW 9778   1.803   1.468   0.176
 2960SOL    HW1 9779   1.821   1.407   0.253
 2960SOL    HW2 9780   1.776   1.415   0.096
 2961SOL     OW 9781   5.653   3.722   3.939
 2961SOL    HW1 9782   5.560   3.740   3.972
 2961SOL    HW2 9783   5.654   3.635   3.890
 2962SOL     OW 9784   4.685   0.554   3.586
 2962SOL    HW1 9785   4.699   0.467   3.539
 2962SOL    HW2 9786   4.589   0.564   3.610
 2963SOL     OW 9787   2.106   1.773   5.138
 2963SOL    HW1 9788   2.035   1.786   5.069
 2963SOL    HW2 9789   2.101   1.847   5.205
 2964SOL     OW 9790   2.824   6.019   0.740
 2964SOL    HW1 9791   2.857   6.045   0.649
 2964SOL    HW2 9792   2.850   6.089   0.806
 2965SOL     OW 9793   0.263   1.471   6.108
 2965SOL    HW1 9794   0.233   1.519   6.026
 2965SOL    HW2 9795   0.347   1.513   6.143
 2966SOL     OW 9796   5.478   4.672   4.167
 2966SOL    HW1 9797   5.430   4.584   4.173
 2966SOL    HW2 9798   5.412   4.747   4.170
 2967SOL     OW 9799   5.914   2.992   3.570
 2967SOL    HW1 9800   5.977   2.917   3.550
 2967SOL    HW2 9801   5.822   2.967   3.537
 2968SOL     OW 9802   0.572   3.961   3.948
 2968SOL    HW1 9803   0.640   4.030   3.973
 2968SOL    HW2 9804   0.616   3.890   3.892
 2969SOL     OW 9805   4.710   2.345   4.686
 2969SOL    HW1 9806   4.755   2.322   4.599
 2969SOL    HW2 9807   4.628   2.289   4.696
 2970SOL     OW 9808   0.933   4.364   6.214
 2970SOL    HW1 9809   0.926   4.318   6.302
 2970SOL    HW2 9810   0.950   4.462   6.228
 2971SOL     OW 9811   5.494   2.220   2.736
 2971SOL    HW1 9812   5.589   2.196   2.758
 2971SOL    HW2 9813   5.433   2.155   2.781
 2972SOL     OW 9814   6.729   3.509   5.937
 2972SOL    HW1 9815   6.663   3.446   5.898
 2972SOL    HW2 9816   6.820   3.488   5.901
 2973SOL     OW 9817   4.860   6.314   4.087
 2973SOL    HW1 9818   4.945   6.342   4.132
 2973SOL    HW2 9819   4.798   6.393   4.082
 2974SOL     OW 9820   6.901   4.334   2.927
 2974SOL    HW1 9821   6.856   4.283   3.000
 2974SOL    HW2 9822   6.968   4.276   2.882
 2975SOL     OW 9823   0.275   0.673   5.364
 2975SOL    HW1 9824   0.366   0.669   5.321
 2975SOL    HW2 9825   0.242   0.767   5.364
 2976SOL     OW 9826   3.356   1.124   2.486
 2976SOL    HW1 9827   3.402   1.211   2.468
 2976SOL    HW2 9828   3.398   1.052   2.431
 2977SOL     OW 9829   3.198   6.346   3.780
 2977SOL    HW1 9830   3.170   6.255   3.812
 2977SOL    HW2 9831   3.150   6.416   3.833
 2978SOL     OW 9832   5.492   4.738   6.944
 2978SOL    HW1 9833   5.573   4.797   6.934
 2978SOL    HW2 9834   5.440   4.737   6.859
 2979SOL     OW 9835   3.842   0.443   2.866
 2979SOL    HW1 9836   3.863   0.391   2.784
 2979SOL    HW2 9837   3.919   0.436   2.930
 2980SOL     OW 9838   0.203   5.924   4.450
 2980SOL    HW1 9839   0.292   5.964   4.430
 2980SOL    HW2 9840   0.168   5.877   4.369
 2981SOL     OW 9841   2.137   1.118   5.762
 2981SOL    HW1 9842   2.043   1.091   5.741
 2981SOL    HW2 9843   2.186   1.139   5.677
 2982SOL     OW 9844   4.833   6.267   2.146
 2982SOL    HW1 9845   4.916   6.320   2.133
 2982SOL    HW2 9846   4.821   6.205   2.069
 2983SOL     OW 9847   6.779   1.003   4.007
 2983SOL    HW1 9848   6.686   0.983   4.040
 2983SOL    HW2 9849   6.777   1.011   3.907
 2984SOL     OW 9850   6.007   5.440   1.725
 2984SOL    HW1 9851   5.962   5.351   1.719
 2984SOL    HW2 9852   5.951   5.509   1.680
 2985SOL     OW 9853   6.652   2.317   3.033
 2985SOL    HW1 9854   6.741   2.271   3.023
 2985SOL    HW2 9855   6.613   2.333   2.942
 2986SOL     OW 9856   1.288   3.252   5.306
 2986SOL    HW1 9857   1.292   3.159   5.344
 2986SOL    HW2 9858   1.380   3.281   5.279
 2987SOL     OW 9859   4.494   2.140   4.593
 2987SOL    HW1 9860   4.395   2.131   4.604
 2987SOL    HW2 9861   4.523   2.090   4.511
 2988SOL     OW 9862   1.440   0.171   1.745
 2988SOL    HW1 9863   1.381   0.230   1.691
 2988SOL    HW2 9864   1.418   0.075   1.725
 2989SOL     OW 9865   6.987   5.095   1.068
 2989SOL    HW1 9866   0.053   5.126   1.099
 2989SOL    HW2 9867   6.998   5.039   0.986
 2990SOL     OW 9868   3.954   1.431   1.205
 2990SOL    HW1 9869   3.892   1.470   1.273
 2990SOL    HW2 9870   4.040   1.482   1.204
 2991SOL     OW 9871   6.802   3.638   0.559
 2991SOL    HW1 9872   6.783   3.563   0.496
 2991SOL    HW2 9873   6.720   3.658   0.612
 2992SOL     OW 9874   3.393   5.252   6.434
 2992SOL    HW1 9875   3.419   5.309   6.355
 2992SOL    HW2 9876   3.294   5.244   6.438
 2993SOL     OW 9877   1.279   5.473   1.331
 2993SOL    HW1 9878   1.240   5.471   1.239
 2993SOL    HW2 9879   1.373   5.507   1.327
 2994SOL     OW 9880   4.920   6.695   6.987
 2994SOL    HW1 9881   5.015   6.708   6.959
 2994SOL    HW2 9882   4.891   6.772   0.019
 2995SOL     OW 9883   1.434   1.648   6.232
 2995SOL    HW1 9884   1.450   1.666   6.329
 2995SOL    HW2 9885   1.454   1.730   6.179
 2996SOL     OW 9886   4.159   5.466   5.638
 2996SOL    HW1 9887   4.086   5.442   5.702
 2996SOL    HW2 9888   4.189   5.384   5.589
 2997SOL     OW 9889   5.783   6.773   1.184
 2997SOL    HW1 9890   5.850   6.791   1.113
 2997SOL    HW2 9891   5.767   6.856   1.238
 2998SOL     OW 9892   6.153   5.605   4.110
 2998SOL    HW1 9893   6.070   5.655   4.085
 2998SOL    HW2 9894   6.134   5.546   4.189
 2999SOL     OW 9895   3.525   6.817   3.179
 2999SOL    HW1 9896   3.597   6.748   3.171
 2999SOL    HW2 9897   3.439   6.781   3.142
 3000SOL     OW 9898   1.174   2.907   5.708
 3000SOL    HW1 9899   1.188   2.873   5.615
 3000SOL    HW2 9900   1.128   2.837   5.762
 3001SOL     OW 9901   5.063   0.202   5.673
 3001SOL    HW1 9902   5.042   0.259   5.593
 3001SOL    HW2 9903   5.003   0.228   5.749
 3002SOL     OW 9904   3.827   0.165   5.865
 3002SOL    HW1 9905   3.822   0.265   5.863
 3002SOL    HW2 9906   3.793   0.128   5.779
 3003SOL     OW 9907   3.139   6.696   5.734
 3003SOL    HW1 9908   3.058   6.703   5.675
 3003SOL    HW2 9909   3.110   6.668   5.826
 3004SOL     OW 9910   5.880   3.402   4.448
 3004SOL    HW1 9911   5.786   3.368   4.445
 3004SOL    HW2 9912   5.935   3.345   4.508
 3005SOL     OW 9913   3.954   2.806   1.238
 3005SOL    HW1 9914   4.029   2.838   1.296
 3005SOL    HW2 9915   3.917   2.883   1.185
 3006SOL     OW 9916   5.551   0.628   1.260
 3006SOL    HW1 9917   5.572   0.726   1.268
 3006SOL    HW2 9918   5.586   0.580   1.340
 3007SOL     OW 9919   6.203   4.933   3.027
 3007SOL    HW1 9920   6.270   4.903   2.959
 3007SOL    HW2 9921   6.128   4.867   3.031
 3008SOL     OW 9922   3.375   6.635   5.631
 3008SOL    HW1 9923   3.291   6.655   5.681
 3008SOL    HW2 9924   3.442   6.595   5.693
 3009SOL     OW 9925   1.216   6.972   3.263
 3009SOL    HW1 9926   1.247   6.987   3.357
 3009SOL    HW2 9927   1.275   7.022   3.200
 3010SOL     OW 9928   3.814   5.973   2.604
 3010SOL    HW1 9929   3.741   6.030   2.566
 3010SOL    HW2 9930   3.839   6.007   2.695
 3011SOL     OW 9931   5.487   6.916   0.012
 3011SOL    HW1 9932   5.472   7.015   0.014
 3011SOL    HW2 9933   5.575   6.895   0.054
 3012SOL     OW 9934   0.258   4.006   3.533
 3012SOL    HW1 9935   0.166   3.970   3.522
 3012SOL    HW2 9936   0.322   3.931   3.550
 3013SOL     OW 9937   6.100   5.244   2.070
 3013SOL    HW1 9938   6.122   5.291   2.155
 3013SOL    HW2 9939   6.002   5.224   2.067
 3014SOL     OW 9940   4.596   0.817   3.964
 3014SOL    HW1 9941   4.556   0.860   3.882
 3014SOL    HW2 9942   4.629   0.726   3.941
 3015SOL     OW 9943   3.143   2.214   0.487
 3015SOL    HW1 9944   3.144   2.293   0.425
 3015SOL    HW2 9945   3.147   2.130   0.433
 3016SOL     OW 9946   3.906   0.015   3.390
 3016SOL    HW1 9947   3.932   0.055   3.478
 3016SOL    HW2 9948   3.816   0.049   3.363
 3017SOL     OW 9949   0.868   6.074   1.240
 3017SOL    HW1 9950   0.891   6.134   1.163
 3017SOL    HW2 9951   0.877   5.978   1.212
 3018SOL     OW 9952   4.045   6.417   6.972
 3018SOL    HW1 9953   4.101   6.500   6.972
 3018SOL    HW2 9954   4.007   6.403   0.040
 3019SOL     OW 9955   3.705   0.104   1.133
 3019SOL    HW1 9956   3.715   0.202   1.149
 3019SOL    HW2 9957   3.783   0.056   1.172
 3020SOL     OW 9958   2.428   3.075   1.122
 3020SOL    HW1 9959   2.354   3.008   1.135
 3020SOL    HW2 9960   2.458   3.073   1.027
 3021SOL     OW 9961   2.169   2.448   0.239
 3021SOL    HW1 9962   2.236   2.375   0.251
 3021SOL    HW2 9963   2.215   2.536   0.237
 3022SOL     OW 9964   4.890   6.903   2.942
 3022SOL    HW1 9965   4.915   6.931   3.035
 3022SOL    HW2 9966   4.792   6.914   2.930
 3023SOL     OW 9967   4.871   5.603   2.814
 3023SOL    HW1 9968   4.846   5.667   2.887
 3023SOL    HW2 9969   4.902   5.654   2.734
 3024SOL     OW 9970   3.090   0.797   0.180
 3024SOL    HW1 9971   3.113   0.871   0.244
 3024SOL    HW2 9972   3.041   0.835   0.102
 3025SOL     OW 9973   2.449   2.635   1.169
 3025SOL    HW1 9974   2.538   2.615   1.211
 3025SOL    HW2 9975   2.459   2.710   1.104
 3026SOL     OW 9976   1.995   3.328   0.882
 3026SOL    HW1 9977   2.024   3.379   0.963
 3026SOL    HW2 9978   2.071   3.320   0.818
 3027SOL     OW 9979   1.784   1.975   3.236
 3027SOL    HW1 9980   1.772   2.047   3.305
 3027SOL    HW2 9981   1.878   1.942   3.239
 3028SOL     OW 9982   1.451   5.794   5.948
 3028SOL    HW1 9983   1.436   5.700   5.919
 3028SOL    HW2 9984   1.512   5.840   5.884
 3029SOL     OW 9985   6.345   5.702   5.184
 3029SOL    HW1 9986   6.294   5.660   5.109
 3029SOL    HW2 9987   6.354   5.637   5.259
 3030SOL     OW 9988   1.381   1.924   5.256
 3030SOL    HW1 9989   1.307   1.968   5.307
 3030SOL    HW2 9990   1.456   1.903   5.317
 3031SOL     OW 9991   0.159   4.306   6.015
 3031SOL    HW1 9992   0.142   4.257   5.930
 3031SOL    HW2 9993   0.188   4.241   6.086
 3032SOL     OW 9994   4.969   0.721   5.884
 3032SOL    HW1 9995   4.925   0.808   5.907
 3032SOL    HW2 9996   5.066   0.725   5.911
 3033SOL     OW 9997   0.376   3.806   6.748
 3033SOL    HW1 9998   0.281   3.802   6.717
 3033SOL    HW2 9999   0.429   3.737   6.698
 3034SOL     OW10000   3.061   6.077   4.579
 3034SOL    HW110001   3.069   6.177   4.572
 3034SOL    HW210002   3.108   6.046   4.662
 3035SOL     OW10003   5.530   1.222   6.923
 3035SOL    HW110004   5.475   1.242   7.003
 3035SOL    HW210005   5.624   1.203   6.951
 3036SOL     OW10006   1.407   4.324   6.697
 3036SOL    HW110007   1.398   4.260   6.620
 3036SOL    HW210008   1.355   4.290   6.775
 3037SOL     OW10009   6.628   6.122   5.273
 3037SOL    HW110010   6.678   6.123   5.186
 3037SOL    HW210011   6.654   6.202   5.327
 3038SOL     OW10012   5.425   6.952   5.991
 3038SOL    HW110013   5.384   6.944   5.900
 3038SOL    HW210014   5.368   6.903   6.058
 3039SOL     OW10015   0.611   4.488   1.667
 3039SOL    HW110016   0.664   4.471   1.584
 3039SOL    HW210017   0.620   4.410   1.729
 3040SOL     OW10018   2.731   3.517   6.752
 3040SOL    HW110019   2.736   3.548   6.657
 3040SOL    HW210020   2.646   3.466   6.765
 3041SOL     OW10021   1.888   2.172   6.073
 3041SOL    HW110022   1.959   2.121   6.122
 3041SOL    HW210023   1.924   2.262   6.047
 3042SOL     OW10024   4.636   0.404   2.062
 3042SOL    HW110025   4.567   0.369   2.125
 3042SOL    HW210026   4.626   0.359   1.973
 3043SOL     OW10027   0.761   5.647   0.659
 3043SOL    HW110028   0.773   5.552   0.631
 3043SOL    HW210029   0.718   5.699   0.585
 3044SOL     OW10030   3.328   4.513   6.262
 3044SOL    HW110031   3.263   4.506   6.187
 3044SOL    HW210032   3.282   4.549   6.343
 3045SOL     OW10033   5.499   1.926   2.564
 3045SOL    HW110034   5.418   1.893   2.516
 3045SOL    HW210035   5.518   1.866   2.642
 3046SOL     OW10036   1.553   2.630   5.481
 3046SOL    HW110037   1.483   2.599   5.545
 3046SOL    HW210038   1.598   2.712   5.518
 3047SOL     OW10039   6.184   5.299   2.457
 3047SOL    HW110040   6.172   5.332   2.551
 3047SOL    HW210041   6.162   5.373   2.394
 3048SOL     OW10042   3.430   2.894   1.275
 3048SOL    HW110043   3.469   2.827   1.339
 3048SOL    HW210044   3.396   2.846   1.194
 3049SOL     OW10045   1.016   0.462   1.925
 3049SOL    HW110046   0.925   0.442   1.890
 3049SOL    HW210047   1.019   0.557   1.957
 3050SOL     OW10048   4.410   5.576   3.708
 3050SOL    HW110049   4.490   5.520   3.728
 3050SOL    HW210050   4.440   5.669   3.684
 3051SOL     OW10051   2.932   5.132   0.021
 3051SOL    HW110052   3.027   5.131   0.053
 3051SOL    HW210053   2.881   5.060   0.067
 3052SOL     OW10054   3.869   6.835   2.982
 3052SOL    HW110055   3.809   6.797   3.053
 3052SOL    HW210056   3.942   6.888   3.026
 3053SOL     OW10057   5.788   6.205   0.015
 3053SOL    HW110058   5.742   6.184   0.101
 3053SOL    HW210059   5.884   6.178   0.022
 3054SOL     OW10060   0.601   3.474   0.197
 3054SOL    HW110061   0.507   3.508   0.202
 3054SOL    HW210062   0.643   3.502   0.111
 3055SOL     OW10063   5.808   6.208   3.546
 3055SOL    HW110064   5.810   6.112   3.518
 3055SOL    HW210065   5.730   6.254   3.501
 3056SOL     OW10066   6.772   0.364   0.868
 3056SOL    HW110067   6.828   0.303   0.925
 3056SOL    HW210068   6.830   0.408   0.799
 3057SOL     OW10069   5.878   5.035   2.698
 3057SOL    HW110070   5.907   4.978   2.621
 3057SOL    HW210071   5.820   4.982   2.759
 3058SOL     OW10072   6.670   5.512   0.916
 3058SOL    HW110073   6.695   5.605   0.888
 3058SOL    HW210074   6.700   5.447   0.846
 3059SOL     OW10075   1.580   2.511   4.980
 3059SOL    HW110076   1.529   2.577   4.926
 3059SOL    HW210077   1.674   2.504   4.944
 3060SOL     OW10078   0.009   6.501   1.597
 3060SOL    HW110079   6.990   6.591   1.590
 3060SOL    HW210080   0.012   6.458   1.506
 3061SOL     OW10081   0.388   0.223   5.342
 3061SOL    HW110082   0.353   0.219   5.435
 3061SOL    HW210083   0.470   0.280   5.339
 3062SOL     OW10084   2.577   6.021   0.581
 3062SOL    HW110085   2.613   6.080   0.509
 3062SOL    HW210086   2.652   5.987   0.637
 3063SOL     OW10087   1.662   5.157   1.507
 3063SOL    HW110088   1.634   5.087   1.574
 3063SOL    HW210089   1.697   5.112   1.425
 3064SOL     OW10090   6.046   4.011   2.985
 3064SOL    HW110091   6.109   3.971   2.918
 3064SOL    HW210092   5.961   4.036   2.940
 3065SOL     OW10093   1.566   0.817   6.934
 3065SOL    HW110094   1.536   0.908   6.960
 3065SOL    HW210095   1.496   0.750   6.959
 3066SOL     OW10096   6.349   4.816   1.355
 3066SOL    HW110097   6.437   4.769   1.358
 3066SOL    HW210098   6.365   4.915   1.351
 3067SOL     OW10099   4.785   6.851   4.170
 3067SOL    HW110100   4.883   6.844   4.150
 3067SOL    HW210101   4.735   6.872   4.085
 3068SOL     OW10102   5.642   5.298   0.999
 3068SOL    HW110103   5.665   5.270   0.906
 3068SOL    HW210104   5.701   5.373   1.027
 3069SOL     OW10105   0.502   5.894   2.283
 3069SOL    HW110106   0.475   5.941   2.367
 3069SOL    HW210107   0.425   5.892   2.220
 3070SOL     OW10108   2.920   1.296   3.903
 3070SOL    HW110109   2.998   1.343   3.944
 3070SOL    HW210110   2.927   1.301   3.804
 3071SOL     OW10111   5.513   0.077   3.722
 3071SOL    HW110112   5.511   7.019   3.780
 3071SOL    HW210113   5.598   0.079   3.669
 3072SOL     OW10114   0.502   6.792   2.152
 3072SOL    HW110115   0.426   6.751   2.204
 3072SOL    HW210116   0.505   6.752   2.060
 3073SOL     OW10117   1.295   3.574   5.286
 3073SOL    HW110118   1.381   3.592   5.237
 3073SOL    HW210119   1.219   3.583   5.223
 3074SOL     OW10120   4.427   3.158   6.179
 3074SOL    HW110121   4.406   3.060   6.177
 3074SOL    HW210122   4.458   3.187   6.089
 3075SOL     OW10123   1.615   5.690   1.021
 3075SOL    HW110124   1.553   5.702   1.098
 3075SOL    HW210125   1.564   5.657   0.942
 3076SOL     OW10126   6.536   0.298   5.014
 3076SOL    HW110127   6.629   0.290   5.049
 3076SOL    HW210128   6.475   0.328   5.087
 3077SOL     OW10129   5.612   4.585   4.476
 3077SOL    HW110130   5.670   4.614   4.400
 3077SOL    HW210131   5.605   4.659   4.543
 3078SOL     OW10132   1.906   3.966   1.915
 3078SOL    HW110133   1.940   3.986   1.823
 3078SOL    HW210134   1.826   3.905   1.908
 3079SOL     OW10135   6.618   2.117   5.035
 3079SOL    HW110136   6.618   2.173   5.118
 3079SOL    HW210137   6.712   2.103   5.004
 3080SOL     OW10138   6.466   5.157   0.860
 3080SOL    HW110139   6.551   5.211   0.862
 3080SOL    HW210140   6.488   5.061   0.847
 3081SOL     OW10141   0.339   4.502   5.583
 3081SOL    HW110142   0.334   4.601   5.577
 3081SOL    HW210143   0.322   4.463   5.492
 3082SOL     OW10144   3.301   0.100   2.452
 3082SOL    HW110145   3.308   0.153   2.537
 3082SOL    HW210146   3.383   0.043   2.442
 3083SOL     OW10147   3.452   0.759   1.842
 3083SOL    HW110148   3.427   0.695   1.770
 3083SOL    HW210149   3.515   0.715   1.906
 3084SOL     OW10150   5.753   5.845   4.706
 3084SOL    HW110151   5.688   5.851   4.782
 3084SOL    HW210152   5.846   5.835   4.742
 3085SOL     OW10153   0.230   5.651   2.680
 3085SOL    HW110154   0.187   5.708   2.610
 3085SOL    HW210155   0.328   5.673   2.686
 3086SOL     OW10156   4.712   1.477   3.662
 3086SOL    HW110157   4.630   1.526   3.631
 3086SOL    HW210158   4.719   1.389   3.615
 3087SOL     OW10159   6.229   3.870   2.802
 3087SOL    HW110160   6.232   3.952   2.745
 3087SOL    HW210161   6.322   3.848   2.832
 3088SOL     OW10162   2.483   4.557   5.608
 3088SOL    HW110163   2.411   4.585   5.672
 3088SOL    HW210164   2.493   4.627   5.537
 3089SOL     OW10165   1.496   2.775   0.136
 3089SOL    HW110166   1.443   2.858   0.151
 3089SOL    HW210167   1.564   2.791   0.064
 3090SOL     OW10168   1.324   1.570   1.211
 3090SOL    HW110169   1.423   1.558   1.218
 3090SOL    HW210170   1.286   1.501   1.149
 3091SOL     OW10171   2.546   6.842   0.649
 3091SOL    HW110172   2.462   6.852   0.595
 3091SOL    HW210173   2.614   6.907   0.617
 3092SOL     OW10174   5.706   7.008   1.352
 3092SOL    HW110175   5.712   0.046   1.274
 3092SOL    HW210176   5.770   0.013   1.423
 3093SOL     OW10177   6.123   5.472   5.592
 3093SOL    HW110178   6.135   5.426   5.679
 3093SOL    HW210179   6.027   5.498   5.580
 3094SOL     OW10180   3.078   6.110   5.393
 3094SOL    HW110181   3.100   6.204   5.365
 3094SOL    HW210182   3.160   6.053   5.387
 3095SOL     OW10183   2.646   4.839   4.573
 3095SOL    HW110184   2.655   4.817   4.670
 3095SOL    HW210185   2.607   4.761   4.524
 3096SOL     OW10186   0.496   0.608   5.017
 3096SOL    HW110187   0.453   0.678   4.959
 3096SOL    HW210188   0.426   0.544   5.049
 3097SOL     OW10189   1.144   2.651   0.138
 3097SOL    HW110190   1.199   2.683   0.215
 3097SOL    HW210191   1.111   2.729   0.085
 3098SOL     OW10192   2.596   2.773   0.659
 3098SOL    HW110193   2.588   2.866   0.624
 3098SOL    HW210194   2.594   2.708   0.583
 3099SOL     OW10195   0.686   5.745   5.744
 3099SOL    HW110196   0.646   5.782   5.661
 3099SOL    HW210197   0.708   5.820   5.807
 3100SOL     OW10198   6.588   6.704   6.473
 3100SOL    HW110199   6.538   6.742   6.396
 3100SOL    HW210200   6.556   6.747   6.558
 3101SOL     OW10201   4.894   0.205   6.565
 3101SOL    HW110202   4.839   0.180   6.485
 3101SOL    HW210203   4.973   0.144   6.572
 3102SOL     OW10204   1.697   4.185   0.646
 3102SOL    HW110205   1.688   4.091   0.613
 3102SOL    HW210206   1.698   4.248   0.569
 3103SOL     OW10207   4.013   2.785   1.588
 3103SOL    HW110208   3.917   2.759   1.600
 3103SOL    HW210209   4.071   2.722   1.639
 3104SOL     OW10210   5.710   6.050   4.034
 3104SOL    HW110211   5.801   6.046   3.992
 3104SOL    HW210212   5.718   6.071   4.131
 3105SOL     OW10213   5.652   6.596   4.407
 3105SOL    HW110214   5.634   6.501   4.383
 3105SOL    HW210215   5.713   6.600   4.487
 3106SOL     OW10216   6.903   2.872   2.983
 3106SOL    HW110217   6.834   2.802   3.001
 3106SOL    HW210218   6.859   2.962   2.986
 3107SOL     OW10219   2.605   0.378   3.730
 3107SOL    HW110220   2.505   0.384   3.722
 3107SOL    HW210221   2.646   0.460   3.691
 3108SOL     OW10222   2.447   1.213   3.439
 3108SOL    HW110223   2.375   1.164   3.488
 3108SOL    HW210224   2.406   1.271   3.368
 3109SOL     OW10225   5.151   5.694   3.174
 3109SOL    HW110226   5.083   5.667   3.242
 3109SOL    HW210227   5.123   5.662   3.083
 3110SOL     OW10228   1.297   2.990   2.657
 3110SOL    HW110229   1.234   3.000   2.580
 3110SOL    HW210230   1.391   2.994   2.623
 3111SOL     OW10231   0.358   5.066   3.638
 3111SOL    HW110232   0.370   4.971   3.609
 3111SOL    HW210233   0.394   5.128   3.568
 3112SOL     OW10234   4.698   3.814   6.784
 3112SOL    HW110235   4.796   3.827   6.793
 3112SOL    HW210236   4.675   3.791   6.689
 3113SOL     OW10237   2.715   6.563   3.200
 3113SOL    HW110238   2.754   6.595   3.113
 3113SOL    HW210239   2.753   6.473   3.222
 3114SOL     OW10240   6.261   4.899   1.064
 3114SOL    HW110241   6.191   4.925   1.130
 3114SOL    HW210242   6.351   4.921   1.102
 3115SOL     OW10243   3.383   3.986   0.701
 3115SOL    HW110244   3.414   3.968   0.607
 3115SOL    HW210245   3.428   4.068   0.736
 3116SOL     OW10246   6.487   2.400   0.313
 3116SOL    HW110247   6.542   2.319   0.293
 3116SOL    HW210248   6.393   2.373   0.334
 3117SOL     OW10249   3.859   3.217   4.946
 3117SOL    HW110250   3.836   3.141   5.007
 3117SOL    HW210251   3.841   3.191   4.851
 3118SOL     OW10252   6.098   4.112   0.796
 3118SOL    HW110253   6.137   4.201   0.772
 3118SOL    HW210254   6.016   4.095   0.741
 3119SOL     OW10255   1.939   4.321   5.377
 3119SOL    HW110256   1.964   4.352   5.468
 3119SOL    HW210257   1.942   4.221   5.373
 3120SOL     OW10258   2.885   5.660   4.871
 3120SOL    HW110259   2.822   5.619   4.937
 3120SOL    HW210260   2.920   5.589   4.810
 3121SOL     OW10261   6.529   0.700   2.552
 3121SOL    HW110262   6.600   0.649   2.503
 3121SOL    HW210263   6.521   0.665   2.645
 3122SOL     OW10264   2.903   5.714   6.602
 3122SOL    HW110265   2.822   5.753   6.557
 3122SOL    HW210266   2.896   5.614   6.602
 3123SOL     OW10267   3.448   6.182   3.819
 3123SOL    HW110268   3.359   6.218   3.790
 3123SOL    HW210269   3.510   6.259   3.836
 3124SOL     OW10270   4.177   1.056   5.874
 3124SOL    HW110271   4.179   1.128   5.804
 3124SOL    HW210272   4.124   0.978   5.840
 3125SOL     OW10273   6.598   1.531   5.895
 3125SOL    HW110274   6.604   1.432   5.908
 3125SOL    HW210275   6.532   1.570   5.959
 3126SOL     OW10276   4.286   6.256   0.182
 3126SOL    HW110277   4.248   6.174   0.226
 3126SOL    HW210278   4.312   6.322   0.251
 3127SOL     OW10279   0.754   1.744   4.081
 3127SOL    HW110280   0.824   1.727   4.151
 3127SOL    HW210281   0.798   1.768   3.995
 3128SOL     OW10282   1.736   1.054   0.880
 3128SOL    HW110283   1.757   0.965   0.919
 3128SOL    HW210284   1.779   1.063   0.790
 3129SOL     OW10285   6.711   3.785   5.279
 3129SOL    HW110286   6.806   3.769   5.304
 3129SOL    HW210287   6.651   3.737   5.343
 3130SOL     OW10288   1.867   4.422   1.850
 3130SOL    HW110289   1.943   4.486   1.852
 3130SOL    HW210290   1.870   4.365   1.933
 3131SOL     OW10291   0.086   3.340   2.877
 3131SOL    HW110292   0.025   3.413   2.847
 3131SOL    HW210293   0.032   3.264   2.913
 3132SOL     OW10294   5.398   6.129   5.650
 3132SOL    HW110295   5.373   6.043   5.606
 3132SOL    HW210296   5.497   6.136   5.656
 3133SOL     OW10297   2.948   1.916   3.192
 3133SOL    HW110298   2.936   2.008   3.153
 3133SOL    HW210299   3.043   1.887   3.179
 3134SOL     OW10300   5.051   3.435   1.906
 3134SOL    HW110301   4.980   3.365   1.899
 3134SOL    HW210302   5.136   3.400   1.866
 3135SOL     OW10303   3.596   2.000   3.552
 3135SOL    HW110304   3.561   2.023   3.462
 3135SOL    HW210305   3.520   1.981   3.614
 3136SOL     OW10306   6.084   6.234   5.151
 3136SOL    HW110307   6.118   6.327   5.138
 3136SOL    HW210308   6.048   6.199   5.065
 3137SOL     OW10309   5.728   1.976   3.787
 3137SOL    HW110310   5.749   2.008   3.880
 3137SOL    HW210311   5.795   2.013   3.723
 3138SOL     OW10312   5.947   1.849   4.894
 3138SOL    HW110313   5.891   1.770   4.869
 3138SOL    HW210314   5.895   1.933   4.881
 3139SOL     OW10315   4.611   6.153   5.169
 3139SOL    HW110316   4.529   6.211   5.174
 3139SOL    HW210317   4.599   6.085   5.097
 3140SOL     OW10318   6.672   6.380   6.671
 3140SOL    HW110319   6.684   6.320   6.750
 3140SOL    HW210320   6.697   6.473   6.696
 3141SOL     OW10321   1.142   5.458   0.328
 3141SOL    HW110322   1.142   5.369   0.284
 3141SOL    HW210323   1.084   5.521   0.276
 3142SOL     OW10324   4.697   6.607   6.458
 3142SOL    HW110325   4.647   6.522   6.472
 3142SOL    HW210326   4.635   6.684   6.472
 3143SOL     OW10327   6.639   1.348   0.265
 3143SOL    HW110328   6.719   1.386   0.313
 3143SOL    HW210329   6.556   1.394   0.297
 3144SOL     OW10330   1.828   3.260   6.689
 3144SOL    HW110331   1.745   3.268   6.634
 3144SOL    HW210332   1.847   3.163   6.706
 3145SOL     OW10333   3.406   5.735   2.766
 3145SOL    HW110334   3.310   5.733   2.740
 3145SOL    HW210335   3.456   5.796   2.705
 3146SOL     OW10336   0.972   0.061   3.224
 3146SOL    HW110337   1.057   0.009   3.229
 3146SOL    HW210338   0.927   0.061   3.314
 3147SOL     OW10339   4.889   4.022   0.035
 3147SOL    HW110340   4.857   4.110   7.023
 3147SOL    HW210341   4.812   3.972   0.074
 3148SOL     OW10342   3.540   5.296   4.810
 3148SOL    HW110343   3.501   5.209   4.840
 3148SOL    HW210344   3.472   5.346   4.756
 3149SOL     OW10345   3.487   0.628   5.601
 3149SOL    HW110346   3.462   0.600   5.693
 3149SOL    HW210347   3.416   0.600   5.536
 3150SOL     OW10348   5.787   6.511   4.637
 3150SOL    HW110349   5.756   6.575   4.707
 3150SOL    HW210350   5.886   6.496   4.648
 3151SOL     OW10351   4.410   1.489   6.340
 3151SOL    HW110352   4.451   1.557   6.279
 3151SOL    HW210353   4.473   1.412   6.351
 3152SOL     OW10354   1.087   5.771   0.785
 3152SOL    HW110355   1.049   5.744   0.697
 3152SOL    HW210356   1.154   5.845   0.772
 3153SOL     OW10357   6.817   4.353   2.357
 3153SOL    HW110358   6.915   4.356   2.338
 3153SOL    HW210359   6.766   4.349   2.271
 3154SOL     OW10360   5.389   2.247   6.088
 3154SOL    HW110361   5.410   2.319   6.155
 3154SOL    HW210362   5.395   2.158   6.133
 3155SOL     OW10363   5.977   5.884   1.079
 3155SOL    HW110364   5.920   5.947   1.131
 3155SOL    HW210365   6.066   5.925   1.062
 3156SOL     OW10366   3.307   3.722   3.593
 3156SOL    HW110367   3.374   3.793   3.572
 3156SOL    HW210368   3.349   3.652   3.649
 3157SOL     OW10369   2.179   4.106   4.186
 3157SOL    HW110370   2.205   4.081   4.280
 3157SOL    HW210371   2.228   4.047   4.121
 3158SOL     OW10372   4.851   6.242   1.375
 3158SOL    HW110373   4.757   6.210   1.362
 3158SOL    HW210374   4.891   6.266   1.286
 3159SOL     OW10375   5.439   5.344   0.240
 3159SOL    HW110376   5.444   5.298   0.329
 3159SOL    HW210377   5.354   5.396   0.233
 3160SOL     OW10378   4.769   4.255   7.007
 3160SOL    HW110379   4.681   4.298   0.008
 3160SOL    HW210380   4.844   4.315   0.012
 3161SOL     OW10381   1.090   1.689   3.048
 3161SOL    HW110382   1.131   1.712   2.960
 3161SOL    HW210383   1.129   1.603   3.082
 3162SOL     OW10384   0.279   5.458   6.430
 3162SOL    HW110385   0.256   5.550   6.397
 3162SOL    HW210386   0.199   5.399   6.422
 3163SOL     OW10387   3.107   3.961   6.107
 3163SOL    HW110388   3.157   4.044   6.083
 3163SOL    HW210389   3.172   3.887   6.125
 3164SOL     OW10390   5.124   4.799   6.986
 3164SOL    HW110391   5.064   4.760   6.916
 3164SOL    HW210392   5.154   4.890   6.958
 3165SOL     OW10393   0.168   1.371   1.580
 3165SOL    HW110394   0.233   1.312   1.532
 3165SOL    HW210395   0.129   1.321   1.657
 3166SOL     OW10396   5.591   3.068   6.288
 3166SOL    HW110397   5.597   2.970   6.309
 3166SOL    HW210398   5.644   3.120   6.356
 3167SOL     OW10399   0.734   5.333   1.609
 3167SOL    HW110400   0.686   5.371   1.688
 3167SOL    HW210401   0.753   5.236   1.625
 3168SOL     OW10402   5.508   3.335   1.211
 3168SOL    HW110403   5.410   3.351   1.209
 3168SOL    HW210404   5.556   3.422   1.198
 3169SOL     OW10405   1.180   2.097   5.648
 3169SOL    HW110406   1.085   2.131   5.647
 3169SOL    HW210407   1.181   2.001   5.676
 3170SOL     OW10408   3.945   0.751   0.030
 3170SOL    HW110409   4.017   0.743   6.985
 3170SOL    HW210410   3.862   0.706   7.021
 3171SOL     OW10411   6.047   6.380   3.355
 3171SOL    HW110412   6.136   6.343   3.379
 3171SOL    HW210413   5.977   6.309   3.366
 3172SOL     OW10414   6.210   0.413   4.774
 3172SOL    HW110415   6.309   0.421   4.772
 3172SOL    HW210416   6.168   0.498   4.741
 3173SOL     OW10417   2.196   0.309   1.504
 3173SOL    HW110418   2.165   0.347   1.417
 3173SOL    HW210419   2.230   0.382   1.563
 3174SOL     OW10420   2.189   2.790   6.092
 3174SOL    HW110421   2.099   2.831   6.079
 3174SOL    HW210422   2.258   2.861   6.102
 3175SOL     OW10423   0.710   6.674   0.490
 3175SOL    HW110424   0.771   6.669   0.412
 3175SOL    HW210425   0.737   6.606   0.559
 3176SOL     OW10426   0.548   4.530   6.746
 3176SOL    HW110427   0.641   4.497   6.727
 3176SOL    HW210428   0.528   4.608   6.687
 3177SOL     OW10429   5.730   5.956   5.677
 3177SOL    HW110430   5.713   5.895   5.754
 3177SOL    HW210431   5.819   5.934   5.636
 3178SOL     OW10432   0.875   3.258   1.255
 3178SOL    HW110433   0.967   3.267   1.219
 3178SOL    HW210434   0.877   3.257   1.355
 3179SOL     OW10435   1.697   1.447   3.045
 3179SOL    HW110436   1.652   1.528   3.080
 3179SOL    HW210437   1.719   1.460   2.948
 3180SOL     OW10438   5.630   0.757   6.138
 3180SOL    HW110439   5.729   0.744   6.137
 3180SOL    HW210440   5.598   0.765   6.232
 3181SOL     OW10441   0.756   1.275   3.086
 3181SOL    HW110442   0.824   1.207   3.058
 3181SOL    HW210443   0.741   1.339   3.011
 3182SOL     OW10444   2.103   5.159   5.258
 3182SOL    HW110445   2.181   5.123   5.309
 3182SOL    HW210446   2.018   5.127   5.299
 3183SOL     OW10447   3.443   3.313   1.431
 3183SOL    HW110448   3.442   3.363   1.518
 3183SOL    HW210449   3.437   3.215   1.450
 3184SOL     OW10450   2.194   1.764   2.112
 3184SOL    HW110451   2.262   1.788   2.043
 3184SOL    HW210452   2.106   1.746   2.067
 3185SOL     OW10453   6.702   0.065   5.597
 3185SOL    HW110454   6.618   0.096   5.641
 3185SOL    HW210455   6.781   0.093   5.653
 3186SOL     OW10456   2.721   1.002   2.081
 3186SOL    HW110457   2.674   0.941   2.144
 3186SOL    HW210458   2.726   1.094   2.120
 3187SOL     OW10459   3.207   4.755   0.180
 3187SOL    HW110460   3.282   4.815   0.154
 3187SOL    HW210461   3.173   4.780   0.271
 3188SOL     OW10462   4.343   6.282   3.245
 3188SOL    HW110463   4.256   6.236   3.226
 3188SOL    HW210464   4.403   6.220   3.296
 3189SOL     OW10465   0.869   6.424   2.437
 3189SOL    HW110466   0.823   6.497   2.386
 3189SOL    HW210467   0.936   6.380   2.379
 3190SOL     OW10468   0.624   5.684   2.172
 3190SOL    HW110469   0.588   5.750   2.237
 3190SOL    HW210470   0.597   5.710   2.079
 3191SOL     OW10471   4.052   0.846   1.018
 3191SOL    HW110472   3.992   0.812   1.091
 3191SOL    HW210473   4.041   0.946   1.010
 3192SOL     OW10474   0.109   2.950   2.572
 3192SOL    HW110475   0.069   2.887   2.639
 3192SOL    HW210476   0.180   2.902   2.520
 3193SOL     OW10477   4.834   3.348   6.487
 3193SOL    HW110478   4.833   3.322   6.583
 3193SOL    HW210479   4.740   3.348   6.452
 3194SOL     OW10480   0.429   3.123   6.062
 3194SOL    HW110481   0.452   3.027   6.047
 3194SOL    HW210482   0.492   3.162   6.129
 3195SOL     OW10483   0.979   3.284   3.390
 3195SOL    HW110484   1.066   3.333   3.401
 3195SOL    HW210485   0.995   3.186   3.393
 3196SOL     OW10486   6.461   0.031   5.739
 3196SOL    HW110487   6.430   0.077   5.656
 3196SOL    HW210488   6.387   7.000   5.777
 3197SOL     OW10489   1.153   4.471   4.018
 3197SOL    HW110490   1.176   4.511   3.929
 3197SOL    HW210491   1.099   4.388   4.004
 3198SOL     OW10492   6.897   1.546   6.793
 3198SOL    HW110493   6.928   1.451   6.803
 3198SOL    HW210494   6.939   1.602   6.865
 3199SOL     OW10495   4.248   2.031   2.484
 3199SOL    HW110496   4.302   1.974   2.545
 3199SOL    HW210497   4.255   2.126   2.512
 3200SOL     OW10498   0.038   1.859   1.455
 3200SOL    HW110499   0.057   1.839   1.359
 3200SOL    HW210500   0.120   1.838   1.509
 3201SOL     OW10501   4.443   4.461   2.843
 3201SOL    HW110502   4.448   4.396   2.768
 3201SOL    HW210503   4.461   4.553   2.809
 3202SOL     OW10504   1.808   5.803   1.912
 3202SOL    HW110505   1.810   5.902   1.929
 3202SOL    HW210506   1.888   5.760   1.954
 3203SOL     OW10507   6.484   6.912   2.068
 3203SOL    HW110508   6.444   6.833   2.114
 3203SOL    HW210509   6.564   6.944   2.119
 3204SOL     OW10510   6.501   5.468   1.830
 3204SOL    HW110511   6.557   5.448   1.750
 3204SOL    HW210512   6.423   5.405   1.834
 3205SOL     OW10513   0.665   3.828   3.658
 3205SOL    HW110514   0.652   3.729   3.655
 3205SOL    HW210515   0.586   3.874   3.617
 3206SOL     OW10516   1.026   0.136   6.716
 3206SOL    HW110517   1.094   0.170   6.781
 3206SOL    HW210518   1.014   0.202   6.642
 3207SOL     OW10519   0.128   1.213   4.292
 3207SOL    HW110520   0.133   1.304   4.251
 3207SOL    HW210521   0.033   1.181   4.290
 3208SOL     OW10522   5.702   6.880   5.269
 3208SOL    HW110523   5.723   6.958   5.329
 3208SOL    HW210524   5.610   6.892   5.231
 3209SOL     OW10525   2.351   0.672   3.297
 3209SOL    HW110526   2.412   0.729   3.243
 3209SOL    HW210527   2.326   0.720   3.381
 3210SOL     OW10528   0.255   4.704   3.302
 3210SOL    HW110529   0.171   4.756   3.289
 3210SOL    HW210530   0.332   4.758   3.269
 3211SOL     OW10531   1.567   4.341   1.848
 3211SOL    HW110532   1.609   4.431   1.833
 3211SOL    HW210533   1.600   4.303   1.934
 3212SOL     OW10534   4.821   2.088   5.859
 3212SOL    HW110535   4.909   2.076   5.905
 3212SOL    HW210536   4.810   2.018   5.789
 3213SOL     OW10537   6.435   6.459   2.022
 3213SOL    HW110538   6.446   6.445   2.121
 3213SOL    HW210539   6.503   6.525   1.991
 3214SOL     OW10540   4.194   5.318   5.950
 3214SOL    HW110541   4.267   5.354   5.892
 3214SOL    HW210542   4.138   5.254   5.897
 3215SOL     OW10543   6.008   0.888   6.819
 3215SOL    HW110544   5.963   0.851   6.900
 3215SOL    HW210545   6.098   0.923   6.844
 3216SOL     OW10546   5.528   6.810   4.326
 3216SOL    HW110547   5.571   6.728   4.365
 3216SOL    HW210548   5.573   6.833   4.240
 3217SOL     OW10549   6.905   4.159   1.676
 3217SOL    HW110550   6.961   4.185   1.597
 3217SOL    HW210551   6.961   4.106   1.740
 3218SOL     OW10552   2.886   0.624   2.273
 3218SOL    HW110553   2.964   0.685   2.288
 3218SOL    HW210554   2.806   0.678   2.247
 3219SOL     OW10555   6.477   0.409   3.859
 3219SOL    HW110556   6.470   0.317   3.896
 3219SOL    HW210557   6.572   0.440   3.865
 3220SOL     OW10558   6.217   3.002   5.296
 3220SOL    HW110559   6.284   3.077   5.292
 3220SOL    HW210560   6.254   2.922   5.251
 3221SOL     OW10561   3.570   0.050   3.101
 3221SOL    HW110562   3.652   0.049   3.159
 3221SOL    HW210563   3.520   6.988   3.112
 3222SOL     OW10564   5.850   2.866   3.224
 3222SOL    HW110565   5.869   2.876   3.126
 3222SOL    HW210566   5.785   2.791   3.238
 3223SOL     OW10567   2.633   4.928   5.183
 3223SOL    HW110568   2.638   4.956   5.279
 3223SOL    HW210569   2.724   4.931   5.142
 3224SOL     OW10570   4.175   5.265   0.471
 3224SOL    HW110571   4.266   5.246   0.507
 3224SOL    HW210572   4.172   5.360   0.437
 3225SOL     OW10573   2.509   3.215   0.252
 3225SOL    HW110574   2.563   3.195   0.170
 3225SOL    HW210575   2.496   3.314   0.260
 3226SOL     OW10576   0.953   0.018   4.088
 3226SOL    HW110577   0.903   0.032   4.174
 3226SOL    HW210578   0.904   0.060   4.013
 3227SOL     OW10579   2.485   1.281   6.202
 3227SOL    HW110580   2.477   1.181   6.197
 3227SOL    HW210581   2.504   1.308   6.296
 3228SOL     OW10582   5.025   3.033   5.093
 3228SOL    HW110583   5.116   3.072   5.081
 3228SOL    HW210584   4.957   3.099   5.062
 3229SOL     OW10585   4.043   2.177   5.062
 3229SOL    HW110586   4.067   2.272   5.039
 3229SOL    HW210587   3.985   2.176   5.144
 3230SOL     OW10588   0.834   0.380   3.375
 3230SOL    HW110589   0.756   0.407   3.319
 3230SOL    HW210590   0.864   0.457   3.431
 3231SOL     OW10591   6.365   5.681   1.094
 3231SOL    HW110592   6.314   5.640   1.018
 3231SOL    HW210593   6.449   5.723   1.060
 3232SOL     OW10594   2.342   4.742   3.341
 3232SOL    HW110595   2.306   4.747   3.248
 3232SOL    HW210596   2.397   4.659   3.351
 3233SOL     OW10597   0.710   4.233   1.698
 3233SOL    HW110598   0.694   4.168   1.772
 3233SOL    HW210599   0.682   4.192   1.611
 3234SOL     OW10600   6.865   1.675   5.172
 3234SOL    HW110601   6.815   1.691   5.087
 3234SOL    HW210602   6.911   1.760   5.200
 3235SOL     OW10603   5.429   0.226   2.641
 3235SOL    HW110604   5.514   0.226   2.694
 3235SOL    HW210605   5.443   0.180   2.554
 3236SOL     OW10606   0.648   2.881   1.770
 3236SOL    HW110607   0.672   2.976   1.750
 3236SOL    HW210608   0.606   2.876   1.860
 3237SOL     OW10609   3.621   0.171   4.512
 3237SOL    HW110610   3.628   0.212   4.421
 3237SOL    HW210611   3.572   0.084   4.506
 3238SOL     OW10612   6.362   6.484   6.533
 3238SOL    HW110613   6.409   6.404   6.495
 3238SOL    HW210614   6.423   6.563   6.531
 3239SOL     OW10615   0.007   6.644   5.556
 3239SOL    HW110616   0.055   6.592   5.626
 3239SOL    HW210617   0.049   6.627   5.466
 3240SOL     OW10618   0.926   1.340   4.507
 3240SOL    HW110619   0.949   1.425   4.554
 3240SOL    HW210620   0.861   1.288   4.562
 3241SOL     OW10621   5.431   1.012   4.400
 3241SOL    HW110622   5.335   0.989   4.382
 3241SOL    HW210623   5.489   0.967   4.333
 3242SOL     OW10624   3.333   6.324   0.119
 3242SOL    HW110625   3.360   6.326   0.215
 3242SOL    HW210626   3.406   6.364   0.063
 3243SOL     OW10627   3.484   5.588   0.605
 3243SOL    HW110628   3.457   5.608   0.511
 3243SOL    HW210629   3.491   5.673   0.657
 3244SOL     OW10630   2.896   6.256   5.789
 3244SOL    HW110631   2.874   6.270   5.692
 3244SOL    HW210632   2.842   6.180   5.825
 3245SOL     OW10633   3.243   2.384   6.171
 3245SOL    HW110634   3.182   2.306   6.156
 3245SOL    HW210635   3.189   2.468   6.178
 3246SOL     OW10636   5.376   6.104   3.527
 3246SOL    HW110637   5.300   6.097   3.462
 3246SOL    HW210638   5.342   6.143   3.613
 3247SOL     OW10639   0.250   2.154   4.631
 3247SOL    HW110640   0.282   2.090   4.700
 3247SOL    HW210641   0.287   2.245   4.651
 3248SOL     OW10642   5.946   4.205   2.333
 3248SOL    HW110643   6.043   4.222   2.350
 3248SOL    HW210644   5.926   4.221   2.236
 3249SOL     OW10645   2.370   4.372   5.168
 3249SOL    HW110646   2.313   4.309   5.116
 3249SOL    HW210647   2.404   4.327   5.251
 3250SOL     OW10648   3.921   6.322   1.756
 3250SOL    HW110649   3.901   6.286   1.847
 3250SOL    HW210650   4.019   6.310   1.736
 3251SOL     OW10651   3.144   1.070   3.395
 3251SOL    HW110652   3.232   1.102   3.359
 3251SOL    HW210653   3.075   1.073   3.323
 3252SOL     OW10654   3.205   2.125   3.283
 3252SOL    HW110655   3.142   2.174   3.223
 3252SOL    HW210656   3.169   2.127   3.377
 3253SOL     OW10657   4.792   3.394   1.136
 3253SOL    HW110658   4.875   3.450   1.140
 3253SOL    HW210659   4.742   3.400   1.222
 3254SOL     OW10660   5.833   5.264   2.541
 3254SOL    HW110661   5.841   5.176   2.587
 3254SOL    HW210662   5.923   5.293   2.508
 3255SOL     OW10663   3.751   4.607   0.498
 3255SOL    HW110664   3.834   4.563   0.533
 3255SOL    HW210665   3.671   4.560   0.535
 3256SOL     OW10666   6.422   6.196   5.008
 3256SOL    HW110667   6.363   6.119   5.030
 3256SOL    HW210668   6.513   6.162   4.983
 3257SOL     OW10669   2.201   2.070   1.080
 3257SOL    HW110670   2.228   2.157   1.040
 3257SOL    HW210671   2.125   2.031   1.028
 3258SOL     OW10672   5.481   6.818   1.319
 3258SOL    HW110673   5.391   6.821   1.277
 3258SOL    HW210674   5.539   6.888   1.279
 3259SOL     OW10675   5.875   6.146   3.185
 3259SOL    HW110676   5.783   6.170   3.152
 3259SOL    HW210677   5.868   6.068   3.246
 3260SOL     OW10678   1.079   2.743   6.838
 3260SOL    HW110679   1.072   2.787   6.927
 3260SOL    HW210680   1.028   2.797   6.771
 3261SOL     OW10681   4.673   0.034   3.243
 3261SOL    HW110682   4.727   0.052   3.325
 3261SOL    HW210683   4.688   0.105   3.176
 3262SOL     OW10684   3.438   1.597   3.560
 3262SOL    HW110685   3.407   1.507   3.530
 3262SOL    HW210686   3.416   1.609   3.657
 3263SOL     OW10687   3.158   5.456   2.138
 3263SOL    HW110688   3.210   5.372   2.150
 3263SOL    HW210689   3.060   5.435   2.141
 3264SOL     OW10690   5.443   5.018   6.324
 3264SOL    HW110691   5.504   5.054   6.253
 3264SOL    HW210692   5.496   4.960   6.386
 3265SOL     OW10693   4.184   0.696   6.919
 3265SOL    HW110694   4.214   0.643   6.998
 3265SOL    HW210695   4.246   0.773   6.905
 3266SOL     OW10696   0.499   1.649   6.225
 3266SOL    HW110697   0.552   1.688   6.150
 3266SOL    HW210698   0.531   1.556   6.244
 3267SOL     OW10699   4.275   2.219   1.574
 3267SOL    HW110700   4.237   2.201   1.665
 3267SOL    HW210701   4.217   2.285   1.527
 3268SOL     OW10702   0.708   4.571   6.425
 3268SOL    HW110703   0.759   4.553   6.509
 3268SOL    HW210704   0.684   4.485   6.380
 3269SOL     OW10705   4.575   3.229   0.623
 3269SOL    HW110706   4.550   3.150   0.679
 3269SOL    HW210707   4.672   3.250   0.635
 3270SOL     OW10708   0.544   5.910   4.671
 3270SOL    HW110709   0.601   5.901   4.752
 3270SOL    HW210710   0.472   5.840   4.672
 3271SOL     OW10711   5.993   2.024   1.100
 3271SOL    HW110712   5.929   2.074   1.158
 3271SOL    HW210713   6.021   1.940   1.146
 3272SOL     OW10714   5.305   6.697   0.149
 3272SOL    HW110715   5.209   6.675   0.169
 3272SOL    HW210716   5.310   6.791   0.116
 3273SOL     OW10717   6.835   0.124   2.501
 3273SOL    HW110718   6.789   0.035   2.510
 3273SOL    HW210719   6.873   0.133   2.409
 3274SOL     OW10720   3.793   1.700   6.450
 3274SOL    HW110721   3.780   1.796   6.426
 3274SOL    HW210722   3.764   1.685   6.545
 3275SOL     OW10723   3.262   0.698   6.989
 3275SOL    HW110724   3.167   0.674   7.007
 3275SOL    HW210725   3.270   0.743   6.900
 3276SOL     OW10726   3.116   6.507   0.179
 3276SOL    HW110727   3.064   6.503   0.094
 3276SOL    HW210728   3.197   6.448   0.173
 3277SOL     OW10729   0.100   6.625   5.304
 3277SOL    HW110730   0.097   6.572   5.220
 3277SOL    HW210731   0.189   6.615   5.347
 3278SOL     OW10732   1.145   1.002   0.326
 3278SOL    HW110733   1.214   1.065   0.290
 3278SOL    HW210734   1.105   1.040   0.410
 3279SOL     OW10735   2.306   0.247   0.924
 3279SOL    HW110736   2.242   0.318   0.953
 3279SOL    HW210737   2.275   0.209   0.836
 3280SOL     OW10738   1.797   5.282   5.876
 3280SOL    HW110739   1.811   5.192   5.917
 3280SOL    HW210740   1.885   5.321   5.849
 3281SOL     OW10741   3.025   5.997   0.136
 3281SOL    HW110742   3.032   6.015   0.234
 3281SOL    HW210743   3.033   6.083   0.085
 3282SOL     OW10744   1.871   5.305   2.563
 3282SOL    HW110745   1.895   5.398   2.594
 3282SOL    HW210746   1.929   5.239   2.612
 3283SOL     OW10747   2.084   0.328   3.647
 3283SOL    HW110748   2.010   0.389   3.617
 3283SOL    HW210749   2.065   0.235   3.615
 3284SOL     OW10750   0.296   4.078   6.582
 3284SOL    HW110751   0.248   4.126   6.508
 3284SOL    HW210752   0.337   3.994   6.546
 3285SOL     OW10753   6.516   2.472   4.142
 3285SOL    HW110754   6.591   2.538   4.147
 3285SOL    HW210755   6.429   2.521   4.144
 3286SOL     OW10756   3.740   4.659   5.550
 3286SOL    HW110757   3.673   4.651   5.625
 3286SOL    HW210758   3.752   4.570   5.507
 3287SOL     OW10759   0.907   5.373   1.173
 3287SOL    HW110760   0.987   5.408   1.124
 3287SOL    HW210761   0.829   5.433   1.157
 3288SOL     OW10762   1.055   6.188   0.044
 3288SOL    HW110763   1.047   6.219   0.139
 3288SOL    HW210764   1.053   6.268   7.008
 3289SOL     OW10765   0.852   5.792   4.743
 3289SOL    HW110766   0.951   5.781   4.730
 3289SOL    HW210767   0.835   5.843   4.827
 3290SOL     OW10768   6.830   5.301   1.788
 3290SOL    HW110769   6.803   5.214   1.748
 3290SOL    HW210770   6.802   5.303   1.885
 3291SOL     OW10771   2.247   6.801   1.307
 3291SOL    HW110772   2.226   6.899   1.315
 3291SOL    HW210773   2.332   6.782   1.356
 3292SOL     OW10774   0.662   5.718   5.465
 3292SOL    HW110775   0.682   5.810   5.433
 3292SOL    HW210776   0.746   5.663   5.465
 3293SOL     OW10777   6.775   0.457   2.938
 3293SOL    HW110778   6.708   0.471   3.011
 3293SOL    HW210779   6.844   0.392   2.969
 3294SOL     OW10780   0.513   0.072   6.793
 3294SOL    HW110781   0.442   0.024   6.741
 3294SOL    HW210782   0.595   0.080   6.736
 3295SOL     OW10783   1.456   2.361   6.566
 3295SOL    HW110784   1.393   2.433   6.594
 3295SOL    HW210785   1.513   2.334   6.643
 3296SOL     OW10786   0.472   6.467   1.792
 3296SOL    HW110787   0.524   6.442   1.710
 3296SOL    HW210788   0.516   6.544   1.837
 3297SOL     OW10789   3.023   2.302   6.009
 3297SOL    HW110790   2.970   2.218   6.022
 3297SOL    HW210791   3.084   2.291   5.931
 3298SOL     OW10792   6.071   3.674   3.416
 3298SOL    HW110793   6.043   3.623   3.335
 3298SOL    HW210794   6.162   3.644   3.445
 3299SOL     OW10795   1.380   0.639   4.633
 3299SOL    HW110796   1.335   0.728   4.627
 3299SOL    HW210797   1.317   0.572   4.673
 3300SOL     OW10798   6.398   0.246   4.437
 3300SOL    HW110799   6.341   0.311   4.388
 3300SOL    HW210800   6.494   0.270   4.423
 3301SOL     OW10801   0.642   3.874   3.146
 3301SOL    HW110802   0.578   3.947   3.168
 3301SOL    HW210803   0.731   3.914   3.124
 3302SOL     OW10804   0.809   4.898   3.629
 3302SOL    HW110805   0.765   4.839   3.562
 3302SOL    HW210806   0.784   4.993   3.612
 3303SOL     OW10807   3.659   4.103   3.722
 3303SOL    HW110808   3.669   4.143   3.631
 3303SOL    HW210809   3.726   4.030   3.734
 3304SOL     OW10810   0.906   6.453   4.068
 3304SOL    HW110811   0.969   6.529   4.087
 3304SOL    HW210812   0.937   6.404   3.987
 3305SOL     OW10813   0.951   1.068   1.803
 3305SOL    HW110814   1.012   1.037   1.876
 3305SOL    HW210815   0.918   1.160   1.824
 3306SOL     OW10816   1.131   3.726   2.442
 3306SOL    HW110817   1.134   3.795   2.514
 3306SOL    HW210818   1.129   3.635   2.484
 3307SOL     OW10819   0.282   6.080   0.355
 3307SOL    HW110820   0.231   6.078   0.441
 3307SOL    HW210821   0.375   6.112   0.371
 3308SOL     OW10822   4.695   6.027   0.561
 3308SOL    HW110823   4.633   6.089   0.608
 3308SOL    HW210824   4.776   6.010   0.617
 3309SOL     OW10825   0.870   5.513   2.542
 3309SOL    HW110826   0.829   5.427   2.574
 3309SOL    HW210827   0.861   5.583   2.612
 3310SOL     OW10828   1.472   6.475   1.322
 3310SOL    HW110829   1.548   6.424   1.280
 3310SOL    HW210830   1.504   6.566   1.348
 3311SOL     OW10831   4.194   6.110   0.484
 3311SOL    HW110832   4.143   6.140   0.565
 3311SOL    HW210833   4.133   6.110   0.405
 3312SOL     OW10834   2.317   3.461   0.073
 3312SOL    HW110835   2.324   3.378   0.018
 3312SOL    HW210836   2.262   3.529   0.025
 3313SOL     OW10837   6.917   5.761   4.649
 3313SOL    HW110838   6.969   5.679   4.674
 3313SOL    HW210839   6.920   5.774   4.550
 3314SOL     OW10840   0.847   3.339   6.252
 3314SOL    HW110841   0.819   3.292   6.335
 3314SOL    HW210842   0.941   3.371   6.261
 3315SOL     OW10843   6.799   3.127   2.985
 3315SOL    HW110844   6.840   3.178   3.061
 3315SOL    HW210845   6.701   3.117   3.000
 3316SOL     OW10846   4.164   0.618   0.482
 3316SOL    HW110847   4.129   0.554   0.549
 3316SOL    HW210848   4.090   0.647   0.422
 3317SOL     OW10849   4.740   2.222   1.727
 3317SOL    HW110850   4.710   2.306   1.771
 3317SOL    HW210851   4.679   2.147   1.752
 3318SOL     OW10852   2.472   5.445   5.153
 3318SOL    HW110853   2.444   5.390   5.232
 3318SOL    HW210854   2.544   5.397   5.103
 3319SOL     OW10855   0.062   5.752   5.766
 3319SOL    HW110856   0.085   5.731   5.861
 3319SOL    HW210857   0.072   5.669   5.711
 3320SOL     OW10858   6.896   2.091   5.902
 3320SOL    HW110859   6.825   2.102   5.972
 3320SOL    HW210860   6.914   1.993   5.890
 3321SOL     OW10861   3.193   3.911   3.862
 3321SOL    HW110862   3.118   3.897   3.926
 3321SOL    HW210863   3.158   3.904   3.768
 3322SOL     OW10864   4.722   1.806   1.330
 3322SOL    HW110865   4.750   1.851   1.414
 3322SOL    HW210866   4.740   1.866   1.252
 3323SOL     OW10867   2.739   5.178   0.540
 3323SOL    HW110868   2.656   5.233   0.531
 3323SOL    HW210869   2.724   5.088   0.499
 3324SOL     OW10870   0.674   2.786   0.345
 3324SOL    HW110871   0.766   2.754   0.325
 3324SOL    HW210872   0.675   2.847   0.424
 3325SOL     OW10873   1.926   2.868   0.298
 3325SOL    HW110874   1.862   2.923   0.352
 3325SOL    HW210875   1.969   2.800   0.357
 3326SOL     OW10876   6.356   0.490   2.159
 3326SOL    HW110877   6.359   0.409   2.218
 3326SOL    HW210878   6.432   0.550   2.182
 3327SOL     OW10879   2.908   6.848   1.852
 3327SOL    HW110880   2.869   6.872   1.763
 3327SOL    HW210881   2.947   6.756   1.847
 3328SOL     OW10882   4.417   1.092   2.842
 3328SOL    HW110883   4.337   1.124   2.792
 3328SOL    HW210884   4.499   1.106   2.787
 3329SOL     OW10885   4.808   1.267   5.527
 3329SOL    HW110886   4.823   1.366   5.522
 3329SOL    HW210887   4.798   1.230   5.434
 3330SOL     OW10888   6.797   5.349   3.383
 3330SOL    HW110889   6.771   5.403   3.463
 3330SOL    HW210890   6.851   5.406   3.321
 3331SOL     OW10891   2.012   3.431   2.672
 3331SOL    HW110892   1.913   3.421   2.659
 3331SOL    HW210893   2.041   3.521   2.638
 3332SOL     OW10894   3.333   4.963   1.080
 3332SOL    HW110895   3.391   5.044   1.072
 3332SOL    HW210896   3.372   4.888   1.027
 3333SOL     OW10897   2.575   3.091   1.720
 3333SOL    HW110898   2.606   3.098   1.625
 3333SOL    HW210899   2.595   2.999   1.755
 3334SOL     OW10900   2.344   2.226   1.833
 3334SOL    HW110901   2.256   2.223   1.784
 3334SOL    HW210902   2.361   2.320   1.864
 3335SOL     OW10903   3.618   4.406   5.633
 3335SOL    HW110904   3.623   4.392   5.732
 3335SOL    HW210905   3.550   4.477   5.613
 3336SOL     OW10906   5.170   5.400   4.346
 3336SOL    HW110907   5.082   5.448   4.349
 3336SOL    HW210908   5.230   5.436   4.418
 3337SOL     OW10909   3.331   3.234   2.818
 3337SOL    HW110910   3.298   3.325   2.844
 3337SOL    HW210911   3.284   3.204   2.736
 3338SOL     OW10912   2.830   2.889   1.724
 3338SOL    HW110913   2.787   2.826   1.660
 3338SOL    HW210914   2.919   2.853   1.752
 3339SOL     OW10915   1.987   0.019   6.251
 3339SOL    HW110916   1.943   0.077   6.320
 3339SOL    HW210917   2.020   6.959   6.295
 3340SOL     OW10918   3.706   0.709   3.988
 3340SOL    HW110919   3.708   0.741   3.893
 3340SOL    HW210920   3.612   0.717   4.024
 3341SOL     OW10921   1.210   4.273   2.675
 3341SOL    HW110922   1.289   4.333   2.690
 3341SOL    HW210923   1.210   4.243   2.580
 3342SOL     OW10924   7.004   0.860   2.640
 3342SOL    HW110925   7.005   0.895   2.734
 3342SOL    HW210926   6.931   0.792   2.630
 3343SOL     OW10927   4.548   5.259   0.305
 3343SOL    HW110928   4.539   5.186   0.372
 3343SOL    HW210929   4.645   5.278   0.289
 3344SOL     OW10930   0.982   3.167   2.150
 3344SOL    HW110931   0.961   3.252   2.199
 3344SOL    HW210932   0.975   3.089   2.212
 3345SOL     OW10933   5.798   5.503   6.554
 3345SOL    HW110934   5.775   5.486   6.649
 3345SOL    HW210935   5.735   5.453   6.495
 3346SOL     OW10936   1.378   1.108   0.198
 3346SOL    HW110937   1.368   1.207   0.199
 3346SOL    HW210938   1.409   1.077   0.288
 3347SOL     OW10939   0.338   3.695   5.950
 3347SOL    HW110940   0.419   3.726   5.999
 3347SOL    HW210941   0.324   3.597   5.966
 3348SOL     OW10942   3.384   4.135   6.005
 3348SOL    HW110943   3.461   4.200   6.013
 3348SOL    HW210944   3.327   4.160   5.927
 3349SOL     OW10945   2.070   5.350   3.280
 3349SOL    HW110946   2.027   5.260   3.267
 3349SOL    HW210947   2.038   5.413   3.209
 3350SOL     OW10948   1.813   4.649   4.495
 3350SOL    HW110949   1.900   4.603   4.513
 3350SOL    HW210950   1.798   4.720   4.564
 3351SOL     OW10951   5.594   1.168   1.753
 3351SOL    HW110952   5.693   1.181   1.744
 3351SOL    HW210953   5.575   1.117   1.837
 3352SOL     OW10954   5.927   1.045   0.302
 3352SOL    HW110955   5.926   1.075   0.206
 3352SOL    HW210956   6.012   0.995   0.320
 3353SOL     OW10957   3.995   0.604   1.156
 3353SOL    HW110958   4.040   0.531   1.105
 3353SOL    HW210959   3.902   0.617   1.122
 3354SOL     OW10960   3.074   4.286   6.232
 3354SOL    HW110961   3.150   4.247   6.285
 3354SOL    HW210962   3.111   4.349   6.163
 3355SOL     OW10963   1.602   0.495   4.724
 3355SOL    HW110964   1.532   0.514   4.655
 3355SOL    HW210965   1.602   0.397   4.745
 3356SOL     OW10966   1.775   0.608   5.959
 3356SOL    HW110967   1.783   0.634   5.863
 3356SOL    HW210968   1.760   0.510   5.966
 3357SOL     OW10969   3.217   3.125   2.594
 3357SOL    HW110970   3.283   3.112   2.520
 3357SOL    HW210971   3.133   3.164   2.557
 3358SOL     OW10972   0.058   0.950   1.773
 3358SOL    HW110973   0.007   0.935   1.858
 3358SOL    HW210974   7.019   0.954   1.696
 3359SOL     OW10975   0.424   0.148   4.756
 3359SOL    HW110976   0.324   0.152   4.756
 3359SOL    HW210977   0.454   0.063   4.714
 3360SOL     OW10978   1.521   4.111   4.127
 3360SOL    HW110979   1.606   4.146   4.165
 3360SOL    HW210980   1.447   4.176   4.145
 3361SOL     OW10981   6.168   7.023   4.945
 3361SOL    HW110982   6.166   0.041   5.036
 3361SOL    HW210983   6.256   0.017   4.901
 3362SOL     OW10984   3.681   0.819   3.731
 3362SOL    HW110985   3.689   0.918   3.748
 3362SOL    HW210986   3.678   0.803   3.633
 3363SOL     OW10987   5.485   3.683   0.260
 3363SOL    HW110988   5.498   3.675   0.359
 3363SOL    HW210989   5.428   3.762   0.240
 3364SOL     OW10990   1.900   3.583   3.544
 3364SOL    HW110991   1.914   3.680   3.560
 3364SOL    HW210992   1.928   3.560   3.451
 3365SOL     OW10993   1.577   3.796   3.417
 3365SOL    HW110994   1.504   3.737   3.451
 3365SOL    HW210995   1.625   3.837   3.495
 3366SOL     OW10996   5.783   3.704   4.693
 3366SOL    HW110997   5.719   3.649   4.640
 3366SOL    HW210998   5.860   3.647   4.721
 3367SOL     OW10999   3.544   4.076   3.969
 3367SOL    HW111000   3.588   4.111   3.887
 3367SOL    HW211001   3.522   3.979   3.956
 3368SOL     OW11002   2.083   0.650   2.048
 3368SOL    HW111003   2.009   0.643   2.115
 3368SOL    HW211004   2.169   0.622   2.090
 3369SOL     OW11005   5.103   2.040   1.310
 3369SOL    HW111006   5.011   2.054   1.273
 3369SOL    HW211007   5.171   2.058   1.238
 3370SOL     OW11008   0.506   5.604   2.598
 3370SOL    HW111009   0.473   5.573   2.509
 3370SOL    HW211010   0.498   5.530   2.664
 3371SOL     OW11011   2.217   2.856   2.068
 3371SOL    HW111012   2.237   2.766   2.106
 3371SOL    HW211013   2.238   2.856   1.970
 3372SOL     OW11014   6.567   4.170   2.618
 3372SOL    HW111015   6.534   4.151   2.525
 3372SOL    HW211016   6.667   4.161   2.621
 3373SOL     OW11017   7.019   3.149   1.857
 3373SOL    HW111018   6.957   3.145   1.935
 3373SOL    HW211019   0.001   3.244   1.824
 3374SOL     OW11020   0.385   6.718   4.011
 3374SOL    HW111021   0.458   6.784   4.027
 3374SOL    HW211022   0.415   6.627   4.038
 3375SOL     OW11023   0.374   5.722   5.770
 3375SOL    HW111024   0.351   5.786   5.843
 3375SOL    HW211025   0.374   5.629   5.806
 3376SOL     OW11026   3.166   3.099   4.262
 3376SOL    HW111027   3.161   3.141   4.352
 3376SOL    HW211028   3.100   3.143   4.200
 3377SOL     OW11029   6.675   4.967   3.528
 3377SOL    HW111030   6.641   5.050   3.571
 3377SOL    HW211031   6.600   4.900   3.523
 3378SOL     OW11032   1.234   6.564   0.071
 3378SOL    HW111033   1.154   6.536   0.018
 3378SOL    HW211034   1.315   6.513   0.039
 3379SOL     OW11035   6.480   4.251   3.579
 3379SOL    HW111036   6.535   4.295   3.507
 3379SOL    HW211037   6.384   4.277   3.568
 3380SOL     OW11038   2.666   4.951   0.423
 3380SOL    HW111039   2.576   4.994   0.432
 3380SOL    HW211040   2.659   4.853   0.442
 3381SOL     OW11041   2.074   3.756   6.031
 3381SOL    HW111042   1.978   3.729   6.030
 3381SOL    HW211043   2.088   3.833   5.968
 3382SOL     OW11044   6.555   3.689   0.690
 3382SOL    HW111045   6.530   3.688   0.787
 3382SOL    HW211046   6.519   3.772   0.647
 3383SOL     OW11047   4.177   5.066   0.262
 3383SOL    HW111048   4.194   5.098   0.169
 3383SOL    HW211049   4.180   5.143   0.325
 3384SOL     OW11050   2.741   3.815   6.703
 3384SOL    HW111051   2.727   3.745   6.632
 3384SOL    HW211052   2.654   3.835   6.748
 3385SOL     OW11053   6.993   2.586   3.979
 3385SOL    HW111054   7.012   2.642   3.898
 3385SOL    HW211055   0.038   2.603   4.049
 3386SOL     OW11056   0.081   5.027   4.840
 3386SOL    HW111057   0.019   5.022   4.762
 3386SOL    HW211058   0.161   4.970   4.823
 3387SOL     OW11059   6.385   0.947   3.249
 3387SOL    HW111060   6.357   0.922   3.342
 3387SOL    HW211061   6.387   0.865   3.192
 3388SOL     OW11062   6.867   3.790   0.955
 3388SOL    HW111063   6.949   3.738   0.930
 3388SOL    HW211064   6.840   3.766   1.048
 3389SOL     OW11065   5.567   5.942   6.655
 3389SOL    HW111066   5.635   5.874   6.682
 3389SOL    HW211067   5.593   5.983   6.567
 3390SOL     OW11068   2.856   5.928   6.278
 3390SOL    HW111069   2.867   5.977   6.364
 3390SOL    HW211070   2.796   5.849   6.292
 3391SOL     OW11071   5.750   3.969   3.845
 3391SOL    HW111072   5.713   3.880   3.870
 3391SOL    HW211073   5.845   3.958   3.813
 3392SOL     OW11074   4.803   0.453   6.074
 3392SOL    HW111075   4.790   0.467   5.976
 3392SOL    HW211076   4.865   0.375   6.088
 3393SOL     OW11077   4.368   6.312   0.774
 3393SOL    HW111078   4.448   6.266   0.735
 3393SOL    HW211079   4.286   6.262   0.748
 3394SOL     OW11080   2.658   5.303   1.609
 3394SOL    HW111081   2.661   5.203   1.618
 3394SOL    HW211082   2.724   5.333   1.541
 3395SOL     OW11083   2.482   6.747   3.340
 3395SOL    HW111084   2.435   6.705   3.418
 3395SOL    HW211085   2.571   6.703   3.328
 3396SOL     OW11086   4.435   0.551   3.682
 3396SOL    HW111087   4.427   0.493   3.763
 3396SOL    HW211088   4.368   0.625   3.688
 3397SOL     OW11089   2.359   5.680   6.376
 3397SOL    HW111090   2.342   5.605   6.441
 3397SOL    HW211091   2.313   5.660   6.289
 3398SOL     OW11092   6.428   2.378   4.624
 3398SOL    HW111093   6.442   2.474   4.647
 3398SOL    HW211094   6.436   2.367   4.525
 3399SOL     OW11095   6.729   6.270   2.002
 3399SOL    HW111096   6.753   6.335   1.930
 3399SOL    HW211097   6.637   6.290   2.035
 3400SOL     OW11098   4.290   2.989   5.803
 3400SOL    HW111099   4.360   2.920   5.782
 3400SOL    HW211100   4.275   2.992   5.901
 3401SOL     OW11101   6.104   3.921   5.618
 3401SOL    HW111102   6.167   3.987   5.576
 3401SOL    HW211103   6.129   3.908   5.714
 3402SOL     OW11104   6.951   3.445   0.705
 3402SOL    HW111105   6.979   3.526   0.756
 3402SOL    HW211106   6.902   3.472   0.623
 3403SOL     OW11107   5.181   6.749   6.904
 3403SOL    HW111108   5.241   6.829   6.904
 3403SOL    HW211109   5.231   6.670   6.869
 3404SOL     OW11110   5.038   4.234   4.684
 3404SOL    HW111111   5.041   4.319   4.736
 3404SOL    HW211112   5.103   4.168   4.722
 3405SOL     OW11113   4.830   6.100   0.095
 3405SOL    HW111114   4.902   6.074   0.031
 3405SOL    HW211115   4.864   6.089   0.189
 3406SOL     OW11116   2.758   5.467   1.826
 3406SOL    HW111117   2.700   5.499   1.901
 3406SOL    HW211118   2.705   5.405   1.768
 3407SOL     OW11119   1.015   4.058   6.567
 3407SOL    HW111120   0.972   4.145   6.540
 3407SOL    HW211121   1.113   4.072   6.581
 3408SOL     OW11122   5.099   0.533   3.586
 3408SOL    HW111123   5.120   0.511   3.682
 3408SOL    HW211124   5.183   0.561   3.540
 3409SOL     OW11125   4.420   0.957   0.782
 3409SOL    HW111126   4.404   1.055   0.775
 3409SOL    HW211127   4.456   0.935   0.873
 3410SOL     OW11128   5.998   0.111   3.314
 3410SOL    HW111129   5.908   0.089   3.276
 3410SOL    HW211130   5.986   0.160   3.401
 3411SOL     OW11131   6.461   3.181   6.040
 3411SOL    HW111132   6.421   3.195   6.131
 3411SOL    HW211133   6.558   3.207   6.042
 3412SOL     OW11134   5.643   3.548   2.116
 3412SOL    HW111135   5.590   3.624   2.154
 3412SOL    HW211136   5.739   3.576   2.108
 3413SOL     OW11137   6.914   1.012   7.007
 3413SOL    HW111138   7.009   0.987   6.989
 3413SOL    HW211139   6.870   0.939   0.037
 3414SOL     OW11140   3.466   3.851   1.134
 3414SOL    HW111141   3.538   3.841   1.203
 3414SOL    HW211142   3.379   3.872   1.179
 3415SOL     OW11143   2.328   1.495   6.125
 3415SOL    HW111144   2.387   1.442   6.186
 3415SOL    HW211145   2.297   1.436   6.050
 3416SOL     OW11146   6.435   6.925   6.332
 3416SOL    HW111147   6.398   6.941   6.424
 3416SOL    HW211148   6.522   6.973   6.322
 3417SOL     OW11149   6.275   6.223   3.405
 3417SOL    HW111150   6.321   6.309   3.425
 3417SOL    HW211151   6.302   6.155   3.473
 3418SOL     OW11152   3.884   4.776   1.001
 3418SOL    HW111153   3.797   4.794   0.956
 3418SOL    HW211154   3.875   4.791   1.100
 3419SOL     OW11155   2.703   5.468   5.524
 3419SOL    HW111156   2.685   5.390   5.585
 3419SOL    HW211157   2.741   5.435   5.438
 3420SOL     OW11158   4.743   1.692   2.119
 3420SOL    HW111159   4.797   1.748   2.182
 3420SOL    HW211160   4.785   1.692   2.029
 3421SOL     OW11161   0.280   2.076   4.969
 3421SOL    HW111162   0.271   1.978   4.948
 3421SOL    HW211163   0.334   2.086   5.053
 3422SOL     OW11164   1.895   6.066   0.706
 3422SOL    HW111165   1.854   6.140   0.653
 3422SOL    HW211166   1.992   6.058   0.684
 3423SOL     OW11167   2.115   4.821   5.569
 3423SOL    HW111168   2.164   4.794   5.653
 3423SOL    HW211169   2.062   4.743   5.536
 3424SOL     OW11170   5.265   1.312   2.179
 3424SOL    HW111171   5.262   1.342   2.084
 3424SOL    HW211172   5.190   1.354   2.231
 3425SOL     OW11173   6.688   3.217   6.328
 3425SOL    HW111174   6.645   3.137   6.371
 3425SOL    HW211175   6.625   3.294   6.331
 3426SOL     OW11176   6.763   2.979   6.698
 3426SOL    HW111177   6.701   3.048   6.659
 3426SOL    HW211178   6.767   2.991   6.797
 3427SOL     OW11179   0.983   1.888   0.538
 3427SOL    HW111180   0.905   1.950   0.528
 3427SOL    HW211181   1.037   1.915   0.618
 3428SOL     OW11182   4.451   6.596   4.710
 3428SOL    HW111183   4.384   6.564   4.643
 3428SOL    HW211184   4.450   6.536   4.790
 3429SOL     OW11185   5.140   6.698   1.444
 3429SOL    HW111186   5.145   6.749   1.358
 3429SOL    HW211187   5.199   6.617   1.437
 3430SOL     OW11188   2.599   4.265   5.693
 3430SOL    HW111189   2.666   4.327   5.735
 3430SOL    HW211190   2.530   4.319   5.644
 3431SOL     OW11191   0.599   4.876   2.583
 3431SOL    HW111192   0.632   4.782   2.578
 3431SOL    HW211193   0.510   4.883   2.537
 3432SOL     OW11194   0.584   4.368   0.171
 3432SOL    HW111195   0.503   4.318   0.140
 3432SOL    HW211196   0.649   4.376   0.096
 3433SOL     OW11197   2.597   0.969   6.894
 3433SOL    HW111198   2.612   0.897   6.827
 3433SOL    HW211199   2.502   0.968   6.925
 3434SOL     OW11200   3.670   2.508   1.712
 3434SOL    HW111201   3.620   2.574   1.769
 3434SOL    HW211202   3.707   2.435   1.770
 3435SOL     OW11203   1.849   1.380   1.151
 3435SOL    HW111204   1.947   1.379   1.131
 3435SOL    HW211205   1.824   1.294   1.195
 3436SOL     OW11206   3.698   6.826   6.410
 3436SOL    HW111207   3.688   6.727   6.417
 3436SOL    HW211208   3.705   6.865   6.501
 3437SOL     OW11209   1.408   0.022   6.283
 3437SOL    HW111210   1.460   0.071   6.214
 3437SOL    HW211211   1.313   0.053   6.282
 3438SOL     OW11212   2.265   3.783   0.872
 3438SOL    HW111213   2.187   3.802   0.812
 3438SOL    HW211214   2.342   3.840   0.845
 3439SOL     OW11215   2.512   5.696   1.626
 3439SOL    HW111216   2.574   5.658   1.557
 3439SOL    HW211217   2.433   5.636   1.638
 3440SOL     OW11218   3.790   3.947   5.316
 3440SOL    HW111219   3.744   3.861   5.337
 3440SOL    HW211220   3.727   4.023   5.332
 3441SOL     OW11221   5.727   4.547   5.961
 3441SOL    HW111222   5.800   4.541   6.029
 3441SOL    HW211223   5.712   4.457   5.921
 3442SOL     OW11224   2.496   3.380   0.914
 3442SOL    HW111225   2.481   3.355   1.010
 3442SOL    HW211226   2.588   3.353   0.887
 3443SOL     OW11227   0.155   6.186   2.479
 3443SOL    HW111228   0.240   6.135   2.465
 3443SOL    HW211229   0.141   6.249   2.403
 3444SOL     OW11230   6.314   4.108   5.795
 3444SOL    HW111231   6.394   4.051   5.779
 3444SOL    HW211232   6.342   4.197   5.828
 3445SOL     OW11233   6.380   4.516   3.978
 3445SOL    HW111234   6.404   4.562   3.892
 3445SOL    HW211235   6.422   4.425   3.980
 3446SOL     OW11236   4.632   1.058   1.701
 3446SOL    HW111237   4.660   1.067   1.605
 3446SOL    HW211238   4.711   1.030   1.756
 3447SOL     OW11239   5.150   0.885   6.256
 3447SOL    HW111240   5.192   0.926   6.176
 3447SOL    HW211241   5.076   0.824   6.227
 3448SOL     OW11242   1.695   4.613   5.366
 3448SOL    HW111243   1.787   4.595   5.401
 3448SOL    HW211244   1.692   4.704   5.324
 3449SOL     OW11245   0.344   4.455   5.879
 3449SOL    HW111246   0.286   4.398   5.936
 3449SOL    HW211247   0.298   4.474   5.792
 3450SOL     OW11248   2.489   6.749   1.444
 3450SOL    HW111249   2.492   6.810   1.523
 3450SOL    HW211250   2.538   6.790   1.367
 3451SOL     OW11251   1.769   1.760   1.671
 3451SOL    HW111252   1.854   1.795   1.634
 3451SOL    HW211253   1.746   1.810   1.755
 3452SOL     OW11254   4.636   1.019   4.810
 3452SOL    HW111255   4.627   0.920   4.813
 3452SOL    HW211256   4.548   1.060   4.786
 3453SOL     OW11257   4.199   6.201   6.573
 3453SOL    HW111258   4.131   6.259   6.617
 3453SOL    HW211259   4.258   6.258   6.514
 3454SOL     OW11260   6.918   2.980   1.352
 3454SOL    HW111261   6.997   2.938   1.308
 3454SOL    HW211262   6.948   3.053   1.413
 3455SOL     OW11263   0.316   3.422   6.012
 3455SOL    HW111264   0.271   3.335   6.029
 3455SOL    HW211265   0.409   3.406   5.978
 3456SOL     OW11266   5.221   5.175   3.645
 3456SOL    HW111267   5.245   5.079   3.655
 3456SOL    HW211268   5.159   5.187   3.568
 3457SOL     OW11269   3.691   4.338   6.280
 3457SOL    HW111270   3.672   4.266   6.347
 3457SOL    HW211271   3.615   4.345   6.216
 3458SOL     OW11272   4.429   1.451   2.435
 3458SOL    HW111273   4.399   1.470   2.342
 3458SOL    HW211274   4.429   1.352   2.450
 3459SOL     OW11275   5.694   6.050   2.380
 3459SOL    HW111276   5.720   5.996   2.460
 3459SOL    HW211277   5.774   6.097   2.344
 3460SOL     OW11278   3.702   1.879   4.618
 3460SOL    HW111279   3.725   1.808   4.551
 3460SOL    HW211280   3.736   1.852   4.708
 3461SOL     OW11281   5.665   4.820   4.624
 3461SOL    HW111282   5.736   4.888   4.640
 3461SOL    HW211283   5.579   4.866   4.602
 3462SOL     OW11284   1.254   3.168   6.451
 3462SOL    HW111285   1.193   3.112   6.507
 3462SOL    HW211286   1.288   3.113   6.374
 3463SOL     OW11287   5.433   4.181   0.097
 3463SOL    HW111288   5.506   4.162   0.031
 3463SOL    HW211289   5.435   4.277   0.124
 3464SOL     OW11290   0.294   4.469   4.949
 3464SOL    HW111291   0.356   4.391   4.955
 3464SOL    HW211292   0.347   4.553   4.963
 3465SOL     OW11293   0.877   1.741   2.480
 3465SOL    HW111294   0.939   1.766   2.406
 3465SOL    HW211295   0.807   1.678   2.446
 3466SOL     OW11296   6.914   3.411   5.111
 3466SOL    HW111297   6.889   3.341   5.178
 3466SOL    HW211298   7.011   3.402   5.087
 3467SOL     OW11299   1.964   2.731   6.308
 3467SOL    HW111300   1.901   2.734   6.231
 3467SOL    HW211301   1.993   2.636   6.324
 3468SOL     OW11302   4.302   6.656   2.441
 3468SOL    HW111303   4.358   6.620   2.515
 3468SOL    HW211304   4.265   6.581   2.387
 3469SOL     OW11305   5.112   3.442   1.541
 3469SOL    HW111306   5.093   3.488   1.454
 3469SOL    HW211307   5.079   3.498   1.617
 3470SOL     OW11308   0.118   5.643   0.903
 3470SOL    HW111309   0.079   5.590   0.828
 3470SOL    HW211310   0.141   5.581   0.979
 3471SOL     OW11311   4.384   0.451   4.375
 3471SOL    HW111312   4.452   0.441   4.448
 3471SOL    HW211313   4.313   0.382   4.386
 3472SOL     OW11314   4.427   1.215   5.127
 3472SOL    HW111315   4.345   1.160   5.119
 3472SOL    HW211316   4.469   1.201   5.217
 3473SOL     OW11317   4.301   6.426   4.079
 3473SOL    HW111318   4.310   6.484   4.161
 3473SOL    HW211319   4.211   6.383   4.080
 3474SOL     OW11320   5.437   4.494   0.915
 3474SOL    HW111321   5.462   4.534   0.826
 3474SOL    HW211322   5.517   4.450   0.955
 3475SOL     OW11323   1.907   6.622   4.749
 3475SOL    HW111324   1.966   6.567   4.810
 3475SOL    HW211325   1.882   6.567   4.669
 3476SOL     OW11326   4.988   1.367   4.573
 3476SOL    HW111327   4.937   1.449   4.547
 3476SOL    HW211328   4.952   1.332   4.660
 3477SOL     OW11329   4.415   5.690   1.717
 3477SOL    HW111330   4.385   5.769   1.771
 3477SOL    HW211331   4.494   5.648   1.761
 3478SOL     OW11332   4.140   4.921   6.870
 3478SOL    HW111333   4.050   4.882   6.849
 3478SOL    HW211334   4.191   4.858   6.929
 3479SOL     OW11335   1.403   6.930   1.725
 3479SOL    HW111336   1.354   6.852   1.766
 3479SOL    HW211337   1.392   6.928   1.626
 3480SOL     OW11338   1.037   0.689   4.104
 3480SOL    HW111339   0.949   0.736   4.099
 3480SOL    HW211340   1.107   0.744   4.058
 3481SOL     OW11341   2.445   6.928   6.637
 3481SOL    HW111342   2.505   6.978   6.700
 3481SOL    HW211343   2.498   6.855   6.592
 3482SOL     OW11344   0.917   1.823   1.384
 3482SOL    HW111345   0.967   1.821   1.470
 3482SOL    HW211346   0.964   1.883   1.320
 3483SOL     OW11347   4.235   1.705   0.603
 3483SOL    HW111348   4.325   1.706   0.647
 3483SOL    HW211349   4.179   1.634   0.645
 3484SOL     OW11350   2.931   3.261   3.874
 3484SOL    HW111351   2.937   3.272   3.775
 3484SOL    HW211352   3.004   3.200   3.905
 3485SOL     OW11353   6.864   1.616   4.808
 3485SOL    HW111354   6.825   1.708   4.803
 3485SOL    HW211355   6.814   1.555   4.746
 3486SOL     OW11356   4.973   1.199   3.368
 3486SOL    HW111357   4.927   1.113   3.346
 3486SOL    HW211358   5.014   1.237   3.286
 3487SOL     OW11359   0.319   0.549   0.305
 3487SOL    HW111360   0.235   0.555   0.251
 3487SOL    HW211361   0.386   0.614   0.269
 3488SOL     OW11362   6.154   3.570   3.829
 3488SOL    HW111363   6.249   3.576   3.797
 3488SOL    HW211364   6.092   3.590   3.753
 3489SOL     OW11365   2.154   6.398   0.042
 3489SOL    HW111366   2.102   6.416   6.982
 3489SOL    HW211367   2.221   6.325   0.024
 3490SOL     OW11368   4.320   2.706   1.438
 3490SOL    HW111369   4.270   2.667   1.361
 3490SOL    HW211370   4.274   2.682   1.524
 3491SOL     OW11371   6.788   2.620   5.412
 3491SOL    HW111372   6.758   2.554   5.481
 3491SOL    HW211373   6.864   2.581   5.360
 3492SOL     OW11374   5.219   5.090   6.152
 3492SOL    HW111375   5.303   5.052   6.189
 3492SOL    HW211376   5.149   5.092   6.224
 3493SOL     OW11377   0.441   4.642   0.868
 3493SOL    HW111378   0.518   4.704   0.856
 3493SOL    HW211379   0.449   4.594   0.955
 3494SOL     OW11380   2.657   5.927   0.984
 3494SOL    HW111381   2.659   5.926   0.884
 3494SOL    HW211382   2.583   5.869   1.017
 3495SOL     OW11383   5.072   4.366   0.542
 3495SOL    HW111384   5.116   4.280   0.514
 3495SOL    HW211385   4.973   4.356   0.533
 3496SOL     OW11386   1.018   4.493   0.202
 3496SOL    HW111387   0.991   4.415   0.258
 3496SOL    HW211388   0.958   4.500   0.122
 3497SOL     OW11389   4.220   6.240   3.743
 3497SOL    HW111390   4.239   6.180   3.666
 3497SOL    HW211391   4.211   6.186   3.826
 3498SOL     OW11392   1.597   1.462   1.272
 3498SOL    HW111393   1.568   1.395   1.340
 3498SOL    HW211394   1.692   1.445   1.247
 3499SOL     OW11395   6.432   3.652   4.325
 3499SOL    HW111396   6.333   3.667   4.327
 3499SOL    HW211397   6.474   3.714   4.259
 3500SOL     OW11398   6.482   3.115   0.819
 3500SOL    HW111399   6.466   3.200   0.871
 3500SOL    HW211400   6.398   3.061   0.819
 3501SOL     OW11401   0.787   4.539   4.012
 3501SOL    HW111402   0.768   4.459   3.955
 3501SOL    HW211403   0.780   4.622   3.957
 3502SOL     OW11404   0.960   3.953   1.798
 3502SOL    HW111405   0.980   4.046   1.829
 3502SOL    HW211406   1.033   3.892   1.828
 3503SOL     OW11407   3.910   6.768   4.044
 3503SOL    HW111408   3.840   6.827   4.084
 3503SOL    HW211409   3.945   6.810   3.960
 3504SOL     OW11410   2.075   3.201   2.526
 3504SOL    HW111411   2.130   3.188   2.443
 3504SOL    HW211412   2.051   3.298   2.534
 3505SOL     OW11413   4.229   6.123   5.016
 3505SOL    HW111414   4.179   6.187   4.958
 3505SOL    HW211415   4.284   6.062   4.958
 3506SOL     OW11416   5.726   5.032   2.363
 3506SOL    HW111417   5.716   5.112   2.422
 3506SOL    HW211418   5.642   4.978   2.364
 3507SOL     OW11419   0.588   0.479   6.435
 3507SOL    HW111420   0.497   0.496   6.396
 3507SOL    HW211421   0.654   0.470   6.361
 3508SOL     OW11422   6.271   3.411   0.223
 3508SOL    HW111423   6.332   3.487   0.201
 3508SOL    HW211424   6.292   3.377   0.315
 3509SOL     OW11425   6.545   0.236   0.757
 3509SOL    HW111426   6.619   0.273   0.813
 3509SOL    HW211427   6.584   0.190   0.677
 3510SOL     OW11428   1.642   2.303   2.249
 3510SOL    HW111429   1.653   2.297   2.348
 3510SOL    HW211430   1.635   2.398   2.221
 3511SOL     OW11431   1.126   0.644   5.254
 3511SOL    HW111432   1.114   0.734   5.297
 3511SOL    HW211433   1.222   0.616   5.263
 3512SOL     OW11434   2.759   3.264   0.852
 3512SOL    HW111435   2.795   3.232   0.764
 3512SOL    HW211436   2.822   3.329   0.893
 3513SOL     OW11437   5.840   4.280   1.288
 3513SOL    HW111438   5.806   4.361   1.240
 3513SOL    HW211439   5.810   4.283   1.383
 3514SOL     OW11440   1.714   6.564   2.046
 3514SOL    HW111441   1.803   6.538   2.010
 3514SOL    HW211442   1.720   6.574   2.145
 3515SOL     OW11443   3.857   5.788   2.845
 3515SOL    HW111444   3.828   5.811   2.752
 3515SOL    HW211445   3.853   5.870   2.902
 3516SOL     OW11446   3.092   1.217   0.635
 3516SOL    HW111447   2.994   1.198   0.635
 3516SOL    HW211448   3.107   1.314   0.656
 3517SOL     OW11449   0.929   0.658   6.318
 3517SOL    HW111450   0.876   0.595   6.261
 3517SOL    HW211451   0.992   0.605   6.375
 3518SOL     OW11452   4.880   3.371   5.555
 3518SOL    HW111453   4.968   3.344   5.594
 3518SOL    HW211454   4.854   3.461   5.591
 3519SOL     OW11455   3.007   6.378   0.595
 3519SOL    HW111456   3.098   6.383   0.554
 3519SOL    HW211457   3.016   6.368   0.694
 3520SOL     OW11458   3.835   5.389   1.065
 3520SOL    HW111459   3.736   5.400   1.059
 3520SOL    HW211460   3.866   5.409   1.158
 3521SOL     OW11461   5.733   2.111   6.474
 3521SOL    HW111462   5.720   2.156   6.563
 3521SOL    HW211463   5.751   2.014   6.489
 3522SOL     OW11464   3.064   5.902   1.158
 3522SOL    HW111465   2.978   5.953   1.153
 3522SOL    HW211466   3.062   5.827   1.092
 3523SOL     OW11467   2.359   5.064   5.308
 3523SOL    HW111468   2.336   4.984   5.364
 3523SOL    HW211469   2.401   5.034   5.223
 3524SOL     OW11470   2.474   6.945   1.619
 3524SOL    HW111471   2.441   6.991   1.701
 3524SOL    HW211472   2.449   6.999   1.538
 3525SOL     OW11473   1.736   3.336   2.689
 3525SOL    HW111474   1.768   3.265   2.626
 3525SOL    HW211475   1.738   3.300   2.783
 3526SOL     OW11476   3.289   0.207   3.296
 3526SOL    HW111477   3.222   0.281   3.304
 3526SOL    HW211478   3.365   0.223   3.360
 3527SOL     OW11479   5.176   3.198   5.950
 3527SOL    HW111480   5.221   3.189   6.039
 3527SOL    HW211481   5.223   3.142   5.882
 3528SOL     OW11482   1.185   6.962   4.163
 3528SOL    HW111483   1.100   7.006   4.133
 3528SOL    HW211484   1.167   6.907   4.245
 3529SOL     OW11485   3.783   6.006   6.842
 3529SOL    HW111486   3.740   5.923   6.875
 3529SOL    HW211487   3.794   6.002   6.743
 3530SOL     OW11488   1.496   6.028   2.902
 3530SOL    HW111489   1.410   6.076   2.914
 3530SOL    HW211490   1.478   5.931   2.884
 3531SOL     OW11491   5.022   4.004   6.639
 3531SOL    HW111492   5.111   4.051   6.645
 3531SOL    HW211493   5.024   3.921   6.695
 3532SOL     OW11494   1.881   6.718   0.124
 3532SOL    HW111495   1.910   6.789   0.060
 3532SOL    HW211496   1.782   6.704   0.115
 3533SOL     OW11497   1.162   1.210   3.948
 3533SOL    HW111498   1.142   1.151   4.026
 3533SOL    HW211499   1.077   1.233   3.901
 3534SOL     OW11500   4.943   0.558   5.056
 3534SOL    HW111501   4.975   0.464   5.067
 3534SOL    HW211502   4.924   0.597   5.146
 3535SOL     OW11503   4.191   5.931   6.765
 3535SOL    HW111504   4.127   5.942   6.841
 3535SOL    HW211505   4.170   5.997   6.694
 3536SOL     OW11506   1.133   4.055   2.886
 3536SOL    HW111507   1.163   4.087   2.976
 3536SOL    HW211508   1.162   4.119   2.816
 3537SOL     OW11509   2.445   4.733   1.077
 3537SOL    HW111510   2.392   4.787   1.142
 3537SOL    HW211511   2.387   4.661   1.038
 3538SOL     OW11512   3.093   1.486   3.964
 3538SOL    HW111513   3.030   1.560   3.987
 3538SOL    HW211514   3.187   1.518   3.973
 3539SOL     OW11515   5.291   6.125   6.596
 3539SOL    HW111516   5.258   6.060   6.665
 3539SOL    HW211517   5.381   6.096   6.564
 3540SOL     OW11518   2.982   4.350   5.926
 3540SOL    HW111519   2.893   4.365   5.967
 3540SOL    HW211520   2.989   4.256   5.893
 3541SOL     OW11521   1.954   2.976   1.473
 3541SOL    HW111522   1.937   3.025   1.559
 3541SOL    HW211523   2.021   2.903   1.489
 3542SOL     OW11524   5.767   1.047   0.016
 3542SOL    HW111525   5.859   1.085   0.027
 3542SOL    HW211526   5.745   1.040   6.942
 3543SOL     OW11527   0.942   2.344   4.091
 3543SOL    HW111528   0.920   2.252   4.058
 3543SOL    HW211529   0.987   2.338   4.180
 3544SOL     OW11530   3.057   4.120   0.081
 3544SOL    HW111531   3.022   4.028   0.063
 3544SOL    HW211532   3.080   4.165   7.019
 3545SOL     OW11533   4.048   0.273   1.087
 3545SOL    HW111534   4.142   0.290   1.058
 3545SOL    HW211535   4.047   0.209   1.163
 3546SOL     OW11536   6.211   4.221   2.359
 3546SOL    HW111537   6.230   4.141   2.416
 3546SOL    HW211538   6.285   4.287   2.367
 3547SOL     OW11539   1.412   4.001   4.597
 3547SOL    HW111540   1.385   3.915   4.641
 3547SOL    HW211541   1.337   4.066   4.604
 3548SOL     OW11542   5.325   0.509   5.746
 3548SOL    HW111543   5.342   0.458   5.662
 3548SOL    HW211544   5.412   0.532   5.789
 3549SOL     OW11545   2.634   6.743   6.937
 3549SOL    HW111546   2.546   6.747   6.984
 3549SOL    HW211547   2.708   6.754   7.003
 3550SOL     OW11548   5.095   1.184   5.100
 3550SOL    HW111549   5.083   1.099   5.150
 3550SOL    HW211550   5.017   1.244   5.116
 3551SOL     OW11551   4.810   2.330   4.407
 3551SOL    HW111552   4.806   2.407   4.343
 3551SOL    HW211553   4.794   2.245   4.356
 3552SOL     OW11554   5.818   6.944   3.510
 3552SOL    HW111555   5.807   7.020   3.446
 3552SOL    HW211556   5.912   6.909   3.505
 3553SOL     OW11557   6.012   5.674   6.670
 3553SOL    HW111558   6.093   5.647   6.721
 3553SOL    HW211559   5.980   5.596   6.616
 3554SOL     OW11560   5.615   4.071   6.935
 3554SOL    HW111561   5.557   3.991   6.949
 3554SOL    HW211562   5.616   4.095   6.838
 3555SOL     OW11563   2.951   1.860   5.311
 3555SOL    HW111564   2.968   1.857   5.213
 3555SOL    HW211565   3.009   1.793   5.357
 3556SOL     OW11566   5.560   0.850   0.380
 3556SOL    HW111567   5.511   0.931   0.347
 3556SOL    HW211568   5.621   0.816   0.308
 3557SOL     OW11569   5.804   0.435   1.314
 3557SOL    HW111570   5.801   0.530   1.285
 3557SOL    HW211571   5.889   0.418   1.363
 3558SOL     OW11572   3.943   5.379   2.732
 3558SOL    HW111573   4.030   5.340   2.701
 3558SOL    HW211574   3.869   5.312   2.717
 3559SOL     OW11575   4.579   0.008   6.440
 3559SOL    HW111576   4.512   0.071   6.479
 3559SOL    HW211577   4.531   6.964   6.384
 3560SOL     OW11578   1.638   5.532   4.113
 3560SOL    HW111579   1.538   5.522   4.120
 3560SOL    HW211580   1.673   5.574   4.197
 3561SOL     OW11581   4.374   3.553   5.310
 3561SOL    HW111582   4.392   3.570   5.407
 3561SOL    HW211583   4.460   3.552   5.259
 3562SOL     OW11584   2.481   1.706   0.038
 3562SOL    HW111585   2.513   1.684   6.970
 3562SOL    HW211586   2.384   1.728   0.035
 3563SOL     OW11587   6.337   2.583   6.105
 3563SOL    HW111588   6.267   2.511   6.103
 3563SOL    HW211589   6.426   2.543   6.086
 3564SOL     OW11590   6.177   3.616   2.187
 3564SOL    HW111591   6.147   3.711   2.175
 3564SOL    HW211592   6.116   3.556   2.136
 3565SOL     OW11593   4.125   5.922   4.695
 3565SOL    HW111594   4.172   6.003   4.660
 3565SOL    HW211595   4.026   5.935   4.687
 3566SOL     OW11596   0.882   6.999   4.738
 3566SOL    HW111597   0.888   6.899   4.737
 3566SOL    HW211598   0.894   0.008   4.831
 3567SOL     OW11599   0.156   2.860   6.339
 3567SOL    HW111600   0.059   2.861   6.316
 3567SOL    HW211601   0.185   2.951   6.368
 3568SOL     OW11602   5.665   3.897   6.131
 3568SOL    HW111603   5.627   3.927   6.044
 3568SOL    HW211604   5.657   3.797   6.139
 3569SOL     OW11605   1.196   0.418   4.030
 3569SOL    HW111606   1.254   0.498   4.016
 3569SOL    HW211607   1.253   0.337   4.041
 3570SOL     OW11608   5.384   1.731   3.630
 3570SOL    HW111609   5.470   1.695   3.594
 3570SOL    HW211610   5.313   1.662   3.623
 3571SOL     OW11611   6.409   6.947   5.358
 3571SOL    HW111612   6.360   6.911   5.279
 3571SOL    HW211613   6.480   6.883   5.386
 3572SOL     OW11614   6.358   5.880   4.779
 3572SOL    HW111615   6.409   5.883   4.693
 3572SOL    HW211616   6.262   5.902   4.762
 3573SOL     OW11617   1.186   2.055   2.316
 3573SOL    HW111618   1.132   2.120   2.262
 3573SOL    HW211619   1.148   1.963   2.304
 3574SOL     OW11620   6.379   3.693   6.917
 3574SOL    HW111621   6.370   3.597   6.944
 3574SOL    HW211622   6.313   3.748   6.968
 3575SOL     OW11623   6.304   6.087   1.802
 3575SOL    HW111624   6.274   6.160   1.862
 3575SOL    HW211625   6.227   6.027   1.780
 3576SOL     OW11626   0.659   1.569   6.478
 3576SOL    HW111627   0.650   1.474   6.450
 3576SOL    HW211628   0.585   1.623   6.436
 3577SOL     OW11629   1.651   2.880   6.983
 3577SOL    HW111630   1.638   2.964   0.012
 3577SOL    HW211631   1.745   2.874   6.951
 3578SOL     OW11632   3.591   4.923   1.263
 3578SOL    HW111633   3.551   4.983   1.333
 3578SOL    HW211634   3.565   4.955   1.172
 3579SOL     OW11635   0.616   4.358   5.293
 3579SOL    HW111636   0.673   4.398   5.221
 3579SOL    HW211637   0.674   4.317   5.363
 3580SOL     OW11638   6.790   2.067   1.830
 3580SOL    HW111639   6.797   2.044   1.927
 3580SOL    HW211640   6.874   2.040   1.783
 3581SOL     OW11641   6.053   0.641   3.531
 3581SOL    HW111642   5.970   0.662   3.583
 3581SOL    HW211643   6.133   0.653   3.590
 3582SOL     OW11644   0.118   0.653   5.809
 3582SOL    HW111645   0.128   0.740   5.760
 3582SOL    HW211646   0.140   0.667   5.906
 3583SOL     OW11647   2.155   5.418   0.703
 3583SOL    HW111648   2.112   5.367   0.628
 3583SOL    HW211649   2.222   5.481   0.665
 3584SOL     OW11650   5.284   6.901   5.759
 3584SOL    HW111651   5.304   6.978   5.699
 3584SOL    HW211652   5.248   6.825   5.705
 3585SOL     OW11653   2.535   4.797   3.856
 3585SOL    HW111654   2.588   4.739   3.917
 3585SOL    HW211655   2.536   4.892   3.890
 3586SOL     OW11656   6.765   1.799   6.032
 3586SOL    HW111657   6.748   1.737   6.109
 3586SOL    HW211658   6.681   1.848   6.009
 3587SOL     OW11659   3.755   0.126   6.394
 3587SOL    HW111660   3.778   0.148   6.299
 3587SOL    HW211661   3.694   0.195   6.431
 3588SOL     OW11662   2.083   1.232   5.317
 3588SOL    HW111663   2.108   1.238   5.220
 3588SOL    HW211664   2.166   1.224   5.372
 3589SOL     OW11665   3.036   0.531   5.255
 3589SOL    HW111666   3.043   0.442   5.301
 3589SOL    HW211667   2.985   0.595   5.313
 3590SOL     OW11668   1.958   4.817   6.791
 3590SOL    HW111669   1.896   4.856   6.723
 3590SOL    HW211670   2.019   4.888   6.826
 3591SOL     OW11671   5.074   2.149   5.978
 3591SOL    HW111672   5.085   2.062   6.025
 3591SOL    HW211673   5.152   2.208   5.998
 3592SOL     OW11674   4.700   2.845   1.733
 3592SOL    HW111675   4.777   2.795   1.773
 3592SOL    HW211676   4.684   2.928   1.786
 3593SOL     OW11677   1.308   4.765   3.331
 3593SOL    HW111678   1.391   4.820   3.340
 3593SOL    HW211679   1.292   4.744   3.234
 3594SOL     OW11680   3.180   0.978   4.230
 3594SOL    HW111681   3.229   1.049   4.279
 3594SOL    HW211682   3.244   0.923   4.176
 3595SOL     OW11683   2.571   6.143   5.306
 3595SOL    HW111684   2.611   6.232   5.284
 3595SOL    HW211685   2.549   6.094   5.222
 3596SOL     OW11686   6.946   3.095   3.395
 3596SOL    HW111687   7.001   3.160   3.447
 3596SOL    HW211688   6.870   3.063   3.453
 3597SOL     OW11689   3.873   6.100   2.897
 3597SOL    HW111690   3.801   6.118   2.830
 3597SOL    HW211691   3.832   6.083   2.987
 3598SOL     OW11692   1.171   0.262   0.337
 3598SOL    HW111693   1.181   0.175   0.288
 3598SOL    HW211694   1.261   0.299   0.359
 3599SOL     OW11695   0.303   1.814   4.216
 3599SOL    HW111696   0.228   1.780   4.273
 3599SOL    HW211697   0.283   1.797   4.120
 3600SOL     OW11698   6.083   0.899   1.007
 3600SOL    HW111699   6.012   0.839   0.969
 3600SOL    HW211700   6.167   0.886   0.956
 3601SOL     OW11701   6.225   3.729   5.398
 3601SOL    HW111702   6.179   3.791   5.461
 3601SOL    HW211703   6.319   3.715   5.428
 3602SOL     OW11704   1.924   1.919   0.366
 3602SOL    HW111705   1.856   1.900   0.296
 3602SOL    HW211706   1.959   2.012   0.354
 3603SOL     OW11707   4.164   4.812   4.726
 3603SOL    HW111708   4.223   4.892   4.722
 3603SOL    HW211709   4.197   4.749   4.796
 3604SOL     OW11710   0.519   3.379   3.167
 3604SOL    HW111711   0.543   3.386   3.070
 3604SOL    HW211712   0.603   3.382   3.222
 3605SOL     OW11713   6.219   3.414   6.465
 3605SOL    HW111714   6.301   3.471   6.471
 3605SOL    HW211715   6.213   3.355   6.545
 3606SOL     OW11716   1.173   4.172   4.894
 3606SOL    HW111717   1.114   4.187   4.972
 3606SOL    HW211718   1.140   4.225   4.816
 3607SOL     OW11719   4.522   6.756   0.009
 3607SOL    HW111720   4.443   6.814   0.028
 3607SOL    HW211721   4.519   6.675   0.067
 3608SOL     OW11722   1.006   2.446   2.632
 3608SOL    HW111723   1.025   2.361   2.680
 3608SOL    HW211724   1.017   2.431   2.533
 3609SOL     OW11725   6.554   0.067   4.649
 3609SOL    HW111726   6.627   0.002   4.672
 3609SOL    HW211727   6.524   0.052   4.555
 3610SOL     OW11728   1.473   5.874   5.037
 3610SOL    HW111729   1.440   5.968   5.024
 3610SOL    HW211730   1.563   5.864   4.995
 3611SOL     OW11731   3.802   5.254   4.766
 3611SOL    HW111732   3.859   5.310   4.706
 3611SOL    HW211733   3.710   5.293   4.769
 3612SOL     OW11734   1.781   6.911   1.583
 3612SOL    HW111735   1.866   6.860   1.598
 3612SOL    HW211736   1.704   6.848   1.574
 3613SOL     OW11737   4.977   5.486   0.087
 3613SOL    HW111738   4.929   5.566   0.125
 3613SOL    HW211739   4.996   5.502   7.015
 3614SOL     OW11740   3.666   2.944   3.483
 3614SOL    HW111741   3.603   2.940   3.560
 3614SOL    HW211742   3.622   2.905   3.402
 3615SOL     OW11743   6.816   6.551   6.404
 3615SOL    HW111744   6.741   6.608   6.439
 3615SOL    HW211745   6.903   6.597   6.421
 3616SOL     OW11746   6.710   1.170   4.471
 3616SOL    HW111747   6.614   1.146   4.489
 3616SOL    HW211748   6.757   1.187   4.557
 3617SOL     OW11749   6.595   0.557   6.842
 3617SOL    HW111750   6.660   0.630   6.824
 3617SOL    HW211751   6.509   0.577   6.795
 3618SOL     OW11752   2.644   1.237   5.996
 3618SOL    HW111753   2.719   1.193   6.045
 3618SOL    HW211754   2.580   1.278   6.062
 3619SOL     OW11755   5.743   2.593   3.941
 3619SOL    HW111756   5.670   2.612   4.008
 3619SOL    HW211757   5.704   2.593   3.849
 3620SOL     OW11758   6.136   1.088   4.202
 3620SOL    HW111759   6.111   1.176   4.243
 3620SOL    HW211760   6.167   1.026   4.274
 3621SOL     OW11761   1.956   3.754   5.704
 3621SOL    HW111762   1.976   3.677   5.764
 3621SOL    HW211763   2.042   3.795   5.673
 3622SOL     OW11764   0.569   2.405   1.224
 3622SOL    HW111765   0.596   2.466   1.298
 3622SOL    HW211766   0.503   2.338   1.258
 3623SOL     OW11767   6.763   5.279   4.300
 3623SOL    HW111768   6.835   5.336   4.261
 3623SOL    HW211769   6.700   5.251   4.228
 3624SOL     OW11770   2.587   0.322   1.637
 3624SOL    HW111771   2.679   0.353   1.663
 3624SOL    HW211772   2.568   0.348   1.543
 3625SOL     OW11773   7.002   3.312   4.733
 3625SOL    HW111774   0.066   3.264   4.731
 3625SOL    HW211775   7.007   3.389   4.797
 3626SOL     OW11776   2.612   3.953   5.321
 3626SOL    HW111777   2.526   3.958   5.270
 3626SOL    HW211778   2.686   3.992   5.266
 3627SOL     OW11779   2.999   3.855   4.061
 3627SOL    HW111780   3.024   3.856   4.158
 3627SOL    HW211781   2.907   3.894   4.050
 3628SOL     OW11782   3.415   5.134   2.853
 3628SOL    HW111783   3.456   5.077   2.925
 3628SOL    HW211784   3.349   5.080   2.801
 3629SOL     OW11785   6.162   2.508   5.292
 3629SOL    HW111786   6.107   2.582   5.329
 3629SOL    HW211787   6.218   2.542   5.217
 3630SOL     OW11788   6.291   1.934   4.117
 3630SOL    HW111789   6.203   1.951   4.074
 3630SOL    HW211790   6.343   2.020   4.121
 3631SOL     OW11791   2.281   1.172   4.277
 3631SOL    HW111792   2.240   1.081   4.270
 3631SOL    HW211793   2.375   1.169   4.242
 3632SOL     OW11794   4.186   0.545   6.707
 3632SOL    HW111795   4.222   0.599   6.631
 3632SOL    HW211796   4.176   0.603   6.788
 3633SOL     OW11797   2.334   3.021   6.134
 3633SOL    HW111798   2.255   3.076   6.107
 3633SOL    HW211799   2.416   3.058   6.091
 3634SOL     OW11800   2.162   5.794   4.892
 3634SOL    HW111801   2.134   5.729   4.963
 3634SOL    HW211802   2.106   5.780   4.810
 3635SOL     OW11803   2.636   1.445   5.378
 3635SOL    HW111804   2.560   1.434   5.314
 3635SOL    HW211805   2.708   1.499   5.336
 3636SOL     OW11806   1.053   5.902   5.920
 3636SOL    HW111807   1.074   5.834   5.850
 3636SOL    HW211808   0.998   5.860   5.992
 3637SOL     OW11809   5.655   1.474   2.029
 3637SOL    HW111810   5.574   1.479   2.087
 3637SOL    HW211811   5.721   1.410   2.070
 3638SOL     OW11812   6.807   4.913   4.128
 3638SOL    HW111813   6.809   5.009   4.102
 3638SOL    HW211814   6.715   4.889   4.159
 3639SOL     OW11815   2.177   4.981   6.874
 3639SOL    HW111816   2.118   4.966   6.953
 3639SOL    HW211817   2.210   5.076   6.875
 3640SOL     OW11818   3.541   5.897   0.808
 3640SOL    HW111819   3.634   5.918   0.841
 3640SOL    HW211820   3.541   5.893   0.708
 3641SOL     OW11821   2.226   0.805   5.211
 3641SOL    HW111822   2.195   0.789   5.117
 3641SOL    HW211823   2.154   0.849   5.263
 3642SOL     OW11824   5.455   6.902   3.923
 3642SOL    HW111825   5.429   6.826   3.863
 3642SOL    HW211826   5.517   6.868   3.994
 3643SOL     OW11827   2.740   4.867   4.847
 3643SOL    HW111828   2.805   4.819   4.905
 3643SOL    HW211829   2.652   4.820   4.850
 3644SOL     OW11830   6.935   1.189   0.672
 3644SOL    HW111831   6.910   1.201   0.577
 3644SOL    HW211832   7.006   1.119   0.679
 3645SOL     OW11833   3.179   0.759   3.069
 3645SOL    HW111834   3.178   0.738   2.971
 3645SOL    HW211835   3.139   0.682   3.119
 3646SOL     OW11836   0.082   4.931   5.430
 3646SOL    HW111837   7.015   4.913   5.468
 3646SOL    HW211838   0.147   4.865   5.467
 3647SOL     OW11839   2.562   3.050   0.888
 3647SOL    HW111840   2.652   3.081   0.915
 3647SOL    HW211841   2.558   3.042   0.788
 3648SOL     OW11842   3.028   6.097   2.630
 3648SOL    HW111843   3.113   6.076   2.582
 3648SOL    HW211844   3.024   6.044   2.715
 3649SOL     OW11845   3.299   3.502   1.293
 3649SOL    HW111846   3.382   3.515   1.239
 3649SOL    HW211847   3.317   3.434   1.365
 3650SOL     OW11848   0.202   6.995   1.386
 3650SOL    HW111849   0.238   0.061   1.413
 3650SOL    HW211850   0.216   6.982   1.288
 3651SOL     OW11851   1.755   5.744   2.623
 3651SOL    HW111852   1.834   5.690   2.596
 3651SOL    HW211853   1.774   5.790   2.710
 3652SOL     OW11854   4.768   5.411   3.160
 3652SOL    HW111855   4.839   5.471   3.196
 3652SOL    HW211856   4.683   5.464   3.148
 3653SOL     OW11857   6.744   2.654   3.509
 3653SOL    HW111858   6.733   2.556   3.526
 3653SOL    HW211859   6.742   2.703   3.596
 3654SOL     OW11860   1.806   6.630   1.451
 3654SOL    HW111861   1.864   6.568   1.399
 3654SOL    HW211862   1.718   6.586   1.469
 3655SOL     OW11863   1.494   0.578   4.320
 3655SOL    HW111864   1.457   0.669   4.302
 3655SOL    HW211865   1.551   0.582   4.403
 3656SOL     OW11866   2.288   2.841   1.823
 3656SOL    HW111867   2.253   2.896   1.747
 3656SOL    HW211868   2.261   2.746   1.811
 3657SOL     OW11869   3.817   6.153   1.554
 3657SOL    HW111870   3.824   6.219   1.630
 3657SOL    HW211871   3.878   6.181   1.480
 3658SOL     OW11872   1.812   6.014   5.952
 3658SOL    HW111873   1.761   6.001   6.037
 3658SOL    HW211874   1.752   6.052   5.883
 3659SOL     OW11875   2.617   4.613   0.067
 3659SOL    HW111876   2.600   4.711   0.057
 3659SOL    HW211877   2.636   4.573   7.002
 3660SOL     OW11878   4.922   5.459   1.611
 3660SOL    HW111879   4.966   5.372   1.633
 3660SOL    HW211880   4.822   5.447   1.615
 3661SOL     OW11881   4.359   0.836   0.522
 3661SOL    HW111882   4.373   0.873   0.614
 3661SOL    HW211883   4.287   0.766   0.525
 3662SOL     OW11884   3.013   0.291   5.397
 3662SOL    HW111885   2.970   0.352   5.464
 3662SOL    HW211886   3.105   0.266   5.429
 3663SOL     OW11887   1.393   2.637   6.895
 3663SOL    HW111888   1.392   2.636   6.995
 3663SOL    HW211889   1.341   2.558   6.861
 3664SOL     OW11890   5.076   0.983   0.904
 3664SOL    HW111891   4.997   0.977   0.843
 3664SOL    HW211892   5.058   1.052   0.975
 3665SOL     OW11893   1.005   0.007   5.506
 3665SOL    HW111894   0.908   0.021   5.527
 3665SOL    HW211895   1.050   0.095   5.494
 3666SOL     OW11896   1.397   5.100   4.057
 3666SOL    HW111897   1.481   5.085   4.109
 3666SOL    HW211898   1.412   5.172   3.990
 3667SOL     OW11899   6.592   1.265   6.379
 3667SOL    HW111900   6.647   1.335   6.424
 3667SOL    HW211901   6.649   1.217   6.312
 3668SOL     OW11902   1.190   6.078   2.206
 3668SOL    HW111903   1.253   6.155   2.193
 3668SOL    HW211904   1.240   5.998   2.237
 3669SOL     OW11905   6.508   2.908   3.017
 3669SOL    HW111906   6.575   2.920   3.090
 3669SOL    HW211907   6.473   2.996   2.988
 3670SOL     OW11908   2.001   5.998   5.759
 3670SOL    HW111909   1.924   5.985   5.822
 3670SOL    HW211910   1.999   5.925   5.690
 3671SOL     OW11911   0.904   0.364   2.859
 3671SOL    HW111912   0.990   0.338   2.816
 3671SOL    HW211913   0.920   0.436   2.927
 3672SOL     OW11914   6.837   0.949   0.861
 3672SOL    HW111915   6.811   0.981   0.769
 3672SOL    HW211916   6.929   0.910   0.858
 3673SOL     OW11917   5.054   0.458   6.917
 3673SOL    HW111918   5.104   0.509   6.847
 3673SOL    HW211919   4.990   0.395   6.873
 3674SOL     OW11920   1.382   6.316   0.998
 3674SOL    HW111921   1.316   6.253   0.959
 3674SOL    HW211922   1.335   6.400   1.027
 3675SOL     OW11923   1.842   2.459   4.917
 3675SOL    HW111924   1.849   2.427   5.012
 3675SOL    HW211925   1.899   2.541   4.905
 3676SOL     OW11926   2.631   5.858   3.403
 3676SOL    HW111927   2.537   5.882   3.426
 3676SOL    HW211928   2.637   5.759   3.388
 3677SOL     OW11929   6.295   6.903   4.239
 3677SOL    HW111930   6.340   6.819   4.210
 3677SOL    HW211931   6.283   6.902   4.338
 3678SOL     OW11932   0.992   1.851   3.481
 3678SOL    HW111933   1.046   1.840   3.398
 3678SOL    HW211934   0.947   1.940   3.480
 3679SOL     OW11935   0.394   0.906   2.096
 3679SOL    HW111936   0.394   1.005   2.080
 3679SOL    HW211937   0.402   0.858   2.009
 3680SOL     OW11938   6.669   3.320   4.113
 3680SOL    HW111939   6.574   3.351   4.107
 3680SOL    HW211940   6.721   3.354   4.035
 3681SOL     OW11941   6.754   6.254   5.838
 3681SOL    HW111942   6.664   6.249   5.794
 3681SOL    HW211943   6.824   6.272   5.770
 3682SOL     OW11944   6.937   2.056   6.245
 3682SOL    HW111945   6.841   2.027   6.237
 3682SOL    HW211946   6.984   1.999   6.311
 3683SOL     OW11947   5.731   6.873   4.613
 3683SOL    HW111948   5.762   6.968   4.609
 3683SOL    HW211949   5.754   6.834   4.701
 3684SOL     OW11950   1.327   3.447   1.028
 3684SOL    HW111951   1.366   3.520   0.972
 3684SOL    HW211952   1.312   3.366   0.972
 3685SOL     OW11953   6.538   6.384   6.137
 3685SOL    HW111954   6.543   6.342   6.228
 3685SOL    HW211955   6.444   6.413   6.120
 3686SOL     OW11956   5.884   4.623   1.682
 3686SOL    HW111957   5.980   4.603   1.664
 3686SOL    HW211958   5.846   4.676   1.607
 3687SOL     OW11959   3.371   0.940   0.347
 3687SOL    HW111960   3.297   1.006   0.335
 3687SOL    HW211961   3.371   0.907   0.442
 3688SOL     OW11962   1.412   3.472   0.193
 3688SOL    HW111963   1.346   3.542   0.167
 3688SOL    HW211964   1.481   3.462   0.122
 3689SOL     OW11965   2.032   0.594   3.766
 3689SOL    HW111966   2.055   0.576   3.861
 3689SOL    HW211967   1.933   0.596   3.754
 3690SOL     OW11968   6.095   0.203   5.659
 3690SOL    HW111969   6.123   0.268   5.730
 3690SOL    HW211970   6.099   0.247   5.570
 3691SOL     OW11971   3.095   2.894   6.902
 3691SOL    HW111972   3.114   2.965   6.834
 3691SOL    HW211973   3.149   2.813   6.882
 3692SOL     OW11974   1.598   6.796   5.424
 3692SOL    HW111975   1.507   6.792   5.384
 3692SOL    HW211976   1.666   6.802   5.351
 3693SOL     OW11977   2.952   2.204   3.163
 3693SOL    HW111978   2.903   2.206   3.076
 3693SOL    HW211979   2.903   2.260   3.230
 3694SOL     OW11980   1.960   5.964   3.235
 3694SOL    HW111981   2.011   6.049   3.224
 3694SOL    HW211982   1.960   5.936   3.331
 3695SOL     OW11983   1.871   2.027   1.827
 3695SOL    HW111984   1.833   1.941   1.861
 3695SOL    HW211985   1.953   2.049   1.879
 3696SOL     OW11986   4.034   0.015   6.311
 3696SOL    HW111987   4.054   0.112   6.324
 3696SOL    HW211988   3.958   7.012   6.369
 3697SOL     OW11989   6.511   0.701   4.174
 3697SOL    HW111990   6.539   0.619   4.224
 3697SOL    HW211991   6.577   0.720   4.101
 3698SOL     OW11992   2.891   0.738   5.895
 3698SOL    HW111993   2.937   0.762   5.981
 3698SOL    HW211994   2.862   0.821   5.848
 3699SOL     OW11995   0.449   4.179   2.833
 3699SOL    HW111996   0.427   4.206   2.739
 3699SOL    HW211997   0.363   4.168   2.884
 3700SOL     OW11998   0.335   0.047   4.138
 3700SOL    HW111999   0.368   0.138   4.112
 3700SOL    HW212000   0.282   0.009   4.063
 3701SOL     OW12001   6.377   0.906   4.364
 3701SOL    HW112002   6.288   0.862   4.355
 3701SOL    HW212003   6.449   0.837   4.359
 3702SOL     OW12004   3.174   1.354   0.084
 3702SOL    HW112005   3.253   1.292   0.091
 3702SOL    HW212006   3.130   1.361   0.173
 3703SOL     OW12007   4.363   4.348   6.398
 3703SOL    HW112008   4.409   4.294   6.468
 3703SOL    HW212009   4.370   4.445   6.421
 3704SOL     OW12010   2.387   6.881   2.683
 3704SOL    HW112011   2.410   6.978   2.687
 3704SOL    HW212012   2.470   6.828   2.665
 3705SOL     OW12013   5.483   0.807   3.725
 3705SOL    HW112014   5.531   0.722   3.702
 3705SOL    HW212015   5.548   0.881   3.738
 3706SOL     OW12016   2.081   2.633   3.676
 3706SOL    HW112017   1.993   2.598   3.709
 3706SOL    HW212018   2.070   2.669   3.583
 3707SOL     OW12019   4.285   2.768   5.341
 3707SOL    HW112020   4.369   2.717   5.325
 3707SOL    HW212021   4.211   2.729   5.285
 3708SOL     OW12022   5.465   0.336   6.451
 3708SOL    HW112023   5.463   0.245   6.409
 3708SOL    HW212024   5.378   0.382   6.435
 3709SOL     OW12025   3.731   0.588   6.551
 3709SOL    HW112026   3.807   0.653   6.550
 3709SOL    HW212027   3.667   0.611   6.478
 3710SOL     OW12028   0.063   4.703   0.560
 3710SOL    HW112029   0.086   4.798   0.578
 3710SOL    HW212030   0.137   4.659   0.509
 3711SOL     OW12031   6.600   5.118   2.657
 3711SOL    HW112032   6.560   5.027   2.665
 3711SOL    HW212033   6.537   5.178   2.609
 3712SOL     OW12034   1.740   6.952   0.414
 3712SOL    HW112035   1.698   6.982   0.500
 3712SOL    HW212036   1.826   6.905   0.434
 3713SOL     OW12037   3.481   6.026   5.678
 3713SOL    HW112038   3.574   6.037   5.713
 3713SOL    HW212039   3.464   6.093   5.606
 3714SOL     OW12040   3.566   0.530   4.762
 3714SOL    HW112041   3.578   0.628   4.777
 3714SOL    HW212042   3.529   0.488   4.845
 3715SOL     OW12043   5.163   4.131   4.924
 3715SOL    HW112044   5.105   4.080   4.987
 3715SOL    HW212045   5.206   4.207   4.973
 3716SOL     OW12046   0.178   0.560   4.305
 3716SOL    HW112047   0.206   0.656   4.308
 3716SOL    HW212048   0.206   0.519   4.218
 3717SOL     OW12049   6.173   6.705   1.034
 3717SOL    HW112050   6.208   6.652   1.112
 3717SOL    HW212051   6.086   6.748   1.059
 3718SOL     OW12052   1.141   5.234   0.177
 3718SOL    HW112053   1.167   5.169   0.248
 3718SOL    HW212054   1.187   5.211   0.092
 3719SOL     OW12055   3.469   4.947   5.665
 3719SOL    HW112056   3.407   4.961   5.587
 3719SOL    HW212057   3.555   4.994   5.647
 3720SOL     OW12058   6.085   1.663   6.022
 3720SOL    HW112059   6.103   1.720   5.942
 3720SOL    HW212060   6.013   1.704   6.078
 3721SOL     OW12061   4.960   4.208   0.348
 3721SOL    HW112062   5.057   4.188   0.360
 3721SOL    HW212063   4.917   4.135   0.295
 3722SOL     OW12064   6.531   6.041   2.423
 3722SOL    HW112065   6.507   6.063   2.518
 3722SOL    HW212066   6.614   6.090   2.397
 3723SOL     OW12067   4.807   0.372   0.902
 3723SOL    HW112068   4.772   0.465   0.896
 3723SOL    HW212069   4.895   0.366   0.855
 3724SOL     OW12070   1.411   5.759   6.462
 3724SOL    HW112071   1.337   5.826   6.458
 3724SOL    HW212072   1.439   5.735   6.369
 3725SOL     OW12073   0.418   6.167   6.605
 3725SOL    HW112074   0.367   6.106   6.545
 3725SOL    HW212075   0.355   6.221   6.661
 3726SOL     OW12076   5.363   4.028   1.492
 3726SOL    HW112077   5.318   3.952   1.447
 3726SOL    HW212078   5.308   4.111   1.482
 3727SOL     OW12079   2.218   3.784   5.574
 3727SOL    HW112080   2.248   3.871   5.612
 3727SOL    HW212081   2.279   3.712   5.604
 3728SOL     OW12082   1.547   3.181   6.519
 3728SOL    HW112083   1.507   3.091   6.499
 3728SOL    HW212084   1.490   3.229   6.585
 3729SOL     OW12085   0.545   1.974   3.525
 3729SOL    HW112086   0.450   1.941   3.530
 3729SOL    HW212087   0.548   2.062   3.478
 3730SOL     OW12088   3.117   1.021   0.430
 3730SOL    HW112089   3.086   0.951   0.494
 3730SOL    HW212090   3.134   1.107   0.480
 3731SOL     OW12091   4.018   6.708   0.098
 3731SOL    HW112092   4.002   6.771   0.175
 3731SOL    HW212093   4.015   6.759   0.012
 3732SOL     OW12094   2.249   3.797   5.267
 3732SOL    HW112095   2.280   3.797   5.361
 3732SOL    HW212096   2.287   3.876   5.219
 3733SOL     OW12097   2.760   3.725   1.292
 3733SOL    HW112098   2.721   3.648   1.343
 3733SOL    HW212099   2.688   3.789   1.267
 3734SOL     OW12100   5.284   0.834   2.442
 3734SOL    HW112101   5.258   0.752   2.391
 3734SOL    HW212102   5.250   0.915   2.395
 3735SOL     OW12103   3.304   1.935   2.383
 3735SOL    HW112104   3.230   1.999   2.404
 3735SOL    HW212105   3.361   1.974   2.311
 3736SOL     OW12106   5.879   2.290   0.519
 3736SOL    HW112107   5.888   2.287   0.419
 3736SOL    HW212108   5.829   2.209   0.550
 3737SOL     OW12109   4.813   6.293   3.357
 3737SOL    HW112110   4.813   6.387   3.322
 3737SOL    HW212111   4.908   6.261   3.365
 3738SOL     OW12112   0.299   0.130   3.763
 3738SOL    HW112113   0.274   0.115   3.667
 3738SOL    HW212114   0.257   0.058   3.819
 3739SOL     OW12115   0.674   4.434   2.359
 3739SOL    HW112116   0.624   4.364   2.307
 3739SOL    HW212117   0.772   4.420   2.346
 3740SOL     OW12118   5.708   1.159   0.426
 3740SOL    HW112119   5.780   1.101   0.389
 3740SOL    HW212120   5.619   1.124   0.399
 3741SOL     OW12121   4.068   2.567   6.766
 3741SOL    HW112122   3.986   2.520   6.733
 3741SOL    HW212123   4.060   2.580   6.865
 3742SOL     OW12124   3.188   2.818   5.666
 3742SOL    HW112125   3.267   2.773   5.626
 3742SOL    HW212126   3.111   2.754   5.669
 3743SOL     OW12127   0.248   5.197   6.984
 3743SOL    HW112128   0.283   5.269   6.924
 3743SOL    HW212129   0.195   5.238   0.034
 3744SOL     OW12130   0.273   5.796   3.541
 3744SOL    HW112131   0.371   5.810   3.527
 3744SOL    HW212132   0.258   5.702   3.572
 3745SOL     OW12133   4.616   5.718   2.608
 3745SOL    HW112134   4.712   5.727   2.635
 3745SOL    HW212135   4.606   5.643   2.543
 3746SOL     OW12136   4.499   1.590   2.024
 3746SOL    HW112137   4.573   1.639   2.069
 3746SOL    HW212138   4.414   1.602   2.076
 3747SOL     OW12139   3.139   0.531   0.261
 3747SOL    HW112140   3.165   0.623   0.231
 3747SOL    HW212141   3.061   0.538   0.324
 3748SOL     OW12142   5.762   1.068   2.473
 3748SOL    HW112143   5.837   1.050   2.410
 3748SOL    HW212144   5.797   1.069   2.567
 3749SOL     OW12145   1.289   0.074   5.082
 3749SOL    HW112146   1.205   0.066   5.134
 3749SOL    HW212147   1.364   0.098   5.143
 3750SOL     OW12148   6.895   4.272   0.194
 3750SOL    HW112149   6.983   4.251   0.235
 3750SOL    HW212150   6.834   4.192   0.202
 3751SOL     OW12151   0.884   4.119   2.628
 3751SOL    HW112152   0.836   4.200   2.593
 3751SOL    HW212153   0.971   4.110   2.581
 3752SOL     OW12154   5.884   0.214   6.163
 3752SOL    HW112155   5.932   0.135   6.125
 3752SOL    HW212156   5.785   0.199   6.157
 3753SOL     OW12157   6.632   0.189   4.156
 3753SOL    HW112158   6.688   0.252   4.210
 3753SOL    HW212159   6.674   0.099   4.155
 3754SOL     OW12160   1.998   1.691   0.913
 3754SOL    HW112161   2.069   1.661   0.977
 3754SOL    HW212162   1.989   1.790   0.917
 3755SOL     OW12163   3.118   4.924   3.737
 3755SOL    HW112164   3.057   4.976   3.676
 3755SOL    HW212165   3.063   4.860   3.790
 3756SOL     OW12166   2.499   6.546   6.729
 3756SOL    HW112167   2.524   6.449   6.728
 3756SOL    HW212168   2.574   6.599   6.770
 3757SOL     OW12169   6.976   4.693   1.290
 3757SOL    HW112170   6.904   4.681   1.358
 3757SOL    HW212171   0.031   4.738   1.332
 3758SOL     OW12172   1.946   6.685   3.946
 3758SOL    HW112173   1.894   6.620   4.002
 3758SOL    HW212174   1.950   6.652   3.852
 3759SOL     OW12175   5.230   0.168   4.617
 3759SOL    HW112176   5.137   0.192   4.646
 3759SOL    HW212177   5.296   0.215   4.676
 3760SOL     OW12178   0.233   1.230   3.040
 3760SOL    HW112179   0.315   1.251   3.094
 3760SOL    HW212180   0.203   1.313   2.993
 3761SOL     OW12181   5.752   0.853   3.966
 3761SOL    HW112182   5.682   0.886   4.030
 3761SOL    HW212183   5.741   0.898   3.878
 3762SOL     OW12184   0.059   2.772   2.826
 3762SOL    HW112185   0.127   2.733   2.887
 3762SOL    HW212186   7.008   2.810   2.880
 3763SOL     OW12187   0.696   4.484   1.030
 3763SOL    HW112188   0.640   4.490   1.113
 3763SOL    HW212189   0.712   4.388   1.007
 3764SOL     OW12190   2.263   0.523   2.982
 3764SOL    HW112191   2.338   0.584   2.958
 3764SOL    HW212192   2.294   0.456   3.049
 3765SOL     OW12193   5.722   2.785   2.328
 3765SOL    HW112194   5.751   2.865   2.380
 3765SOL    HW212195   5.772   2.704   2.360
 3766SOL     OW12196   1.265   3.726   3.247
 3766SOL    HW112197   1.226   3.818   3.257
 3766SOL    HW212198   1.275   3.684   3.337
 3767SOL     OW12199   0.888   5.112   6.340
 3767SOL    HW112200   0.841   5.025   6.324
 3767SOL    HW212201   0.823   5.187   6.329
 3768SOL     OW12202   0.888   6.865   3.476
 3768SOL    HW112203   0.797   6.847   3.513
 3768SOL    HW212204   0.937   6.928   3.537
 3769SOL     OW12205   5.844   5.046   5.345
 3769SOL    HW112206   5.921   5.034   5.409
 3769SOL    HW212207   5.824   4.958   5.301
 3770SOL     OW12208   1.775   0.911   1.413
 3770SOL    HW112209   1.759   0.911   1.512
 3770SOL    HW212210   1.835   0.987   1.389
 3771SOL     OW12211   6.520   5.160   6.618
 3771SOL    HW112212   6.603   5.202   6.655
 3771SOL    HW212213   6.502   5.075   6.666
 3772SOL     OW12214   1.382   6.015   0.657
 3772SOL    HW112215   1.334   6.002   0.744
 3772SOL    HW212216   1.477   5.986   0.667
 3773SOL     OW12217   5.248   4.620   6.225
 3773SOL    HW112218   5.255   4.527   6.261
 3773SOL    HW212219   5.253   4.685   6.301
 3774SOL     OW12220   6.786   4.970   1.804
 3774SOL    HW112221   6.820   4.984   1.711
 3774SOL    HW212222   6.692   5.004   1.811
 3775SOL     OW12223   4.745   5.151   4.697
 3775SOL    HW112224   4.712   5.078   4.757
 3775SOL    HW212225   4.668   5.206   4.665
 3776SOL     OW12226   3.186   2.571   5.952
 3776SOL    HW112227   3.195   2.476   5.982
 3776SOL    HW212228   3.253   2.590   5.880
 3777SOL     OW12229   2.511   6.261   4.268
 3777SOL    HW112230   2.593   6.286   4.320
 3777SOL    HW212231   2.432   6.259   4.329
 3778SOL     OW12232   3.539   5.776   5.870
 3778SOL    HW112233   3.455   5.746   5.915
 3778SOL    HW212234   3.517   5.851   5.807
 3779SOL     OW12235   6.614   4.959   0.106
 3779SOL    HW112236   6.710   4.936   0.089
 3779SOL    HW212237   6.594   5.049   0.068
 3780SOL     OW12238   5.616   4.006   1.540
 3780SOL    HW112239   5.642   3.945   1.465
 3780SOL    HW212240   5.516   4.010   1.547
 3781SOL     OW12241   2.787   6.317   4.929
 3781SOL    HW112242   2.857   6.324   4.999
 3781SOL    HW212243   2.804   6.236   4.873
 3782SOL     OW12244   5.021   5.929   1.518
 3782SOL    HW112245   5.110   5.892   1.545
 3782SOL    HW212246   5.035   6.008   1.458
 3783SOL     OW12247   5.012   5.703   4.335
 3783SOL    HW112248   5.032   5.673   4.242
 3783SOL    HW212249   5.096   5.700   4.390
 3784SOL     OW12250   6.423   2.133   3.938
 3784SOL    HW112251   6.493   2.202   3.958
 3784SOL    HW212252   6.461   2.065   3.875
 3785SOL     OW12253   1.866   3.247   4.098
 3785SOL    HW112254   1.886   3.335   4.056
 3785SOL    HW212255   1.951   3.194   4.107
 3786SOL     OW12256   2.469   2.603   4.810
 3786SOL    HW112257   2.407   2.644   4.877
 3786SOL    HW212258   2.536   2.546   4.857
 3787SOL     OW12259   4.490   6.561   3.538
 3787SOL    HW112260   4.488   6.651   3.580
 3787SOL    HW212261   4.417   6.555   3.470
 3788SOL     OW12262   6.391   3.255   5.218
 3788SOL    HW112263   6.320   3.326   5.214
 3788SOL    HW212264   6.393   3.205   5.132
 3789SOL     OW12265   1.622   2.781   2.339
 3789SOL    HW112266   1.625   2.706   2.272
 3789SOL    HW212267   1.713   2.793   2.378
 3790SOL     OW12268   0.556   6.882   1.601
 3790SOL    HW112269   0.488   6.910   1.668
 3790SOL    HW212270   0.538   6.788   1.572
 3791SOL     OW12271   4.889   1.508   5.428
 3791SOL    HW112272   4.943   1.585   5.463
 3791SOL    HW212273   4.801   1.542   5.394
 3792SOL     OW12274   6.875   0.944   4.417
 3792SOL    HW112275   6.960   0.949   4.469
 3792SOL    HW212276   6.811   1.013   4.450
 3793SOL     OW12277   5.043   5.060   0.716
 3793SOL    HW112278   5.015   5.133   0.654
 3793SOL    HW212279   4.962   5.013   0.751
 3794SOL     OW12280   0.917   4.306   6.489
 3794SOL    HW112281   0.970   4.369   6.546
 3794SOL    HW212282   0.825   4.295   6.527
 3795SOL     OW12283   1.993   6.210   1.635
 3795SOL    HW112284   1.976   6.227   1.732
 3795SOL    HW212285   2.068   6.268   1.604
 3796SOL     OW12286   4.963   1.361   6.646
 3796SOL    HW112287   4.912   1.442   6.677
 3796SOL    HW212288   4.985   1.372   6.549
 3797SOL     OW12289   1.319   4.650   2.455
 3797SOL    HW112290   1.225   4.630   2.485
 3797SOL    HW212291   1.321   4.655   2.355
 3798SOL     OW12292   1.732   6.331   3.227
 3798SOL    HW112293   1.821   6.303   3.264
 3798SOL    HW212294   1.693   6.257   3.173
 3799SOL     OW12295   6.798   1.433   3.432
 3799SOL    HW112296   6.798   1.336   3.454
 3799SOL    HW212297   6.873   1.453   3.368
 3800SOL     OW12298   5.316   2.602   2.762
 3800SOL    HW112299   5.366   2.646   2.688
 3800SOL    HW212300   5.299   2.506   2.739
 3801SOL     OW12301   6.016   1.301   1.985
 3801SOL    HW112302   5.996   1.305   2.083
 3801SOL    HW212303   6.028   1.205   1.957
 3802SOL     OW12304   6.418   2.992   2.034
 3802SOL    HW112305   6.331   3.031   2.064
 3802SOL    HW212306   6.411   2.962   1.939
 3803SOL     OW12307   3.281   3.427   4.235
 3803SOL    HW112308   3.216   3.362   4.273
 3803SOL    HW212309   3.337   3.466   4.308
 3804SOL     OW12310   4.256   5.853   2.999
 3804SOL    HW112311   4.287   5.929   2.942
 3804SOL    HW212312   4.278   5.767   2.953
 3805SOL     OW12313   2.764   2.737   0.026
 3805SOL    HW112314   2.821   2.678   6.993
 3805SOL    HW212315   2.819   2.778   0.099
 3806SOL     OW12316   3.383   4.555   1.384
 3806SOL    HW112317   3.387   4.591   1.290
 3806SOL    HW212318   3.358   4.629   1.447
 3807SOL     OW12319   1.864   4.324   4.464
 3807SOL    HW112320   1.823   4.346   4.552
 3807SOL    HW212321   1.851   4.400   4.401
 3808SOL     OW12322   3.347   6.872   6.548
 3808SOL    HW112323   3.389   6.881   6.638
 3808SOL    HW212324   3.396   6.931   6.483
 3809SOL     OW12325   5.082   2.441   1.509
 3809SOL    HW112326   5.142   2.451   1.588
 3809SOL    HW212327   5.136   2.424   1.427
 3810SOL     OW12328   5.803   2.184   2.227
 3810SOL    HW112329   5.840   2.176   2.320
 3810SOL    HW212330   5.877   2.171   2.161
 3811SOL     OW12331   0.111   5.497   5.625
 3811SOL    HW112332   0.121   5.483   5.527
 3811SOL    HW212333   0.191   5.461   5.673
 3812SOL     OW12334   5.026   5.972   1.074
 3812SOL    HW112335   5.061   6.033   1.003
 3812SOL    HW212336   5.047   6.010   1.165
 3813SOL     OW12337   6.040   4.222   6.845
 3813SOL    HW112338   6.113   4.280   6.880
 3813SOL    HW212339   6.078   4.134   6.815
 3814SOL     OW12340   6.716   0.566   5.082
 3814SOL    HW112341   6.788   0.565   5.151
 3814SOL    HW212342   6.685   0.472   5.066
 3815SOL     OW12343   6.530   3.718   5.902
 3815SOL    HW112344   6.595   3.646   5.925
 3815SOL    HW212345   6.449   3.678   5.860
 3816SOL     OW12346   0.412   5.874   0.276
 3816SOL    HW112347   0.440   5.930   0.198
 3816SOL    HW212348   0.346   5.925   0.332
 3817SOL     OW12349   4.846   4.052   1.923
 3817SOL    HW112350   4.938   4.087   1.905
 3817SOL    HW212351   4.821   4.070   2.018
 3818SOL     OW12352   6.039   6.744   3.028
 3818SOL    HW112353   6.066   6.817   3.091
 3818SOL    HW212354   6.014   6.783   2.940
 3819SOL     OW12355   6.841   4.399   3.683
 3819SOL    HW112356   6.886   4.451   3.756
 3819SOL    HW212357   6.891   4.413   3.597
 3820SOL     OW12358   4.320   0.169   4.651
 3820SOL    HW112359   4.392   0.236   4.636
 3820SOL    HW212360   4.300   0.164   4.749
 3821SOL     OW12361   1.907   0.383   0.317
 3821SOL    HW112362   1.838   0.310   0.318
 3821SOL    HW212363   1.915   0.422   0.408
 3822SOL     OW12364   4.538   0.765   1.777
 3822SOL    HW112365   4.554   0.676   1.734
 3822SOL    HW212366   4.589   0.835   1.728
 3823SOL     OW12367   4.370   6.047   0.022
 3823SOL    HW112368   4.339   6.139   0.047
 3823SOL    HW212369   4.296   5.982   0.035
 3824SOL     OW12370   2.298   2.919   0.037
 3824SOL    HW112371   2.382   2.873   0.009
 3824SOL    HW212372   2.320   2.997   0.094
 3825SOL     OW12373   1.415   3.983   5.537
 3825SOL    HW112374   1.333   3.930   5.513
 3825SOL    HW212375   1.391   4.051   5.607
 3826SOL     OW12376   5.923   3.996   3.496
 3826SOL    HW112377   5.884   4.088   3.488
 3826SOL    HW212378   5.955   3.965   3.407
 3827SOL     OW12379   0.768   1.360   1.403
 3827SOL    HW112380   0.726   1.329   1.318
 3827SOL    HW212381   0.863   1.330   1.406
 3828SOL     OW12382   3.634   4.150   4.216
 3828SOL    HW112383   3.613   4.147   4.118
 3828SOL    HW212384   3.646   4.245   4.244
 3829SOL     OW12385   0.785   3.800   2.519
 3829SOL    HW112386   0.817   3.819   2.612
 3829SOL    HW212387   0.700   3.850   2.502
 3830SOL     OW12388   6.674   1.449   4.241
 3830SOL    HW112389   6.593   1.468   4.185
 3830SOL    HW212390   6.714   1.362   4.215
 3831SOL     OW12391   4.595   2.002   3.279
 3831SOL    HW112392   4.540   2.067   3.226
 3831SOL    HW212393   4.540   1.921   3.301
 3832SOL     OW12394   6.400   0.822   3.879
 3832SOL    HW112395   6.436   0.881   3.951
 3832SOL    HW212396   6.309   0.854   3.852
 3833SOL     OW12397   0.580   1.889   5.697
 3833SOL    HW112398   0.634   1.810   5.668
 3833SOL    HW212399   0.640   1.956   5.742
 3834SOL     OW12400   4.477   4.018   0.290
 3834SOL    HW112401   4.503   3.985   0.381
 3834SOL    HW212402   4.530   3.970   0.220
 3835SOL     OW12403   4.254   5.441   4.637
 3835SOL    HW112404   4.195   5.522   4.641
 3835SOL    HW212405   4.225   5.375   4.707
 3836SOL     OW12406   0.147   6.329   5.467
 3836SOL    HW112407   0.092   6.332   5.551
 3836SOL    HW212408   0.212   6.405   5.466
 3837SOL     OW12409   4.424   4.847   5.309
 3837SOL    HW112410   4.523   4.832   5.314
 3837SOL    HW212411   4.395   4.906   5.384
 3838SOL     OW12412   1.026   1.462   3.661
 3838SOL    HW112413   0.943   1.513   3.637
 3838SOL    HW212414   1.065   1.420   3.580
 3839SOL     OW12415   4.022   0.839   3.462
 3839SOL    HW112416   4.122   0.842   3.464
 3839SOL    HW212417   3.991   0.744   3.450
 3840SOL     OW12418   2.313   1.033   6.872
 3840SOL    HW112419   2.324   1.087   6.789
 3840SOL    HW212420   2.217   1.028   6.897
 3841SOL     OW12421   6.105   4.501   4.316
 3841SOL    HW112422   6.134   4.503   4.221
 3841SOL    HW212423   6.140   4.419   4.361
 3842SOL     OW12424   2.161   3.052   5.229
 3842SOL    HW112425   2.083   3.049   5.166
 3842SOL    HW212426   2.245   3.029   5.179
 3843SOL     OW12427   5.501   2.644   6.696
 3843SOL    HW112428   5.595   2.616   6.678
 3843SOL    HW212429   5.451   2.650   6.609
 3844SOL     OW12430   0.843   6.033   0.564
 3844SOL    HW112431   0.907   5.956   0.559
 3844SOL    HW212432   0.810   6.054   0.472
 3845SOL     OW12433   1.868   5.768   0.953
 3845SOL    HW112434   1.768   5.765   0.957
 3845SOL    HW212435   1.900   5.726   0.868
 3846SOL     OW12436   1.187   2.763   3.563
 3846SOL    HW112437   1.267   2.736   3.510
 3846SOL    HW212438   1.206   2.748   3.660
 3847SOL     OW12439   6.989   1.331   6.541
 3847SOL    HW112440   0.045   1.356   6.487
 3847SOL    HW212441   7.017   1.310   6.635
 3848SOL     OW12442   5.361   3.556   2.586
 3848SOL    HW112443   5.427   3.558   2.660
 3848SOL    HW212444   5.328   3.463   2.572
 3849SOL     OW12445   6.748   5.526   6.924
 3849SOL    HW112446   6.678   5.578   6.972
 3849SOL    HW212447   6.778   5.576   6.843
 3850SOL     OW12448   2.782   2.337   1.356
 3850SOL    HW112449   2.865   2.344   1.299
 3850SOL    HW212450   2.808   2.339   1.452
 3851SOL     OW12451   0.364   5.935   2.788
 3851SOL    HW112452   0.387   5.838   2.802
 3851SOL    HW212453   0.439   5.992   2.822
 3852SOL     OW12454   3.180   6.279   5.778
 3852SOL    HW112455   3.228   6.317   5.700
 3852SOL    HW212456   3.081   6.285   5.763
 3853SOL     OW12457   2.446   0.781   3.571
 3853SOL    HW112458   2.504   0.843   3.519
 3853SOL    HW212459   2.502   0.708   3.610
 3854SOL     OW12460   2.014   2.633   2.796
 3854SOL    HW112461   2.063   2.708   2.751
 3854SOL    HW212462   1.916   2.655   2.798
 3855SOL     OW12463   3.799   0.035   0.577
 3855SOL    HW112464   3.779   0.034   0.675
 3855SOL    HW212465   3.730   0.089   0.529
 3856SOL     OW12466   0.689   1.343   6.843
 3856SOL    HW112467   0.663   1.438   6.829
 3856SOL    HW212468   0.758   1.316   6.775
 3857SOL     OW12469   2.027   0.952   5.382
 3857SOL    HW112470   1.931   0.926   5.372
 3857SOL    HW212471   2.038   1.049   5.362
 3858SOL     OW12472   4.031   0.912   4.524
 3858SOL    HW112473   4.008   0.853   4.602
 3858SOL    HW212474   4.128   0.901   4.502
 3859SOL     OW12475   5.508   0.552   1.538
 3859SOL    HW112476   5.476   0.644   1.560
 3859SOL    HW212477   5.443   0.484   1.573
 3860SOL     OW12478   1.369   0.227   4.105
 3860SOL    HW112479   1.446   0.287   4.123
 3860SOL    HW212480   1.344   0.177   4.188
 3861SOL     OW12481   4.287   5.878   1.997
 3861SOL    HW112482   4.358   5.923   2.051
 3861SOL    HW212483   4.256   5.796   2.044
 3862SOL     OW12484   1.256   6.901   3.766
 3862SOL    HW112485   1.178   6.840   3.754
 3862SOL    HW212486   1.314   6.866   3.839
 3863SOL     OW12487   4.471   0.615   0.767
 3863SOL    HW112488   4.406   0.539   0.765
 3863SOL    HW212489   4.421   0.702   0.763
 3864SOL     OW12490   2.764   0.273   4.515
 3864SOL    HW112491   2.852   0.273   4.563
 3864SOL    HW212492   2.695   0.232   4.574
 3865SOL     OW12493   3.442   0.844   0.111
 3865SOL    HW112494   3.403   0.872   0.199
 3865SOL    HW212495   3.372   0.795   0.058
 3866SOL     OW12496   2.422   2.474   6.977
 3866SOL    HW112497   2.390   2.542   6.910
 3866SOL    HW212498   2.417   2.383   6.937
 3867SOL     OW12499   0.323   3.794   2.542
 3867SOL    HW112500   0.301   3.734   2.465
 3867SOL    HW212501   0.317   3.741   2.627
 3868SOL     OW12502   3.813   1.123   6.862
 3868SOL    HW112503   3.729   1.166   6.895
 3868SOL    HW212504   3.827   1.036   6.908
 3869SOL     OW12505   6.551   3.231   3.511
 3869SOL    HW112506   6.528   3.137   3.486
 3869SOL    HW212507   6.558   3.239   3.610
 3870SOL     OW12508   6.295   0.659   3.668
 3870SOL    HW112509   6.338   0.569   3.679
 3870SOL    HW212510   6.329   0.721   3.739
 3871SOL     OW12511   3.230   5.460   4.033
 3871SOL    HW112512   3.278   5.546   4.015
 3871SOL    HW212513   3.204   5.417   3.947
 3872SOL     OW12514   3.425   3.502   4.465
 3872SOL    HW112515   3.463   3.593   4.482
 3872SOL    HW212516   3.498   3.434   4.466
 3873SOL     OW12517   4.373   2.385   0.847
 3873SOL    HW112518   4.408   2.476   0.873
 3873SOL    HW212519   4.360   2.381   0.748
 3874SOL     OW12520   3.351   0.826   0.598
 3874SOL    HW112521   3.308   0.866   0.679
 3874SOL    HW212522   3.310   0.736   0.579
 3875SOL     OW12523   1.254   2.219   5.141
 3875SOL    HW112524   1.345   2.222   5.100
 3875SOL    HW212525   1.213   2.310   5.136
 3876SOL     OW12526   4.313   6.042   1.069
 3876SOL    HW112527   4.292   6.073   0.976
 3876SOL    HW212528   4.227   6.026   1.119
 3877SOL     OW12529   0.020   2.410   0.259
 3877SOL    HW112530   7.003   2.418   0.350
 3877SOL    HW212531   0.101   2.351   0.264
 3878SOL     OW12532   3.986   6.557   4.182
 3878SOL    HW112533   3.964   6.646   4.143
 3878SOL    HW212534   3.983   6.562   4.282
 3879SOL     OW12535   4.886   5.043   6.791
 3879SOL    HW112536   4.793   5.005   6.786
 3879SOL    HW212537   4.891   5.123   6.731
 3880SOL     OW12538   4.981   4.264   4.336
 3880SOL    HW112539   4.940   4.175   4.318
 3880SOL    HW212540   5.030   4.262   4.422
 3881SOL     OW12541   1.266   4.256   6.965
 3881SOL    HW112542   1.315   4.169   6.968
 3881SOL    HW212543   1.211   4.266   0.024
 3882SOL     OW12544   0.671   1.286   0.735
 3882SOL    HW112545   0.706   1.307   0.826
 3882SOL    HW212546   0.740   1.310   0.667
 3883SOL     OW12547   4.356   5.835   3.593
 3883SOL    HW112548   4.267   5.793   3.609
 3883SOL    HW212549   4.369   5.851   3.495
 3884SOL     OW12550   1.187   5.677   3.348
 3884SOL    HW112551   1.226   5.648   3.261
 3884SOL    HW212552   1.220   5.769   3.371
 3885SOL     OW12553   5.646   6.949   3.076
 3885SOL    HW112554   5.602   6.874   3.026
 3885SOL    HW212555   5.577   7.016   3.103
 3886SOL     OW12556   4.186   6.527   5.878
 3886SOL    HW112557   4.216   6.526   5.783
 3886SOL    HW212558   4.105   6.469   5.888
 3887SOL     OW12559   0.322   6.220   1.258
 3887SOL    HW112560   0.414   6.247   1.229
 3887SOL    HW212561   0.327   6.169   1.344
 3888SOL     OW12562   5.963   6.209   4.493
 3888SOL    HW112563   5.955   6.246   4.400
 3888SOL    HW212564   6.046   6.154   4.500
 3889SOL     OW12565   6.407   3.415   6.915
 3889SOL    HW112566   6.506   3.411   6.904
 3889SOL    HW212567   6.381   3.361   6.995
 3890SOL     OW12568   5.370   4.055   4.776
 3890SOL    HW112569   5.326   3.986   4.718
 3890SOL    HW212570   5.304   4.087   4.844
 3891SOL     OW12571   5.771   4.809   4.071
 3891SOL    HW112572   5.782   4.744   4.147
 3891SOL    HW212573   5.841   4.879   4.077
 3892SOL     OW12574   6.941   2.495   1.418
 3892SOL    HW112575   6.889   2.539   1.491
 3892SOL    HW212576   6.941   2.396   1.431
 3893SOL     OW12577   4.644   3.131   1.168
 3893SOL    HW112578   4.668   3.226   1.190
 3893SOL    HW212579   4.717   3.071   1.201
 3894SOL     OW12580   4.906   0.239   6.853
 3894SOL    HW112581   4.940   0.151   6.885
 3894SOL    HW212582   4.870   0.230   6.760
 3895SOL     OW12583   1.515   6.616   5.059
 3895SOL    HW112584   1.581   6.572   5.119
 3895SOL    HW212585   1.466   6.687   5.110
 3896SOL     OW12586   0.993   0.580   6.876
 3896SOL    HW112587   1.048   0.662   6.890
 3896SOL    HW212588   0.959   0.547   6.964
 3897SOL     OW12589   4.915   5.742   2.332
 3897SOL    HW112590   4.818   5.732   2.310
 3897SOL    HW212591   4.929   5.822   2.390
 3898SOL     OW12592   3.730   2.404   6.230
 3898SOL    HW112593   3.682   2.480   6.274
 3898SOL    HW212594   3.772   2.436   6.145
 3899SOL     OW12595   4.361   0.138   6.251
 3899SOL    HW112596   4.414   0.055   6.230
 3899SOL    HW212597   4.291   0.117   6.319
 3900SOL     OW12598   5.181   3.535   3.598
 3900SOL    HW112599   5.159   3.633   3.604
 3900SOL    HW212600   5.205   3.512   3.504
 3901SOL     OW12601   2.804   0.834   6.474
 3901SOL    HW112602   2.878   0.869   6.531
 3901SOL    HW212603   2.728   0.899   6.474
 3902SOL     OW12604   5.883   3.472   2.613
 3902SOL    HW112605   5.868   3.571   2.618
 3902SOL    HW212606   5.962   3.454   2.555
 3903SOL     OW12607   3.524   6.180   6.910
 3903SOL    HW112608   3.603   6.121   6.890
 3903SOL    HW212609   3.538   6.227   6.996
 3904SOL     OW12610   0.901   0.185   6.455
 3904SOL    HW112611   0.844   0.137   6.522
 3904SOL    HW212612   0.862   0.174   6.364
 3905SOL     OW12613   0.018   6.325   6.047
 3905SOL    HW112614   6.971   6.294   6.110
 3905SOL    HW212615   0.083   6.383   6.097
 3906SOL     OW12616   5.877   6.199   5.352
 3906SOL    HW112617   5.824   6.114   5.350
 3906SOL    HW212618   5.949   6.196   5.283
 3907SOL     OW12619   6.061   1.987   3.246
 3907SOL    HW112620   5.978   2.041   3.255
 3907SOL    HW212621   6.077   1.935   3.330
 3908SOL     OW12622   0.567   2.559   6.684
 3908SOL    HW112623   0.610   2.472   6.710
 3908SOL    HW212624   0.478   2.541   6.642
 3909SOL     OW12625   5.243   5.692   4.525
 3909SOL    HW112626   5.197   5.690   4.614
 3909SOL    HW212627   5.338   5.664   4.536
 3910SOL     OW12628   3.270   3.721   2.625
 3910SOL    HW112629   3.195   3.717   2.558
 3910SOL    HW212630   3.241   3.776   2.704
 3911SOL     OW12631   5.898   2.056   4.594
 3911SOL    HW112632   5.802   2.077   4.612
 3911SOL    HW212633   5.908   1.958   4.578
 3912SOL     OW12634   5.571   2.012   5.291
 3912SOL    HW112635   5.634   2.009   5.369
 3912SOL    HW212636   5.581   1.928   5.238
 3913SOL     OW12637   1.409   6.720   6.540
 3913SOL    HW112638   1.397   6.720   6.441
 3913SOL    HW212639   1.346   6.785   6.582
 3914SOL     OW12640   2.945   0.166   7.022
 3914SOL    HW112641   2.912   0.113   0.076
 3914SOL    HW212642   2.940   0.110   6.939
 3915SOL     OW12643   5.064   5.348   1.236
 3915SOL    HW112644   5.032   5.257   1.260
 3915SOL    HW212645   5.160   5.345   1.210
 3916SOL     OW12646   0.949   0.055   2.594
 3916SOL    HW112647   1.001   0.123   2.644
 3916SOL    HW212648   0.904   7.017   2.659
 3917SOL     OW12649   1.609   0.042   6.905
 3917SOL    HW112650   1.644   6.987   6.855
 3917SOL    HW212651   1.527   0.077   6.859
 3918SOL     OW12652   5.269   4.265   1.559
 3918SOL    HW112653   5.296   4.361   1.565
 3918SOL    HW212654   5.172   4.257   1.578
 3919SOL     OW12655   4.072   6.911   0.565
 3919SOL    HW112656   4.004   6.964   0.514
 3919SOL    HW212657   4.055   6.919   0.663
 3920SOL     OW12658   2.267   2.713   0.251
 3920SOL    HW112659   2.205   2.722   0.329
 3920SOL    HW212660   2.281   2.802   0.209
 3921SOL     OW12661   0.741   4.056   1.482
 3921SOL    HW112662   0.822   3.998   1.478
 3921SOL    HW212663   0.661   4.004   1.451
 3922SOL     OW12664   0.151   3.576   1.804
 3922SOL    HW112665   0.057   3.548   1.820
 3922SOL    HW212666   0.152   3.663   1.753
 3923SOL     OW12667   0.609   0.663   0.388
 3923SOL    HW112668   0.595   0.621   0.478
 3923SOL    HW212669   0.705   0.653   0.361
 3924SOL     OW12670   6.325   4.780   4.480
 3924SOL    HW112671   6.274   4.834   4.413
 3924SOL    HW212672   6.276   4.694   4.496
 3925SOL     OW12673   1.267   5.054   2.077
 3925SOL    HW112674   1.297   5.127   2.138
 3925SOL    HW212675   1.174   5.072   2.046
 3926SOL     OW12676   4.408   4.540   2.465
 3926SOL    HW112677   4.326   4.588   2.498
 3926SOL    HW212678   4.486   4.603   2.465
 3927SOL     OW12679   0.310   3.078   6.433
 3927SOL    HW112680   0.372   3.132   6.376
 3927SOL    HW212681   0.241   3.138   6.474
 3928SOL     OW12682   4.613   5.913   0.071
 3928SOL    HW112683   4.536   5.975   0.059
 3928SOL    HW212684   4.697   5.958   0.041
 3929SOL     OW12685   0.837   0.247   4.990
 3929SOL    HW112686   0.769   0.269   4.920
 3929SOL    HW212687   0.920   0.300   4.973
 3930SOL     OW12688   2.389   2.148   3.728
 3930SOL    HW112689   2.429   2.130   3.638
 3930SOL    HW212690   2.351   2.064   3.766
 3931SOL     OW12691   0.340   1.515   1.907
 3931SOL    HW112692   0.302   1.534   1.817
 3931SOL    HW212693   0.272   1.534   1.978
 3932SOL     OW12694   0.201   3.063   4.420
 3932SOL    HW112695   0.123   3.000   4.418
 3932SOL    HW212696   0.248   3.061   4.333
 3933SOL     OW12697   1.494   0.209   6.101
 3933SOL    HW112698   1.587   0.172   6.107
 3933SOL    HW212699   1.489   0.276   6.027
 3934SOL     OW12700   5.864   0.095   5.789
 3934SOL    HW112701   5.934   0.140   5.734
 3934SOL    HW212702   5.903   0.068   5.877
 3935SOL     OW12703   3.478   0.334   0.818
 3935SOL    HW112704   3.425   0.349   0.901
 3935SOL    HW212705   3.572   0.308   0.842
 3936SOL     OW12706   6.622   5.804   4.551
 3936SOL    HW112707   6.638   5.863   4.630
 3936SOL    HW212708   6.592   5.714   4.582
 3937SOL     OW12709   0.329   1.705   2.690
 3937SOL    HW112710   0.293   1.737   2.603
 3937SOL    HW212711   0.254   1.688   2.754
 3938SOL     OW12712   0.139   1.600   3.211
 3938SOL    HW112713   0.160   1.611   3.308
 3938SOL    HW212714   0.042   1.580   3.201
 3939SOL     OW12715   2.988   1.903   2.211
 3939SOL    HW112716   2.941   1.935   2.128
 3939SOL    HW212717   3.050   1.829   2.187
 3940SOL     OW12718   4.216   3.127   1.141
 3940SOL    HW112719   4.176   3.181   1.215
 3940SOL    HW212720   4.188   3.032   1.150
 3941SOL     OW12721   4.591   4.787   6.038
 3941SOL    HW112722   4.680   4.745   6.022
 3941SOL    HW212723   4.604   4.882   6.067
 3942SOL     OW12724   6.541   6.480   6.960
 3942SOL    HW112725   6.534   6.388   6.920
 3942SOL    HW212726   6.621   6.484   7.019
 3943SOL     OW12727   0.438   3.241   4.412
 3943SOL    HW112728   0.376   3.314   4.442
 3943SOL    HW212729   0.392   3.185   4.343
 3944SOL     OW12730   4.601   2.477   5.116
 3944SOL    HW112731   4.518   2.470   5.062
 3944SOL    HW212732   4.645   2.387   5.122
 3945SOL     OW12733   0.171   1.801   0.866
 3945SOL    HW112734   0.148   1.704   0.864
 3945SOL    HW212735   0.267   1.812   0.894
 3946SOL     OW12736   4.922   4.381   3.944
 3946SOL    HW112737   4.945   4.320   3.868
 3946SOL    HW212738   4.826   4.406   3.940
 3947SOL     OW12739   4.563   6.439   0.457
 3947SOL    HW112740   4.504   6.359   0.471
 3947SOL    HW212741   4.652   6.410   0.422
 3948SOL     OW12742   6.561   4.310   1.288
 3948SOL    HW112743   6.544   4.353   1.199
 3948SOL    HW212744   6.486   4.332   1.350
 3949SOL     OW12745   4.861   5.739   3.067
 3949SOL    HW112746   4.870   5.758   3.164
 3949SOL    HW212747   4.764   5.733   3.042
 3950SOL     OW12748   1.533   5.515   1.320
 3950SOL    HW112749   1.574   5.520   1.412
 3950SOL    HW212750   1.604   5.493   1.253
 3951SOL     OW12751   4.602   0.823   1.517
 3951SOL    HW112752   4.534   0.867   1.458
 3951SOL    HW212753   4.582   0.726   1.524
 3952SOL     OW12754   0.023   2.605   1.152
 3952SOL    HW112755   0.060   2.538   1.087
 3952SOL    HW212756   7.016   2.558   1.234
 3953SOL     OW12757   3.788   3.244   1.935
 3953SOL    HW112758   3.858   3.188   1.979
 3953SOL    HW212759   3.784   3.223   1.837
 3954SOL     OW12760   4.332   5.592   5.482
 3954SOL    HW112761   4.335   5.525   5.408
 3954SOL    HW212762   4.269   5.560   5.553
 3955SOL     OW12763   3.636   2.029   5.637
 3955SOL    HW112764   3.610   1.953   5.696
 3955SOL    HW212765   3.561   2.048   5.573
 3956SOL     OW12766   1.534   1.090   2.327
 3956SOL    HW112767   1.605   1.155   2.355
 3956SOL    HW212768   1.571   1.025   2.261
 3957SOL     OW12769   3.902   6.893   4.858
 3957SOL    HW112770   3.887   6.967   4.793
 3957SOL    HW212771   3.819   6.878   4.912
 3958SOL     OW12772   6.299   2.624   4.189
 3958SOL    HW112773   6.254   2.711   4.166
 3958SOL    HW212774   6.232   2.563   4.232
 3959SOL     OW12775   5.133   5.155   0.087
 3959SOL    HW112776   5.048   5.111   0.057
 3959SOL    HW212777   5.150   5.133   0.183
 3960SOL     OW12778   5.279   1.774   4.977
 3960SOL    HW112779   5.269   1.860   4.926
 3960SOL    HW212780   5.247   1.698   4.922
 3961SOL     OW12781   5.251   0.200   2.834
 3961SOL    HW112782   5.251   0.295   2.863
 3961SOL    HW212783   5.330   0.183   2.775
 3962SOL     OW12784   0.763   5.401   6.304
 3962SOL    HW112785   0.664   5.394   6.292
 3962SOL    HW212786   0.805   5.426   6.217
 3963SOL     OW12787   5.228   6.167   1.749
 3963SOL    HW112788   5.144   6.183   1.698
 3963SOL    HW212789   5.209   6.172   1.847
 3964SOL     OW12790   4.817   4.209   3.152
 3964SOL    HW112791   4.757   4.235   3.077
 3964SOL    HW212792   4.896   4.160   3.116
 3965SOL     OW12793   5.108   3.657   4.373
 3965SOL    HW112794   5.191   3.601   4.368
 3965SOL    HW212795   5.060   3.638   4.458
 3966SOL     OW12796   3.695   5.774   6.968
 3966SOL    HW112797   3.759   5.699   6.949
 3966SOL    HW212798   3.604   5.737   6.986
 3967SOL     OW12799   2.096   4.107   1.449
 3967SOL    HW112800   2.019   4.059   1.406
 3967SOL    HW212801   2.151   4.151   1.378
 3968SOL     OW12802   4.323   0.390   0.739
 3968SOL    HW112803   4.228   0.392   0.709
 3968SOL    HW212804   4.349   0.297   0.763
 3969SOL     OW12805   1.379   5.410   2.047
 3969SOL    HW112806   1.338   5.364   2.126
 3969SOL    HW212807   1.307   5.441   1.986
 3970SOL     OW12808   5.934   5.874   2.080
 3970SOL    HW112809   5.920   5.971   2.059
 3970SOL    HW212810   5.925   5.859   2.179
 3971SOL     OW12811   2.611   5.935   4.195
 3971SOL    HW112812   2.627   5.873   4.272
 3971SOL    HW212813   2.551   6.010   4.224
 3972SOL     OW12814   1.377   3.856   6.314
 3972SOL    HW112815   1.465   3.815   6.339
 3972SOL    HW212816   1.393   3.938   6.259
 3973SOL     OW12817   1.184   6.111   0.976
 3973SOL    HW112818   1.086   6.119   0.993
 3973SOL    HW212819   1.226   6.059   1.050
 3974SOL     OW12820   1.929   0.837   5.964
 3974SOL    HW112821   1.859   0.768   5.977
 3974SOL    HW212822   1.999   0.828   6.035
 3975SOL     OW12823   5.067   1.924   6.108
 3975SOL    HW112824   5.139   1.939   6.176
 3975SOL    HW212825   5.001   1.859   6.144
 3976SOL     OW12826   1.657   6.424   2.481
 3976SOL    HW112827   1.732   6.362   2.457
 3976SOL    HW212828   1.642   6.423   2.580
 3977SOL     OW12829   1.499   3.958   6.644
 3977SOL    HW112830   1.532   3.992   6.732
 3977SOL    HW212831   1.540   3.868   6.626
 3978SOL     OW12832   6.722   5.116   3.263
 3978SOL    HW112833   6.666   5.043   3.302
 3978SOL    HW212834   6.745   5.182   3.334
 3979SOL     OW12835   3.389   1.204   6.303
 3979SOL    HW112836   3.355   1.262   6.229
 3979SOL    HW212837   3.447   1.132   6.265
 3980SOL     OW12838   6.090   6.391   6.403
 3980SOL    HW112839   6.025   6.377   6.478
 3980SOL    HW212840   6.183   6.376   6.437
 3981SOL     OW12841   4.935   6.003   0.693
 3981SOL    HW112842   5.010   5.938   0.688
 3981SOL    HW212843   4.971   6.095   0.707
 3982SOL     OW12844   2.205   6.987   2.085
 3982SOL    HW112845   2.173   6.976   1.991
 3982SOL    HW212846   2.169   0.048   2.123
 3983SOL     OW12847   4.382   5.166   3.888
 3983SOL    HW112848   4.286   5.191   3.883
 3983SOL    HW212849   4.419   5.193   3.977
 3984SOL     OW12850   6.189   1.719   2.584
 3984SOL    HW112851   6.114   1.725   2.649
 3984SOL    HW212852   6.257   1.788   2.605
 3985SOL     OW12853   3.569   5.518   6.533
 3985SOL    HW112854   3.488   5.546   6.585
 3985SOL    HW212855   3.581   5.419   6.542
 3986SOL     OW12856   5.121   1.911   2.628
 3986SOL    HW112857   5.040   1.959   2.661
 3986SOL    HW212858   5.122   1.912   2.528
 3987SOL     OW12859   3.250   4.942   4.719
 3987SOL    HW112860   3.156   4.975   4.719
 3987SOL    HW212861   3.283   4.933   4.625
 3988SOL     OW12862   4.350   5.730   0.712
 3988SOL    HW112863   4.310   5.682   0.635
 3988SOL    HW212864   4.395   5.665   0.773
 3989SOL     OW12865   6.220   2.241   0.347
 3989SOL    HW112866   6.235   2.164   0.409
 3989SOL    HW212867   6.153   2.304   0.387
 3990SOL     OW12868   5.064   2.209   1.748
 3990SOL    HW112869   5.100   2.134   1.691
 3990SOL    HW212870   5.009   2.270   1.691
 3991SOL     OW12871   0.881   1.111   2.523
 3991SOL    HW112872   0.949   1.146   2.588
 3991SOL    HW212873   0.869   1.013   2.538
 3992SOL     OW12874   3.397   1.866   0.605
 3992SOL    HW112875   3.305   1.883   0.570
 3992SOL    HW212876   3.391   1.808   0.687
 3993SOL     OW12877   1.247   3.182   2.013
 3993SOL    HW112878   1.167   3.182   2.072
 3993SOL    HW212879   1.241   3.106   1.948
 3994SOL     OW12880   2.620   6.769   4.969
 3994SOL    HW112881   2.655   6.689   4.921
 3994SOL    HW212882   2.529   6.749   5.006
 3995SOL     OW12883   1.693   3.151   5.270
 3995SOL    HW112884   1.681   3.249   5.260
 3995SOL    HW212885   1.781   3.131   5.313
 3996SOL     OW12886   6.868   6.815   5.300
 3996SOL    HW112887   6.814   6.785   5.222
 3996SOL    HW212888   6.955   6.765   5.302
 3997SOL     OW12889   5.655   1.527   3.904
 3997SOL    HW112890   5.567   1.500   3.863
 3997SOL    HW212891   5.725   1.527   3.833
 3998SOL     OW12892   3.773   2.176   3.748
 3998SOL    HW112893   3.800   2.128   3.831
 3998SOL    HW212894   3.674   2.178   3.741
 3999SOL     OW12895   6.403   2.619   4.470
 3999SOL    HW112896   6.482   2.680   4.458
 3999SOL    HW212897   6.370   2.589   4.381
 4000SOL     OW12898   3.693   6.924   3.707
 4000SOL    HW112899   3.719   7.006   3.759
 4000SOL    HW212900   3.599   6.899   3.729
 4001SOL     OW12901   2.047   2.388   3.860
 4001SOL    HW112902   2.006   2.378   3.951
 4001SOL    HW212903   2.145   2.406   3.869
 4002SOL     OW12904   2.159   3.629   1.790
 4002SOL    HW112905   2.200   3.711   1.830
 4002SOL    HW212906   2.219   3.551   1.808
 4003SOL     OW12907   3.381   0.300   4.550
 4003SOL    HW112908   3.469   0.252   4.557
 4003SOL    HW212909   3.317   0.244   4.498
 4004SOL     OW12910   6.702   2.348   4.785
 4004SOL    HW112911   6.622   2.313   4.736
 4004SOL    HW212912   6.784   2.303   4.750
 4005SOL     OW12913   4.846   5.748   6.722
 4005SOL    HW112914   4.766   5.748   6.781
 4005SOL    HW212915   4.819   5.771   6.629
 4006SOL     OW12916   3.849   5.176   2.414
 4006SOL    HW112917   3.849   5.169   2.513
 4006SOL    HW212918   3.767   5.226   2.384
 4007SOL     OW12919   6.983   2.537   6.878
 4007SOL    HW112920   0.058   2.536   6.894
 4007SOL    HW212921   6.966   2.517   6.781
 4008SOL     OW12922   2.701   2.449   4.467
 4008SOL    HW112923   2.727   2.520   4.532
 4008SOL    HW212924   2.770   2.377   4.466
 4009SOL     OW12925   4.029   3.508   2.041
 4009SOL    HW112926   4.074   3.572   1.979
 4009SOL    HW212927   3.934   3.536   2.055
 4010SOL     OW12928   2.558   3.036   0.614
 4010SOL    HW112929   2.462   3.017   0.593
 4010SOL    HW212930   2.574   3.135   0.612
 4011SOL     OW12931   1.360   2.283   1.717
 4011SOL    HW112932   1.266   2.313   1.738
 4011SOL    HW212933   1.365   2.257   1.621
 4012SOL     OW12934   6.945   3.911   2.403
 4012SOL    HW112935   6.883   3.843   2.441
 4012SOL    HW212936   6.952   3.898   2.304
 4013SOL     OW12937   4.579   2.428   3.961
 4013SOL    HW112938   4.535   2.475   4.038
 4013SOL    HW212939   4.509   2.378   3.909
 4014SOL     OW12940   5.590   6.104   3.134
 4014SOL    HW112941   5.575   6.006   3.147
 4014SOL    HW212942   5.589   6.150   3.223
 4015SOL     OW12943   4.785   4.307   5.399
 4015SOL    HW112944   4.839   4.265   5.326
 4015SOL    HW212945   4.844   4.323   5.478
 4016SOL     OW12946   3.325   6.263   6.026
 4016SOL    HW112947   3.252   6.297   6.084
 4016SOL    HW212948   3.297   6.269   5.930
 4017SOL     OW12949   6.582   5.661   0.064
 4017SOL    HW112950   6.638   5.732   0.107
 4017SOL    HW212951   6.557   5.592   0.133
 4018SOL     OW12952   4.084   6.011   1.239
 4018SOL    HW112953   4.012   5.944   1.254
 4018SOL    HW212954   4.047   6.103   1.250
 4019SOL     OW12955   5.139   4.518   3.598
 4019SOL    HW112956   5.228   4.506   3.554
 4019SOL    HW212957   5.152   4.561   3.688
 4020SOL     OW12958   5.597   2.296   5.622
 4020SOL    HW112959   5.543   2.303   5.539
 4020SOL    HW212960   5.636   2.385   5.645
 4021SOL     OW12961   3.366   4.477   5.864
 4021SOL    HW112962   3.290   4.492   5.927
 4021SOL    HW212963   3.362   4.384   5.828
 4022SOL     OW12964   5.057   0.408   0.790
 4022SOL    HW112965   5.093   0.466   0.718
 4022SOL    HW212966   5.112   0.420   0.873
 4023SOL     OW12967   5.821   1.075   5.420
 4023SOL    HW112968   5.751   1.114   5.480
 4023SOL    HW212969   5.875   1.149   5.380
 4024SOL     OW12970   4.214   4.834   4.221
 4024SOL    HW112971   4.234   4.763   4.153
 4024SOL    HW212972   4.217   4.795   4.312
 4025SOL     OW12973   0.573   4.442   3.720
 4025SOL    HW112974   0.648   4.494   3.679
 4025SOL    HW212975   0.506   4.504   3.759
 4026SOL     OW12976   5.287   6.214   4.073
 4026SOL    HW112977   5.242   6.293   4.117
 4026SOL    HW212978   5.220   6.142   4.058
 4027SOL     OW12979   4.124   5.501   1.651
 4027SOL    HW112980   4.075   5.414   1.651
 4027SOL    HW212981   4.196   5.499   1.582
 4028SOL     OW12982   2.202   1.017   3.976
 4028SOL    HW112983   2.191   0.981   3.884
 4028SOL    HW212984   2.159   1.107   3.983
 4029SOL     OW12985   1.780   4.331   4.708
 4029SOL    HW112986   1.718   4.260   4.740
 4029SOL    HW212987   1.768   4.413   4.763
 4030SOL     OW12988   0.321   2.241   5.450
 4030SOL    HW112989   0.285   2.178   5.519
 4030SOL    HW212990   0.244   2.290   5.408
 4031SOL     OW12991   3.958   5.500   3.835
 4031SOL    HW112992   4.044   5.512   3.884
 4031SOL    HW212993   3.967   5.533   3.742
 4032SOL     OW12994   4.640   0.173   4.743
 4032SOL    HW112995   4.666   0.084   4.706
 4032SOL    HW212996   4.682   0.185   4.833
 4033SOL     OW12997   3.072   3.970   5.443
 4033SOL    HW112998   3.117   3.982   5.354
 4033SOL    HW212999   2.991   3.913   5.432
 4034SOL     OW13000   6.798   2.773   3.739
 4034SOL    HW113001   6.892   2.741   3.752
 4034SOL    HW213002   6.752   2.780   3.828
 4035SOL     OW13003   6.837   4.549   0.616
 4035SOL    HW113004   6.899   4.614   0.571
 4035SOL    HW213005   6.779   4.505   0.547
 4036SOL     OW13006   6.866   0.049   3.081
 4036SOL    HW113007   6.915   0.136   3.079
 4036SOL    HW213008   6.871   0.010   3.172
 4037SOL     OW13009   0.083   3.893   6.733
 4037SOL    HW113010   0.150   3.965   6.714
 4037SOL    HW213011   7.018   3.935   6.750
 4038SOL     OW13012   5.568   4.802   3.872
 4038SOL    HW113013   5.642   4.782   3.937
 4038SOL    HW213014   5.512   4.720   3.860
 4039SOL     OW13015   4.586   6.183   1.023
 4039SOL    HW113016   4.567   6.086   1.006
 4039SOL    HW213017   4.506   6.237   0.999
 4040SOL     OW13018   3.816   5.918   1.706
 4040SOL    HW113019   3.874   5.849   1.663
 4040SOL    HW213020   3.814   6.000   1.649
 4041SOL     OW13021   1.722   6.636   4.304
 4041SOL    HW113022   1.705   6.651   4.402
 4041SOL    HW213023   1.805   6.684   4.277
 4042SOL     OW13024   6.230   5.385   1.857
 4042SOL    HW113025   6.156   5.399   1.792
 4042SOL    HW213026   6.192   5.358   1.946
 4043SOL     OW13027   6.476   2.760   1.265
 4043SOL    HW113028   6.456   2.832   1.199
 4043SOL    HW213029   6.400   2.695   1.268
 4044SOL     OW13030   6.845   5.880   3.654
 4044SOL    HW113031   6.857   5.785   3.626
 4044SOL    HW213032   6.925   5.933   3.625
 4045SOL     OW13033   2.548   6.237   5.782
 4045SOL    HW113034   2.510   6.210   5.871
 4045SOL    HW213035   2.563   6.336   5.781
 4046SOL     OW13036   1.602   2.721   1.248
 4046SOL    HW113037   1.621   2.800   1.305
 4046SOL    HW213038   1.688   2.682   1.215
 4047SOL     OW13039   2.863   3.833   1.003
 4047SOL    HW113040   2.935   3.769   1.032
 4047SOL    HW213041   2.774   3.789   1.012
 4048SOL     OW13042   5.635   1.204   1.102
 4048SOL    HW113043   5.664   1.109   1.095
 4048SOL    HW213044   5.598   1.220   1.193
 4049SOL     OW13045   5.653   0.777   5.090
 4049SOL    HW113046   5.555   0.780   5.066
 4049SOL    HW213047   5.702   0.846   5.036
 4050SOL     OW13048   2.772   0.258   0.876
 4050SOL    HW113049   2.760   0.158   0.881
 4050SOL    HW213050   2.693   0.303   0.917
 4051SOL     OW13051   3.031   3.751   0.290
 4051SOL    HW113052   2.963   3.749   0.363
 4051SOL    HW213053   3.112   3.698   0.318
 4052SOL     OW13054   1.735   6.382   1.325
 4052SOL    HW113055   1.722   6.314   1.253
 4052SOL    HW213056   1.687   6.353   1.408
 4053SOL     OW13057   3.529   4.925   3.478
 4053SOL    HW113058   3.627   4.936   3.489
 4053SOL    HW213059   3.506   4.828   3.469
 4054SOL     OW13060   5.272   2.261   0.488
 4054SOL    HW113061   5.357   2.314   0.485
 4054SOL    HW213062   5.293   2.164   0.474
 4055SOL     OW13063   3.470   2.085   0.245
 4055SOL    HW113064   3.550   2.027   0.259
 4055SOL    HW213065   3.484   2.173   0.289
 4056SOL     OW13066   3.953   3.628   0.370
 4056SOL    HW113067   3.993   3.713   0.403
 4056SOL    HW213068   4.011   3.551   0.397
 4057SOL     OW13069   5.419   2.386   6.315
 4057SOL    HW113070   5.385   2.308   6.367
 4057SOL    HW213071   5.414   2.469   6.372
 4058SOL     OW13072   0.585   0.305   4.887
 4058SOL    HW113073   0.524   0.352   4.951
 4058SOL    HW213074   0.533   0.242   4.830
 4059SOL     OW13075   0.085   1.719   4.757
 4059SOL    HW113076   7.024   1.687   4.797
 4059SOL    HW213077   0.133   1.643   4.713
 4060SOL     OW13078   4.584   5.359   3.765
 4060SOL    HW113079   4.512   5.304   3.805
 4060SOL    HW213080   4.656   5.374   3.833
 4061SOL     OW13081   2.948   3.349   1.494
 4061SOL    HW113082   3.003   3.327   1.413
 4061SOL    HW213083   2.883   3.275   1.512
 4062SOL     OW13084   2.630   6.969   3.103
 4062SOL    HW113085   2.626   6.886   3.047
 4062SOL    HW213086   2.721   6.976   3.143
 4063SOL     OW13087   3.000   5.395   5.684
 4063SOL    HW113088   2.923   5.334   5.700
 4063SOL    HW213089   3.079   5.343   5.653
 4064SOL     OW13090   6.434   0.146   3.925
 4064SOL    HW113091   6.479   0.161   4.013
 4064SOL    HW213092   6.340   0.115   3.941
 4065SOL     OW13093   6.167   4.852   6.831
 4065SOL    HW113094   6.196   4.932   6.883
 4065SOL    HW213095   6.099   4.879   6.763
 4066SOL     OW13096   6.205   5.036   1.925
 4066SOL    HW113097   6.136   5.014   1.856
 4066SOL    HW213098   6.171   5.109   1.984
 4067SOL     OW13099   6.515   1.089   1.929
 4067SOL    HW113100   6.443   1.158   1.922
 4067SOL    HW213101   6.480   1.009   1.977
 4068SOL     OW13102   5.896   0.683   3.766
 4068SOL    HW113103   5.867   0.742   3.842
 4068SOL    HW213104   5.927   0.595   3.803
 4069SOL     OW13105   0.189   5.465   1.103
 4069SOL    HW113106   0.139   5.492   1.184
 4069SOL    HW213107   0.189   5.365   1.095
 4070SOL     OW13108   0.823   3.836   2.805
 4070SOL    HW113109   0.744   3.778   2.824
 4070SOL    HW213110   0.806   3.928   2.841
 4071SOL     OW13111   1.859   0.202   3.810
 4071SOL    HW113112   1.938   0.254   3.776
 4071SOL    HW213113   1.890   0.113   3.842
 4072SOL     OW13114   0.804   0.571   4.212
 4072SOL    HW113115   0.792   0.668   4.192
 4072SOL    HW213116   0.891   0.540   4.175
 4073SOL     OW13117   2.562   5.156   0.847
 4073SOL    HW113118   2.507   5.219   0.793
 4073SOL    HW213119   2.531   5.062   0.830
 4074SOL     OW13120   1.485   2.829   0.678
 4074SOL    HW113121   1.491   2.872   0.588
 4074SOL    HW213122   1.574   2.793   0.704
 4075SOL     OW13123   5.276   0.807   4.010
 4075SOL    HW113124   5.197   0.846   3.963
 4075SOL    HW213125   5.357   0.814   3.952
 4076SOL     OW13126   1.828   2.583   3.836
 4076SOL    HW113127   1.765   2.576   3.913
 4076SOL    HW213128   1.861   2.491   3.812
 4077SOL     OW13129   2.610   1.424   0.816
 4077SOL    HW113130   2.656   1.382   0.895
 4077SOL    HW213131   2.522   1.378   0.802
 4078SOL     OW13132   5.402   4.016   2.021
 4078SOL    HW113133   5.393   4.105   1.976
 4078SOL    HW213134   5.499   3.992   2.028
 4079SOL     OW13135   0.086   1.067   3.751
 4079SOL    HW113136   0.101   1.160   3.719
 4079SOL    HW213137   0.142   1.050   3.832
 4080SOL     OW13138   3.928   3.040   2.514
 4080SOL    HW113139   3.992   3.113   2.538
 4080SOL    HW213140   3.916   3.037   2.415
 4081SOL     OW13141   2.296   2.441   6.501
 4081SOL    HW113142   2.240   2.445   6.583
 4081SOL    HW213143   2.258   2.502   6.431
 4082SOL     OW13144   1.195   2.817   5.445
 4082SOL    HW113145   1.122   2.811   5.377
 4082SOL    HW213146   1.279   2.850   5.400
 4083SOL     OW13147   5.800   4.881   2.957
 4083SOL    HW113148   5.704   4.857   2.973
 4083SOL    HW213149   5.828   4.951   3.023
 4084SOL     OW13150   4.519   0.634   3.137
 4084SOL    HW113151   4.551   0.727   3.121
 4084SOL    HW213152   4.595   0.569   3.126
 4085SOL     OW13153   3.984   4.881   1.813
 4085SOL    HW113154   3.964   4.844   1.903
 4085SOL    HW213155   4.081   4.867   1.792
 4086SOL     OW13156   6.001   5.056   5.791
 4086SOL    HW113157   6.019   5.001   5.873
 4086SOL    HW213158   5.987   4.996   5.712
 4087SOL     OW13159   2.272   0.517   2.354
 4087SOL    HW113160   2.185   0.469   2.369
 4087SOL    HW213161   2.283   0.588   2.424
 4088SOL     OW13162   0.470   1.725   5.110
 4088SOL    HW113163   0.541   1.780   5.154
 4088SOL    HW213164   0.398   1.785   5.075
 4089SOL     OW13165   0.993   0.555   3.039
 4089SOL    HW113166   0.971   0.606   3.123
 4089SOL    HW213167   1.036   0.617   2.973
 4090SOL     OW13168   2.858   1.763   6.120
 4090SOL    HW113169   2.803   1.679   6.107
 4090SOL    HW213170   2.934   1.743   6.182
 4091SOL     OW13171   3.308   5.998   1.110
 4091SOL    HW113172   3.330   6.062   1.183
 4091SOL    HW213173   3.220   5.954   1.129
 4092SOL     OW13174   5.731   2.886   4.348
 4092SOL    HW113175   5.796   2.869   4.422
 4092SOL    HW213176   5.753   2.972   4.303
 4093SOL     OW13177   5.501   4.367   3.858
 4093SOL    HW113178   5.448   4.450   3.841
 4093SOL    HW213179   5.564   4.351   3.782
 4094SOL     OW13180   6.712   5.945   0.131
 4094SOL    HW113181   6.708   5.906   0.223
 4094SOL    HW213182   6.795   5.912   0.085
 4095SOL     OW13183   1.208   5.029   0.326
 4095SOL    HW113184   1.307   5.031   0.311
 4095SOL    HW213185   1.171   4.941   0.297
 4096SOL     OW13186   0.378   0.569   6.581
 4096SOL    HW113187   0.309   0.499   6.598
 4096SOL    HW213188   0.469   0.526   6.578
 4097SOL     OW13189   6.386   4.478   5.040
 4097SOL    HW113190   6.465   4.508   4.986
 4097SOL    HW213191   6.330   4.417   4.984
 4098SOL     OW13192   2.012   4.223   2.786
 4098SOL    HW113193   2.021   4.277   2.703
 4098SOL    HW213194   1.952   4.145   2.769
 4099SOL     OW13195   5.155   3.860   6.017
 4099SOL    HW113196   5.067   3.812   6.014
 4099SOL    HW213197   5.192   3.868   5.924
 4100SOL     OW13198   1.623   1.121   3.722
 4100SOL    HW113199   1.543   1.175   3.748
 4100SOL    HW213200   1.668   1.087   3.805
 4101SOL     OW13201   6.623   5.488   0.267
 4101SOL    HW113202   6.565   5.407   0.263
 4101SOL    HW213203   6.603   5.539   0.351
 4102SOL     OW13204   1.762   0.043   0.138
 4102SOL    HW113205   1.838   0.022   0.076
 4102SOL    HW213206   1.777   7.021   0.225
 4103SOL     OW13207   2.158   6.493   4.114
 4103SOL    HW113208   2.159   6.407   4.063
 4103SOL    HW213209   2.100   6.559   4.067
 4104SOL     OW13210   2.036   5.656   4.677
 4104SOL    HW113211   2.136   5.659   4.684
 4104SOL    HW213212   2.005   5.563   4.700
 4105SOL     OW13213   4.668   0.562   1.618
 4105SOL    HW113214   4.674   0.545   1.519
 4105SOL    HW213215   4.758   0.547   1.659
 4106SOL     OW13216   0.926   1.086   2.969
 4106SOL    HW113217   0.908   1.009   3.031
 4106SOL    HW213218   1.017   1.077   2.930
 4107SOL     OW13219   0.949   0.381   0.443
 4107SOL    HW113220   0.872   0.317   0.447
 4107SOL    HW213221   1.024   0.340   0.391
 4108SOL     OW13222   6.434   5.760   5.528
 4108SOL    HW113223   6.342   5.737   5.559
 4108SOL    HW213224   6.431   5.845   5.475
 4109SOL     OW13225   5.456   5.846   3.439
 4109SOL    HW113226   5.451   5.941   3.467
 4109SOL    HW213227   5.520   5.797   3.498
 4110SOL     OW13228   5.303   3.179   0.272
 4110SOL    HW113229   5.274   3.255   0.213
 4110SOL    HW213230   5.292   3.206   0.368
 4111SOL     OW13231   6.548   3.810   4.154
 4111SOL    HW113232   6.487   3.889   4.155
 4111SOL    HW213233   6.643   3.840   4.155
 4112SOL     OW13234   4.495   6.217   4.820
 4112SOL    HW113235   4.428   6.180   4.755
 4112SOL    HW213236   4.458   6.299   4.863
 4113SOL     OW13237   4.251   5.308   4.347
 4113SOL    HW113238   4.172   5.313   4.286
 4113SOL    HW213239   4.225   5.346   4.437
 4114SOL     OW13240   0.243   1.108   1.496
 4114SOL    HW113241   0.332   1.141   1.527
 4114SOL    HW213242   0.240   1.008   1.502
 4115SOL     OW13243   4.110   5.885   3.855
 4115SOL    HW113244   4.197   5.867   3.900
 4115SOL    HW213245   4.053   5.942   3.915
 4116SOL     OW13246   4.874   3.942   2.402
 4116SOL    HW113247   4.864   4.024   2.345
 4116SOL    HW213248   4.868   3.967   2.498
 4117SOL     OW13249   1.187   1.683   3.701
 4117SOL    HW113250   1.160   1.588   3.689
 4117SOL    HW213251   1.198   1.726   3.611
 4118SOL     OW13252   0.269   6.454   0.064
 4118SOL    HW113253   0.252   6.389   0.138
 4118SOL    HW213254   0.190   6.454   0.002
 4119SOL     OW13255   0.491   0.288   4.402
 4119SOL    HW113256   0.515   0.308   4.307
 4119SOL    HW213257   0.516   0.365   4.460
 4120SOL     OW13258   1.989   0.753   6.385
 4120SOL    HW113259   2.003   0.660   6.419
 4120SOL    HW213260   2.033   0.764   6.296
 4121SOL     OW13261   6.710   6.567   2.447
 4121SOL    HW113262   6.732   6.523   2.534
 4121SOL    HW213263   6.755   6.519   2.372
 4122SOL     OW13264   0.558   4.359   2.996
 4122SOL    HW113265   0.528   4.283   2.938
 4122SOL    HW213266   0.544   4.445   2.947
 4123SOL     OW13267   5.022   5.085   1.277
 4123SOL    HW113268   5.079   5.015   1.320
 4123SOL    HW213269   4.934   5.090   1.324
 4124SOL     OW13270   6.027   5.343   0.345
 4124SOL    HW113271   5.981   5.403   0.280
 4124SOL    HW213272   5.992   5.250   0.336
 4125SOL     OW13273   6.368   2.203   0.784
 4125SOL    HW113274   6.431   2.236   0.854
 4125SOL    HW213275   6.329   2.280   0.734
 4126SOL     OW13276   1.352   3.343   2.663
 4126SOL    HW113277   1.349   3.380   2.756
 4126SOL    HW213278   1.355   3.243   2.667
 4127SOL     OW13279   4.247   1.785   4.623
 4127SOL    HW113280   4.334   1.821   4.588
 4127SOL    HW213281   4.180   1.782   4.548
 4128SOL     OW13282   1.055   2.912   0.033
 4128SOL    HW113283   1.101   2.983   7.003
 4128SOL    HW213284   0.967   2.948   0.067
 4129SOL     OW13285   2.798   2.524   0.515
 4129SOL    HW113286   2.806   2.486   0.607
 4129SOL    HW213287   2.854   2.607   0.508
 4130SOL     OW13288   5.579   3.211   0.578
 4130SOL    HW113289   5.669   3.175   0.552
 4130SOL    HW213290   5.539   3.153   0.649
 4131SOL     OW13291   4.865   6.528   3.245
 4131SOL    HW113292   4.824   6.508   3.156
 4131SOL    HW213293   4.851   6.624   3.267
 4132SOL     OW13294   0.501   5.479   3.687
 4132SOL    HW113295   0.465   5.417   3.618
 4132SOL    HW213296   0.579   5.529   3.649
 4133SOL     OW13297   5.677   0.264   2.763
 4133SOL    HW113298   5.712   0.338   2.706
 4133SOL    HW213299   5.752   0.206   2.794
 4134SOL     OW13300   1.423   3.659   1.502
 4134SOL    HW113301   1.479   3.719   1.559
 4134SOL    HW213302   1.330   3.656   1.540
 4135SOL     OW13303   6.757   0.427   2.085
 4135SOL    HW113304   6.780   0.354   2.149
 4135SOL    HW213305   6.716   0.503   2.135
 4136SOL     OW13306   0.987   4.891   0.944
 4136SOL    HW113307   1.001   4.807   0.891
 4136SOL    HW213308   1.057   4.897   1.015
 4137SOL     OW13309   1.213   2.526   0.384
 4137SOL    HW113310   1.309   2.521   0.410
 4137SOL    HW213311   1.173   2.434   0.385
 4138SOL     OW13312   4.970   0.001   6.942
 4138SOL    HW113313   5.061   7.014   6.983
 4138SOL    HW213314   4.949   6.945   6.887
 4139SOL     OW13315   2.269   4.175   2.838
 4139SOL    HW113316   2.270   4.078   2.817
 4139SOL    HW213317   2.178   4.213   2.817
 4140SOL     OW13318   1.837   0.345   5.785
 4140SOL    HW113319   1.797   0.432   5.756
 4140SOL    HW213320   1.917   0.362   5.842
 4141SOL     OW13321   4.567   0.478   6.221
 4141SOL    HW113322   4.664   0.472   6.196
 4141SOL    HW213323   4.549   0.567   6.263
 4142SOL     OW13324   0.651   5.302   2.095
 4142SOL    HW113325   0.739   5.319   2.139
 4142SOL    HW213326   0.589   5.379   2.114
 4143SOL     OW13327   5.723   2.752   6.366
 4143SOL    HW113328   5.754   2.661   6.395
 4143SOL    HW213329   5.690   2.803   6.446
 4144SOL     OW13330   6.310   1.107   0.601
 4144SOL    HW113331   6.354   1.124   0.513
 4144SOL    HW213332   6.254   1.187   0.626
 4145SOL     OW13333   6.947   0.229   1.860
 4145SOL    HW113334   6.877   0.201   1.925
 4145SOL    HW213335   6.946   0.329   1.850
 4146SOL     OW13336   5.231   6.110   2.176
 4146SOL    HW113337   5.189   6.180   2.232
 4146SOL    HW213338   5.330   6.109   2.191
 4147SOL     OW13339   4.281   4.845   6.450
 4147SOL    HW113340   4.293   4.914   6.378
 4147SOL    HW213341   4.267   4.891   6.538
 4148SOL     OW13342   2.216   1.532   5.515
 4148SOL    HW113343   2.294   1.485   5.474
 4148SOL    HW213344   2.221   1.523   5.615
 4149SOL     OW13345   1.492   3.613   6.593
 4149SOL    HW113346   1.567   3.592   6.530
 4149SOL    HW213347   1.419   3.547   6.582
 4150SOL     OW13348   5.387   2.023   6.698
 4150SOL    HW113349   5.448   2.021   6.777
 4150SOL    HW213350   5.421   1.961   6.627
 4151SOL     OW13351   3.145   5.889   4.413
 4151SOL    HW113352   3.079   5.854   4.347
 4151SOL    HW213353   3.101   5.956   4.473
 4152SOL     OW13354   2.924   4.424   1.431
 4152SOL    HW113355   2.988   4.428   1.354
 4152SOL    HW213356   2.972   4.394   1.513
 4153SOL     OW13357   6.877   5.926   1.411
 4153SOL    HW113358   6.954   5.987   1.390
 4153SOL    HW213359   6.906   5.858   1.479
 4154SOL     OW13360   1.308   6.198   3.984
 4154SOL    HW113361   1.227   6.167   3.934
 4154SOL    HW213362   1.366   6.119   4.005
 4155SOL     OW13363   0.644   0.729   1.779
 4155SOL    HW113364   0.661   0.639   1.820
 4155SOL    HW213365   0.649   0.800   1.848
 4156SOL     OW13366   0.496   5.385   6.270
 4156SOL    HW113367   0.439   5.324   6.214
 4156SOL    HW213368   0.442   5.417   6.348
 4157SOL     OW13369   6.060   5.967   1.788
 4157SOL    HW113370   6.013   5.912   1.857
 4157SOL    HW213371   6.073   5.912   1.705
 4158SOL     OW13372   0.882   2.651   1.449
 4158SOL    HW113373   0.871   2.736   1.398
 4158SOL    HW213374   0.883   2.671   1.547
 4159SOL     OW13375   3.123   0.536   3.906
 4159SOL    HW113376   3.124   0.522   4.005
 4159SOL    HW213377   3.135   0.633   3.886
 4160SOL     OW13378   6.858   0.094   6.901
 4160SOL    HW113379   6.804   0.177   6.893
 4160SOL    HW213380   6.847   0.038   6.818
 4161SOL     OW13381   3.490   3.228   1.926
 4161SOL    HW113382   3.589   3.218   1.924
 4161SOL    HW213383   3.466   3.318   1.962
 4162SOL     OW13384   5.316   5.452   1.792
 4162SOL    HW113385   5.359   5.415   1.710
 4162SOL    HW213386   5.381   5.446   1.869
 4163SOL     OW13387   3.620   5.784   1.950
 4163SOL    HW113388   3.612   5.857   2.017
 4163SOL    HW213389   3.687   5.810   1.880
 4164SOL     OW13390   6.807   0.885   6.073
 4164SOL    HW113391   6.827   0.968   6.021
 4164SOL    HW213392   6.880   0.818   6.059
 4165SOL     OW13393   4.778   0.594   4.629
 4165SOL    HW113394   4.845   0.633   4.692
 4165SOL    HW213395   4.793   0.632   4.538
 4166SOL     OW13396   5.846   1.510   1.266
 4166SOL    HW113397   5.796   1.434   1.307
 4166SOL    HW213398   5.914   1.545   1.331
 4167SOL     OW13399   3.413   5.836   4.436
 4167SOL    HW113400   3.314   5.847   4.429
 4167SOL    HW213401   3.458   5.906   4.380
 4168SOL     OW13402   5.295   3.779   6.643
 4168SOL    HW113403   5.362   3.711   6.670
 4168SOL    HW213404   5.204   3.737   6.641
 4169SOL     OW13405   4.981   2.924   5.690
 4169SOL    HW113406   5.030   2.893   5.609
 4169SOL    HW213407   4.969   2.848   5.754
 4170SOL     OW13408   0.201   2.647   4.505
 4170SOL    HW113409   0.192   2.626   4.408
 4170SOL    HW213410   0.264   2.724   4.517
 4171SOL     OW13411   0.577   1.912   0.076
 4171SOL    HW113412   0.660   1.858   0.082
 4171SOL    HW213413   0.552   1.945   0.167
 4172SOL     OW13414   2.958   4.466   0.721
 4172SOL    HW113415   3.028   4.520   0.675
 4172SOL    HW213416   2.944   4.380   0.672
 4173SOL     OW13417   5.000   2.424   6.731
 4173SOL    HW113418   5.083   2.369   6.741
 4173SOL    HW213419   5.005   2.478   6.647
 4174SOL     OW13420   3.188   0.670   4.828
 4174SOL    HW113421   3.210   0.575   4.809
 4174SOL    HW213422   3.133   0.676   4.911
 4175SOL     OW13423   0.474   4.217   6.802
 4175SOL    HW113424   0.497   4.169   6.717
 4175SOL    HW213425   0.474   4.316   6.787
 4176SOL     OW13426   5.288   0.237   6.018
 4176SOL    HW113427   5.332   0.147   6.022
 4176SOL    HW213428   5.235   0.244   5.934
 4177SOL     OW13429   4.225   4.741   2.526
 4177SOL    HW113430   4.272   4.827   2.544
 4177SOL    HW213431   4.129   4.749   2.556
 4178SOL     OW13432   3.890   5.700   1.233
 4178SOL    HW113433   3.858   5.690   1.138
 4178SOL    HW213434   3.903   5.610   1.274
 4179SOL     OW13435   5.443   3.050   5.665
 4179SOL    HW113436   5.495   2.978   5.620
 4179SOL    HW213437   5.504   3.124   5.693
 4180SOL     OW13438   4.495   3.919   0.575
 4180SOL    HW113439   4.445   3.833   0.590
 4180SOL    HW213440   4.436   3.996   0.598
 4181SOL     OW13441   4.863   6.640   4.944
 4181SOL    HW113442   4.848   6.555   4.893
 4181SOL    HW213443   4.941   6.689   4.904
 4182SOL     OW13444   6.964   6.532   4.903
 4182SOL    HW113445   6.988   6.628   4.915
 4182SOL    HW213446   7.011   6.477   4.973
 4183SOL     OW13447   4.312   1.843   0.869
 4183SOL    HW113448   4.253   1.921   0.844
 4183SOL    HW213449   4.388   1.876   0.924
 4184SOL     OW13450   3.405   5.694   3.867
 4184SOL    HW113451   3.498   5.670   3.840
 4184SOL    HW213452   3.402   5.789   3.897
 4185SOL     OW13453   5.641   2.954   3.480
 4185SOL    HW113454   5.578   2.878   3.465
 4185SOL    HW213455   5.663   2.996   3.392
 4186SOL     OW13456   1.753   6.329   0.175
 4186SOL    HW113457   1.847   6.296   0.186
 4186SOL    HW213458   1.719   6.304   0.085
 4187SOL     OW13459   1.721   3.561   6.471
 4187SOL    HW113460   1.761   3.547   6.381
 4187SOL    HW213461   1.788   3.541   6.542
 4188SOL     OW13462   4.342   0.061   0.372
 4188SOL    HW113463   4.273   0.001   0.412
 4188SOL    HW213464   4.316   0.156   0.386
 4189SOL     OW13465   5.052   4.618   3.848
 4189SOL    HW113466   4.999   4.546   3.892
 4189SOL    HW213467   5.037   4.704   3.897
 4190SOL     OW13468   6.691   5.747   1.319
 4190SOL    HW113469   6.748   5.685   1.265
 4190SOL    HW213470   6.748   5.819   1.358
 4191SOL     OW13471   4.499   4.672   6.754
 4191SOL    HW113472   4.502   4.576   6.727
 4191SOL    HW213473   4.431   4.685   6.826
 4192SOL     OW13474   1.673   3.271   1.347
 4192SOL    HW113475   1.599   3.217   1.388
 4192SOL    HW213476   1.680   3.359   1.393
 4193SOL     OW13477   0.560   0.644   0.648
 4193SOL    HW113478   0.468   0.668   0.617
 4193SOL    HW213479   0.555   0.590   0.732
 4194SOL     OW13480   4.292   1.353   5.503
 4194SOL    HW113481   4.331   1.265   5.474
 4194SOL    HW213482   4.265   1.406   5.423
 4195SOL     OW13483   3.447   6.177   0.769
 4195SOL    HW113484   3.463   6.081   0.790
 4195SOL    HW213485   3.446   6.231   0.853
 4196SOL     OW13486   6.242   3.202   1.836
 4196SOL    HW113487   6.327   3.238   1.875
 4196SOL    HW213488   6.200   3.139   1.901
 4197SOL     OW13489   3.541   1.012   6.952
 4197SOL    HW113490   3.494   0.962   0.001
 4197SOL    HW213491   3.567   0.949   6.879
 4198SOL     OW13492   6.515   2.251   2.464
 4198SOL    HW113493   6.609   2.260   2.432
 4198SOL    HW213494   6.507   2.170   2.522
 4199SOL     OW13495   0.798   3.780   5.992
 4199SOL    HW113496   0.721   3.731   6.033
 4199SOL    HW213497   0.769   3.824   5.907
 4200SOL     OW13498   4.995   0.910   3.749
 4200SOL    HW113499   4.963   0.833   3.694
 4200SOL    HW213500   5.094   0.920   3.737
 4201SOL     OW13501   5.477   6.528   3.878
 4201SOL    HW113502   5.519   6.460   3.938
 4201SOL    HW213503   5.457   6.487   3.790
 4202SOL     OW13504   5.178   4.078   1.019
 4202SOL    HW113505   5.119   4.142   1.068
 4202SOL    HW213506   5.252   4.049   1.079
 4203SOL     OW13507   6.448   5.589   6.252
 4203SOL    HW113508   6.419   5.573   6.158
 4203SOL    HW213509   6.386   5.654   6.295
 4204SOL     OW13510   2.375   3.338   6.536
 4204SOL    HW113511   2.277   3.316   6.535
 4204SOL    HW213512   2.428   3.253   6.537
 4205SOL     OW13513   3.632   6.537   5.562
 4205SOL    HW113514   3.678   6.539   5.473
 4205SOL    HW213515   3.542   6.579   5.554
 4206SOL     OW13516   1.818   2.239   4.747
 4206SOL    HW113517   1.895   2.227   4.685
 4206SOL    HW213518   1.822   2.329   4.789
 4207SOL     OW13519   1.481   2.089   2.346
 4207SOL    HW113520   1.541   2.141   2.285
 4207SOL    HW213521   1.387   2.094   2.313
 4208SOL     OW13522   1.990   3.416   4.517
 4208SOL    HW113523   1.923   3.379   4.452
 4208SOL    HW213524   2.013   3.346   4.584
 4209SOL     OW13525   6.772   6.452   2.219
 4209SOL    HW113526   6.790   6.542   2.178
 4209SOL    HW213527   6.834   6.385   2.179
 4210SOL     OW13528   3.988   3.877   4.658
 4210SOL    HW113529   4.011   3.882   4.561
 4210SOL    HW213530   3.956   3.966   4.689
 4211SOL     OW13531   4.168   2.536   5.532
 4211SOL    HW113532   4.216   2.618   5.562
 4211SOL    HW213533   4.075   2.536   5.568
 4212SOL     OW13534   0.009   2.608   3.438
 4212SOL    HW113535   0.041   2.524   3.393
 4212SOL    HW213536   6.935   2.601   3.454
 4213SOL     OW13537   3.492   1.160   3.693
 4213SOL    HW113538   3.427   1.231   3.669
 4213SOL    HW213539   3.513   1.105   3.612
 4214SOL     OW13540   0.077   5.979   3.617
 4214SOL    HW113541   0.138   5.902   3.603
 4214SOL    HW213542   0.125   6.052   3.666
 4215SOL     OW13543   4.622   6.890   5.446
 4215SOL    HW113544   4.705   6.833   5.440
 4215SOL    HW213545   4.626   6.945   5.529
 4216SOL     OW13546   2.425   5.840   2.044
 4216SOL    HW113547   2.456   5.883   1.960
 4216SOL    HW213548   2.455   5.895   2.122
 4217SOL     OW13549   0.698   0.505   2.686
 4217SOL    HW113550   0.764   0.439   2.723
 4217SOL    HW213551   0.680   0.575   2.755
 4218SOL     OW13552   2.869   1.403   1.285
 4218SOL    HW113553   2.836   1.467   1.355
 4218SOL    HW213554   2.933   1.451   1.224
 4219SOL     OW13555   4.570   5.598   3.110
 4219SOL    HW113556   4.532   5.590   3.202
 4219SOL    HW213557   4.522   5.670   3.060
 4220SOL     OW13558   5.491   1.865   2.154
 4220SOL    HW113559   5.513   1.790   2.216
 4220SOL    HW213560   5.575   1.900   2.112
 4221SOL     OW13561   0.633   6.265   0.184
 4221SOL    HW113562   0.650   6.359   0.155
 4221SOL    HW213563   0.606   6.264   0.281
 4222SOL     OW13564   4.790   2.968   4.187
 4222SOL    HW113565   4.732   3.028   4.133
 4222SOL    HW213566   4.796   3.001   4.281
 4223SOL     OW13567   4.178   3.292   2.096
 4223SOL    HW113568   4.105   3.357   2.074
 4223SOL    HW213569   4.264   3.323   2.056
 4224SOL     OW13570   4.916   3.588   4.570
 4224SOL    HW113571   4.950   3.498   4.542
 4224SOL    HW213572   4.859   3.578   4.652
 4225SOL     OW13573   0.109   1.893   5.507
 4225SOL    HW113574   0.087   1.990   5.510
 4225SOL    HW213575   0.202   1.878   5.541
 4226SOL     OW13576   1.280   5.645   4.968
 4226SOL    HW113577   1.364   5.694   4.992
 4226SOL    HW213578   1.201   5.702   4.991
 4227SOL     OW13579   5.400   5.353   2.460
 4227SOL    HW113580   5.305   5.322   2.455
 4227SOL    HW213581   5.446   5.310   2.537
 4228SOL     OW13582   1.853   5.374   3.855
 4228SOL    HW113583   1.786   5.341   3.921
 4228SOL    HW213584   1.832   5.339   3.764
 4229SOL     OW13585   6.621   4.750   5.201
 4229SOL    HW113586   6.661   4.661   5.221
 4229SOL    HW213587   6.526   4.751   5.231
 4230SOL     OW13588   0.621   0.861   2.269
 4230SOL    HW113589   0.654   0.789   2.209
 4230SOL    HW213590   0.547   0.911   2.224
 4231SOL     OW13591   5.913   1.417   5.588
 4231SOL    HW113592   5.932   1.318   5.589
 4231SOL    HW213593   5.880   1.445   5.678
 4232SOL     OW13594   1.848   5.959   3.768
 4232SOL    HW113595   1.835   5.948   3.866
 4232SOL    HW213596   1.847   5.870   3.723
 4233SOL     OW13597   4.719   5.128   3.505
 4233SOL    HW113598   4.750   5.045   3.552
 4233SOL    HW213599   4.621   5.139   3.517
 4234SOL     OW13600   2.918   5.531   6.220
 4234SOL    HW113601   2.857   5.585   6.162
 4234SOL    HW213602   3.013   5.559   6.204
 4235SOL     OW13603   0.346   6.100   5.497
 4235SOL    HW113604   0.315   6.192   5.471
 4235SOL    HW213605   0.305   6.075   5.585
 4236SOL     OW13606   0.230   5.356   2.797
 4236SOL    HW113607   0.198   5.440   2.753
 4236SOL    HW213608   0.207   5.278   2.740
 4237SOL     OW13609   6.821   4.732   3.685
 4237SOL    HW113610   6.782   4.818   3.653
 4237SOL    HW213611   6.753   4.681   3.739
 4238SOL     OW13612   2.602   6.769   2.916
 4238SOL    HW113613   2.592   6.679   2.874
 4238SOL    HW213614   2.615   6.838   2.845
 4239SOL     OW13615   4.505   0.959   3.756
 4239SOL    HW113616   4.471   1.036   3.810
 4239SOL    HW213617   4.429   0.898   3.733
 4240SOL     OW13618   6.932   6.420   1.255
 4240SOL    HW113619   0.006   6.413   1.275
 4240SOL    HW213620   6.882   6.355   1.313
 4241SOL     OW13621   6.342   3.338   0.477
 4241SOL    HW113622   6.309   3.425   0.516
 4241SOL    HW213623   6.295   3.262   0.521
 4242SOL     OW13624   2.300   2.001   3.346
 4242SOL    HW113625   2.365   1.993   3.422
 4242SOL    HW213626   2.332   2.072   3.283
 4243SOL     OW13627   4.747   0.193   3.026
 4243SOL    HW113628   4.814   0.210   2.954
 4243SOL    HW213629   4.660   0.165   2.985
 4244SOL     OW13630   3.627   3.182   2.558
 4244SOL    HW113631   3.699   3.126   2.518
 4244SOL    HW213632   3.540   3.160   2.514
 4245SOL     OW13633   6.423   2.007   6.635
 4245SOL    HW113634   6.474   1.957   6.705
 4245SOL    HW213635   6.371   1.942   6.579
 4246SOL     OW13636   0.952   3.498   1.501
 4246SOL    HW113637   0.864   3.531   1.468
 4246SOL    HW213638   0.941   3.406   1.539
 4247SOL     OW13639   0.276   5.293   4.759
 4247SOL    HW113640   0.335   5.373   4.762
 4247SOL    HW213641   0.331   5.210   4.770
 4248SOL     OW13642   1.527   3.042   5.444
 4248SOL    HW113643   1.471   2.967   5.408
 4248SOL    HW213644   1.591   3.073   5.374
 4249SOL     OW13645   5.464   3.855   5.879
 4249SOL    HW113646   5.421   3.767   5.896
 4249SOL    HW213647   5.544   3.842   5.819
 4250SOL     OW13648   0.314   4.491   3.131
 4250SOL    HW113649   0.280   4.568   3.185
 4250SOL    HW213650   0.413   4.497   3.123
 4251SOL     OW13651   5.748   4.146   0.447
 4251SOL    HW113652   5.774   4.207   0.372
 4251SOL    HW213653   5.726   4.056   0.410
 4252SOL     OW13654   0.413   5.625   5.538
 4252SOL    HW113655   0.485   5.680   5.497
 4252SOL    HW213656   0.383   5.667   5.624
 4253SOL     OW13657   4.467   6.787   2.251
 4253SOL    HW113658   4.426   6.740   2.330
 4253SOL    HW213659   4.417   6.762   2.168
 4254SOL     OW13660   2.702   4.481   1.277
 4254SOL    HW113661   2.768   4.479   1.352
 4254SOL    HW213662   2.628   4.416   1.297
 4255SOL     OW13663   0.333   2.411   4.676
 4255SOL    HW113664   0.433   2.416   4.672
 4255SOL    HW213665   0.294   2.487   4.625
 4256SOL     OW13666   2.070   0.042   1.552
 4256SOL    HW113667   2.134   0.118   1.555
 4256SOL    HW213668   1.977   0.076   1.563
 4257SOL     OW13669   3.798   1.889   4.257
 4257SOL    HW113670   3.763   1.924   4.170
 4257SOL    HW213671   3.744   1.809   4.285
 4258SOL     OW13672   5.226   6.414   2.354
 4258SOL    HW113673   5.259   6.509   2.352
 4258SOL    HW213674   5.292   6.357   2.402
 4259SOL     OW13675   2.314   2.539   0.582
 4259SOL    HW113676   2.308   2.459   0.642
 4259SOL    HW213677   2.410   2.556   0.559
 4260SOL     OW13678   5.162   5.350   3.857
 4260SOL    HW113679   5.192   5.306   3.772
 4260SOL    HW213680   5.227   5.330   3.930
 4261SOL     OW13681   1.327   6.742   2.159
 4261SOL    HW113682   1.266   6.778   2.088
 4261SOL    HW213683   1.386   6.671   2.120
 4262SOL     OW13684   0.587   5.125   6.447
 4262SOL    HW113685   0.560   5.210   6.493
 4262SOL    HW213686   0.627   5.063   6.514
 4263SOL     OW13687   3.281   4.960   5.486
 4263SOL    HW113688   3.261   4.914   5.399
 4263SOL    HW213689   3.321   5.050   5.467
 4264SOL     OW13690   0.046   0.564   0.911
 4264SOL    HW113691   0.039   0.500   0.987
 4264SOL    HW213692   0.090   0.519   0.833
 4265SOL     OW13693   6.804   1.498   1.122
 4265SOL    HW113694   6.856   1.449   1.192
 4265SOL    HW213695   6.848   1.487   1.033
 4266SOL     OW13696   2.449   5.359   1.035
 4266SOL    HW113697   2.497   5.388   1.117
 4266SOL    HW213698   2.509   5.302   0.979
 4267SOL     OW13699   1.709   3.819   4.864
 4267SOL    HW113700   1.775   3.792   4.933
 4267SOL    HW213701   1.747   3.801   4.773
 4268SOL     OW13702   1.983   0.687   0.516
 4268SOL    HW113703   1.904   0.631   0.490
 4268SOL    HW213704   1.977   0.776   0.471
 4269SOL     OW13705   3.345   3.059   0.124
 4269SOL    HW113706   3.437   3.079   0.158
 4269SOL    HW213707   3.278   3.108   0.178
 4270SOL     OW13708   3.296   2.878   4.928
 4270SOL    HW113709   3.322   2.928   4.845
 4270SOL    HW213710   3.222   2.814   4.906
 4271SOL     OW13711   0.713   0.013   6.584
 4271SOL    HW113712   0.721   6.953   6.638
 4271SOL    HW213713   0.673   7.016   6.495
 4272SOL     OW13714   6.940   4.784   4.355
 4272SOL    HW113715   6.917   4.825   4.443
 4272SOL    HW213716   6.857   4.781   4.298
 4273SOL     OW13717   5.653   6.704   5.675
 4273SOL    HW113718   5.629   6.792   5.718
 4273SOL    HW213719   5.697   6.721   5.587
 4274SOL     OW13720   1.556   6.694   3.928
 4274SOL    HW113721   1.491   6.770   3.935
 4274SOL    HW213722   1.578   6.678   3.832
 4275SOL     OW13723   0.713   0.039   6.232
 4275SOL    HW113724   0.744   7.018   6.148
 4275SOL    HW213725   0.656   7.001   6.285
 4276SOL     OW13726   2.312   4.187   2.217
 4276SOL    HW113727   2.248   4.111   2.209
 4276SOL    HW213728   2.300   4.249   2.139
 4277SOL     OW13729   6.966   5.635   3.622
 4277SOL    HW113730   0.025   5.617   3.675
 4277SOL    HW213731   6.927   5.548   3.592
 4278SOL     OW13732   6.573   0.355   5.483
 4278SOL    HW113733   6.549   0.440   5.529
 4278SOL    HW213734   6.672   0.341   5.489
 4279SOL     OW13735   3.298   6.611   5.268
 4279SOL    HW113736   3.232   6.537   5.255
 4279SOL    HW213737   3.390   6.577   5.249
 4280SOL     OW13738   5.314   2.395   4.121
 4280SOL    HW113739   5.241   2.348   4.171
 4280SOL    HW213740   5.360   2.459   4.182
 4281SOL     OW13741   2.158   4.261   5.002
 4281SOL    HW113742   2.192   4.167   5.009
 4281SOL    HW213743   2.136   4.282   4.907
 4282SOL     OW13744   1.997   2.290   1.408
 4282SOL    HW113745   1.928   2.307   1.478
 4282SOL    HW213746   2.058   2.369   1.400
 4283SOL     OW13747   1.602   0.359   4.192
 4283SOL    HW113748   1.674   0.325   4.252
 4283SOL    HW213749   1.556   0.436   4.236
 4284SOL     OW13750   5.941   1.971   2.645
 4284SOL    HW113751   6.025   2.007   2.605
 4284SOL    HW213752   5.882   1.935   2.572
 4285SOL     OW13753   1.225   6.849   5.922
 4285SOL    HW113754   1.170   6.829   6.003
 4285SOL    HW213755   1.168   6.841   5.840
 4286SOL     OW13756   5.037   5.723   0.289
 4286SOL    HW113757   4.961   5.706   0.352
 4286SOL    HW213758   5.008   5.790   0.221
 4287SOL     OW13759   5.378   6.648   4.839
 4287SOL    HW113760   5.319   6.716   4.796
 4287SOL    HW213761   5.466   6.646   4.794
 4288SOL     OW13762   1.497   6.458   3.007
 4288SOL    HW113763   1.497   6.408   3.093
 4288SOL    HW213764   1.561   6.534   3.012
 4289SOL     OW13765   5.654   2.854   1.413
 4289SOL    HW113766   5.583   2.787   1.389
 4289SOL    HW213767   5.654   2.928   1.346
 4290SOL     OW13768   2.470   1.024   1.883
 4290SOL    HW113769   2.437   0.996   1.793
 4290SOL    HW213770   2.561   1.066   1.873
 4291SOL     OW13771   6.328   3.929   0.832
 4291SOL    HW113772   6.358   3.913   0.926
 4291SOL    HW213773   6.231   3.955   0.832
 4292SOL     OW13774   5.806   5.136   6.739
 4292SOL    HW113775   5.707   5.132   6.752
 4292SOL    HW213776   5.836   5.231   6.743
 4293SOL     OW13777   6.978   2.839   6.976
 4293SOL    HW113778   0.029   2.833   0.019
 4293SOL    HW213779   6.964   2.750   6.934
 4294SOL     OW13780   4.353   2.190   5.895
 4294SOL    HW113781   4.375   2.241   5.812
 4294SOL    HW213782   4.431   2.132   5.920
 4295SOL     OW13783   3.648   0.478   4.267
 4295SOL    HW113784   3.659   0.525   4.354
 4295SOL    HW213785   3.575   0.521   4.214
 4296SOL     OW13786   2.582   1.781   1.305
 4296SOL    HW113787   2.659   1.838   1.333
 4296SOL    HW213788   2.497   1.833   1.313
 4297SOL     OW13789   5.393   0.858   5.510
 4297SOL    HW113790   5.409   0.845   5.608
 4297SOL    HW213791   5.470   0.908   5.471
 4298SOL     OW13792   2.491   6.022   1.329
 4298SOL    HW113793   2.568   6.007   1.391
 4298SOL    HW213794   2.414   5.965   1.356
 4299SOL     OW13795   1.043   3.501   6.582
 4299SOL    HW113796   1.085   3.592   6.590
 4299SOL    HW213797   1.055   3.467   6.489
 4300SOL     OW13798   4.782   1.014   6.527
 4300SOL    HW113799   4.776   0.917   6.504
 4300SOL    HW213800   4.812   1.066   6.446
 4301SOL     OW13801   2.717   1.668   0.730
 4301SOL    HW113802   2.674   1.598   0.787
 4301SOL    HW213803   2.668   1.676   0.643
 4302SOL     OW13804   1.003   6.434   6.955
 4302SOL    HW113805   0.943   6.513   6.967
 4302SOL    HW213806   1.019   6.419   6.858
 4303SOL     OW13807   0.097   3.430   2.108
 4303SOL    HW113808   7.022   3.416   2.113
 4303SOL    HW213809   0.144   3.342   2.110
 4304SOL     OW13810   3.088   3.843   4.304
 4304SOL    HW113811   3.166   3.906   4.312
 4304SOL    HW213812   3.048   3.828   4.395
 4305SOL     OW13813   6.260   1.380   3.429
 4305SOL    HW113814   6.275   1.458   3.489
 4305SOL    HW213815   6.163   1.375   3.405
 4306SOL     OW13816   6.744   4.843   5.662
 4306SOL    HW113817   6.726   4.937   5.690
 4306SOL    HW213818   6.778   4.842   5.568
 4307SOL     OW13819   5.340   3.999   6.229
 4307SOL    HW113820   5.419   3.944   6.201
 4307SOL    HW213821   5.262   3.979   6.169
 4308SOL     OW13822   5.240   6.114   4.487
 4308SOL    HW113823   5.171   6.071   4.430
 4308SOL    HW213824   5.275   6.049   4.554
 4309SOL     OW13825   1.508   1.275   0.543
 4309SOL    HW113826   1.529   1.358   0.596
 4309SOL    HW213827   1.447   1.216   0.596
 4310SOL     OW13828   1.858   1.768   2.884
 4310SOL    HW113829   1.814   1.767   2.794
 4310SOL    HW213830   1.789   1.763   2.955
 4311SOL     OW13831   1.997   6.267   3.272
 4311SOL    HW113832   2.033   6.321   3.348
 4311SOL    HW213833   2.068   6.257   3.202
 4312SOL     OW13834   2.025   5.215   1.989
 4312SOL    HW113835   2.073   5.216   1.902
 4312SOL    HW213836   1.950   5.282   1.987
 4313SOL     OW13837   4.966   0.961   2.254
 4313SOL    HW113838   4.907   0.967   2.174
 4313SOL    HW213839   4.932   0.890   2.316
 4314SOL     OW13840   4.878   3.205   2.743
 4314SOL    HW113841   4.836   3.117   2.721
 4314SOL    HW213842   4.880   3.218   2.842
 4315SOL     OW13843   2.505   0.527   1.978
 4315SOL    HW113844   2.440   0.462   2.017
 4315SOL    HW213845   2.598   0.499   2.000
 4316SOL     OW13846   6.286   0.621   1.916
 4316SOL    HW113847   6.349   0.571   1.975
 4316SOL    HW213848   6.280   0.576   1.827
 4317SOL     OW13849   3.781   1.053   3.910
 4317SOL    HW113850   3.718   0.997   3.964
 4317SOL    HW213851   3.870   1.057   3.955
 4318SOL     OW13852   0.416   3.276   3.755
 4318SOL    HW113853   0.336   3.317   3.799
 4318SOL    HW213854   0.498   3.298   3.808
 4319SOL     OW13855   2.426   3.451   6.779
 4319SOL    HW113856   2.398   3.547   6.773
 4319SOL    HW213857   2.394   3.402   6.698
 4320SOL     OW13858   0.318   6.373   2.929
 4320SOL    HW113859   0.329   6.390   3.027
 4320SOL    HW213860   0.225   6.345   2.910
 4321SOL     OW13861   6.862   0.482   5.314
 4321SOL    HW113862   6.823   0.399   5.275
 4321SOL    HW213863   6.934   0.458   5.380
 4322SOL     OW13864   6.184   0.948   0.342
 4322SOL    HW113865   6.150   0.881   0.407
 4322SOL    HW213866   6.271   0.917   0.304
 4323SOL     OW13867   6.644   3.409   3.164
 4323SOL    HW113868   6.630   3.417   3.263
 4323SOL    HW213869   6.740   3.425   3.143
 4324SOL     OW13870   5.846   4.042   6.240
 4324SOL    HW113871   5.788   3.977   6.191
 4324SOL    HW213872   5.810   4.135   6.229
 4325SOL     OW13873   1.853   1.420   6.597
 4325SOL    HW113874   1.767   1.441   6.643
 4325SOL    HW213875   1.865   1.320   6.592
 4326SOL     OW13876   6.080   2.924   5.066
 4326SOL    HW113877   6.109   2.959   5.155
 4326SOL    HW213878   6.160   2.884   5.019
 4327SOL     OW13879   6.114   6.570   2.626
 4327SOL    HW113880   6.089   6.535   2.536
 4327SOL    HW213881   6.051   6.535   2.694
 4328SOL     OW13882   5.434   5.165   0.029
 4328SOL    HW113883   5.349   5.114   0.013
 4328SOL    HW213884   5.412   5.256   0.063
 4329SOL     OW13885   4.332   2.042   5.616
 4329SOL    HW113886   4.351   2.141   5.620
 4329SOL    HW213887   4.314   2.015   5.522
 4330SOL     OW13888   1.091   0.425   5.899
 4330SOL    HW113889   1.066   0.407   5.804
 4330SOL    HW213890   1.016   0.396   5.959
 4331SOL     OW13891   6.007   2.296   6.654
 4331SOL    HW113892   5.998   2.228   6.581
 4331SOL    HW213893   6.067   2.370   6.622
 4332SOL     OW13894   4.985   2.939   2.047
 4332SOL    HW113895   5.031   3.013   1.999
 4332SOL    HW213896   4.886   2.947   2.034
 4333SOL     OW13897   5.313   0.714   4.675
 4333SOL    HW113898   5.312   0.790   4.740
 4333SOL    HW213899   5.389   0.725   4.611
 4334SOL     OW13900   4.279   1.638   2.167
 4334SOL    HW113901   4.257   1.645   2.264
 4334SOL    HW213902   4.195   1.635   2.114
 4335SOL     OW13903   3.438   4.120   5.132
 4335SOL    HW113904   3.342   4.104   5.156
 4335SOL    HW213905   3.469   4.050   5.068
 4336SOL     OW13906   1.378   6.578   4.464
 4336SOL    HW113907   1.385   6.569   4.365
 4336SOL    HW213908   1.460   6.541   4.508
 4337SOL     OW13909   0.022   5.511   0.688
 4337SOL    HW113910   6.948   5.520   0.669
 4337SOL    HW213911   0.050   5.417   0.672
 4338SOL     OW13912   6.631   6.115   4.138
 4338SOL    HW113913   6.548   6.137   4.188
 4338SOL    HW213914   6.626   6.022   4.103
 4339SOL     OW13915   6.063   1.211   5.417
 4339SOL    HW113916   6.032   1.288   5.361
 4339SOL    HW213917   6.150   1.236   5.460
 4340SOL     OW13918   5.424   3.645   1.538
 4340SOL    HW113919   5.392   3.555   1.507
 4340SOL    HW213920   5.362   3.716   1.506
 4341SOL     OW13921   1.294   4.363   1.287
 4341SOL    HW113922   1.254   4.454   1.298
 4341SOL    HW213923   1.227   4.293   1.316
 4342SOL     OW13924   0.873   3.223   3.006
 4342SOL    HW113925   0.816   3.142   3.025
 4342SOL    HW213926   0.965   3.208   3.043
 4343SOL     OW13927   2.971   1.128   1.254
 4343SOL    HW113928   2.944   1.224   1.257
 4343SOL    HW213929   2.906   1.074   1.308
 4344SOL     OW13930   1.919   4.986   2.980
 4344SOL    HW113931   1.957   5.035   3.058
 4344SOL    HW213932   1.861   5.048   2.927
 4345SOL     OW13933   1.359   2.288   5.541
 4345SOL    HW113934   1.337   2.385   5.549
 4345SOL    HW213935   1.294   2.234   5.593
 4346SOL     OW13936   1.984   3.331   2.002
 4346SOL    HW113937   2.066   3.383   2.026
 4346SOL    HW213938   1.929   3.382   1.936
 4347SOL     OW13939   5.530   6.763   2.912
 4347SOL    HW113940   5.434   6.739   2.897
 4347SOL    HW213941   5.579   6.683   2.946
 4348SOL     OW13942   1.892   4.260   6.863
 4348SOL    HW113943   1.989   4.245   6.846
 4348SOL    HW213944   1.853   4.315   6.790
 4349SOL     OW13945   0.124   1.417   3.594
 4349SOL    HW113946   0.092   1.331   3.556
 4349SOL    HW213947   0.198   1.399   3.659
 4350SOL     OW13948   5.103   2.077   3.734
 4350SOL    HW113949   5.010   2.113   3.740
 4350SOL    HW213950   5.168   2.146   3.766
 4351SOL     OW13951   2.878   6.074   1.847
 4351SOL    HW113952   2.907   6.043   1.756
 4351SOL    HW213953   2.905   6.006   1.915
 4352SOL     OW13954   6.650   1.036   2.295
 4352SOL    HW113955   6.721   1.047   2.226
 4352SOL    HW213956   6.643   1.120   2.350
 4353SOL     OW13957   3.347   5.843   6.318
 4353SOL    HW113958   3.329   5.907   6.243
 4353SOL    HW213959   3.261   5.817   6.362
 4354SOL     OW13960   2.080   7.013   0.601
 4354SOL    HW113961   2.053   6.967   0.516
 4354SOL    HW213962   2.151   6.959   0.647
 4355SOL     OW13963   4.729   1.124   0.514
 4355SOL    HW113964   4.663   1.194   0.542
 4355SOL    HW213965   4.684   1.061   0.450
 4356SOL     OW13966   4.306   4.122   0.718
 4356SOL    HW113967   4.277   4.214   0.741
 4356SOL    HW213968   4.355   4.082   0.796
 4357SOL     OW13969   5.921   0.150   6.905
 4357SOL    HW113970   5.846   0.096   6.867
 4357SOL    HW213971   5.961   0.101   6.983
 4358SOL     OW13972   0.920   6.748   1.654
 4358SOL    HW113973   0.856   6.721   1.582
 4358SOL    HW213974   0.895   6.703   1.739
 4359SOL     OW13975   0.041   2.297   3.929
 4359SOL    HW113976   7.015   2.379   3.956
 4359SOL    HW213977   0.115   2.322   3.866
 4360SOL     OW13978   1.192   3.422   1.316
 4360SOL    HW113979   1.228   3.479   1.242
 4360SOL    HW213980   1.122   3.473   1.367
 4361SOL     OW13981   4.881   2.507   2.088
 4361SOL    HW113982   4.909   2.539   2.179
 4361SOL    HW213983   4.961   2.475   2.037
 4362SOL     OW13984   6.290   4.147   4.625
 4362SOL    HW113985   6.334   4.068   4.583
 4362SOL    HW213986   6.357   4.202   4.673
 4363SOL     OW13987   4.838   2.345   5.794
 4363SOL    HW113988   4.846   2.257   5.841
 4363SOL    HW213989   4.910   2.406   5.826
 4364SOL     OW13990   3.079   4.052   4.543
 4364SOL    HW113991   3.150   4.035   4.475
 4364SOL    HW213992   3.044   4.145   4.532
 4365SOL     OW13993   3.799   2.132   2.624
 4365SOL    HW113994   3.716   2.147   2.571
 4365SOL    HW213995   3.874   2.186   2.585
 4366SOL     OW13996   5.983   5.613   0.992
 4366SOL    HW113997   5.920   5.606   0.915
 4366SOL    HW213998   5.990   5.708   1.022
 4367SOL     OW13999   1.381   6.404   6.192
 4367SOL    HW114000   1.316   6.446   6.129
 4367SOL    HW214001   1.355   6.309   6.209
 4368SOL     OW14002   5.687   3.880   1.810
 4368SOL    HW114003   5.674   3.924   1.899
 4368SOL    HW214004   5.670   3.947   1.737
 4369SOL     OW14005   4.424   5.408   2.158
 4369SOL    HW114006   4.373   5.349   2.095
 4369SOL    HW214007   4.515   5.425   2.120
 4370SOL     OW14008   5.746   4.674   3.444
 4370SOL    HW114009   5.844   4.678   3.422
 4370SOL    HW214010   5.719   4.758   3.491
 4371SOL     OW14011   6.402   1.852   2.104
 4371SOL    HW114012   6.348   1.909   2.042
 4371SOL    HW214013   6.415   1.762   2.064
 4372SOL     OW14014   4.273   1.208   3.337
 4372SOL    HW114015   4.349   1.147   3.312
 4372SOL    HW214016   4.266   1.214   3.436
 4373SOL     OW14017   6.750   1.835   6.518
 4373SOL    HW114018   6.715   1.757   6.570
 4373SOL    HW214019   6.677   1.871   6.459
 4374SOL     OW14020   2.060   2.532   1.617
 4374SOL    HW114021   2.014   2.475   1.685
 4374SOL    HW214022   2.148   2.562   1.653
 4375SOL     OW14023   2.642   6.534   4.826
 4375SOL    HW114024   2.686   6.446   4.844
 4375SOL    HW214025   2.613   6.538   4.730
 4376SOL     OW14026   5.709   0.743   2.759
 4376SOL    HW114027   5.689   0.774   2.666
 4376SOL    HW214028   5.807   0.722   2.767
 4377SOL     OW14029   5.922   4.486   6.800
 4377SOL    HW114030   5.830   4.494   6.761
 4377SOL    HW214031   5.950   4.390   6.798
 4378SOL     OW14032   1.652   0.343   3.920
 4378SOL    HW114033   1.631   0.343   4.017
 4378SOL    HW214034   1.717   0.270   3.899
 4379SOL     OW14035   2.679   2.142   5.262
 4379SOL    HW114036   2.621   2.109   5.187
 4379SOL    HW214037   2.759   2.188   5.224
 4380SOL     OW14038   0.469   1.277   1.561
 4380SOL    HW114039   0.550   1.266   1.504
 4380SOL    HW214040   0.481   1.227   1.647
 4381SOL     OW14041   2.345   6.616   5.928
 4381SOL    HW114042   2.289   6.636   5.847
 4381SOL    HW214043   2.432   6.576   5.899
 4382SOL     OW14044   6.966   3.717   5.320
 4382SOL    HW114045   0.018   3.727   5.256
 4382SOL    HW214046   6.999   3.677   5.406
 4383SOL     OW14047   5.429   2.883   6.929
 4383SOL    HW114048   5.434   2.800   6.873
 4383SOL    HW214049   5.380   2.862   7.014
 4384SOL     OW14050   6.199   6.349   3.777
 4384SOL    HW114051   6.233   6.335   3.870
 4384SOL    HW214052   6.265   6.405   3.726
 4385SOL     OW14053   5.760   1.781   4.500
 4385SOL    HW114054   5.825   1.724   4.450
 4385SOL    HW214055   5.696   1.823   4.436
 4386SOL     OW14056   0.822   3.225   5.422
 4386SOL    HW114057   0.885   3.276   5.363
 4386SOL    HW214058   0.751   3.287   5.456
 4387SOL     OW14059   6.491   1.786   0.213
 4387SOL    HW114060   6.551   1.800   0.291
 4387SOL    HW214061   6.453   1.874   0.183
 4388SOL     OW14062   4.889   2.185   6.610
 4388SOL    HW114063   4.917   2.276   6.641
 4388SOL    HW214064   4.935   2.115   6.664
 4389SOL     OW14065   0.804   3.710   1.765
 4389SOL    HW114066   0.724   3.698   1.706
 4389SOL    HW214067   0.850   3.796   1.741
 4390SOL     OW14068   6.789   0.671   1.896
 4390SOL    HW114069   6.731   0.617   1.957
 4390SOL    HW214070   6.734   0.706   1.821
 4391SOL     OW14071   2.251   6.263   6.553
 4391SOL    HW114072   2.228   6.351   6.594
 4391SOL    HW214073   2.210   6.257   6.462
 4392SOL     OW14074   2.104   2.632   5.208
 4392SOL    HW114075   2.056   2.545   5.195
 4392SOL    HW214076   2.108   2.655   5.305
 4393SOL     OW14077   4.921   0.665   1.740
 4393SOL    HW114078   4.871   0.743   1.705
 4393SOL    HW214079   5.002   0.648   1.684
 4394SOL     OW14080   1.284   0.260   1.492
 4394SOL    HW114081   1.211   0.193   1.480
 4394SOL    HW214082   1.331   0.275   1.405
 4395SOL     OW14083   2.702   5.631   1.106
 4395SOL    HW114084   2.655   5.715   1.081
 4395SOL    HW214085   2.768   5.606   1.036
 4396SOL     OW14086   2.474   7.014   3.363
 4396SOL    HW114087   2.473   6.914   3.355
 4396SOL    HW214088   2.526   0.029   3.287
 4397SOL     OW14089   2.742   2.059   4.290
 4397SOL    HW114090   2.646   2.074   4.311
 4397SOL    HW214091   2.753   2.039   4.192
 4398SOL     OW14092   2.200   2.923   5.736
 4398SOL    HW114093   2.246   3.011   5.746
 4398SOL    HW214094   2.118   2.934   5.680
 4399SOL     OW14095   3.182   0.246   2.249
 4399SOL    HW114096   3.175   0.194   2.164
 4399SOL    HW214097   3.227   0.190   2.319
 4400SOL     OW14098   1.767   5.455   4.814
 4400SOL    HW114099   1.837   5.384   4.827
 4400SOL    HW214100   1.740   5.457   4.717
 4401SOL     OW14101   3.578   0.349   6.139
 4401SOL    HW114102   3.609   0.262   6.102
 4401SOL    HW214103   3.508   0.333   6.209
 4402SOL     OW14104   1.530   0.369   3.245
 4402SOL    HW114105   1.530   0.272   3.219
 4402SOL    HW214106   1.453   0.388   3.306
 4403SOL     OW14107   1.444   5.025   1.343
 4403SOL    HW114108   1.379   5.097   1.368
 4403SOL    HW214109   1.527   5.066   1.306
 4404SOL     OW14110   0.711   6.626   6.230
 4404SOL    HW114111   0.613   6.626   6.214
 4404SOL    HW214112   0.735   6.546   6.286
 4405SOL     OW14113   1.769   5.229   3.599
 4405SOL    HW114114   1.688   5.178   3.627
 4405SOL    HW214115   1.850   5.173   3.616
 4406SOL     OW14116   6.539   3.826   1.841
 4406SOL    HW114117   6.568   3.893   1.773
 4406SOL    HW214118   6.619   3.794   1.892
 4407SOL     OW14119   6.204   6.303   1.969
 4407SOL    HW114120   6.136   6.350   1.913
 4407SOL    HW214121   6.283   6.362   1.983
 4408SOL     OW14122   3.956   0.724   0.693
 4408SOL    HW114123   4.010   0.809   0.691
 4408SOL    HW214124   3.860   0.747   0.711
 4409SOL     OW14125   3.294   0.488   2.817
 4409SOL    HW114126   3.394   0.491   2.824
 4409SOL    HW214127   3.267   0.504   2.722
 4410SOL     OW14128   1.286   6.251   1.407
 4410SOL    HW114129   1.341   6.199   1.472
 4410SOL    HW214130   1.308   6.348   1.415
 4411SOL     OW14131   3.192   4.446   5.529
 4411SOL    HW114132   3.246   4.407   5.455
 4411SOL    HW214133   3.190   4.382   5.606
 4412SOL     OW14134   5.328   6.278   2.826
 4412SOL    HW114135   5.361   6.333   2.903
 4412SOL    HW214136   5.378   6.303   2.743
 4413SOL     OW14137   4.390   5.988   3.916
 4413SOL    HW114138   4.424   6.061   3.975
 4413SOL    HW214139   4.437   5.991   3.828
 4414SOL     OW14140   4.509   4.187   1.161
 4414SOL    HW114141   4.555   4.275   1.146
 4414SOL    HW214142   4.570   4.126   1.211
 4415SOL     OW14143   2.991   3.547   1.118
 4415SOL    HW114144   2.927   3.579   1.188
 4415SOL    HW214145   3.084   3.550   1.155
 4416SOL     OW14146   4.399   2.394   2.812
 4416SOL    HW114147   4.491   2.419   2.839
 4416SOL    HW214148   4.333   2.459   2.851
 4417SOL     OW14149   7.005   3.965   3.754
 4417SOL    HW114150   0.033   3.947   3.670
 4417SOL    HW214151   6.907   3.967   3.733
 4418SOL     OW14152   6.103   6.644   6.266
 4418SOL    HW114153   6.063   6.713   6.325
 4418SOL    HW214154   6.124   6.562   6.320
 4419SOL     OW14155   6.538   5.774   6.497
 4419SOL    HW114156   6.515   5.732   6.585
 4419SOL    HW214157   6.517   5.710   6.423
 4420SOL     OW14158   3.845   2.122   0.829
 4420SOL    HW114159   3.894   2.116   0.916
 4420SOL    HW214160   3.790   2.040   0.815
 4421SOL     OW14161   1.364   2.535   5.293
 4421SOL    HW114162   1.377   2.436   5.299
 4421SOL    HW214163   1.436   2.581   5.345
 4422SOL     OW14164   6.901   4.382   6.706
 4422SOL    HW114165   6.991   4.340   6.695
 4422SOL    HW214166   6.855   4.388   6.618
 4423SOL     OW14167   5.476   4.148   5.091
 4423SOL    HW114168   5.501   4.203   5.011
 4423SOL    HW214169   5.557   4.097   5.122
 4424SOL     OW14170   5.108   5.498   3.535
 4424SOL    HW114171   5.053   5.419   3.560
 4424SOL    HW214172   5.203   5.470   3.520
 4425SOL     OW14173   1.957   5.412   1.598
 4425SOL    HW114174   1.881   5.434   1.658
 4425SOL    HW214175   1.986   5.495   1.549
 4426SOL     OW14176   0.704   6.835   4.351
 4426SOL    HW114177   0.622   6.886   4.326
 4426SOL    HW214178   0.688   6.737   4.336
 4427SOL     OW14179   2.843   6.245   2.482
 4427SOL    HW114180   2.914   6.195   2.532
 4427SOL    HW214181   2.848   6.342   2.506
 4428SOL     OW14182   5.310   0.250   3.709
 4428SOL    HW114183   5.215   0.221   3.701
 4428SOL    HW214184   5.369   0.170   3.720
 4429SOL     OW14185   2.453   6.085   3.169
 4429SOL    HW114186   2.485   6.170   3.209
 4429SOL    HW214187   2.524   6.015   3.177
 4430SOL     OW14188   5.154   4.642   5.178
 4430SOL    HW114189   5.093   4.565   5.158
 4430SOL    HW214190   5.246   4.608   5.196
 4431SOL     OW14191   3.454   6.836   3.796
 4431SOL    HW114192   3.380   6.888   3.752
 4431SOL    HW214193   3.435   6.828   3.893
 4432SOL     OW14194   1.232   3.860   5.965
 4432SOL    HW114195   1.164   3.787   5.971
 4432SOL    HW214196   1.209   3.933   6.028
 4433SOL     OW14197   0.526   0.723   5.264
 4433SOL    HW114198   0.614   0.757   5.298
 4433SOL    HW214199   0.528   0.720   5.164
 4434SOL     OW14200   0.123   0.267   2.393
 4434SOL    HW114201   0.109   0.349   2.449
 4434SOL    HW214202   0.102   0.186   2.448
 4435SOL     OW14203   2.105   3.367   0.282
 4435SOL    HW114204   2.109   3.412   0.193
 4435SOL    HW214205   2.174   3.408   0.343
 4436SOL     OW14206   4.236   1.684   1.832
 4436SOL    HW114207   4.328   1.648   1.847
 4436SOL    HW214208   4.179   1.663   1.911
 4437SOL     OW14209   0.305   4.002   0.896
 4437SOL    HW114210   0.220   4.003   0.843
 4437SOL    HW214211   0.375   4.055   0.849
 4438SOL     OW14212   3.624   1.039   5.835
 4438SOL    HW114213   3.577   1.013   5.750
 4438SOL    HW214214   3.584   1.123   5.871
 4439SOL     OW14215   2.347   6.533   2.603
 4439SOL    HW114216   2.292   6.450   2.592
 4439SOL    HW214217   2.346   6.585   2.518
 4440SOL     OW14218   1.502   5.027   0.265
 4440SOL    HW114219   1.512   5.102   0.200
 4440SOL    HW214220   1.491   5.064   0.357
 4441SOL     OW14221   0.025   0.939   0.427
 4441SOL    HW114222   6.998   1.020   0.397
 4441SOL    HW214223   0.069   0.959   0.515
 4442SOL     OW14224   1.874   4.600   6.429
 4442SOL    HW114225   1.803   4.649   6.378
 4442SOL    HW214226   1.831   4.543   6.499
 4443SOL     OW14227   0.335   5.887   5.981
 4443SOL    HW114228   0.405   5.864   6.048
 4443SOL    HW214229   0.253   5.833   5.999
 4444SOL     OW14230   5.656   4.374   6.970
 4444SOL    HW114231   5.727   4.305   6.986
 4444SOL    HW214232   5.617   4.402   0.034
 4445SOL     OW14233   0.052   5.759   0.307
 4445SOL    HW114234   0.135   5.705   0.299
 4445SOL    HW214235   0.062   5.843   0.253
 4446SOL     OW14236   5.226   0.461   0.989
 4446SOL    HW114237   5.183   0.550   1.000
 4446SOL    HW214238   5.308   0.455   1.047
 4447SOL     OW14239   5.082   5.492   5.458
 4447SOL    HW114240   5.127   5.567   5.410
 4447SOL    HW214241   4.983   5.498   5.446
 4448SOL     OW14242   3.859   6.235   2.006
 4448SOL    HW114243   3.901   6.193   2.086
 4448SOL    HW214244   3.826   6.326   2.030
 4449SOL     OW14245   3.416   1.627   5.655
 4449SOL    HW114246   3.479   1.552   5.635
 4449SOL    HW214247   3.329   1.589   5.687
 4450SOL     OW14248   3.351   6.837   0.186
 4450SOL    HW114249   3.374   6.926   0.225
 4450SOL    HW214250   3.406   6.766   0.230
 4451SOL     OW14251   5.319   4.488   2.852
 4451SOL    HW114252   5.334   4.498   2.950
 4451SOL    HW214253   5.245   4.422   2.836
 4452SOL     OW14254   4.772   6.143   4.707
 4452SOL    HW114255   4.769   6.127   4.608
 4452SOL    HW214256   4.681   6.168   4.740
 4453SOL     OW14257   6.788   3.972   0.788
 4453SOL    HW114258   6.788   3.898   0.856
 4453SOL    HW214259   6.730   3.946   0.711
 4454SOL     OW14260   1.002   2.342   6.695
 4454SOL    HW114261   0.995   2.250   6.732
 4454SOL    HW214262   0.979   2.341   6.597
 4455SOL     OW14263   0.327   6.594   5.448
 4455SOL    HW114264   0.396   6.522   5.444
 4455SOL    HW214265   0.353   6.661   5.518
 4456SOL     OW14266   1.947   0.385   4.808
 4456SOL    HW114267   1.942   0.324   4.887
 4456SOL    HW214268   1.968   0.332   4.726
 4457SOL     OW14269   1.258   2.869   5.061
 4457SOL    HW114270   1.308   2.826   4.986
 4457SOL    HW214271   1.162   2.844   5.057
 4458SOL     OW14272   1.932   3.786   6.592
 4458SOL    HW114273   1.883   3.843   6.658
 4458SOL    HW214274   1.942   3.694   6.629
 4459SOL     OW14275   1.162   2.834   2.920
 4459SOL    HW114276   1.243   2.857   2.866
 4459SOL    HW214277   1.095   2.787   2.861
 4460SOL     OW14278   6.493   3.291   4.610
 4460SOL    HW114279   6.584   3.329   4.591
 4460SOL    HW214280   6.423   3.349   4.570
 4461SOL     OW14281   2.656   0.926   1.139
 4461SOL    HW114282   2.579   0.987   1.120
 4461SOL    HW214283   2.700   0.954   1.224
 4462SOL     OW14284   6.489   4.627   3.041
 4462SOL    HW114285   6.524   4.714   3.005
 4462SOL    HW214286   6.491   4.630   3.141
 4463SOL     OW14287   6.365   1.472   0.721
 4463SOL    HW114288   6.362   1.531   0.801
 4463SOL    HW214289   6.280   1.420   0.715
 4464SOL     OW14290   0.376   5.280   0.589
 4464SOL    HW114291   0.409   5.321   0.675
 4464SOL    HW214292   0.451   5.228   0.546
 4465SOL     OW14293   3.095   5.693   0.987
 4465SOL    HW114294   3.192   5.714   0.976
 4465SOL    HW214295   3.078   5.598   0.960
 4466SOL     OW14296   1.461   2.616   3.252
 4466SOL    HW114297   1.539   2.580   3.304
 4466SOL    HW214298   1.465   2.583   3.158
 4467SOL     OW14299   4.600   6.061   2.923
 4467SOL    HW114300   4.654   6.118   2.860
 4467SOL    HW214301   4.636   6.071   3.016
 4468SOL     OW14302   1.810   2.670   1.566
 4468SOL    HW114303   1.776   2.728   1.640
 4468SOL    HW214304   1.872   2.601   1.603
 4469SOL     OW14305   2.844   6.088   1.150
 4469SOL    HW114306   2.782   6.158   1.186
 4469SOL    HW214307   2.791   6.012   1.113
 4470SOL     OW14308   1.638   0.184   2.764
 4470SOL    HW114309   1.729   0.155   2.734
 4470SOL    HW214310   1.572   0.171   2.690
 4471SOL     OW14311   0.994   1.006   6.045
 4471SOL    HW114312   0.988   0.988   6.144
 4471SOL    HW214313   1.078   1.056   6.026
 4472SOL     OW14314   1.378   2.253   0.899
 4472SOL    HW114315   1.349   2.268   0.805
 4472SOL    HW214316   1.325   2.312   0.960
 4473SOL     OW14317   0.236   3.216   4.671
 4473SOL    HW114318   0.216   3.179   4.580
 4473SOL    HW214319   0.263   3.312   4.662
 4474SOL     OW14320   3.045   5.681   0.485
 4474SOL    HW114321   2.967   5.618   0.487
 4474SOL    HW214322   3.094   5.675   0.572
 4475SOL     OW14323   1.274   3.965   1.241
 4475SOL    HW114324   1.245   4.044   1.296
 4475SOL    HW214325   1.363   3.933   1.272
 4476SOL     OW14326   4.912   1.465   3.839
 4476SOL    HW114327   4.985   1.498   3.779
 4476SOL    HW214328   4.824   1.475   3.792
 4477SOL     OW14329   1.742   0.889   5.417
 4477SOL    HW114330   1.751   0.807   5.360
 4477SOL    HW214331   1.645   0.905   5.437
 4478SOL     OW14332   1.801   0.453   0.586
 4478SOL    HW114333   1.797   0.497   0.675
 4478SOL    HW214334   1.790   0.354   0.597
 4479SOL     OW14335   1.211   3.043   0.681
 4479SOL    HW114336   1.118   3.044   0.646
 4479SOL    HW214337   1.271   2.996   0.617
 4480SOL     OW14338   0.847   5.963   4.018
 4480SOL    HW114339   0.795   5.972   4.103
 4480SOL    HW214340   0.819   6.035   3.954
 4481SOL     OW14341   2.354   3.885   6.347
 4481SOL    HW114342   2.304   3.920   6.267
 4481SOL    HW214343   2.296   3.891   6.428
 4482SOL     OW14344   2.731   6.106   6.925
 4482SOL    HW114345   2.814   6.060   6.895
 4482SOL    HW214346   2.693   6.058   7.005
 4483SOL     OW14347   1.233   3.171   0.914
 4483SOL    HW114348   1.226   3.113   0.833
 4483SOL    HW214349   1.279   3.121   0.987
 4484SOL     OW14350   2.299   2.006   0.166
 4484SOL    HW114351   2.373   1.948   0.198
 4484SOL    HW214352   2.243   1.956   0.100
 4485SOL     OW14353   5.673   2.587   5.075
 4485SOL    HW114354   5.635   2.505   5.031
 4485SOL    HW214355   5.677   2.573   5.174
 4486SOL     OW14356   4.785   5.486   5.496
 4486SOL    HW114357   4.696   5.445   5.478
 4486SOL    HW214358   4.793   5.573   5.447
 4487SOL     OW14359   0.837   3.023   0.098
 4487SOL    HW114360   0.872   3.013   0.191
 4487SOL    HW214361   0.742   3.054   0.102
 4488SOL     OW14362   7.022   4.317   4.482
 4488SOL    HW114363   0.090   4.355   4.483
 4488SOL    HW214364   6.973   4.345   4.564
 4489SOL     OW14365   4.639   5.948   5.765
 4489SOL    HW114366   4.679   5.857   5.774
 4489SOL    HW214367   4.548   5.941   5.725
 4490SOL     OW14368   4.949   1.526   1.059
 4490SOL    HW114369   4.867   1.582   1.056
 4490SOL    HW214370   5.007   1.555   1.135
 4491SOL     OW14371   0.827   2.894   3.482
 4491SOL    HW114372   0.870   2.816   3.527
 4491SOL    HW214373   0.894   2.941   3.424
 4492SOL     OW14374   6.253   0.331   2.404
 4492SOL    HW114375   6.298   0.266   2.343
 4492SOL    HW214376   6.165   0.357   2.366
 4493SOL     OW14377   4.899   1.622   4.482
 4493SOL    HW114378   4.902   1.722   4.486
 4493SOL    HW214379   4.820   1.592   4.428
 4494SOL     OW14380   1.091   0.108   0.888
 4494SOL    HW114381   1.092   0.025   0.944
 4494SOL    HW214382   1.185   0.134   0.866
 4495SOL     OW14383   5.277   5.174   1.483
 4495SOL    HW114384   5.318   5.265   1.487
 4495SOL    HW214385   5.311   5.126   1.402
 4496SOL     OW14386   3.755   5.880   6.262
 4496SOL    HW114387   3.702   5.904   6.344
 4496SOL    HW214388   3.731   5.788   6.232
 4497SOL     OW14389   4.356   1.534   6.611
 4497SOL    HW114390   4.298   1.616   6.611
 4497SOL    HW214391   4.374   1.506   6.517
 4498SOL     OW14392   1.210   5.279   5.833
 4498SOL    HW114393   1.133   5.277   5.897
 4498SOL    HW214394   1.184   5.234   5.748
 4499SOL     OW14395   6.024   2.204   2.941
 4499SOL    HW114396   5.993   2.116   2.904
 4499SOL    HW214397   6.124   2.206   2.941
 4500SOL     OW14398   4.051   5.669   6.950
 4500SOL    HW114399   4.015   5.577   6.967
 4500SOL    HW214400   4.150   5.670   6.968
 4501SOL     OW14401   5.546   0.673   2.951
 4501SOL    HW114402   5.591   0.716   2.872
 4501SOL    HW214403   5.597   0.593   2.979
 4502SOL     OW14404   0.008   3.613   6.476
 4502SOL    HW114405   0.014   3.605   6.576
 4502SOL    HW214406   6.942   3.648   6.450
 4503SOL     OW14407   2.527   0.600   2.910
 4503SOL    HW114408   2.609   0.569   2.958
 4503SOL    HW214409   2.553   0.658   2.833
 4504SOL     OW14410   6.942   1.956   2.860
 4504SOL    HW114411   6.883   1.878   2.839
 4504SOL    HW214412   6.978   1.946   2.953
 4505SOL     OW14413   6.028   4.634   4.551
 4505SOL    HW114414   5.955   4.699   4.532
 4505SOL    HW214415   6.063   4.597   4.465
 4506SOL     OW14416   4.798   2.667   5.160
 4506SOL    HW114417   4.717   2.610   5.147
 4506SOL    HW214418   4.805   2.733   5.085
 4507SOL     OW14419   6.538   2.973   3.480
 4507SOL    HW114420   6.514   2.887   3.435
 4507SOL    HW214421   6.636   2.990   3.469
 4508SOL     OW14422   0.912   5.443   0.789
 4508SOL    HW114423   0.865   5.360   0.818
 4508SOL    HW214424   0.970   5.422   0.710
 4509SOL     OW14425   4.684   2.718   2.126
 4509SOL    HW114426   4.697   2.810   2.090
 4509SOL    HW214427   4.742   2.704   2.205
 4510SOL     OW14428   4.399   1.203   3.867
 4510SOL    HW114429   4.376   1.251   3.782
 4510SOL    HW214430   4.408   1.270   3.941
 4511SOL     OW14431   0.382   4.427   0.676
 4511SOL    HW114432   0.359   4.510   0.728
 4511SOL    HW214433   0.431   4.453   0.593
 4512SOL     OW14434   3.238   3.216   5.357
 4512SOL    HW114435   3.150   3.172   5.376
 4512SOL    HW214436   3.278   3.176   5.275
 4513SOL     OW14437   1.188   6.424   0.715
 4513SOL    HW114438   1.185   6.507   0.660
 4513SOL    HW214439   1.215   6.347   0.657
 4514SOL     OW14440   3.204   4.880   6.588
 4514SOL    HW114441   3.160   4.790   6.585
 4514SOL    HW214442   3.205   4.913   6.682
 4515SOL     OW14443   4.539   0.572   6.804
 4515SOL    HW114444   4.608   0.645   6.792
 4515SOL    HW214445   4.536   0.516   6.722
 4516SOL     OW14446   3.400   1.566   5.152
 4516SOL    HW114447   3.490   1.553   5.193
 4516SOL    HW214448   3.410   1.609   5.062
 4517SOL     OW14449   3.882   1.116   5.641
 4517SOL    HW114450   3.845   1.192   5.694
 4517SOL    HW214451   3.975   1.138   5.612
 4518SOL     OW14452   1.579   6.908   0.992
 4518SOL    HW114453   1.666   6.860   1.003
 4518SOL    HW214454   1.504   6.849   1.025
 4519SOL     OW14455   4.683   6.718   6.794
 4519SOL    HW114456   4.690   6.728   6.893
 4519SOL    HW214457   4.632   6.795   6.756
 4520SOL     OW14458   4.277   5.560   4.948
 4520SOL    HW114459   4.293   5.606   5.035
 4520SOL    HW214460   4.214   5.484   4.962
 4521SOL     OW14461   4.300   2.366   4.204
 4521SOL    HW114462   4.234   2.350   4.130
 4521SOL    HW214463   4.356   2.446   4.182
 4522SOL     OW14464   5.115   4.398   3.268
 4522SOL    HW114465   5.057   4.376   3.346
 4522SOL    HW214466   5.058   4.418   3.188
 4523SOL     OW14467   0.174   3.281   5.742
 4523SOL    HW114468   0.104   3.213   5.764
 4523SOL    HW214469   0.252   3.271   5.804
 4524SOL     OW14470   0.905   3.937   3.096
 4524SOL    HW114471   0.959   3.949   3.013
 4524SOL    HW214472   0.917   4.018   3.155
 4525SOL     OW14473   3.235   2.182   5.403
 4525SOL    HW114474   3.160   2.141   5.454
 4525SOL    HW214475   3.198   2.232   5.324
 4526SOL     OW14476   0.618   6.931   5.552
 4526SOL    HW114477   0.645   6.880   5.471
 4526SOL    HW214478   0.572   6.871   5.616
 4527SOL     OW14479   6.371   0.741   3.004
 4527SOL    HW114480   6.461   0.767   2.969
 4527SOL    HW214481   6.350   0.647   2.977
 4528SOL     OW14482   4.355   1.091   5.442
 4528SOL    HW114483   4.443   1.047   5.461
 4528SOL    HW214484   4.292   1.022   5.406
 4529SOL     OW14485   2.225   0.568   4.029
 4529SOL    HW114486   2.304   0.579   4.089
 4529SOL    HW214487   2.148   0.621   4.065
 4530SOL     OW14488   3.292   5.418   5.978
 4530SOL    HW114489   3.249   5.373   6.056
 4530SOL    HW214490   3.272   5.516   5.981
 4531SOL     OW14491   0.813   5.498   5.736
 4531SOL    HW114492   0.776   5.588   5.757
 4531SOL    HW214493   0.886   5.507   5.668
 4532SOL     OW14494   5.834   0.465   2.610
 4532SOL    HW114495   5.914   0.411   2.637
 4532SOL    HW214496   5.836   0.554   2.656
 4533SOL     OW14497   2.936   0.349   1.433
 4533SOL    HW114498   2.869   0.280   1.406
 4533SOL    HW214499   2.889   0.423   1.481
 4534SOL     OW14500   4.740   1.005   3.600
 4534SOL    HW114501   4.688   0.966   3.676
 4534SOL    HW214502   4.837   0.985   3.613
 4535SOL     OW14503   2.400   0.637   0.907
 4535SOL    HW114504   2.397   0.722   0.855
 4535SOL    HW214505   2.410   0.560   0.845
 4536SOL     OW14506   2.700   0.890   5.554
 4536SOL    HW114507   2.725   0.849   5.466
 4536SOL    HW214508   2.783   0.918   5.603
 4537SOL     OW14509   2.883   3.631   3.485
 4537SOL    HW114510   2.975   3.665   3.464
 4537SOL    HW214511   2.816   3.704   3.470
 4538SOL     OW14512   0.458   1.881   0.860
 4538SOL    HW114513   0.449   1.782   0.853
 4538SOL    HW214514   0.539   1.911   0.811
 4539SOL     OW14515   1.436   6.243   5.345
 4539SOL    HW114516   1.340   6.217   5.337
 4539SOL    HW214517   1.494   6.162   5.335
 4540SOL     OW14518   0.901   0.452   0.104
 4540SOL    HW114519   0.848   0.367   0.098
 4540SOL    HW214520   0.868   0.507   0.181
 4541SOL     OW14521   4.584   2.824   5.781
 4541SOL    HW114522   4.645   2.893   5.820
 4541SOL    HW214523   4.596   2.822   5.682
 4542SOL     OW14524   6.605   2.153   0.254
 4542SOL    HW114525   6.652   2.147   0.342
 4542SOL    HW214526   6.658   2.104   0.185
 4543SOL     OW14527   3.824   2.658   0.172
 4543SOL    HW114528   3.742   2.602   0.163
 4543SOL    HW214529   3.859   2.649   0.266
 4544SOL     OW14530   5.482   6.115   0.488
 4544SOL    HW114531   5.494   6.017   0.504
 4544SOL    HW214532   5.391   6.132   0.448
 4545SOL     OW14533   2.215   3.007   4.890
 4545SOL    HW114534   2.125   3.037   4.922
 4545SOL    HW214535   2.282   3.018   4.963
 4546SOL     OW14536   2.874   0.955   5.753
 4546SOL    HW114537   2.836   1.045   5.734
 4546SOL    HW214538   2.966   0.966   5.792
 4547SOL     OW14539   6.929   0.324   0.147
 4547SOL    HW114540   7.013   0.371   0.120
 4547SOL    HW214541   6.858   0.391   0.168
 4548SOL     OW14542   2.439   1.826   2.988
 4548SOL    HW114543   2.499   1.772   3.047
 4548SOL    HW214544   2.477   1.830   2.896
 4549SOL     OW14545   6.673   3.501   4.639
 4549SOL    HW114546   6.646   3.502   4.735
 4549SOL    HW214547   6.634   3.581   4.593
 4550SOL     OW14548   1.674   4.335   3.463
 4550SOL    HW114549   1.707   4.379   3.380
 4550SOL    HW214550   1.576   4.317   3.455
 4551SOL     OW14551   1.427   2.878   5.271
 4551SOL    HW114552   1.497   2.810   5.252
 4551SOL    HW214553   1.354   2.872   5.203
 4552SOL     OW14554   5.628   1.354   0.753
 4552SOL    HW114555   5.609   1.375   0.657
 4552SOL    HW214556   5.555   1.296   0.789
 4553SOL     OW14557   6.722   5.286   6.759
 4553SOL    HW114558   6.779   5.349   6.812
 4553SOL    HW214559   6.782   5.223   6.708
 4554SOL     OW14560   6.634   6.423   3.324
 4554SOL    HW114561   6.687   6.430   3.409
 4554SOL    HW214562   6.550   6.476   3.333
 4555SOL     OW14563   1.734   0.839   0.221
 4555SOL    HW114564   1.742   0.821   0.123
 4555SOL    HW214565   1.694   0.759   0.266
 4556SOL     OW14566   5.974   4.399   5.215
 4556SOL    HW114567   6.044   4.466   5.241
 4556SOL    HW214568   5.913   4.439   5.147
 4557SOL     OW14569   6.830   4.508   3.238
 4557SOL    HW114570   6.790   4.418   3.217
 4557SOL    HW214571   6.896   4.532   3.168
 4558SOL     OW14572   0.546   3.568   5.075
 4558SOL    HW114573   0.585   3.649   5.032
 4558SOL    HW214574   0.502   3.593   5.161
 4559SOL     OW14575   6.677   2.932   3.257
 4559SOL    HW114576   6.709   2.839   3.273
 4559SOL    HW214577   6.755   2.995   3.256
 4560SOL     OW14578   6.210   4.286   2.881
 4560SOL    HW114579   6.296   4.270   2.929
 4560SOL    HW214580   6.135   4.289   2.948
 4561SOL     OW14581   3.916   2.064   4.016
 4561SOL    HW114582   3.888   1.970   4.000
 4561SOL    HW214583   3.926   2.080   4.114
 4562SOL     OW14584   3.525   1.301   1.310
 4562SOL    HW114585   3.585   1.329   1.235
 4562SOL    HW214586   3.462   1.230   1.277
 4563SOL     OW14587   1.040   4.539   1.977
 4563SOL    HW114588   1.065   4.451   2.017
 4563SOL    HW214589   1.114   4.570   1.917
 4564SOL     OW14590   1.565   3.733   2.081
 4564SOL    HW114591   1.630   3.781   2.139
 4564SOL    HW214592   1.478   3.724   2.129
 4565SOL     OW14593   1.983   5.661   5.977
 4565SOL    HW114594   2.005   5.708   6.063
 4565SOL    HW214595   2.068   5.637   5.930
 4566SOL     OW14596   6.159   4.993   2.633
 4566SOL    HW114597   6.119   5.065   2.691
 4566SOL    HW214598   6.256   5.010   2.621
 4567SOL     OW14599   0.068   0.147   6.492
 4567SOL    HW114600   0.115   0.228   6.529
 4567SOL    HW214601   0.128   0.068   6.501
 4568SOL     OW14602   1.589   5.365   3.360
 4568SOL    HW114603   1.557   5.326   3.446
 4568SOL    HW214604   1.634   5.293   3.306
 4569SOL     OW14605   2.149   0.986   3.256
 4569SOL    HW114606   2.053   1.013   3.253
 4569SOL    HW214607   2.163   0.907   3.196
 4570SOL     OW14608   5.732   6.474   1.997
 4570SOL    HW114609   5.657   6.418   2.032
 4570SOL    HW214610   5.698   6.533   1.924
 4571SOL     OW14611   3.133   3.294   7.013
 4571SOL    HW114612   3.209   3.234   6.985
 4571SOL    HW214613   3.136   3.377   6.958
 4572SOL     OW14614   2.913   3.471   1.893
 4572SOL    HW114615   2.959   3.463   1.805
 4572SOL    HW214616   2.831   3.413   1.893
 4573SOL     OW14617   2.996   5.363   1.764
 4573SOL    HW114618   2.916   5.416   1.790
 4573SOL    HW214619   2.978   5.312   1.680
 4574SOL     OW14620   5.226   1.123   1.245
 4574SOL    HW114621   5.261   1.068   1.169
 4574SOL    HW214622   5.135   1.158   1.222
 4575SOL     OW14623   0.296   6.914   5.499
 4575SOL    HW114624   0.207   6.952   5.475
 4575SOL    HW214625   0.365   6.949   5.435
 4576SOL     OW14626   2.903   4.844   5.202
 4576SOL    HW114627   2.894   4.767   5.139
 4576SOL    HW214628   2.946   4.813   5.286
 4577SOL     OW14629   1.207   2.014   2.590
 4577SOL    HW114630   1.136   2.060   2.643
 4577SOL    HW214631   1.197   2.037   2.493
 4578SOL     OW14632   2.084   1.534   2.548
 4578SOL    HW114633   2.047   1.622   2.518
 4578SOL    HW214634   2.032   1.459   2.508
 4579SOL     OW14635   4.829   0.940   2.949
 4579SOL    HW114636   4.769   1.016   2.973
 4579SOL    HW214637   4.889   0.967   2.873
 4580SOL     OW14638   6.865   2.063   0.415
 4580SOL    HW114639   6.843   2.039   0.509
 4580SOL    HW214640   6.879   2.161   0.408
 4581SOL     OW14641   3.306   0.724   1.053
 4581SOL    HW114642   3.379   0.738   1.120
 4581SOL    HW214643   3.219   0.755   1.091
 4582SOL     OW14644   5.844   1.382   3.632
 4582SOL    HW114645   5.893   1.351   3.551
 4582SOL    HW214646   5.872   1.475   3.655
 4583SOL     OW14647   1.184   0.253   6.899
 4583SOL    HW114648   1.105   0.288   6.949
 4583SOL    HW214649   1.252   0.219   6.963
 4584SOL     OW14650   1.297   0.773   4.299
 4584SOL    HW114651   1.227   0.703   4.313
 4584SOL    HW214652   1.305   0.794   4.202
 4585SOL     OW14653   2.048   3.547   3.812
 4585SOL    HW114654   2.066   3.476   3.880
 4585SOL    HW214655   2.024   3.504   3.725
 4586SOL     OW14656   5.743   4.734   6.598
 4586SOL    HW114657   5.731   4.651   6.653
 4586SOL    HW214658   5.768   4.708   6.505
 4587SOL     OW14659   3.111   3.165   4.895
 4587SOL    HW114660   3.179   3.213   4.949
 4587SOL    HW214661   3.020   3.179   4.934
 4588SOL     OW14662   3.309   3.741   6.230
 4588SOL    HW114663   3.367   3.691   6.166
 4588SOL    HW214664   3.232   3.683   6.257
 4589SOL     OW14665   6.668   6.936   2.939
 4589SOL    HW114666   6.639   6.884   3.019
 4589SOL    HW214667   6.754   6.983   2.959
 4590SOL     OW14668   3.212   5.581   0.690
 4590SOL    HW114669   3.142   5.522   0.730
 4590SOL    HW214670   3.294   5.528   0.670
 4591SOL     OW14671   2.001   0.582   5.530
 4591SOL    HW114672   2.057   0.662   5.506
 4591SOL    HW214673   2.048   0.499   5.500
 4592SOL     OW14674   2.086   1.768   3.505
 4592SOL    HW114675   1.991   1.769   3.534
 4592SOL    HW214676   2.091   1.770   3.405
 4593SOL     OW14677   1.691   5.960   4.769
 4593SOL    HW114678   1.760   6.029   4.746
 4593SOL    HW214679   1.719   5.909   4.850
 4594SOL     OW14680   1.752   0.599   3.307
 4594SOL    HW114681   1.676   0.594   3.372
 4594SOL    HW214682   1.716   0.611   3.214
 4595SOL     OW14683   5.651   2.225   6.702
 4595SOL    HW114684   5.634   2.149   6.765
 4595SOL    HW214685   5.693   2.300   6.752
 4596SOL     OW14686   6.909   0.658   2.282
 4596SOL    HW114687   6.934   0.753   2.303
 4596SOL    HW214688   6.859   0.618   2.359
 4597SOL     OW14689   3.120   6.209   7.014
 4597SOL    HW114690   3.088   6.283   6.955
 4597SOL    HW214691   3.176   6.247   0.063
 4598SOL     OW14692   1.865   4.831   0.238
 4598SOL    HW114693   1.929   4.779   0.180
 4598SOL    HW214694   1.771   4.811   0.210
 4599SOL     OW14695   2.126   5.783   2.314
 4599SOL    HW114696   2.087   5.869   2.347
 4599SOL    HW214697   2.058   5.734   2.260
 4600SOL     OW14698   0.177   6.529   5.745
 4600SOL    HW114699   0.275   6.512   5.736
 4600SOL    HW214700   0.157   6.561   5.838
 4601SOL     OW14701   1.758   1.026   5.054
 4601SOL    HW114702   1.713   1.087   4.988
 4601SOL    HW214703   1.691   0.994   5.121
 4602SOL     OW14704   2.889   2.559   6.913
 4602SOL    HW114705   2.811   2.516   6.868
 4602SOL    HW214706   2.960   2.490   6.929
 4603SOL     OW14707   4.843   6.869   0.904
 4603SOL    HW114708   4.881   6.955   0.869
 4603SOL    HW214709   4.765   6.842   0.848
 4604SOL     OW14710   6.009   6.811   5.740
 4604SOL    HW114711   5.937   6.751   5.775
 4604SOL    HW214712   5.970   6.875   5.674
 4605SOL     OW14713   3.613   0.417   1.805
 4605SOL    HW114714   3.540   0.448   1.744
 4605SOL    HW214715   3.614   0.473   1.888
 4606SOL     OW14716   6.594   6.590   4.498
 4606SOL    HW114717   6.689   6.614   4.521
 4606SOL    HW214718   6.535   6.610   4.576
 4607SOL     OW14719   1.953   2.032   1.283
 4607SOL    HW114720   1.955   2.039   1.183
 4607SOL    HW214721   1.975   2.122   1.323
 4608SOL     OW14722   6.715   2.984   4.498
 4608SOL    HW114723   6.792   2.984   4.562
 4608SOL    HW214724   6.653   3.059   4.519
 4609SOL     OW14725   4.461   6.053   6.736
 4609SOL    HW114726   4.366   6.039   6.708
 4609SOL    HW214727   4.478   6.005   6.822
 4610SOL     OW14728   5.499   3.607   6.789
 4610SOL    HW114729   5.505   3.684   6.852
 4610SOL    HW214730   5.560   3.534   6.819
 4611SOL     OW14731   0.951   0.941   6.317
 4611SOL    HW114732   0.902   0.952   6.404
 4611SOL    HW214733   0.943   0.846   6.286
 4612SOL     OW14734   2.073   1.190   1.583
 4612SOL    HW114735   2.009   1.200   1.507
 4612SOL    HW214736   2.129   1.109   1.570
 4613SOL     OW14737   1.683   4.699   1.429
 4613SOL    HW114738   1.632   4.647   1.360
 4613SOL    HW214739   1.620   4.750   1.487
 4614SOL     OW14740   6.495   4.309   4.751
 4614SOL    HW114741   6.582   4.263   4.766
 4614SOL    HW214742   6.509   4.407   4.743
 4615SOL     OW14743   1.196   3.095   6.923
 4615SOL    HW114744   1.242   3.028   6.865
 4615SOL    HW214745   1.257   3.172   6.939
 4616SOL     OW14746   6.288   2.589   6.404
 4616SOL    HW114747   6.331   2.602   6.314
 4616SOL    HW214748   6.356   2.605   6.476
 4617SOL     OW14749   0.131   3.014   3.234
 4617SOL    HW114750   0.141   3.072   3.153
 4617SOL    HW214751   0.044   3.035   3.279
 4618SOL     OW14752   1.809   4.461   5.892
 4618SOL    HW114753   1.803   4.498   5.985
 4618SOL    HW214754   1.755   4.377   5.885
 4619SOL     OW14755   4.525   5.926   6.224
 4619SOL    HW114756   4.519   5.854   6.292
 4619SOL    HW214757   4.620   5.940   6.198
 4620SOL     OW14758   0.693   4.690   2.190
 4620SOL    HW114759   0.696   4.614   2.254
 4620SOL    HW214760   0.718   4.775   2.237
 4621SOL     OW14761   4.006   0.197   2.776
 4621SOL    HW114762   4.048   0.283   2.748
 4621SOL    HW214763   3.925   0.180   2.721
 4622SOL     OW14764   5.555   6.221   1.865
 4622SOL    HW114765   5.462   6.247   1.838
 4622SOL    HW214766   5.573   6.252   1.959
 4623SOL     OW14767   2.626   5.317   1.282
 4623SOL    HW114768   2.713   5.355   1.314
 4623SOL    HW214769   2.644   5.237   1.225
 4624SOL     OW14770   4.406   1.083   2.064
 4624SOL    HW114771   4.378   1.100   1.969
 4624SOL    HW214772   4.501   1.111   2.076
 4625SOL     OW14773   1.639   6.102   1.812
 4625SOL    HW114774   1.664   6.028   1.749
 4625SOL    HW214775   1.554   6.078   1.859
 4626SOL     OW14776   4.482   3.875   1.657
 4626SOL    HW114777   4.389   3.911   1.671
 4626SOL    HW214778   4.548   3.950   1.663
 4627SOL     OW14779   5.489   0.301   5.050
 4627SOL    HW114780   5.465   0.396   5.029
 4627SOL    HW214781   5.416   0.260   5.105
 4628SOL     OW14782   5.715   5.007   4.285
 4628SOL    HW114783   5.675   5.094   4.313
 4628SOL    HW214784   5.684   4.985   4.193
 4629SOL     OW14785   2.593   6.290   6.777
 4629SOL    HW114786   2.504   6.272   6.820
 4629SOL    HW214787   2.664   6.238   6.824
 4630SOL     OW14788   2.117   3.348   2.249
 4630SOL    HW114789   2.026   3.349   2.209
 4630SOL    HW214790   2.185   3.365   2.177
 4631SOL     OW14791   0.008   0.641   3.151
 4631SOL    HW114792   0.014   0.620   3.054
 4631SOL    HW214793   0.099   0.662   3.187
 4632SOL     OW14794   3.431   4.882   2.588
 4632SOL    HW114795   3.438   4.963   2.529
 4632SOL    HW214796   3.510   4.878   2.649
 4633SOL     OW14797   5.180   1.268   4.412
 4633SOL    HW114798   5.267   1.315   4.399
 4633SOL    HW214799   5.134   1.305   4.494
 4634SOL     OW14800   2.962   3.970   4.982
 4634SOL    HW114801   2.896   3.970   4.907
 4634SOL    HW214802   2.917   3.938   5.066
 4635SOL     OW14803   4.874   6.344   1.809
 4635SOL    HW114804   4.837   6.266   1.860
 4635SOL    HW214805   4.799   6.391   1.762
 4636SOL     OW14806   1.829   5.484   0.520
 4636SOL    HW114807   1.872   5.534   0.595
 4636SOL    HW214808   1.893   5.476   0.444
 4637SOL     OW14809   3.065   1.010   3.135
 4637SOL    HW114810   3.103   0.919   3.115
 4637SOL    HW214811   3.138   1.077   3.136
 4638SOL     OW14812   3.469   5.077   0.382
 4638SOL    HW114813   3.514   5.155   0.339
 4638SOL    HW214814   3.537   5.017   0.424
 4639SOL     OW14815   3.472   2.323   1.289
 4639SOL    HW114816   3.539   2.281   1.350
 4639SOL    HW214817   3.507   2.321   1.195
 4640SOL     OW14818   6.424   2.435   6.882
 4640SOL    HW114819   6.333   2.472   6.902
 4640SOL    HW214820   6.485   2.455   6.958
 4641SOL     OW14821   1.121   5.957   4.208
 4641SOL    HW114822   1.191   5.895   4.173
 4641SOL    HW214823   1.035   5.942   4.157
 4642SOL     OW14824   7.009   1.663   3.734
 4642SOL    HW114825   7.002   1.571   3.695
 4642SOL    HW214826   0.040   1.721   3.673
 4643SOL     OW14827   0.494   1.800   0.450
 4643SOL    HW114828   0.430   1.866   0.411
 4643SOL    HW214829   0.445   1.717   0.476
 4644SOL     OW14830   1.129   0.762   0.257
 4644SOL    HW114831   1.031   0.749   0.271
 4644SOL    HW214832   1.159   0.846   0.302
 4645SOL     OW14833   0.624   2.015   4.037
 4645SOL    HW114834   0.688   1.941   4.058
 4645SOL    HW214835   0.639   2.091   4.099
 4646SOL     OW14836   1.992   5.083   3.678
 4646SOL    HW114837   1.992   5.077   3.778
 4646SOL    HW214838   2.082   5.111   3.646
 4647SOL     OW14839   1.436   6.205   2.153
 4647SOL    HW114840   1.490   6.285   2.178
 4647SOL    HW214841   1.497   6.130   2.129
 4648SOL     OW14842   2.797   1.846   4.770
 4648SOL    HW114843   2.769   1.936   4.738
 4648SOL    HW214844   2.722   1.803   4.821
 4649SOL     OW14845   6.554   0.968   6.879
 4649SOL    HW114846   6.537   1.063   6.905
 4649SOL    HW214847   6.498   0.944   6.800
 4650SOL     OW14848   5.548   5.820   1.802
 4650SOL    HW114849   5.574   5.757   1.875
 4650SOL    HW214850   5.462   5.865   1.826
 4651SOL     OW14851   6.848   3.262   6.554
 4651SOL    HW114852   6.787   3.250   6.476
 4651SOL    HW214853   6.815   3.336   6.612
 4652SOL     OW14854   0.322   6.634   4.887
 4652SOL    HW114855   0.291   6.721   4.848
 4652SOL    HW214856   0.368   6.651   4.974
 4653SOL     OW14857   5.542   5.646   0.773
 4653SOL    HW114858   5.517   5.597   0.857
 4653SOL    HW214859   5.511   5.594   0.694
 4654SOL     OW14860   1.078   0.276   5.499
 4654SOL    HW114861   1.042   0.277   5.592
 4654SOL    HW214862   1.020   0.331   5.440
 4655SOL     OW14863   4.855   2.643   1.351
 4655SOL    HW114864   4.880   2.646   1.448
 4655SOL    HW214865   4.763   2.681   1.339
 4656SOL     OW14866   0.839   0.704   1.515
 4656SOL    HW114867   0.784   0.642   1.571
 4656SOL    HW214868   0.872   0.780   1.572
 4657SOL     OW14869   5.058   0.206   2.312
 4657SOL    HW114870   5.125   0.234   2.243
 4657SOL    HW214871   4.966   0.221   2.276
 4658SOL     OW14872   1.522   2.932   5.853
 4658SOL    HW114873   1.482   3.010   5.804
 4658SOL    HW214874   1.459   2.903   5.925
 4659SOL     OW14875   2.254   4.742   0.097
 4659SOL    HW114876   2.298   4.701   0.017
 4659SOL    HW214877   2.155   4.728   0.090
 4660SOL     OW14878   1.157   6.606   4.147
 4660SOL    HW114879   1.140   6.645   4.238
 4660SOL    HW214880   1.254   6.586   4.138
 4661SOL     OW14881   0.932   2.383   5.622
 4661SOL    HW114882   0.976   2.428   5.544
 4661SOL    HW214883   0.878   2.305   5.590
 4662SOL     OW14884   2.418   6.613   5.395
 4662SOL    HW114885   2.459   6.676   5.460
 4662SOL    HW214886   2.334   6.574   5.433
 4663SOL     OW14887   1.639   0.285   0.094
 4663SOL    HW114888   1.671   0.190   0.097
 4663SOL    HW214889   1.613   0.308   7.024
 4664SOL     OW14890   6.769   6.646   6.756
 4664SOL    HW114891   6.792   6.662   6.852
 4664SOL    HW214892   6.688   6.699   6.732
 4665SOL     OW14893   1.964   0.259   4.558
 4665SOL    HW114894   1.890   0.322   4.534
 4665SOL    HW214895   2.050   0.293   4.521
 4666SOL     OW14896   2.574   1.791   4.906
 4666SOL    HW114897   2.495   1.730   4.921
 4666SOL    HW214898   2.568   1.869   4.968
 4667SOL     OW14899   6.744   3.754   1.216
 4667SOL    HW114900   6.716   3.671   1.265
 4667SOL    HW214901   6.817   3.800   1.268
 4668SOL     OW14902   4.384   2.319   3.808
 4668SOL    HW114903   4.299   2.273   3.831
 4668SOL    HW214904   4.424   2.277   3.726
 4669SOL     OW14905   5.584   6.681   6.942
 4669SOL    HW114906   5.569   6.610   7.010
 4669SOL    HW214907   5.532   6.762   6.967
 4670SOL     OW14908   0.456   2.684   0.528
 4670SOL    HW114909   0.554   2.695   0.542
 4670SOL    HW214910   0.414   2.774   0.512
 4671SOL     OW14911   0.794   3.623   0.678
 4671SOL    HW114912   0.832   3.642   0.588
 4671SOL    HW214913   0.740   3.702   0.709
 4672SOL     OW14914   2.472   4.030   6.821
 4672SOL    HW114915   2.501   4.037   6.916
 4672SOL    HW214916   2.505   4.108   6.769
 4673SOL     OW14917   5.699   0.656   6.972
 4673SOL    HW114918   5.631   0.725   6.999
 4673SOL    HW214919   5.789   0.684   7.004
 4674SOL     OW14920   1.136   2.016   1.393
 4674SOL    HW114921   1.105   2.021   1.299
 4674SOL    HW214922   1.225   2.062   1.402
 4675SOL     OW14923   2.355   6.081   0.122
 4675SOL    HW114924   2.265   6.039   0.131
 4675SOL    HW214925   2.366   6.153   0.190
 4676SOL     OW14926   0.419   6.163   3.943
 4676SOL    HW114927   0.509   6.127   3.918
 4676SOL    HW214928   0.427   6.261   3.962
 4677SOL     OW14929   4.377   0.134   6.569
 4677SOL    HW114930   4.381   0.216   6.512
 4677SOL    HW214931   4.366   0.160   6.664
 4678SOL     OW14932   2.322   4.633   6.633
 4678SOL    HW114933   2.252   4.673   6.574
 4678SOL    HW214934   2.309   4.535   6.639
 4679SOL     OW14935   2.758   0.863   5.270
 4679SOL    HW114936   2.742   0.779   5.218
 4679SOL    HW214937   2.831   0.916   5.227
 4680SOL     OW14938   1.988   4.796   0.576
 4680SOL    HW114939   2.003   4.756   0.667
 4680SOL    HW214940   1.914   4.863   0.581
 4681SOL     OW14941   0.459   5.515   4.775
 4681SOL    HW114942   0.460   5.533   4.873
 4681SOL    HW214943   0.404   5.584   4.728
 4682SOL     OW14944   4.515   6.650   1.027
 4682SOL    HW114945   4.591   6.680   1.086
 4682SOL    HW214946   4.464   6.730   0.996
 4683SOL     OW14947   6.658   4.201   3.775
 4683SOL    HW114948   6.578   4.233   3.723
 4683SOL    HW214949   6.741   4.236   3.734
 4684SOL     OW14950   1.405   1.026   4.145
 4684SOL    HW114951   1.487   1.032   4.201
 4684SOL    HW214952   1.365   1.117   4.134
 4685SOL     OW14953   5.128   4.912   4.925
 4685SOL    HW114954   5.183   4.932   5.007
 4685SOL    HW214955   5.188   4.875   4.854
 4686SOL     OW14956   4.233   5.610   0.486
 4686SOL    HW114957   4.154   5.568   0.441
 4686SOL    HW214958   4.271   5.681   0.426
 4687SOL     OW14959   5.768   6.249   4.681
 4687SOL    HW114960   5.831   6.218   4.609
 4687SOL    HW214961   5.741   6.343   4.663
 4688SOL     OW14962   0.598   2.035   6.563
 4688SOL    HW114963   0.584   2.004   6.469
 4688SOL    HW214964   0.542   1.980   6.625
 4689SOL     OW14965   1.241   5.397   5.271
 4689SOL    HW114966   1.335   5.390   5.239
 4689SOL    HW214967   1.235   5.464   5.345
 4690SOL     OW14968   1.691   2.392   6.997
 4690SOL    HW114969   1.757   2.317   6.997
 4690SOL    HW214970   1.735   2.475   6.962
 4691SOL     OW14971   2.850   5.158   1.092
 4691SOL    HW114972   2.859   5.254   1.065
 4691SOL    HW214973   2.754   5.135   1.102
 4692SOL     OW14974   0.466   5.386   3.113
 4692SOL    HW114975   0.370   5.367   3.094
 4692SOL    HW214976   0.522   5.354   3.037
 4693SOL     OW14977   0.249   1.618   3.465
 4693SOL    HW114978   0.348   1.599   3.462
 4693SOL    HW214979   0.201   1.538   3.500
 4694SOL     OW14980   1.297   1.783   6.643
 4694SOL    HW114981   1.236   1.777   6.721
 4694SOL    HW214982   1.345   1.871   6.643
 4695SOL     OW14983   3.320   2.927   2.193
 4695SOL    HW114984   3.370   2.874   2.262
 4695SOL    HW214985   3.253   2.986   2.238
 4696SOL     OW14986   0.151   3.351   0.059
 4696SOL    HW114987   0.091   3.367   7.004
 4696SOL    HW214988   0.210   3.272   0.040
 4697SOL     OW14989   0.883   4.798   6.982
 4697SOL    HW114990   0.820   4.805   6.904
 4697SOL    HW214991   0.963   4.745   6.955
 4698SOL     OW14992   5.459   2.820   1.045
 4698SOL    HW114993   5.443   2.795   0.949
 4698SOL    HW214994   5.558   2.819   1.063
 4699SOL     OW14995   0.075   0.452   3.626
 4699SOL    HW114996   0.026   0.482   3.544
 4699SOL    HW214997   0.028   0.487   3.707
 4700SOL     OW14998   4.794   0.769   1.313
 4700SOL    HW114999   4.757   0.804   1.399
 4700SOL    HW215000   4.789   0.669   1.312
 4701SOL     OW15001   0.959   0.865   0.879
 4701SOL    HW115002   1.035   0.929   0.887
 4701SOL    HW215003   0.990   0.773   0.903
 4702SOL     OW15004   3.495   4.399   0.067
 4702SOL    HW115005   3.418   4.459   0.047
 4702SOL    HW215006   3.497   4.323   0.002
 4703SOL     OW15007   2.192   0.734   1.782
 4703SOL    HW115008   2.172   0.720   1.879
 4703SOL    HW215009   2.117   0.698   1.726
 4704SOL     OW15010   4.948   6.611   0.696
 4704SOL    HW115011   5.039   6.654   0.693
 4704SOL    HW215012   4.903   6.637   0.782
 4705SOL     OW15013   3.182   3.543   4.555
 4705SOL    HW115014   3.280   3.544   4.534
 4705SOL    HW215015   3.142   3.632   4.532
 4706SOL     OW15016   4.171   5.871   0.855
 4706SOL    HW115017   4.233   5.808   0.807
 4706SOL    HW215018   4.175   5.852   0.953
 4707SOL     OW15019   2.429   5.810   1.060
 4707SOL    HW115020   2.352   5.755   1.025
 4707SOL    HW215021   2.405   5.907   1.057
 4708SOL     OW15022   2.435   2.474   1.923
 4708SOL    HW115023   2.418   2.546   1.991
 4708SOL    HW215024   2.513   2.419   1.951
 4709SOL     OW15025   3.922   4.523   6.051
 4709SOL    HW115026   4.003   4.487   6.097
 4709SOL    HW215027   3.917   4.622   6.065
 4710SOL     OW15028   5.536   1.732   0.839
 4710SOL    HW115029   5.573   1.651   0.884
 4710SOL    HW215030   5.447   1.754   0.878
 4711SOL     OW15031   3.329   0.469   2.324
 4711SOL    HW115032   3.246   0.419   2.297
 4711SOL    HW215033   3.408   0.427   2.279
 4712SOL     OW15034   1.798   4.609   0.477
 4712SOL    HW115035   1.775   4.669   0.400
 4712SOL    HW215036   1.847   4.661   0.546
 4713SOL     OW15037   1.981   5.644   0.709
 4713SOL    HW115038   2.028   5.556   0.706
 4713SOL    HW215039   2.029   5.710   0.651
 4714SOL     OW15040   3.491   2.463   1.054
 4714SOL    HW115041   3.561   2.531   1.032
 4714SOL    HW215042   3.408   2.510   1.083
 4715SOL     OW15043   0.036   3.647   3.549
 4715SOL    HW115044   6.998   3.570   3.563
 4715SOL    HW215045   0.120   3.632   3.601
 4716SOL     OW15046   3.091   5.961   0.434
 4716SOL    HW115047   3.075   5.863   0.443
 4716SOL    HW215048   3.023   6.011   0.488
 4717SOL     OW15049   1.811   5.894   4.035
 4717SOL    HW115050   1.818   5.795   4.023
 4717SOL    HW215051   1.861   5.921   4.117
 4718SOL     OW15052   5.699   1.192   6.185
 4718SOL    HW115053   5.669   1.118   6.245
 4718SOL    HW215054   5.798   1.203   6.193
 4719SOL     OW15055   4.633   2.610   0.917
 4719SOL    HW115056   4.558   2.616   0.983
 4719SOL    HW215057   4.605   2.655   0.831
 4720SOL     OW15058   2.746   0.997   4.950
 4720SOL    HW115059   2.676   1.055   4.991
 4720SOL    HW215060   2.702   0.927   4.893
 4721SOL     OW15061   1.774   2.260   1.597
 4721SOL    HW115062   1.710   2.317   1.544
 4721SOL    HW215063   1.726   2.178   1.629
 4722SOL     OW15064   2.254   6.892   0.793
 4722SOL    HW115065   2.172   6.938   0.827
 4722SOL    HW215066   2.299   6.845   0.869
 4723SOL     OW15067   2.735   6.773   6.496
 4723SOL    HW115068   2.639   6.745   6.488
 4723SOL    HW215069   2.747   6.863   6.453
 4724SOL     OW15070   4.822   5.733   1.650
 4724SOL    HW115071   4.917   5.766   1.648
 4724SOL    HW215072   4.808   5.669   1.575
 4725SOL     OW15073   5.797   5.923   3.347
 4725SOL    HW115074   5.892   5.912   3.376
 4725SOL    HW215075   5.754   5.834   3.336
 4726SOL     OW15076   0.691   5.056   6.866
 4726SOL    HW115077   0.606   5.057   6.918
 4726SOL    HW215078   0.769   5.061   6.928
 4727SOL     OW15079   0.048   6.415   6.928
 4727SOL    HW115080   7.020   6.346   6.980
 4727SOL    HW215081   7.022   6.439   6.845
 4728SOL     OW15082   6.919   1.160   0.373
 4728SOL    HW115083   6.926   1.255   0.342
 4728SOL    HW215084   6.836   1.119   0.335
 4729SOL     OW15085   3.390   0.461   1.414
 4729SOL    HW115086   3.395   0.367   1.448
 4729SOL    HW215087   3.478   0.487   1.375
 4730SOL     OW15088   1.598   0.101   5.483
 4730SOL    HW115089   1.535   0.081   5.408
 4730SOL    HW215090   1.581   0.036   5.558
 4731SOL     OW15091   5.619   1.525   5.736
 4731SOL    HW115092   5.531   1.497   5.697
 4731SOL    HW215093   5.629   1.624   5.729
 4732SOL     OW15094   0.280   1.998   0.412
 4732SOL    HW115095   0.203   1.953   0.367
 4732SOL    HW215096   0.248   2.050   0.491
 4733SOL     OW15097   6.834   3.048   3.929
 4733SOL    HW115098   6.920   2.996   3.927
 4733SOL    HW215099   6.758   2.988   3.905
 4734SOL     OW15100   4.106   4.486   6.753
 4734SOL    HW115101   4.032   4.436   6.707
 4734SOL    HW215102   4.070   4.534   6.832
 4735SOL     OW15103   0.911   5.340   3.199
 4735SOL    HW115104   0.947   5.349   3.292
 4735SOL    HW215105   0.857   5.257   3.192
 4736SOL     OW15106   1.332   0.596   0.866
 4736SOL    HW115107   1.234   0.590   0.885
 4736SOL    HW215108   1.352   0.682   0.820
 4737SOL     OW15109   2.553   5.567   2.013
 4737SOL    HW115110   2.476   5.513   1.978
 4737SOL    HW215111   2.520   5.656   2.045
 4738SOL     OW15112   0.143   6.475   2.603
 4738SOL    HW115113   0.069   6.473   2.670
 4738SOL    HW215114   0.173   6.381   2.583
 4739SOL     OW15115   4.723   0.499   1.240
 4739SOL    HW115116   4.638   0.456   1.270
 4739SOL    HW215117   4.729   0.494   1.140
 4740SOL     OW15118   0.574   2.197   3.386
 4740SOL    HW115119   0.521   2.181   3.303
 4740SOL    HW215120   0.643   2.266   3.368
 4741SOL     OW15121   3.703   3.751   1.399
 4741SOL    HW115122   3.727   3.847   1.414
 4741SOL    HW215123   3.773   3.708   1.341
 4742SOL     OW15124   3.013   6.791   0.521
 4742SOL    HW115125   3.066   6.733   0.460
 4742SOL    HW215126   3.059   6.799   0.609
 4743SOL     OW15127   2.093   4.805   1.427
 4743SOL    HW115128   2.114   4.886   1.481
 4743SOL    HW215129   2.031   4.745   1.479
 4744SOL     OW15130   2.297   5.625   0.902
 4744SOL    HW115131   2.350   5.599   0.822
 4744SOL    HW215132   2.299   5.551   0.969
 4745SOL     OW15133   1.325   4.589   6.774
 4745SOL    HW115134   1.320   4.493   6.747
 4745SOL    HW215135   1.392   4.599   6.848
 4746SOL     OW15136   4.744   5.644   4.092
 4746SOL    HW115137   4.730   5.727   4.038
 4746SOL    HW215138   4.655   5.605   4.115
 4747SOL     OW15139   1.521   2.083   0.121
 4747SOL    HW115140   1.593   2.132   0.171
 4747SOL    HW215141   1.434   2.130   0.133
 4748SOL     OW15142   1.549   6.736   2.744
 4748SOL    HW115143   1.462   6.698   2.775
 4748SOL    HW215144   1.576   6.810   2.805
 4749SOL     OW15145   2.208   1.393   6.615
 4749SOL    HW115146   2.273   1.455   6.571
 4749SOL    HW215147   2.121   1.396   6.566
 4750SOL     OW15148   5.037   2.715   5.461
 4750SOL    HW115149   5.121   2.740   5.509
 4750SOL    HW215150   5.006   2.792   5.406
 4751SOL     OW15151   4.338   0.645   3.377
 4751SOL    HW115152   4.349   0.731   3.425
 4751SOL    HW215153   4.399   0.642   3.297
 4752SOL     OW15154   4.601   1.821   0.026
 4752SOL    HW115155   4.583   1.755   6.977
 4752SOL    HW215156   4.571   1.912   7.022
 4753SOL     OW15157   3.515   6.280   5.497
 4753SOL    HW115158   3.561   6.355   5.544
 4753SOL    HW215159   3.416   6.288   5.510
 4754SOL     OW15160   4.627   4.927   6.699
 4754SOL    HW115161   4.600   4.842   6.743
 4754SOL    HW215162   4.625   4.916   6.600
 4755SOL     OW15163   1.500   0.851   1.478
 4755SOL    HW115164   1.481   0.812   1.568
 4755SOL    HW215165   1.549   0.938   1.489
 4756SOL     OW15166   6.235   4.279   6.602
 4756SOL    HW115167   6.269   4.186   6.613
 4756SOL    HW215168   6.220   4.298   6.505
 4757SOL     OW15169   1.929   3.912   1.369
 4757SOL    HW115170   1.868   3.924   1.290
 4757SOL    HW215171   1.878   3.924   1.453
 4758SOL     OW15172   2.932   6.098   3.232
 4758SOL    HW115173   2.886   6.040   3.165
 4758SOL    HW215174   3.011   6.142   3.189
 4759SOL     OW15175   0.716   5.706   1.672
 4759SOL    HW115176   0.746   5.785   1.619
 4759SOL    HW215177   0.774   5.627   1.649
 4760SOL     OW15178   1.309   6.045   1.229
 4760SOL    HW115179   1.362   5.973   1.275
 4760SOL    HW215180   1.317   6.130   1.281
 4761SOL     OW15181   6.522   6.171   1.672
 4761SOL    HW115182   6.605   6.135   1.713
 4761SOL    HW215183   6.444   6.150   1.731
 4762SOL     OW15184   1.642   0.422   2.127
 4762SOL    HW115185   1.673   0.330   2.150
 4762SOL    HW215186   1.548   0.434   2.157
 4763SOL     OW15187   5.685   4.436   1.750
 4763SOL    HW115188   5.609   4.500   1.741
 4763SOL    HW215189   5.771   4.486   1.750
 4764SOL     OW15190   4.714   2.741   0.413
 4764SOL    HW115191   4.660   2.822   0.436
 4764SOL    HW215192   4.809   2.767   0.397
 4765SOL     OW15193   3.935   1.614   4.129
 4765SOL    HW115194   3.930   1.521   4.164
 4765SOL    HW215195   4.031   1.637   4.109
 4766SOL     OW15196   0.403   0.299   4.079
 4766SOL    HW115197   0.493   0.342   4.087
 4766SOL    HW215198   0.343   0.358   4.025
 4767SOL     OW15199   1.992   4.308   3.451
 4767SOL    HW115200   2.068   4.359   3.410
 4767SOL    HW215201   1.908   4.327   3.401
 4768SOL     OW15202   4.420   2.804   6.838
 4768SOL    HW115203   4.405   2.706   6.829
 4768SOL    HW215204   4.493   2.821   6.905
 4769SOL     OW15205   2.602   4.677   0.515
 4769SOL    HW115206   2.505   4.697   0.529
 4769SOL    HW215207   2.642   4.642   0.599
 4770SOL     OW15208   0.680   1.384   5.465
 4770SOL    HW115209   0.586   1.350   5.468
 4770SOL    HW215210   0.709   1.411   5.557
 4771SOL     OW15211   1.666   6.998   5.010
 4771SOL    HW115212   1.612   7.017   4.929
 4771SOL    HW215213   1.711   6.908   5.001
 4772SOL     OW15214   2.999   5.122   2.265
 4772SOL    HW115215   2.985   5.029   2.230
 4772SOL    HW215216   2.950   5.133   2.352
 4773SOL     OW15217   1.993   5.307   4.836
 4773SOL    HW115218   2.090   5.296   4.859
 4773SOL    HW215219   1.946   5.219   4.843
 4774SOL     OW15220   1.492   4.437   7.000
 4774SOL    HW115221   1.449   4.348   6.981
 4774SOL    HW215222   1.479   4.461   0.072
 4775SOL     OW15223   6.254   6.450   5.071
 4775SOL    HW115224   6.301   6.516   5.129
 4775SOL    HW215225   6.309   6.367   5.063
 4776SOL     OW15226   6.963   1.195   6.150
 4776SOL    HW115227   6.999   1.285   6.175
 4776SOL    HW215228   6.942   1.194   6.052
 4777SOL     OW15229   1.095   0.245   2.327
 4777SOL    HW115230   1.180   0.250   2.275
 4777SOL    HW215231   1.064   0.150   2.331
 4778SOL     OW15232   1.862   1.159   6.719
 4778SOL    HW115233   1.930   1.112   6.774
 4778SOL    HW215234   1.827   1.097   6.649
 4779SOL     OW15235   5.520   0.425   4.489
 4779SOL    HW115236   5.503   0.359   4.417
 4779SOL    HW215237   5.447   0.494   4.489
 4780SOL     OW15238   6.287   2.956   4.835
 4780SOL    HW115239   6.256   3.034   4.781
 4780SOL    HW215240   6.273   2.872   4.782
 4781SOL     OW15241   2.009   5.505   2.277
 4781SOL    HW115242   2.084   5.447   2.244
 4781SOL    HW215243   1.922   5.457   2.265
 4782SOL     OW15244   6.734   6.940   4.116
 4782SOL    HW115245   6.792   6.966   4.038
 4782SOL    HW215246   6.659   6.882   4.083
 4783SOL     OW15247   6.518   3.421   6.282
 4783SOL    HW115248   6.583   3.482   6.236
 4783SOL    HW215249   6.432   3.420   6.231
 4784SOL     OW15250   5.143   3.084   6.751
 4784SOL    HW115251   5.198   3.142   6.810
 4784SOL    HW215252   5.126   3.130   6.664
 4785SOL     OW15253   0.085   6.922   4.272
 4785SOL    HW115254   0.106   6.873   4.187
 4785SOL    HW215255   0.144   6.887   4.345
 4786SOL     OW15256   1.670   5.281   0.351
 4786SOL    HW115257   1.718   5.353   0.402
 4786SOL    HW215258   1.572   5.303   0.346
 4787SOL     OW15259   3.374   1.631   3.861
 4787SOL    HW115260   3.441   1.568   3.823
 4787SOL    HW215261   3.408   1.667   3.948
 4788SOL     OW15262   6.281   6.159   0.483
 4788SOL    HW115263   6.338   6.151   0.565
 4788SOL    HW215264   6.185   6.157   0.509
 4789SOL     OW15265   5.821   1.035   2.740
 4789SOL    HW115266   5.785   1.016   2.831
 4789SOL    HW215267   5.886   1.111   2.744
 4790SOL     OW15268   6.497   1.952   4.814
 4790SOL    HW115269   6.574   1.899   4.780
 4790SOL    HW215270   6.527   2.011   4.890
 4791SOL     OW15271   0.254   0.456   0.733
 4791SOL    HW115272   0.342   0.417   0.760
 4791SOL    HW215273   0.269   0.545   0.690
 4792SOL     OW15274   2.167   3.133   2.791
 4792SOL    HW115275   2.223   3.207   2.828
 4792SOL    HW215276   2.125   3.163   2.706
 4793SOL     OW15277   1.037   3.396   5.800
 4793SOL    HW115278   1.119   3.351   5.835
 4793SOL    HW215279   1.039   3.393   5.700
 4794SOL     OW15280   4.286   1.502   4.513
 4794SOL    HW115281   4.298   1.575   4.445
 4794SOL    HW215282   4.375   1.463   4.536
 4795SOL     OW15283   6.997   0.721   6.134
 4795SOL    HW115284   7.005   0.762   6.225
 4795SOL    HW215285   6.975   0.624   6.143
 4796SOL     OW15286   4.160   0.909   5.337
 4796SOL    HW115287   4.086   0.872   5.393
 4796SOL    HW215288   4.222   0.835   5.310
 4797SOL     OW15289   1.108   5.164   5.291
 4797SOL    HW115290   1.046   5.163   5.213
 4797SOL    HW215291   1.168   5.243   5.285
 4798SOL     OW15292   4.219   5.064   6.654
 4798SOL    HW115293   4.194   5.159   6.673
 4798SOL    HW215294   4.190   5.006   6.730
 4799SOL     OW15295   3.474   2.820   0.090
 4799SOL    HW115296   3.407   2.894   0.094
 4799SOL    HW215297   3.565   2.858   0.074
 4800SOL     OW15298   1.089   4.204   0.138
 4800SOL    HW115299   1.152   4.165   0.206
 4800SOL    HW215300   1.000   4.220   0.181
 4801SOL     OW15301   5.582   2.627   2.063
 4801SOL    HW115302   5.541   2.561   2.126
 4801SOL    HW215303   5.550   2.719   2.086
 4802SOL     OW15304   6.272   0.568   4.479
 4802SOL    HW115305   6.356   0.613   4.448
 4802SOL    HW215306   6.295   0.496   4.545
 4803SOL     OW15307   5.424   4.117   5.973
 4803SOL    HW115308   5.355   4.162   5.916
 4803SOL    HW215309   5.433   4.021   5.945
 4804SOL     OW15310   4.515   1.249   1.275
 4804SOL    HW115311   4.534   1.347   1.287
 4804SOL    HW215312   4.473   1.234   1.185
 4805SOL     OW15313   6.755   0.788   6.736
 4805SOL    HW115314   6.737   0.820   6.643
 4805SOL    HW215315   6.722   0.856   6.802
 4806SOL     OW15316   1.039   1.463   3.304
 4806SOL    HW115317   1.080   1.381   3.265
 4806SOL    HW215318   1.110   1.516   3.352
 4807SOL     OW15319   0.763   3.409   5.756
 4807SOL    HW115320   0.742   3.314   5.733
 4807SOL    HW215321   0.858   3.416   5.785
 4808SOL     OW15322   3.785   5.925   1.333
 4808SOL    HW115323   3.838   5.841   1.320
 4808SOL    HW215324   3.694   5.903   1.368
 4809SOL     OW15325   3.571   4.257   1.171
 4809SOL    HW115326   3.534   4.194   1.239
 4809SOL    HW215327   3.587   4.346   1.214
 4810SOL     OW15328   0.392   5.027   3.931
 4810SOL    HW115329   0.380   5.018   3.832
 4810SOL    HW215330   0.422   5.120   3.953
 4811SOL     OW15331   3.297   4.141   4.067
 4811SOL    HW115332   3.381   4.160   4.015
 4811SOL    HW215333   3.232   4.094   4.008
 4812SOL     OW15334   1.339   0.347   2.627
 4812SOL    HW115335   1.342   0.273   2.560
 4812SOL    HW215336   1.309   0.431   2.582
 4813SOL     OW15337   6.283   1.292   5.591
 4813SOL    HW115338   6.320   1.377   5.629
 4813SOL    HW215339   6.357   1.231   5.567
 4814SOL     OW15340   5.990   4.005   1.528
 4814SOL    HW115341   5.936   4.089   1.537
 4814SOL    HW215342   5.952   3.948   1.455
 4815SOL     OW15343   6.017   4.962   1.746
 4815SOL    HW115344   5.918   4.954   1.756
 4815SOL    HW215345   6.039   4.994   1.654
 4816SOL     OW15346   2.185   1.401   2.815
 4816SOL    HW115347   2.120   1.377   2.886
 4816SOL    HW215348   2.145   1.470   2.754
 4817SOL     OW15349   3.841   2.480   0.649
 4817SOL    HW115350   3.921   2.431   0.682
 4817SOL    HW215351   3.763   2.418   0.645
 4818SOL     OW15352   3.881   0.604   5.363
 4818SOL    HW115353   3.837   0.549   5.434
 4818SOL    HW215354   3.947   0.666   5.406
 4819SOL     OW15355   3.391   0.358   1.098
 4819SOL    HW115356   3.315   0.381   1.159
 4819SOL    HW215357   3.472   0.338   1.153
 4820SOL     OW15358   5.960   4.064   1.795
 4820SOL    HW115359   5.961   3.972   1.834
 4820SOL    HW215360   5.989   4.060   1.699
 4821SOL     OW15361   0.141   4.877   1.410
 4821SOL    HW115362   0.209   4.938   1.371
 4821SOL    HW215363   0.157   4.867   1.508
 4822SOL     OW15364   1.818   4.052   2.785
 4822SOL    HW115365   1.794   4.131   2.841
 4822SOL    HW215366   1.740   3.989   2.782
 4823SOL     OW15367   1.594   1.092   4.373
 4823SOL    HW115368   1.662   1.165   4.371
 4823SOL    HW215369   1.516   1.121   4.428
 4824SOL     OW15370   5.473   2.877   2.087
 4824SOL    HW115371   5.384   2.841   2.114
 4824SOL    HW215372   5.485   2.969   2.126
 4825SOL     OW15373   0.760   3.436   3.280
 4825SOL    HW115374   0.794   3.527   3.255
 4825SOL    HW215375   0.836   3.378   3.309
 4826SOL     OW15376   6.563   6.161   0.100
 4826SOL    HW115377   6.502   6.163   0.179
 4826SOL    HW215378   6.620   6.079   0.103
 4827SOL     OW15379   5.698   0.889   1.321
 4827SOL    HW115380   5.605   0.915   1.297
 4827SOL    HW215381   5.722   0.929   1.410
 4828SOL     OW15382   5.085   3.939   0.188
 4828SOL    HW115383   5.013   3.973   0.127
 4828SOL    HW215384   5.045   3.880   0.258
 4829SOL     OW15385   3.037   0.629   5.594
 4829SOL    HW115386   2.962   0.601   5.653
 4829SOL    HW215387   3.109   0.672   5.648
 4830SOL     OW15388   4.078   6.970   5.215
 4830SOL    HW115389   4.045   6.880   5.189
 4830SOL    HW215390   4.036   6.999   5.301
 4831SOL     OW15391   6.567   4.002   5.933
 4831SOL    HW115392   6.663   4.003   5.962
 4831SOL    HW215393   6.536   3.907   5.926
 4832SOL     OW15394   2.098   3.289   6.818
 4832SOL    HW115395   2.039   3.265   6.741
 4832SOL    HW215396   2.153   3.209   6.843
 4833SOL     OW15397   5.200   1.574   3.332
 4833SOL    HW115398   5.295   1.544   3.321
 4833SOL    HW215399   5.139   1.495   3.323
 4834SOL     OW15400   5.696   0.576   2.405
 4834SOL    HW115401   5.706   0.531   2.494
 4834SOL    HW215402   5.652   0.664   2.417
 4835SOL     OW15403   2.092   0.513   6.525
 4835SOL    HW115404   2.138   0.430   6.494
 4835SOL    HW215405   2.033   0.491   6.603
 4836SOL     OW15406   5.289   2.614   3.021
 4836SOL    HW115407   5.285   2.604   2.922
 4836SOL    HW215408   5.235   2.694   3.048
 4837SOL     OW15409   1.234   3.888   0.427
 4837SOL    HW115410   1.323   3.866   0.389
 4837SOL    HW215411   1.234   3.983   0.458
 4838SOL     OW15412   2.735   5.922   2.576
 4838SOL    HW115413   2.784   5.949   2.493
 4838SOL    HW215414   2.650   5.974   2.582
 4839SOL     OW15415   0.679   6.195   6.526
 4839SOL    HW115416   0.585   6.196   6.560
 4839SOL    HW215417   0.736   6.141   6.588
 4840SOL     OW15418   0.052   6.734   0.212
 4840SOL    HW115419   0.109   6.757   0.133
 4840SOL    HW215420   0.061   6.806   0.281
 4841SOL     OW15421   2.375   5.640   2.379
 4841SOL    HW115422   2.353   5.625   2.475
 4841SOL    HW215423   2.298   5.685   2.333
 4842SOL     OW15424   3.722   6.248   1.297
 4842SOL    HW115425   3.748   6.153   1.313
 4842SOL    HW215426   3.630   6.252   1.258
 4843SOL     OW15427   7.000   3.443   0.272
 4843SOL    HW115428   0.034   3.481   0.344
 4843SOL    HW215429   0.033   3.418   0.194
 4844SOL     OW15430   6.368   1.820   5.734
 4844SOL    HW115431   6.377   1.794   5.638
 4844SOL    HW215432   6.456   1.853   5.768
 4845SOL     OW15433   6.349   5.450   4.003
 4845SOL    HW115434   6.316   5.370   3.953
 4845SOL    HW215435   6.273   5.513   4.020
 4846SOL     OW15436   1.296   4.326   1.020
 4846SOL    HW115437   1.309   4.362   1.112
 4846SOL    HW215438   1.352   4.244   1.008
 4847SOL     OW15439   3.978   2.224   4.290
 4847SOL    HW115440   4.058   2.233   4.350
 4847SOL    HW215441   4.001   2.256   4.198
 4848SOL     OW15442   2.771   2.300   2.431
 4848SOL    HW115443   2.844   2.283   2.366
 4848SOL    HW215444   2.683   2.278   2.389
 4849SOL     OW15445   1.428   6.113   0.149
 4849SOL    HW115446   1.378   6.028   0.131
 4849SOL    HW215447   1.521   6.105   0.114
 4850SOL     OW15448   3.933   0.656   2.527
 4850SOL    HW115449   3.864   0.726   2.546
 4850SOL    HW215450   4.010   0.699   2.479
 4851SOL     OW15451   5.091   6.490   5.118
 4851SOL    HW115452   5.144   6.457   5.040
 4851SOL    HW215453   5.006   6.438   5.126
 4852SOL     OW15454   1.530   1.540   0.667
 4852SOL    HW115455   1.572   1.537   0.757
 4852SOL    HW215456   1.529   1.635   0.634
 4853SOL     OW15457   3.141   1.586   1.934
 4853SOL    HW115458   3.186   1.636   2.008
 4853SOL    HW215459   3.167   1.627   1.846
 4854SOL     OW15460   4.905   6.619   1.319
 4854SOL    HW115461   4.856   6.601   1.404
 4854SOL    HW215462   5.004   6.614   1.336
 4855SOL     OW15463   0.295   2.583   2.348
 4855SOL    HW115464   0.270   2.634   2.431
 4855SOL    HW215465   0.235   2.610   2.273
 4856SOL     OW15466   2.818   4.778   3.662
 4856SOL    HW115467   2.829   4.874   3.637
 4856SOL    HW215468   2.850   4.764   3.756
 4857SOL     OW15469   6.863   1.800   5.537
 4857SOL    HW115470   6.949   1.847   5.556
 4857SOL    HW215471   6.840   1.740   5.615
 4858SOL     OW15472   1.403   1.402   3.571
 4858SOL    HW115473   1.478   1.468   3.576
 4858SOL    HW215474   1.387   1.363   3.661
 4859SOL     OW15475   2.443   5.722   5.221
 4859SOL    HW115476   2.438   5.647   5.155
 4859SOL    HW215477   2.492   5.691   5.302
 4860SOL     OW15478   4.585   4.988   0.925
 4860SOL    HW115479   4.522   4.952   0.994
 4860SOL    HW215480   4.538   5.053   0.866
 4861SOL     OW15481   5.208   3.637   5.433
 4861SOL    HW115482   5.292   3.692   5.437
 4861SOL    HW215483   5.167   3.633   5.524
 4862SOL     OW15484   1.336   6.325   2.481
 4862SOL    HW115485   1.323   6.270   2.563
 4862SOL    HW215486   1.424   6.373   2.487
 4863SOL     OW15487   6.254   4.402   6.849
 4863SOL    HW115488   6.250   4.366   6.756
 4863SOL    HW215489   6.290   4.496   6.847
 4864SOL     OW15490   2.887   1.220   3.582
 4864SOL    HW115491   2.952   1.262   3.519
 4864SOL    HW215492   2.922   1.132   3.613
 4865SOL     OW15493   2.035   6.447   4.928
 4865SOL    HW115494   1.987   6.493   5.003
 4865SOL    HW215495   2.115   6.499   4.902
 4866SOL     OW15496   6.442   3.982   6.940
 4866SOL    HW115497   6.407   3.924   7.014
 4866SOL    HW215498   6.529   3.945   6.907
 4867SOL     OW15499   5.262   6.976   2.930
 4867SOL    HW115500   5.257   0.040   2.883
 4867SOL    HW215501   5.203   6.910   2.883
 4868SOL     OW15502   0.024   4.623   0.825
 4868SOL    HW115503   0.044   4.659   0.734
 4868SOL    HW215504   6.978   4.551   0.817
 4869SOL     OW15505   0.696   1.017   0.437
 4869SOL    HW115506   0.740   0.940   0.484
 4869SOL    HW215507   0.745   1.036   0.352
 4870SOL     OW15508   0.909   6.081   2.125
 4870SOL    HW115509   0.848   6.106   2.201
 4870SOL    HW215510   1.002   6.069   2.160
 4871SOL     OW15511   1.407   1.549   4.328
 4871SOL    HW115512   1.308   1.559   4.321
 4871SOL    HW215513   1.447   1.546   4.236
 4872SOL     OW15514   5.820   6.766   3.234
 4872SOL    HW115515   5.753   6.835   3.208
 4872SOL    HW215516   5.875   6.740   3.155
 4873SOL     OW15517   6.689   5.933   5.579
 4873SOL    HW115518   6.766   5.990   5.548
 4873SOL    HW215519   6.604   5.985   5.569
 4874SOL     OW15520   5.366   2.935   2.896
 4874SOL    HW115521   5.427   2.888   2.959
 4874SOL    HW215522   5.271   2.921   2.925
 4875SOL     OW15523   5.865   6.518   4.975
 4875SOL    HW115524   5.940   6.453   4.970
 4875SOL    HW215525   5.850   6.543   5.071
 4876SOL     OW15526   2.044   1.160   2.948
 4876SOL    HW115527   2.005   1.210   3.025
 4876SOL    HW215528   2.018   1.064   2.954
 4877SOL     OW15529   6.984   1.912   5.221
 4877SOL    HW115530   6.920   1.989   5.217
 4877SOL    HW215531   0.038   1.936   5.280
 4878SOL     OW15532   0.701   2.432   2.418
 4878SOL    HW115533   0.634   2.397   2.484
 4878SOL    HW215534   0.684   2.529   2.401
 4879SOL     OW15535   5.455   1.490   3.265
 4879SOL    HW115536   5.548   1.525   3.250
 4879SOL    HW215537   5.435   1.421   3.195
 4880SOL     OW15538   6.717   2.459   6.088
 4880SOL    HW115539   6.628   2.459   6.043
 4880SOL    HW215540   6.709   2.418   6.178
 4881SOL     OW15541   1.695   2.860   1.775
 4881SOL    HW115542   1.719   2.937   1.834
 4881SOL    HW215543   1.595   2.856   1.765
 4882SOL     OW15544   4.484   2.414   4.427
 4882SOL    HW115545   4.392   2.389   4.396
 4882SOL    HW215546   4.512   2.351   4.500
 4883SOL     OW15547   6.409   3.799   1.484
 4883SOL    HW115548   6.423   3.863   1.408
 4883SOL    HW215549   6.335   3.832   1.542
 4884SOL     OW15550   2.338   6.590   2.018
 4884SOL    HW115551   2.275   6.624   1.948
 4884SOL    HW215552   2.328   6.644   2.101
 4885SOL     OW15553   1.215   4.151   0.485
 4885SOL    HW115554   1.149   4.221   0.456
 4885SOL    HW215555   1.255   4.177   0.573
 4886SOL     OW15556   2.839   1.226   2.169
 4886SOL    HW115557   2.834   1.293   2.095
 4886SOL    HW215558   2.934   1.215   2.198
 4887SOL     OW15559   6.535   6.660   1.270
 4887SOL    HW115560   6.596   6.707   1.206
 4887SOL    HW215561   6.581   6.652   1.359
 4888SOL     OW15562   3.978   6.385   3.138
 4888SOL    HW115563   3.936   6.449   3.073
 4888SOL    HW215564   4.044   6.328   3.091
 4889SOL     OW15565   6.802   3.002   3.601
 4889SOL    HW115566   6.862   3.067   3.648
 4889SOL    HW215567   6.806   2.914   3.648
 4890SOL     OW15568   0.495   1.632   4.663
 4890SOL    HW115569   0.525   1.606   4.755
 4890SOL    HW215570   0.544   1.578   4.595
 4891SOL     OW15571   2.724   5.654   6.059
 4891SOL    HW115572   2.722   5.609   5.971
 4891SOL    HW215573   2.668   5.737   6.056
 4892SOL     OW15574   5.394   5.786   2.890
 4892SOL    HW115575   5.299   5.768   2.864
 4892SOL    HW215576   5.418   5.881   2.866
 4893SOL     OW15577   0.474   3.236   1.875
 4893SOL    HW115578   0.433   3.324   1.900
 4893SOL    HW215579   0.506   3.190   1.957
 4894SOL     OW15580   4.723   6.941   1.949
 4894SOL    HW115581   4.820   6.938   1.925
 4894SOL    HW215582   4.711   6.910   2.043
 4895SOL     OW15583   6.717   4.457   4.063
 4895SOL    HW115584   6.683   4.365   4.044
 4895SOL    HW215585   6.775   4.455   4.144
 4896SOL     OW15586   1.765   5.020   3.921
 4896SOL    HW115587   1.740   4.989   4.013
 4896SOL    HW215588   1.860   5.050   3.921
 4897SOL     OW15589   1.739   6.227   5.112
 4897SOL    HW115590   1.812   6.252   5.176
 4897SOL    HW215591   1.674   6.165   5.157
 4898SOL     OW15592   4.510   1.910   3.732
 4898SOL    HW115593   4.552   1.966   3.661
 4898SOL    HW215594   4.461   1.969   3.797
 4899SOL     OW15595   6.982   5.557   1.894
 4899SOL    HW115596   7.013   5.573   1.800
 4899SOL    HW215597   6.931   5.471   1.898
 4900SOL     OW15598   3.729   6.040   5.764
 4900SOL    HW115599   3.785   6.123   5.764
 4900SOL    HW215600   3.697   6.022   5.857
 4901SOL     OW15601   7.022   1.814   5.922
 4901SOL    HW115602   6.940   1.794   5.974
 4901SOL    HW215603   0.031   1.731   5.877
 4902SOL     OW15604   1.696   0.097   5.883
 4902SOL    HW115605   1.603   0.097   5.847
 4902SOL    HW215606   1.739   0.185   5.863
 4903SOL     OW15607   5.530   4.847   2.356
 4903SOL    HW115608   5.492   4.776   2.415
 4903SOL    HW215609   5.461   4.917   2.338
 4904SOL     OW15610   1.947   0.493   0.033
 4904SOL    HW115611   1.921   0.483   0.130
 4904SOL    HW215612   1.902   0.573   7.019
 4905SOL     OW15613   3.332   6.296   2.395
 4905SOL    HW115614   3.374   6.312   2.305
 4905SOL    HW215615   3.399   6.316   2.466
 4906SOL     OW15616   4.891   3.250   4.961
 4906SOL    HW115617   4.800   3.279   4.932
 4906SOL    HW215618   4.935   3.200   4.886
 4907SOL     OW15619   4.787   1.575   6.473
 4907SOL    HW115620   4.830   1.562   6.563
 4907SOL    HW215621   4.764   1.671   6.461
 4908SOL     OW15622   3.989   6.281   6.735
 4908SOL    HW115623   3.932   6.205   6.765
 4908SOL    HW215624   4.022   6.332   6.815
 4909SOL     OW15625   5.139   4.621   4.624
 4909SOL    HW115626   5.182   4.697   4.673
 4909SOL    HW215627   5.202   4.587   4.554
 4910SOL     OW15628   4.582   1.526   5.603
 4910SOL    HW115629   4.524   1.606   5.585
 4910SOL    HW215630   4.651   1.518   5.531
 4911SOL     OW15631   6.896   2.722   1.902
 4911SOL    HW115632   6.904   2.626   1.875
 4911SOL    HW215633   6.975   2.773   1.869
 4912SOL     OW15634   5.954   2.250   4.146
 4912SOL    HW115635   6.009   2.214   4.221
 4912SOL    HW215636   5.873   2.297   4.183
 4913SOL     OW15637   0.002   2.947   5.957
 4913SOL    HW115638   0.043   2.870   6.006
 4913SOL    HW215639   6.930   2.956   5.983
 4914SOL     OW15640   4.673   0.280   3.452
 4914SOL    HW115641   4.710   0.251   3.540
 4914SOL    HW215642   4.574   0.267   3.451
 4915SOL     OW15643   3.495   5.251   5.947
 4915SOL    HW115644   3.409   5.302   5.947
 4915SOL    HW215645   3.556   5.288   5.878
 4916SOL     OW15646   6.247   2.194   3.719
 4916SOL    HW115647   6.283   2.277   3.677
 4916SOL    HW215648   6.307   2.166   3.794
 4917SOL     OW15649   4.666   6.890   0.665
 4917SOL    HW115650   4.597   6.819   0.649
 4917SOL    HW215651   4.682   6.940   0.580
 4918SOL     OW15652   6.145   5.282   2.726
 4918SOL    HW115653   6.223   5.278   2.789
 4918SOL    HW215654   6.060   5.285   2.778
 4919SOL     OW15655   3.678   4.040   2.289
 4919SOL    HW115656   3.664   4.109   2.217
 4919SOL    HW215657   3.613   4.056   2.364
 4920SOL     OW15658   5.980   0.721   5.662
 4920SOL    HW115659   5.895   0.688   5.704
 4920SOL    HW215660   5.980   0.821   5.660
 4921SOL     OW15661   0.326   0.164   2.221
 4921SOL    HW115662   0.418   0.203   2.221
 4921SOL    HW215663   0.281   0.186   2.308
 4922SOL     OW15664   3.462   2.415   6.443
 4922SOL    HW115665   3.377   2.454   6.480
 4922SOL    HW215666   3.514   2.488   6.398
 4923SOL     OW15667   3.462   1.771   2.074
 4923SOL    HW115668   3.541   1.805   2.024
 4923SOL    HW215669   3.386   1.834   2.064
 4924SOL     OW15670   2.440   0.530   5.465
 4924SOL    HW115671   2.453   0.493   5.373
 4924SOL    HW215672   2.344   0.557   5.477
 4925SOL     OW15673   5.376   5.494   3.504
 4925SOL    HW115674   5.389   5.570   3.568
 4925SOL    HW215675   5.418   5.412   3.542
 4926SOL     OW15676   5.568   2.505   0.980
 4926SOL    HW115677   5.627   2.425   0.985
 4926SOL    HW215678   5.622   2.585   0.953
 4927SOL     OW15679   3.270   1.755   6.548
 4927SOL    HW115680   3.233   1.843   6.519
 4927SOL    HW215681   3.342   1.726   6.484
 4928SOL     OW15682   0.043   1.916   0.337
 4928SOL    HW115683   0.046   1.887   0.433
 4928SOL    HW215684   7.015   2.002   0.331
 4929SOL     OW15685   0.672   6.557   4.988
 4929SOL    HW115686   0.658   6.545   4.890
 4929SOL    HW215687   0.659   6.653   5.012
 4930SOL     OW15688   5.495   6.291   2.405
 4930SOL    HW115689   5.521   6.325   2.495
 4930SOL    HW215690   5.550   6.211   2.382
 4931SOL     OW15691   6.294   5.830   0.806
 4931SOL    HW115692   6.278   5.744   0.758
 4931SOL    HW215693   6.388   5.833   0.838
 4932SOL     OW15694   3.036   3.320   2.103
 4932SOL    HW115695   2.997   3.379   2.032
 4932SOL    HW215696   3.008   3.352   2.193
 4933SOL     OW15697   2.929   6.694   5.549
 4933SOL    HW115698   2.926   6.787   5.513
 4933SOL    HW215699   2.862   6.637   5.500
 4934SOL     OW15700   4.016   4.765   3.023
 4934SOL    HW115701   4.111   4.734   3.030
 4934SOL    HW215702   3.965   4.736   3.105
 4935SOL     OW15703   0.194   1.006   6.252
 4935SOL    HW115704   0.165   0.931   6.312
 4935SOL    HW215705   0.114   1.042   6.203
 4936SOL     OW15706   3.102   3.103   0.655
 4936SOL    HW115707   3.181   3.077   0.599
 4936SOL    HW215708   3.090   3.036   0.728
 4937SOL     OW15709   4.462   2.411   5.369
 4937SOL    HW115710   4.531   2.424   5.440
 4937SOL    HW215711   4.507   2.408   5.280
 4938SOL     OW15712   4.372   5.523   6.152
 4938SOL    HW115713   4.351   5.611   6.109
 4938SOL    HW215714   4.287   5.473   6.170
 4939SOL     OW15715   4.430   2.882   6.082
 4939SOL    HW115716   4.482   2.868   5.997
 4939SOL    HW215717   4.476   2.834   6.157
 4940SOL     OW15718   2.037   6.205   4.552
 4940SOL    HW115719   2.048   6.145   4.473
 4940SOL    HW215720   2.125   6.245   4.577
 4941SOL     OW15721   5.520   0.426   0.726
 4941SOL    HW115722   5.452   0.356   0.705
 4941SOL    HW215723   5.571   0.399   0.808
 4942SOL     OW15724   5.177   4.159   5.574
 4942SOL    HW115725   5.166   4.061   5.588
 4942SOL    HW215726   5.236   4.175   5.495
 4943SOL     OW15727   4.778   2.395   1.217
 4943SOL    HW115728   4.841   2.367   1.145
 4943SOL    HW215729   4.813   2.476   1.264
 4944SOL     OW15730   2.064   4.818   2.460
 4944SOL    HW115731   2.142   4.881   2.465
 4944SOL    HW215732   1.993   4.848   2.523
 4945SOL     OW15733   0.923   6.607   4.402
 4945SOL    HW115734   0.939   6.530   4.463
 4945SOL    HW215735   1.007   6.661   4.393
 4946SOL     OW15736   1.089   4.187   2.432
 4946SOL    HW115737   1.052   4.105   2.388
 4946SOL    HW215738   1.069   4.267   2.376
 4947SOL     OW15739   0.405   6.736   0.634
 4947SOL    HW115740   0.415   6.690   0.546
 4947SOL    HW215741   0.423   6.834   0.623
 4948SOL     OW15742   1.894   1.354   1.925
 4948SOL    HW115743   1.839   1.312   1.997
 4948SOL    HW215744   1.856   1.330   1.836
 4949SOL     OW15745   5.604   1.905   4.237
 4949SOL    HW115746   5.699   1.903   4.206
 4949SOL    HW215747   5.545   1.930   4.161
 4950SOL     OW15748   3.199   5.923   5.104
 4950SOL    HW115749   3.144   5.966   5.032
 4950SOL    HW215750   3.146   5.849   5.146
 4951SOL     OW15751   4.213   2.096   3.310
 4951SOL    HW115752   4.288   2.126   3.251
 4951SOL    HW215753   4.129   2.091   3.257
 4952SOL     OW15754   0.644   5.904   4.957
 4952SOL    HW115755   0.742   5.914   4.975
 4952SOL    HW215756   0.597   5.884   5.043
 4953SOL     OW15757   1.630   5.385   1.633
 4953SOL    HW115758   1.643   5.367   1.731
 4953SOL    HW215759   1.646   5.301   1.581
 4954SOL     OW15760   5.536   5.571   6.548
 4954SOL    HW115761   5.550   5.518   6.632
 4954SOL    HW215762   5.528   5.668   6.571
 4955SOL     OW15763   1.227   6.571   1.361
 4955SOL    HW115764   1.320   6.536   1.350
 4955SOL    HW215765   1.220   6.622   1.446
 4956SOL     OW15766   4.800   6.144   4.413
 4956SOL    HW115767   4.782   6.240   4.436
 4956SOL    HW215768   4.738   6.116   4.339
 4957SOL     OW15769   0.981   0.169   3.795
 4957SOL    HW115770   0.958   0.263   3.822
 4957SOL    HW215771   1.060   0.138   3.847
 4958SOL     OW15772   0.024   5.976   0.128
 4958SOL    HW115773   0.043   6.073   0.146
 4958SOL    HW215774   0.044   5.955   0.033
 4959SOL     OW15775   1.059   0.968   1.351
 4959SOL    HW115776   1.070   1.036   1.279
 4959SOL    HW215777   1.092   0.880   1.319
 4960SOL     OW15778   3.699   6.486   4.984
 4960SOL    HW115779   3.720   6.389   4.997
 4960SOL    HW215780   3.782   6.535   4.957
 4961SOL     OW15781   4.318   0.525   5.008
 4961SOL    HW115782   4.274   0.435   5.002
 4961SOL    HW215783   4.408   0.516   5.050
 4962SOL     OW15784   6.912   1.380   1.347
 4962SOL    HW115785   6.933   1.283   1.360
 4962SOL    HW215786   6.880   1.419   1.434
 4963SOL     OW15787   0.390   5.038   1.406
 4963SOL    HW115788   0.488   5.044   1.384
 4963SOL    HW215789   0.380   5.021   1.504
 4964SOL     OW15790   3.614   6.384   3.572
 4964SOL    HW115791   3.641   6.420   3.483
 4964SOL    HW215792   3.674   6.308   3.597
 4965SOL     OW15793   6.843   6.717   4.576
 4965SOL    HW115794   6.854   6.746   4.481
 4965SOL    HW215795   6.926   6.669   4.605
 4966SOL     OW15796   3.723   4.954   4.061
 4966SOL    HW115797   3.755   5.039   4.019
 4966SOL    HW215798   3.762   4.946   4.153
 4967SOL     OW15799   4.303   2.476   5.969
 4967SOL    HW115800   4.316   2.377   5.974
 4967SOL    HW215801   4.309   2.515   6.061
 4968SOL     OW15802   5.954   3.393   5.834
 4968SOL    HW115803   5.989   3.485   5.852
 4968SOL    HW215804   5.856   3.390   5.853
 4969SOL     OW15805   0.966   1.890   2.076
 4969SOL    HW115806   0.954   1.911   1.979
 4969SOL    HW215807   0.881   1.912   2.125
 4970SOL     OW15808   0.745   2.716   5.935
 4970SOL    HW115809   0.765   2.745   5.841
 4970SOL    HW215810   0.761   2.617   5.943
 4971SOL     OW15811   6.363   5.890   3.869
 4971SOL    HW115812   6.300   5.904   3.945
 4971SOL    HW215813   6.318   5.839   3.797
 4972SOL     OW15814   1.047   2.725   6.131
 4972SOL    HW115815   1.124   2.661   6.129
 4972SOL    HW215816   0.979   2.694   6.197
 4973SOL     OW15817   5.803   6.045   2.903
 4973SOL    HW115818   5.766   6.041   2.996
 4973SOL    HW215819   5.785   6.135   2.864
 4974SOL     OW15820   5.278   6.677   1.728
 4974SOL    HW115821   5.182   6.659   1.753
 4974SOL    HW215822   5.296   6.640   1.637
 4975SOL     OW15823   5.730   6.115   0.273
 4975SOL    HW115824   5.635   6.102   0.245
 4975SOL    HW215825   5.734   6.185   0.344
 4976SOL     OW15826   3.910   0.467   4.778
 4976SOL    HW115827   3.828   0.425   4.819
 4976SOL    HW215828   3.951   0.404   4.713
 4977SOL     OW15829   3.476   3.971   0.033
 4977SOL    HW115830   3.553   3.944   0.091
 4977SOL    HW215831   3.499   4.056   7.009
 4978SOL     OW15832   5.967   2.997   5.964
 4978SOL    HW115833   6.037   3.068   5.961
 4978SOL    HW215834   6.004   2.915   6.007
 4979SOL     OW15835   1.722   1.585   5.214
 4979SOL    HW115836   1.630   1.555   5.190
 4979SOL    HW215837   1.789   1.539   5.156
 4980SOL     OW15838   2.469   5.396   2.269
 4980SOL    HW115839   2.460   5.489   2.304
 4980SOL    HW215840   2.546   5.392   2.206
 4981SOL     OW15841   4.287   6.506   5.633
 4981SOL    HW115842   4.309   6.601   5.607
 4981SOL    HW215843   4.361   6.470   5.690
 4982SOL     OW15844   2.617   2.892   0.279
 4982SOL    HW115845   2.528   2.928   0.308
 4982SOL    HW215846   2.611   2.861   0.184
 4983SOL     OW15847   5.519   3.142   4.381
 4983SOL    HW115848   5.531   3.090   4.465
 4983SOL    HW215849   5.430   3.187   4.382
 4984SOL     OW15850   4.959   4.023   2.655
 4984SOL    HW115851   5.059   4.029   2.663
 4984SOL    HW215852   4.922   3.976   2.735
 4985SOL     OW15853   5.566   4.045   2.610
 4985SOL    HW115854   5.658   4.052   2.648
 4985SOL    HW215855   5.524   4.135   2.607
 4986SOL     OW15856   5.107   4.784   1.879
 4986SOL    HW115857   5.204   4.795   1.901
 4986SOL    HW215858   5.082   4.687   1.885
 4987SOL     OW15859   0.371   3.617   1.101
 4987SOL    HW115860   0.347   3.637   1.006
 4987SOL    HW215861   0.463   3.578   1.105
 4988SOL     OW15862   0.407   2.085   5.224
 4988SOL    HW115863   0.475   2.121   5.160
 4988SOL    HW215864   0.397   2.149   5.300
 4989SOL     OW15865   0.375   0.921   0.572
 4989SOL    HW115866   0.393   0.974   0.489
 4989SOL    HW215867   0.427   0.959   0.648
 4990SOL     OW15868   0.596   2.435   5.264
 4990SOL    HW115869   0.584   2.396   5.355
 4990SOL    HW215870   0.507   2.456   5.223
 4991SOL     OW15871   1.556   2.680   4.568
 4991SOL    HW115872   1.645   2.635   4.569
 4991SOL    HW215873   1.564   2.770   4.612
 4992SOL     OW15874   3.140   0.941   5.823
 4992SOL    HW115875   3.199   0.982   5.893
 4992SOL    HW215876   3.165   0.845   5.811
 4993SOL     OW15877   2.875   5.928   4.010
 4993SOL    HW115878   2.781   5.916   4.043
 4993SOL    HW215879   2.873   5.975   3.922
 4994SOL     OW15880   0.064   6.599   2.366
 4994SOL    HW115881   0.082   6.570   2.461
 4994SOL    HW215882   0.011   6.528   2.320
 4995SOL     OW15883   5.702   2.677   5.867
 4995SOL    HW115884   5.641   2.598   5.874
 4995SOL    HW215885   5.766   2.677   5.944
 4996SOL     OW15886   0.698   1.252   4.121
 4996SOL    HW115887   0.697   1.161   4.161
 4996SOL    HW215888   0.777   1.303   4.155
 4997SOL     OW15889   0.765   2.415   3.303
 4997SOL    HW115890   0.863   2.424   3.285
 4997SOL    HW215891   0.722   2.505   3.297
 4998SOL     OW15892   1.213   5.498   4.751
 4998SOL    HW115893   1.281   5.433   4.717
 4998SOL    HW215894   1.247   5.540   4.835
 4999SOL     OW15895   6.089   4.415   1.243
 4999SOL    HW115896   6.010   4.354   1.246
 4999SOL    HW215897   6.150   4.387   1.169
 5000SOL     OW15898   6.844   5.781   4.384
 5000SOL    HW115899   6.770   5.798   4.450
 5000SOL    HW215900   6.805   5.737   4.302
 5001SOL     OW15901   4.619   4.316   5.713
 5001SOL    HW115902   4.705   4.271   5.739
 5001SOL    HW215903   4.557   4.249   5.673
 5002SOL     OW15904   2.461   1.531   1.229
 5002SOL    HW115905   2.383   1.577   1.272
 5002SOL    HW215906   2.536   1.595   1.218
 5003SOL     OW15907   6.622   5.595   2.993
 5003SOL    HW115908   6.678   5.562   2.917
 5003SOL    HW215909   6.681   5.630   3.065
 5004SOL     OW15910   3.516   5.494   6.898
 5004SOL    HW115911   3.587   5.459   6.837
 5004SOL    HW215912   3.555   5.512   6.988
 5005SOL     OW15913   4.307   2.312   6.988
 5005SOL    HW115914   4.335   2.398   0.007
 5005SOL    HW215915   4.381   2.277   6.932
 5006SOL     OW15916   5.212   4.954   3.935
 5006SOL    HW115917   5.125   4.979   3.979
 5006SOL    HW215918   5.287   4.975   3.997
 5007SOL     OW15919   4.021   1.649   4.722
 5007SOL    HW115920   4.028   1.608   4.631
 5007SOL    HW215921   4.101   1.707   4.738
 5008SOL     OW15922   6.525   1.783   3.709
 5008SOL    HW115923   6.561   1.764   3.800
 5008SOL    HW215924   6.577   1.733   3.641
 5009SOL     OW15925   2.147   5.929   3.855
 5009SOL    HW115926   2.062   5.959   3.812
 5009SOL    HW215927   2.225   5.968   3.805
 5010SOL     OW15928   4.014   3.353   4.590
 5010SOL    HW115929   4.071   3.435   4.598
 5010SOL    HW215930   3.996   3.334   4.493
 5011SOL     OW15931   1.818   2.537   2.520
 5011SOL    HW115932   1.839   2.570   2.427
 5011SOL    HW215933   1.838   2.609   2.586
 5012SOL     OW15934   6.332   3.095   6.847
 5012SOL    HW115935   6.293   3.161   6.783
 5012SOL    HW215936   6.282   3.100   6.934
 5013SOL     OW15937   4.617   1.310   6.418
 5013SOL    HW115938   4.709   1.336   6.388
 5013SOL    HW215939   4.615   1.212   6.438
 5014SOL     OW15940   6.119   6.773   6.999
 5014SOL    HW115941   6.106   6.800   0.071
 5014SOL    HW215942   6.031   6.747   6.960
 5015SOL     OW15943   5.104   2.281   3.020
 5015SOL    HW115944   5.071   2.188   3.037
 5015SOL    HW215945   5.063   2.343   3.086
 5016SOL     OW15946   2.210   6.815   2.488
 5016SOL    HW115947   2.122   6.770   2.499
 5016SOL    HW215948   2.258   6.818   2.576
 5017SOL     OW15949   2.609   2.814   1.465
 5017SOL    HW115950   2.595   2.719   1.440
 5017SOL    HW215951   2.574   2.831   1.557
 5018SOL     OW15952   6.612   5.196   4.099
 5018SOL    HW115953   6.535   5.259   4.086
 5018SOL    HW215954   6.577   5.109   4.134
 5019SOL     OW15955   2.825   5.339   6.039
 5019SOL    HW115956   2.858   5.411   6.099
 5019SOL    HW215957   2.762   5.378   5.971
 5020SOL     OW15958   5.100   5.916   6.684
 5020SOL    HW115959   5.038   5.844   6.653
 5020SOL    HW215960   5.050   6.002   6.691
 5021SOL     OW15961   2.129   5.102   5.980
 5021SOL    HW115962   2.077   5.144   6.055
 5021SOL    HW215963   2.089   5.012   5.959
 5022SOL     OW15964   1.646   4.875   0.633
 5022SOL    HW115965   1.621   4.922   0.718
 5022SOL    HW215966   1.689   4.940   0.570
 5023SOL     OW15967   6.528   3.435   2.488
 5023SOL    HW115968   6.593   3.509   2.476
 5023SOL    HW215969   6.462   3.459   2.559
 5024SOL     OW15970   5.540   3.375   5.218
 5024SOL    HW115971   5.619   3.313   5.221
 5024SOL    HW215972   5.510   3.394   5.312
 5025SOL     OW15973   6.658   1.779   2.870
 5025SOL    HW115974   6.644   1.839   2.949
 5025SOL    HW215975   6.657   1.684   2.901
 5026SOL     OW15976   0.553   6.358   2.790
 5026SOL    HW115977   0.460   6.359   2.827
 5026SOL    HW215978   0.613   6.413   2.848
 5027SOL     OW15979   1.255   0.051   3.541
 5027SOL    HW115980   1.242   0.144   3.575
 5027SOL    HW215981   1.263   7.012   3.618
 5028SOL     OW15982   1.001   0.759   2.839
 5028SOL    HW115983   1.041   0.781   2.750
 5028SOL    HW215984   0.902   0.778   2.837
 5029SOL     OW15985   0.097   1.148   2.283
 5029SOL    HW115986   0.171   1.113   2.340
 5029SOL    HW215987   0.101   1.248   2.280
 5030SOL     OW15988   1.771   5.671   6.765
 5030SOL    HW115989   1.759   5.713   6.855
 5030SOL    HW215990   1.693   5.693   6.707
 5031SOL     OW15991   5.776   0.129   4.622
 5031SOL    HW115992   5.725   0.153   4.540
 5031SOL    HW215993   5.740   0.179   4.700
 5032SOL     OW15994   1.365   5.862   0.918
 5032SOL    HW115995   1.460   5.887   0.899
 5032SOL    HW215996   1.359   5.819   1.008
 5033SOL     OW15997   1.511   4.602   5.973
 5033SOL    HW115998   1.542   4.606   5.878
 5033SOL    HW215999   1.512   4.694   6.012
 5034SOL     OW16000   6.478   4.128   0.415
 5034SOL    HW116001   6.565   4.117   0.368
 5034SOL    HW216002   6.423   4.197   0.367
 5035SOL     OW16003   6.151   4.072   1.066
 5035SOL    HW116004   6.173   4.168   1.084
 5035SOL    HW216005   6.139   4.059   0.968
 5036SOL     OW16006   1.851   0.594   2.229
 5036SOL    HW116007   1.823   0.674   2.282
 5036SOL    HW216008   1.770   0.549   2.192
 5037SOL     OW16009   4.585   2.408   3.299
 5037SOL    HW116010   4.510   2.417   3.364
 5037SOL    HW216011   4.666   2.454   3.336
 5038SOL     OW16012   2.541   6.505   5.722
 5038SOL    HW116013   2.619   6.560   5.750
 5038SOL    HW216014   2.534   6.506   5.622
 5039SOL     OW16015   2.081   1.563   3.696
 5039SOL    HW116016   2.121   1.638   3.643
 5039SOL    HW216017   2.153   1.506   3.733
 5040SOL     OW16018   2.902   3.274   6.486
 5040SOL    HW116019   2.921   3.211   6.411
 5040SOL    HW216020   2.853   3.226   6.558
 5041SOL     OW16021   1.205   5.415   1.053
 5041SOL    HW116022   1.284   5.357   1.072
 5041SOL    HW216023   1.212   5.450   0.959
 5042SOL     OW16024   6.150   2.391   5.984
 5042SOL    HW116025   6.094   2.413   6.064
 5042SOL    HW216026   6.169   2.293   5.983
 5043SOL     OW16027   4.472   7.007   3.462
 5043SOL    HW116028   4.387   6.954   3.464
 5043SOL    HW216029   4.472   0.042   3.381
 5044SOL     OW16030   6.085   4.249   3.132
 5044SOL    HW116031   6.064   4.160   3.092
 5044SOL    HW216032   6.010   4.312   3.115
 5045SOL     OW16033   5.939   3.001   6.296
 5045SOL    HW116034   5.882   2.942   6.238
 5045SOL    HW216035   6.034   2.971   6.292
 5046SOL     OW16036   3.311   3.075   5.120
 5046SOL    HW116037   3.314   3.003   5.051
 5046SOL    HW216038   3.371   3.151   5.092
 5047SOL     OW16039   1.132   0.852   2.628
 5047SOL    HW116040   1.170   0.767   2.592
 5047SOL    HW216041   1.111   0.914   2.552
 5048SOL     OW16042   5.554   3.235   1.493
 5048SOL    HW116043   5.597   3.301   1.556
 5048SOL    HW216044   5.560   3.269   1.400
 5049SOL     OW16045   1.417   2.584   2.450
 5049SOL    HW116046   1.464   2.649   2.391
 5049SOL    HW216047   1.366   2.518   2.394
 5050SOL     OW16048   0.911   3.547   0.969
 5050SOL    HW116049   0.877   3.556   0.876
 5050SOL    HW216050   0.948   3.455   0.982
 5051SOL     OW16051   3.005   4.579   0.382
 5051SOL    HW116052   2.906   4.576   0.366
 5051SOL    HW216053   3.050   4.510   0.326
 5052SOL     OW16054   5.540   3.675   0.953
 5052SOL    HW116055   5.511   3.761   0.913
 5052SOL    HW216056   5.606   3.630   0.892
 5053SOL     OW16057   2.182   4.913   0.323
 5053SOL    HW116058   2.246   4.863   0.263
 5053SOL    HW216059   2.128   4.847   0.376
 5054SOL     OW16060   3.779   5.935   4.993
 5054SOL    HW116061   3.697   5.894   4.953
 5054SOL    HW216062   3.803   5.885   5.076
 5055SOL     OW16063   1.607   1.997   3.932
 5055SOL    HW116064   1.620   1.988   3.833
 5055SOL    HW216065   1.641   2.086   3.962
 5056SOL     OW16066   1.923   2.410   5.195
 5056SOL    HW116067   1.950   2.314   5.200
 5056SOL    HW216068   1.835   2.422   5.241
 5057SOL     OW16069   0.888   4.861   3.020
 5057SOL    HW116070   0.916   4.767   3.000
 5057SOL    HW216071   0.849   4.865   3.112
 5058SOL     OW16072   3.524   3.828   6.792
 5058SOL    HW116073   3.464   3.775   6.732
 5058SOL    HW216074   3.468   3.886   6.852
 5059SOL     OW16075   4.128   1.430   3.495
 5059SOL    HW116076   4.074   1.354   3.458
 5059SOL    HW216077   4.175   1.476   3.420
 5060SOL     OW16078   0.070   3.560   5.584
 5060SOL    HW116079   0.126   3.499   5.639
 5060SOL    HW216080   0.128   3.625   5.536
 5061SOL     OW16081   3.714   2.417   5.398
 5061SOL    HW116082   3.731   2.515   5.391
 5061SOL    HW216083   3.616   2.399   5.385
 5062SOL     OW16084   5.339   0.625   3.448
 5062SOL    HW116085   5.394   0.562   3.502
 5062SOL    HW216086   5.357   0.719   3.477
 5063SOL     OW16087   1.129   0.992   2.007
 5063SOL    HW116088   1.228   0.985   2.005
 5063SOL    HW216089   1.097   0.983   2.102
 5064SOL     OW16090   5.172   5.864   0.766
 5064SOL    HW116091   5.141   5.786   0.819
 5064SOL    HW216092   5.206   5.936   0.827
 5065SOL     OW16093   2.291   0.998   2.486
 5065SOL    HW116094   2.287   1.087   2.532
 5065SOL    HW216095   2.260   1.008   2.392
 5066SOL     OW16096   2.400   4.753   2.329
 5066SOL    HW116097   2.498   4.765   2.347
 5066SOL    HW216098   2.357   4.843   2.320
 5067SOL     OW16099   5.231   2.757   0.562
 5067SOL    HW116100   5.155   2.703   0.523
 5067SOL    HW216101   5.316   2.707   0.550
 5068SOL     OW16102   2.801   5.734   0.738
 5068SOL    HW116103   2.862   5.704   0.811
 5068SOL    HW216104   2.800   5.834   0.734
 5069SOL     OW16105   3.674   5.001   5.117
 5069SOL    HW116106   3.628   5.044   5.040
 5069SOL    HW216107   3.629   4.914   5.138
 5070SOL     OW16108   5.475   3.793   4.843
 5070SOL    HW116109   5.490   3.733   4.765
 5070SOL    HW216110   5.468   3.887   4.812
 5071SOL     OW16111   2.768   0.246   4.228
 5071SOL    HW116112   2.772   0.319   4.159
 5071SOL    HW216113   2.772   0.287   4.320
 5072SOL     OW16114   0.508   1.359   0.099
 5072SOL    HW116115   0.435   1.423   0.073
 5072SOL    HW216116   0.538   1.309   0.018
 5073SOL     OW16117   2.556   0.945   2.456
 5073SOL    HW116118   2.462   0.963   2.484
 5073SOL    HW216119   2.601   1.031   2.432
 5074SOL     OW16120   3.502   2.206   1.736
 5074SOL    HW116121   3.555   2.177   1.656
 5074SOL    HW216122   3.565   2.235   1.809
 5075SOL     OW16123   1.034   3.466   0.219
 5075SOL    HW116124   1.099   3.453   0.294
 5075SOL    HW216125   1.020   3.563   0.204
 5076SOL     OW16126   5.978   6.772   6.068
 5076SOL    HW116127   5.984   6.736   5.975
 5076SOL    HW216128   6.026   6.711   6.130
 5077SOL     OW16129   0.332   4.596   3.788
 5077SOL    HW116130   0.312   4.522   3.852
 5077SOL    HW216131   0.370   4.673   3.838
 5078SOL     OW16132   0.450   1.990   4.339
 5078SOL    HW116133   0.428   1.909   4.285
 5078SOL    HW216134   0.366   2.035   4.367
 5079SOL     OW16135   1.758   3.203   5.901
 5079SOL    HW116136   1.726   3.189   5.995
 5079SOL    HW216137   1.684   3.181   5.837
 5080SOL     OW16138   5.721   5.739   6.738
 5080SOL    HW116139   5.706   5.666   6.805
 5080SOL    HW216140   5.818   5.741   6.714
 5081SOL     OW16141   3.038   5.848   5.502
 5081SOL    HW116142   2.947   5.817   5.530
 5081SOL    HW216143   3.034   5.943   5.473
 5082SOL     OW16144   5.873   6.180   2.242
 5082SOL    HW116145   5.853   6.182   2.144
 5082SOL    HW216146   5.972   6.181   2.255
 5083SOL     OW16147   1.679   0.366   2.962
 5083SOL    HW116148   1.608   0.378   3.031
 5083SOL    HW216149   1.654   0.291   2.901
 5084SOL     OW16150   2.315   4.829   5.412
 5084SOL    HW116151   2.309   4.749   5.352
 5084SOL    HW216152   2.232   4.834   5.468
 5085SOL     OW16153   0.670   4.508   5.564
 5085SOL    HW116154   0.743   4.576   5.576
 5085SOL    HW216155   0.585   4.543   5.604
 5086SOL     OW16156   1.559   5.302   1.881
 5086SOL    HW116157   1.505   5.352   1.950
 5086SOL    HW216158   1.640   5.263   1.925
 5087SOL     OW16159   6.334   4.555   2.285
 5087SOL    HW116160   6.235   4.543   2.279
 5087SOL    HW216161   6.376   4.471   2.318
 5088SOL     OW16162   5.506   6.370   2.124
 5088SOL    HW116163   5.415   6.390   2.087
 5088SOL    HW216164   5.501   6.366   2.224
 5089SOL     OW16165   5.328   5.425   5.618
 5089SOL    HW116166   5.330   5.370   5.702
 5089SOL    HW216167   5.239   5.414   5.573
 5090SOL     OW16168   3.078   0.056   5.068
 5090SOL    HW116169   3.042   6.988   5.074
 5090SOL    HW216170   3.013   0.121   5.108
 5091SOL     OW16171   6.334   6.713   6.153
 5091SOL    HW116172   6.248   6.674   6.184
 5091SOL    HW216173   6.352   6.799   6.199
 5092SOL     OW16174   2.899   3.547   4.268
 5092SOL    HW116175   2.896   3.646   4.281
 5092SOL    HW216176   2.893   3.502   4.357
 5093SOL     OW16177   2.638   1.841   2.799
 5093SOL    HW116178   2.690   1.778   2.857
 5093SOL    HW216179   2.701   1.907   2.758
 5094SOL     OW16180   2.120   5.407   5.371
 5094SOL    HW116181   2.109   5.315   5.333
 5094SOL    HW216182   2.151   5.469   5.298
 5095SOL     OW16183   6.610   1.542   3.006
 5095SOL    HW116184   6.635   1.453   2.969
 5095SOL    HW216185   6.555   1.530   3.088
 5096SOL     OW16186   5.633   2.623   5.346
 5096SOL    HW116187   5.661   2.711   5.308
 5096SOL    HW216188   5.537   2.627   5.373
 5097SOL     OW16189   1.287   0.645   5.552
 5097SOL    HW116190   1.219   0.577   5.580
 5097SOL    HW216191   1.258   0.736   5.582
 5098SOL     OW16192   3.238   3.132   1.165
 5098SOL    HW116193   3.309   3.119   1.095
 5098SOL    HW216194   3.272   3.097   1.253
 5099SOL     OW16195   1.613   0.144   2.201
 5099SOL    HW116196   1.557   0.126   2.120
 5099SOL    HW216197   1.665   0.061   2.224
 5100SOL     OW16198   5.242   4.275   2.297
 5100SOL    HW116199   5.304   4.203   2.266
 5100SOL    HW216200   5.155   4.234   2.325
 5101SOL     OW16201   3.605   0.650   6.280
 5101SOL    HW116202   3.553   0.730   6.250
 5101SOL    HW216203   3.587   0.574   6.219
 5102SOL     OW16204   4.793   4.440   4.612
 5102SOL    HW116205   4.783   4.341   4.607
 5102SOL    HW216206   4.875   4.463   4.664
 5103SOL     OW16207   0.432   0.970   6.018
 5103SOL    HW116208   0.410   1.060   5.981
 5103SOL    HW216209   0.360   0.941   6.080
 5104SOL     OW16210   3.495   3.514   1.823
 5104SOL    HW116211   3.410   3.478   1.785
 5104SOL    HW216212   3.566   3.516   1.753
 5105SOL     OW16213   4.232   3.353   6.271
 5105SOL    HW116214   4.172   3.299   6.330
 5105SOL    HW216215   4.307   3.296   6.238
 5106SOL     OW16216   4.488   2.725   0.692
 5106SOL    HW116217   4.397   2.767   0.685
 5106SOL    HW216218   4.505   2.670   0.611
 5107SOL     OW16219   4.822   3.533   0.130
 5107SOL    HW116220   4.844   3.436   0.123
 5107SOL    HW216221   4.737   3.545   0.183
 5108SOL     OW16222   4.194   4.578   0.176
 5108SOL    HW116223   4.166   4.623   0.261
 5108SOL    HW216224   4.124   4.590   0.106
 5109SOL     OW16225   0.874   2.922   1.271
 5109SOL    HW116226   0.897   3.006   1.223
 5109SOL    HW216227   0.889   2.843   1.211
 5110SOL     OW16228   4.839   0.497   5.811
 5110SOL    HW116229   4.871   0.477   5.719
 5110SOL    HW216230   4.891   0.574   5.849
 5111SOL     OW16231   0.180   6.427   4.768
 5111SOL    HW116232   0.090   6.456   4.801
 5111SOL    HW216233   0.251   6.463   4.829
 5112SOL     OW16234   6.902   0.136   3.522
 5112SOL    HW116235   6.955   0.182   3.449
 5112SOL    HW216236   6.956   0.061   3.559
 5113SOL     OW16237   1.859   3.968   6.789
 5113SOL    HW116238   1.861   4.066   6.807
 5113SOL    HW216239   1.938   3.924   6.831
 5114SOL     OW16240   4.704   5.183   1.068
 5114SOL    HW116241   4.663   5.100   1.031
 5114SOL    HW216242   4.715   5.173   1.167
 5115SOL     OW16243   1.780   3.593   1.143
 5115SOL    HW116244   1.841   3.526   1.184
 5115SOL    HW216245   1.764   3.570   1.047
 5116SOL     OW16246   1.469   0.829   6.309
 5116SOL    HW116247   1.386   0.784   6.340
 5116SOL    HW216248   1.468   0.925   6.336
 5117SOL     OW16249   1.459   2.485   3.828
 5117SOL    HW116250   1.466   2.415   3.757
 5117SOL    HW216251   1.481   2.445   3.917
 5118SOL     OW16252   4.825   5.576   6.281
 5118SOL    HW116253   4.874   5.505   6.230
 5118SOL    HW216254   4.742   5.601   6.231
 5119SOL     OW16255   5.449   1.084   0.341
 5119SOL    HW116256   5.406   1.111   0.427
 5119SOL    HW216257   5.407   1.134   0.265
 5120SOL     OW16258   5.551   6.415   6.361
 5120SOL    HW116259   5.616   6.490   6.360
 5120SOL    HW216260   5.542   6.378   6.268
 5121SOL     OW16261   1.516   3.535   6.200
 5121SOL    HW116262   1.438   3.558   6.141
 5121SOL    HW216263   1.581   3.611   6.199
 5122SOL     OW16264   5.424   5.497   4.444
 5122SOL    HW116265   5.448   5.402   4.466
 5122SOL    HW216266   5.455   5.519   4.352
 5123SOL     OW16267   4.859   3.213   1.508
 5123SOL    HW116268   4.861   3.113   1.507
 5123SOL    HW216269   4.953   3.247   1.512
 5124SOL     OW16270   2.370   5.918   4.781
 5124SOL    HW116271   2.299   5.870   4.833
 5124SOL    HW216272   2.357   6.017   4.791
 5125SOL     OW16273   7.002   2.034   3.885
 5125SOL    HW116274   0.065   1.986   3.899
 5125SOL    HW216275   7.018   2.133   3.885
 5126SOL     OW16276   2.246   0.198   0.651
 5126SOL    HW116277   2.156   0.173   0.615
 5126SOL    HW216278   2.276   0.284   0.610
 5127SOL     OW16279   2.018   5.270   6.996
 5127SOL    HW116280   1.962   5.253   6.915
 5127SOL    HW216281   2.113   5.283   6.969
 5128SOL     OW16282   6.235   0.044   2.055
 5128SOL    HW116283   6.144   0.061   2.020
 5128SOL    HW216284   6.263   6.974   2.033
 5129SOL     OW16285   5.696   0.026   0.808
 5129SOL    HW116286   5.649   0.103   0.852
 5129SOL    HW216287   5.630   6.996   0.756
 5130SOL     OW16288   0.050   4.862   3.233
 5130SOL    HW116289   6.983   4.822   3.243
 5130SOL    HW216290   0.046   4.961   3.249
 5131SOL     OW16291   2.748   2.347   2.695
 5131SOL    HW116292   2.716   2.440   2.713
 5131SOL    HW216293   2.739   2.327   2.598
 5132SOL     OW16294   3.069   6.434   5.318
 5132SOL    HW116295   2.988   6.465   5.368
 5132SOL    HW216296   3.041   6.367   5.250
 5133SOL     OW16297   3.974   6.807   6.153
 5133SOL    HW116298   4.007   6.886   6.206
 5133SOL    HW216299   3.954   6.732   6.216
 5134SOL     OW16300   6.591   3.858   0.228
 5134SOL    HW116301   6.657   3.900   0.291
 5134SOL    HW216302   6.631   3.853   0.136
 5135SOL     OW16303   6.390   1.886   4.388
 5135SOL    HW116304   6.376   1.971   4.440
 5135SOL    HW216305   6.352   1.897   4.297
 5136SOL     OW16306   4.182   1.052   3.952
 5136SOL    HW116307   4.254   1.099   3.901
 5136SOL    HW216308   4.162   0.964   3.908
 5137SOL     OW16309   3.440   4.453   6.671
 5137SOL    HW116310   3.377   4.517   6.716
 5137SOL    HW216311   3.412   4.359   6.691
 5138SOL     OW16312   2.565   3.493   6.086
 5138SOL    HW116313   2.572   3.593   6.090
 5138SOL    HW216314   2.498   3.462   6.154
 5139SOL     OW16315   0.551   0.213   3.265
 5139SOL    HW116316   0.608   0.184   3.188
 5139SOL    HW216317   0.591   0.294   3.308
 5140SOL     OW16318   3.744   2.688   1.525
 5140SOL    HW116319   3.702   2.639   1.601
 5140SOL    HW216320   3.735   2.635   1.441
 5141SOL     OW16321   6.541   3.190   6.713
 5141SOL    HW116322   6.522   3.276   6.665
 5141SOL    HW216323   6.460   3.162   6.764
 5142SOL     OW16324   5.599   3.129   4.080
 5142SOL    HW116325   5.560   3.112   4.170
 5142SOL    HW216326   5.525   3.137   4.013
 5143SOL     OW16327   6.564   4.941   4.520
 5143SOL    HW116328   6.604   4.923   4.609
 5143SOL    HW216329   6.526   4.856   4.482
 5144SOL     OW16330   1.781   1.356   5.009
 5144SOL    HW116331   1.707   1.304   5.052
 5144SOL    HW216332   1.864   1.347   5.065
 5145SOL     OW16333   3.249   5.855   5.711
 5145SOL    HW116334   3.320   5.923   5.729
 5145SOL    HW216335   3.206   5.874   5.623
 5146SOL     OW16336   2.987   4.764   0.011
 5146SOL    HW116337   3.077   4.778   0.052
 5146SOL    HW216338   2.918   4.812   0.065
 5147SOL     OW16339   5.966   4.931   6.684
 5147SOL    HW116340   5.928   4.985   6.759
 5147SOL    HW216341   5.892   4.898   6.625
 5148SOL     OW16342   0.657   6.046   1.744
 5148SOL    HW116343   0.606   5.982   1.801
 5148SOL    HW216344   0.732   5.998   1.699
 5149SOL     OW16345   6.350   1.329   4.685
 5149SOL    HW116346   6.430   1.345   4.743
 5149SOL    HW216347   6.372   1.259   4.617
 5150SOL     OW16348   1.544   5.168   4.501
 5150SOL    HW116349   1.464   5.216   4.538
 5150SOL    HW216350   1.515   5.083   4.457
 5151SOL     OW16351   4.313   0.894   6.794
 5151SOL    HW116352   4.303   0.852   6.704
 5151SOL    HW216353   4.408   0.926   6.806
 5152SOL     OW16354   0.704   4.789   0.256
 5152SOL    HW116355   0.720   4.817   0.162
 5152SOL    HW216356   0.676   4.693   0.258
 5153SOL     OW16357   1.795   1.429   0.514
 5153SOL    HW116358   1.740   1.497   0.466
 5153SOL    HW216359   1.855   1.475   0.580
 5154SOL     OW16360   2.212   3.111   4.630
 5154SOL    HW116361   2.224   3.207   4.657
 5154SOL    HW216362   2.231   3.052   4.708
 5155SOL     OW16363   2.943   1.090   2.582
 5155SOL    HW116364   2.844   1.079   2.576
 5155SOL    HW216365   2.980   1.110   2.491
 5156SOL     OW16366   5.634   2.857   5.539
 5156SOL    HW116367   5.684   2.883   5.622
 5156SOL    HW216368   5.676   2.903   5.460
 5157SOL     OW16369   6.033   3.227   3.486
 5157SOL    HW116370   6.029   3.244   3.388
 5157SOL    HW216371   6.012   3.131   3.505
 5158SOL     OW16372   4.401   1.580   1.157
 5158SOL    HW116373   4.495   1.560   1.185
 5158SOL    HW216374   4.377   1.526   1.077
 5159SOL     OW16375   1.049   2.961   4.392
 5159SOL    HW116376   1.136   2.934   4.351
 5159SOL    HW216377   1.012   3.039   4.343
 5160SOL     OW16378   1.978   2.880   4.329
 5160SOL    HW116379   1.991   2.808   4.262
 5160SOL    HW216380   2.067   2.917   4.357
 5161SOL     OW16381   1.066   3.122   6.673
 5161SOL    HW116382   1.091   3.150   6.765
 5161SOL    HW216383   0.978   3.075   6.675
 5162SOL     OW16384   6.259   6.202   4.647
 5162SOL    HW116385   6.324   6.233   4.577
 5162SOL    HW216386   6.188   6.271   4.658
 5163SOL     OW16387   5.324   3.495   0.937
 5163SOL    HW116388   5.343   3.401   0.967
 5163SOL    HW216389   5.403   3.553   0.954
 5164SOL     OW16390   5.893   4.547   6.269
 5164SOL    HW116391   5.991   4.563   6.281
 5164SOL    HW216392   5.842   4.627   6.300
 5165SOL     OW16393   6.405   4.438   4.465
 5165SOL    HW116394   6.365   4.458   4.555
 5165SOL    HW216395   6.363   4.354   4.429
 5166SOL     OW16396   1.014   7.017   1.700
 5166SOL    HW116397   0.984   0.065   1.763
 5166SOL    HW216398   0.938   6.955   1.682
 5167SOL     OW16399   0.707   6.397   5.598
 5167SOL    HW116400   0.742   6.303   5.596
 5167SOL    HW216401   0.782   6.460   5.617
 5168SOL     OW16402   4.143   2.241   3.010
 5168SOL    HW116403   4.101   2.173   2.951
 5168SOL    HW216404   4.207   2.197   3.073
 5169SOL     OW16405   3.664   4.613   6.201
 5169SOL    HW116406   3.661   4.601   6.102
 5169SOL    HW216407   3.667   4.523   6.245
 5170SOL     OW16408   5.001   3.973   4.566
 5170SOL    HW116409   5.084   3.963   4.511
 5170SOL    HW216410   4.990   4.068   4.594
 5171SOL     OW16411   2.493   4.621   4.460
 5171SOL    HW116412   2.539   4.572   4.387
 5171SOL    HW216413   2.439   4.557   4.516
 5172SOL     OW16414   1.903   5.280   1.355
 5172SOL    HW116415   1.931   5.319   1.268
 5172SOL    HW216416   1.885   5.353   1.421
 5173SOL     OW16417   5.976   3.761   5.993
 5173SOL    HW116418   6.031   3.844   6.006
 5173SOL    HW216419   5.969   3.712   6.079
 5174SOL     OW16420   1.129   4.562   5.954
 5174SOL    HW116421   1.158   4.635   6.017
 5174SOL    HW216422   1.185   4.481   5.970
 5175SOL     OW16423   0.435   4.764   6.603
 5175SOL    HW116424   0.360   4.800   6.658
 5175SOL    HW216425   0.511   4.830   6.604
 5176SOL     OW16426   5.042   3.505   1.037
 5176SOL    HW116427   4.986   3.561   0.975
 5176SOL    HW216428   5.138   3.532   1.027
 5177SOL     OW16429   5.452   6.646   6.702
 5177SOL    HW116430   5.506   6.575   6.657
 5177SOL    HW216431   5.498   6.674   6.787
 5178SOL     OW16432   2.455   2.075   1.615
 5178SOL    HW116433   2.532   2.072   1.679
 5178SOL    HW216434   2.387   2.140   1.649
 5179SOL     OW16435   2.714   6.026   5.693
 5179SOL    HW116436   2.668   6.108   5.725
 5179SOL    HW216437   2.646   5.958   5.665
 5180SOL     OW16438   3.210   2.368   1.406
 5180SOL    HW116439   3.295   2.377   1.354
 5180SOL    HW216440   3.231   2.370   1.504
 5181SOL     OW16441   3.403   5.353   2.442
 5181SOL    HW116442   3.398   5.352   2.542
 5181SOL    HW216443   3.333   5.293   2.405
 5182SOL     OW16444   5.156   4.457   1.865
 5182SOL    HW116445   5.209   4.486   1.945
 5182SOL    HW216446   5.218   4.429   1.792
 5183SOL     OW16447   4.684   0.443   2.885
 5183SOL    HW116448   4.771   0.394   2.883
 5183SOL    HW216449   4.690   0.518   2.950
 5184SOL     OW16450   1.018   1.359   2.901
 5184SOL    HW116451   1.018   1.283   2.967
 5184SOL    HW216452   0.929   1.404   2.902
 5185SOL     OW16453   4.001   0.268   2.349
 5185SOL    HW116454   3.930   0.283   2.417
 5185SOL    HW216455   4.027   0.356   2.308
 5186SOL     OW16456   6.125   4.348   0.629
 5186SOL    HW116457   6.046   4.407   0.641
 5186SOL    HW216458   6.125   4.312   0.535
 5187SOL     OW16459   5.257   1.706   3.885
 5187SOL    HW116460   5.284   1.755   3.802
 5187SOL    HW216461   5.284   1.609   3.876
 5188SOL     OW16462   0.840   3.565   5.415
 5188SOL    HW116463   0.798   3.520   5.493
 5188SOL    HW216464   0.810   3.660   5.411
 5189SOL     OW16465   4.742   5.299   6.476
 5189SOL    HW116466   4.718   5.376   6.417
 5189SOL    HW216467   4.692   5.307   6.562
 5190SOL     OW16468   1.578   2.391   3.608
 5190SOL    HW116469   1.666   2.385   3.656
 5190SOL    HW216470   1.586   2.457   3.533
 5191SOL     OW16471   3.856   0.536   1.798
 5191SOL    HW116472   3.848   0.634   1.815
 5191SOL    HW216473   3.766   0.494   1.804
 5192SOL     OW16474   6.192   4.526   2.750
 5192SOL    HW116475   6.194   4.433   2.786
 5192SOL    HW216476   6.156   4.525   2.656
 5193SOL     OW16477   4.902   3.877   2.874
 5193SOL    HW116478   4.984   3.828   2.845
 5193SOL    HW216479   4.833   3.810   2.903
 5194SOL     OW16480   6.003   0.998   5.631
 5194SOL    HW116481   6.023   1.079   5.687
 5194SOL    HW216482   5.938   1.023   5.560
 5195SOL     OW16483   5.849   6.609   5.860
 5195SOL    HW116484   5.778   6.616   5.790
 5195SOL    HW216485   5.830   6.532   5.920
 5196SOL     OW16486   0.611   3.158   1.580
 5196SOL    HW116487   0.546   3.192   1.647
 5196SOL    HW216488   0.580   3.181   1.488
 5197SOL     OW16489   3.132   6.250   4.906
 5197SOL    HW116490   3.228   6.225   4.892
 5197SOL    HW216491   3.126   6.349   4.922
 5198SOL     OW16492   4.113   6.839   5.721
 5198SOL    HW116493   4.115   6.924   5.773
 5198SOL    HW216494   4.204   6.819   5.686
 5199SOL     OW16495   0.968   5.065   1.484
 5199SOL    HW116496   1.055   5.029   1.450
 5199SOL    HW216497   0.984   5.149   1.536
 5200SOL     OW16498   6.491   0.742   5.026
 5200SOL    HW116499   6.476   0.797   5.108
 5200SOL    HW216500   6.566   0.679   5.041
 5201SOL     OW16501   6.444   5.215   5.046
 5201SOL    HW116502   6.385   5.272   4.988
 5201SOL    HW216503   6.537   5.214   5.007
 5202SOL     OW16504   3.737   2.874   5.843
 5202SOL    HW116505   3.657   2.915   5.800
 5202SOL    HW216506   3.817   2.886   5.784
 5203SOL     OW16507   1.963   0.816   6.687
 5203SOL    HW116508   2.041   0.780   6.635
 5203SOL    HW216509   1.883   0.823   6.628
 5204SOL     OW16510   2.772   7.014   0.868
 5204SOL    HW116511   2.797   7.003   0.772
 5204SOL    HW216512   2.703   6.946   0.892
 5205SOL     OW16513   0.271   6.113   0.987
 5205SOL    HW116514   0.307   6.165   1.063
 5205SOL    HW216515   0.213   6.039   1.022
 5206SOL     OW16516   1.025   4.916   3.853
 5206SOL    HW116517   1.042   4.934   3.950
 5206SOL    HW216518   0.949   4.852   3.845
 5207SOL     OW16519   6.725   0.466   3.796
 5207SOL    HW116520   6.700   0.431   3.706
 5207SOL    HW216521   6.774   0.396   3.848
 5208SOL     OW16522   5.487   1.979   0.664
 5208SOL    HW116523   5.580   1.982   0.700
 5208SOL    HW216524   5.424   2.014   0.733
 5209SOL     OW16525   6.101   5.653   2.969
 5209SOL    HW116526   6.190   5.623   2.935
 5209SOL    HW216527   6.098   5.641   3.069
 5210SOL     OW16528   5.197   4.098   0.415
 5210SOL    HW116529   5.198   4.024   0.348
 5210SOL    HW216530   5.261   4.077   0.489
 5211SOL     OW16531   5.050   2.334   4.954
 5211SOL    HW116532   5.117   2.272   4.913
 5211SOL    HW216533   5.085   2.367   5.041
 5212SOL     OW16534   1.072   3.753   0.224
 5212SOL    HW116535   1.121   3.792   0.146
 5212SOL    HW216536   1.126   3.765   0.307
 5213SOL     OW16537   3.819   3.695   2.959
 5213SOL    HW116538   3.736   3.692   2.904
 5213SOL    HW216539   3.794   3.699   3.056
 5214SOL     OW16540   5.938   3.589   5.496
 5214SOL    HW116541   5.873   3.539   5.553
 5214SOL    HW216542   5.967   3.532   5.420
 5215SOL     OW16543   0.498   3.839   5.245
 5215SOL    HW116544   0.556   3.909   5.203
 5215SOL    HW216545   0.416   3.883   5.282
 5216SOL     OW16546   5.380   5.016   1.274
 5216SOL    HW116547   5.434   5.037   1.193
 5216SOL    HW216548   5.315   4.943   1.253
 5217SOL     OW16549   4.866   5.847   3.328
 5217SOL    HW116550   4.936   5.915   3.351
 5217SOL    HW216551   4.843   5.795   3.410
 5218SOL     OW16552   0.224   6.936   1.112
 5218SOL    HW116553   0.255   6.966   1.021
 5218SOL    HW216554   0.254   6.842   1.128
 5219SOL     OW16555   3.487   1.370   4.863
 5219SOL    HW116556   3.503   1.423   4.946
 5219SOL    HW216557   3.522   1.421   4.784
 5220SOL     OW16558   2.224   4.856   3.936
 5220SOL    HW116559   2.312   4.899   3.957
 5220SOL    HW216560   2.238   4.780   3.874
 5221SOL     OW16561   6.507   5.601   1.466
 5221SOL    HW116562   6.495   5.684   1.520
 5221SOL    HW216563   6.552   5.623   1.380
 5222SOL     OW16564   6.270   3.842   1.148
 5222SOL    HW116565   6.221   3.917   1.103
 5222SOL    HW216566   6.365   3.871   1.165
 5223SOL     OW16567   6.861   3.048   0.582
 5223SOL    HW116568   6.915   2.964   0.577
 5223SOL    HW216569   6.835   3.065   0.677
 5224SOL     OW16570   6.976   2.269   4.641
 5224SOL    HW116571   0.051   2.260   4.652
 5224SOL    HW216572   6.952   2.366   4.633
 5225SOL     OW16573   0.119   1.671   4.368
 5225SOL    HW116574   0.168   1.612   4.432
 5225SOL    HW216575   0.026   1.638   4.356
 5226SOL     OW16576   0.655   6.437   3.849
 5226SOL    HW116577   0.699   6.526   3.853
 5226SOL    HW216578   0.724   6.366   3.835
 5227SOL     OW16579   0.558   2.833   5.530
 5227SOL    HW116580   0.586   2.739   5.513
 5227SOL    HW216581   0.593   2.892   5.457
 5228SOL     OW16582   1.125   1.730   5.473
 5228SOL    HW116583   1.223   1.726   5.493
 5228SOL    HW216584   1.111   1.783   5.389
 5229SOL     OW16585   3.285   1.803   5.889
 5229SOL    HW116586   3.290   1.771   5.795
 5229SOL    HW216587   3.365   1.860   5.909
 5230SOL     OW16588   6.973   6.972   2.267
 5230SOL    HW116589   7.021   6.919   2.198
 5230SOL    HW216590   7.001   6.941   2.358
 5231SOL     OW16591   6.660   2.785   2.043
 5231SOL    HW116592   6.618   2.704   2.083
 5231SOL    HW216593   6.749   2.761   2.005
 5232SOL     OW16594   1.503   3.209   6.049
 5232SOL    HW116595   1.434   3.139   6.068
 5232SOL    HW216596   1.551   3.233   6.134
 5233SOL     OW16597   3.243   6.910   2.867
 5233SOL    HW116598   3.156   6.863   2.852
 5233SOL    HW216599   3.232   7.008   2.850
 5234SOL     OW16600   2.658   2.158   6.952
 5234SOL    HW116601   2.721   2.083   6.974
 5234SOL    HW216602   2.662   2.226   0.001
 5235SOL     OW16603   2.112   2.234   1.680
 5235SOL    HW116604   2.117   2.245   1.581
 5235SOL    HW216605   2.016   2.238   1.709
 5236SOL     OW16606   3.262   5.245   1.392
 5236SOL    HW116607   3.301   5.271   1.480
 5236SOL    HW216608   3.301   5.158   1.363
 5237SOL     OW16609   2.266   1.716   2.687
 5237SOL    HW116610   2.187   1.687   2.741
 5237SOL    HW216611   2.276   1.658   2.607
 5238SOL     OW16612   0.758   6.529   2.914
 5238SOL    HW116613   0.838   6.558   2.967
 5238SOL    HW216614   0.707   6.609   2.884
 5239SOL     OW16615   2.432   4.007   0.571
 5239SOL    HW116616   2.521   3.993   0.528
 5239SOL    HW216617   2.435   3.972   0.665
 5240SOL     OW16618   2.108   3.994   5.899
 5240SOL    HW116619   2.204   3.985   5.874
 5240SOL    HW216620   2.078   4.088   5.886
 5241SOL     OW16621   0.703   6.068   2.311
 5241SOL    HW116622   0.673   6.147   2.364
 5241SOL    HW216623   0.623   6.013   2.286
 5242SOL     OW16624   4.230   0.601   0.154
 5242SOL    HW116625   4.189   0.596   0.245
 5242SOL    HW216626   4.329   0.604   0.162
 5243SOL     OW16627   2.716   6.211   2.037
 5243SOL    HW116628   2.740   6.143   1.968
 5243SOL    HW216629   2.622   6.242   2.021
 5244SOL     OW16630   4.821   1.705   0.469
 5244SOL    HW116631   4.862   1.624   0.511
 5244SOL    HW216632   4.893   1.763   0.430
 5245SOL     OW16633   3.063   3.736   1.745
 5245SOL    HW116634   3.074   3.639   1.724
 5245SOL    HW216635   3.125   3.761   1.819
 5246SOL     OW16636   6.343   4.051   6.686
 5246SOL    HW116637   6.380   3.992   6.615
 5246SOL    HW216638   6.395   4.038   6.771
 5247SOL     OW16639   4.111   2.041   6.617
 5247SOL    HW116640   4.016   2.068   6.602
 5247SOL    HW216641   4.169   2.080   6.545
 5248SOL     OW16642   5.663   0.919   3.513
 5248SOL    HW116643   5.679   0.835   3.462
 5248SOL    HW216644   5.662   0.997   3.450
 5249SOL     OW16645   0.607   4.490   0.412
 5249SOL    HW116646   0.621   4.434   0.331
 5249SOL    HW216647   0.653   4.447   0.490
 5250SOL     OW16648   1.857   6.008   1.058
 5250SOL    HW116649   1.875   5.917   1.020
 5250SOL    HW216650   1.835   6.071   0.984
 5251SOL     OW16651   0.857   4.762   0.517
 5251SOL    HW116652   0.816   4.702   0.585
 5251SOL    HW216653   0.800   4.765   0.436
 5252SOL     OW16654   3.516   6.475   2.145
 5252SOL    HW116655   3.429   6.472   2.096
 5252SOL    HW216656   3.586   6.517   2.087
 5253SOL     OW16657   0.070   5.550   4.698
 5253SOL    HW116658   0.102   5.510   4.612
 5253SOL    HW216659   0.099   5.492   4.774
 5254SOL     OW16660   5.099   6.379   3.641
 5254SOL    HW116661   5.079   6.340   3.551
 5254SOL    HW216662   5.018   6.375   3.698
 5255SOL     OW16663   6.551   1.941   5.231
 5255SOL    HW116664   6.575   1.845   5.218
 5255SOL    HW216665   6.562   1.989   5.144
 5256SOL     OW16666   0.114   1.635   2.029
 5256SOL    HW116667   0.146   1.719   2.073
 5256SOL    HW216668   0.088   1.655   1.934
 5257SOL     OW16669   3.990   1.226   6.366
 5257SOL    HW116670   3.952   1.140   6.334
 5257SOL    HW216671   3.916   1.285   6.399
 5258SOL     OW16672   4.615   1.386   3.239
 5258SOL    HW116673   4.649   1.356   3.328
 5258SOL    HW216674   4.520   1.414   3.248
 5259SOL     OW16675   6.232   5.055   3.487
 5259SOL    HW116676   6.258   5.010   3.573
 5259SOL    HW216677   6.285   5.138   3.475
 5260SOL     OW16678   2.211   0.471   0.541
 5260SOL    HW116679   2.119   0.494   0.510
 5260SOL    HW216680   2.277   0.534   0.500
 5261SOL     OW16681   5.662   4.476   6.726
 5261SOL    HW116682   5.642   4.446   6.819
 5261SOL    HW216683   5.585   4.453   6.666
 5262SOL     OW16684   1.673   1.170   2.698
 5262SOL    HW116685   1.658   1.207   2.607
 5262SOL    HW216686   1.737   1.229   2.748
 5263SOL     OW16687   1.104   6.343   2.348
 5263SOL    HW116688   1.197   6.343   2.385
 5263SOL    HW216689   1.103   6.296   2.260
 5264SOL     OW16690   6.445   1.380   1.704
 5264SOL    HW116691   6.455   1.470   1.662
 5264SOL    HW216692   6.415   1.390   1.799
 5265SOL     OW16693   6.355   4.653   5.233
 5265SOL    HW116694   6.361   4.589   5.156
 5265SOL    HW216695   6.268   4.701   5.231
 5266SOL     OW16696   1.601   0.407   6.441
 5266SOL    HW116697   1.601   0.496   6.394
 5266SOL    HW216698   1.507   0.375   6.451
 5267SOL     OW16699   5.490   2.383   4.679
 5267SOL    HW116700   5.400   2.355   4.647
 5267SOL    HW216701   5.523   2.460   4.624
 5268SOL     OW16702   4.952   0.234   6.155
 5268SOL    HW116703   5.051   0.242   6.150
 5268SOL    HW216704   4.928   0.155   6.212
 5269SOL     OW16705   0.628   6.825   3.600
 5269SOL    HW116706   0.535   6.788   3.609
 5269SOL    HW216707   0.623   6.918   3.563
 5270SOL     OW16708   0.152   1.369   6.336
 5270SOL    HW116709   0.185   1.275   6.321
 5270SOL    HW216710   0.203   1.432   6.278
 5271SOL     OW16711   0.472   4.845   3.208
 5271SOL    HW116712   0.440   4.932   3.247
 5271SOL    HW216713   0.478   4.853   3.108
 5272SOL     OW16714   4.199   0.334   0.070
 5272SOL    HW116715   4.119   0.295   0.116
 5272SOL    HW216716   4.214   0.427   0.103
 5273SOL     OW16717   2.247   2.024   2.755
 5273SOL    HW116718   2.234   1.932   2.719
 5273SOL    HW216719   2.180   2.086   2.714
 5274SOL     OW16720   5.092   4.971   1.033
 5274SOL    HW116721   5.067   5.024   1.114
 5274SOL    HW216722   5.016   4.970   0.968
 5275SOL     OW16723   4.466   1.926   6.715
 5275SOL    HW116724   4.386   1.949   6.770
 5275SOL    HW216725   4.437   1.895   6.625
 5276SOL     OW16726   4.314   6.828   1.628
 5276SOL    HW116727   4.405   6.830   1.671
 5276SOL    HW216728   4.245   6.854   1.696
 5277SOL     OW16729   2.547   2.816   1.762
 5277SOL    HW116730   2.458   2.836   1.804
 5277SOL    HW216731   2.578   2.726   1.791
 5278SOL     OW16732   4.564   3.643   1.556
 5278SOL    HW116733   4.570   3.657   1.457
 5278SOL    HW216734   4.527   3.726   1.599
 5279SOL     OW16735   2.200   5.322   2.600
 5279SOL    HW116736   2.135   5.288   2.533
 5279SOL    HW216737   2.293   5.311   2.565
 5280SOL     OW16738   4.527   0.103   5.065
 5280SOL    HW116739   4.613   0.140   5.031
 5280SOL    HW216740   4.485   0.045   4.995
 5281SOL     OW16741   0.134   2.637   2.147
 5281SOL    HW116742   0.158   2.607   2.054
 5281SOL    HW216743   0.124   2.736   2.149
 5282SOL     OW16744   5.066   1.475   2.036
 5282SOL    HW116745   4.999   1.412   1.999
 5282SOL    HW216746   5.067   1.559   1.982
 5283SOL     OW16747   5.540   5.549   6.263
 5283SOL    HW116748   5.571   5.454   6.263
 5283SOL    HW216749   5.516   5.577   6.356
 5284SOL     OW16750   5.187   2.921   3.895
 5284SOL    HW116751   5.262   2.858   3.872
 5284SOL    HW216752   5.106   2.869   3.921
 5285SOL     OW16753   3.506   5.825   2.540
 5285SOL    HW116754   3.573   5.891   2.507
 5285SOL    HW216755   3.521   5.737   2.495
 5286SOL     OW16756   2.354   5.102   2.010
 5286SOL    HW116757   2.286   5.112   2.083
 5286SOL    HW216758   2.440   5.068   2.048
 5287SOL     OW16759   0.914   1.985   1.817
 5287SOL    HW116760   0.947   1.919   1.750
 5287SOL    HW216761   0.823   2.017   1.791
 5288SOL     OW16762   4.836   1.035   0.761
 5288SOL    HW116763   4.796   1.116   0.803
 5288SOL    HW216764   4.817   1.035   0.663
 5289SOL     OW16765   2.121   5.855   0.917
 5289SOL    HW116766   2.034   5.833   0.959
 5289SOL    HW216767   2.174   5.771   0.904
 5290SOL     OW16768   4.767   5.906   0.887
 5290SOL    HW116769   4.812   5.928   0.974
 5290SOL    HW216770   4.826   5.933   0.811
 5291SOL     OW16771   2.197   4.951   6.312
 5291SOL    HW116772   2.175   4.869   6.365
 5291SOL    HW216773   2.284   4.938   6.265
 5292SOL     OW16774   5.079   2.291   6.293
 5292SOL    HW116775   5.134   2.256   6.369
 5292SOL    HW216776   5.032   2.215   6.248
 5293SOL     OW16777   1.014   1.092   4.174
 5293SOL    HW116778   1.007   1.191   4.189
 5293SOL    HW216779   1.047   1.048   4.257
 5294SOL     OW16780   5.033   2.111   5.402
 5294SOL    HW116781   5.060   2.021   5.434
 5294SOL    HW216782   4.939   2.130   5.431
 5295SOL     OW16783   6.079   0.836   1.664
 5295SOL    HW116784   6.114   0.744   1.645
 5295SOL    HW216785   6.146   0.904   1.633
 5296SOL     OW16786   0.859   3.811   0.411
 5296SOL    HW116787   0.943   3.790   0.361
 5296SOL    HW216788   0.883   3.847   0.501
 5297SOL     OW16789   1.892   3.197   1.638
 5297SOL    HW116790   1.970   3.195   1.700
 5297SOL    HW216791   1.810   3.224   1.689
 5298SOL     OW16792   1.209   5.501   1.584
 5298SOL    HW116793   1.115   5.471   1.573
 5298SOL    HW216794   1.253   5.507   1.494
 5299SOL     OW16795   3.108   0.209   1.590
 5299SOL    HW116796   3.041   0.266   1.542
 5299SOL    HW216797   3.129   0.128   1.535
 5300SOL     OW16798   6.862   5.378   3.656
 5300SOL    HW116799   6.883   5.292   3.610
 5300SOL    HW216800   6.799   5.361   3.732
 5301SOL     OW16801   4.515   0.459   0.285
 5301SOL    HW116802   4.557   0.538   0.241
 5301SOL    HW216803   4.569   0.377   0.267
 5302SOL     OW16804   6.784   4.234   3.185
 5302SOL    HW116805   6.837   4.245   3.269
 5302SOL    HW216806   6.690   4.208   3.207
 5303SOL     OW16807   0.743   5.574   3.528
 5303SOL    HW116808   0.704   5.583   3.436
 5303SOL    HW216809   0.813   5.644   3.541
 5304SOL     OW16810   4.750   2.239   5.274
 5304SOL    HW116811   4.816   2.312   5.290
 5304SOL    HW216812   4.748   2.178   5.353
 5305SOL     OW16813   2.798   1.024   2.825
 5305SOL    HW116814   2.714   1.072   2.850
 5305SOL    HW216815   2.869   1.091   2.800
 5306SOL     OW16816   2.610   0.069   4.665
 5306SOL    HW116817   2.573   0.111   4.748
 5306SOL    HW216818   2.536   0.024   4.615
 5307SOL     OW16819   4.311   6.950   0.025
 5307SOL    HW116820   4.237   6.969   6.985
 5307SOL    HW216821   4.308   7.015   0.100
 5308SOL     OW16822   0.180   1.361   2.496
 5308SOL    HW116823   0.179   1.428   2.570
 5308SOL    HW216824   0.139   1.402   2.414
 5309SOL     OW16825   4.064   3.639   3.990
 5309SOL    HW116826   4.123   3.577   3.938
 5309SOL    HW216827   3.968   3.621   3.967
 5310SOL     OW16828   5.921   1.929   0.846
 5310SOL    HW116829   5.976   1.956   0.924
 5310SOL    HW216830   5.959   1.845   0.806
 5311SOL     OW16831   1.787   5.768   7.018
 5311SOL    HW116832   1.832   5.695   0.045
 5311SOL    HW216833   1.856   5.830   6.980
 5312SOL     OW16834   0.111   2.775   1.799
 5312SOL    HW116835   0.157   2.863   1.785
 5312SOL    HW216836   0.177   2.707   1.830
 5313SOL     OW16837   1.361   5.867   0.069
 5313SOL    HW116838   1.355   5.806   7.013
 5313SOL    HW216839   1.446   5.848   0.118
 5314SOL     OW16840   3.333   4.484   0.871
 5314SOL    HW116841   3.355   4.389   0.893
 5314SOL    HW216842   3.294   4.489   0.779
 5315SOL     OW16843   4.922   3.235   2.458
 5315SOL    HW116844   4.961   3.325   2.440
 5315SOL    HW216845   4.894   3.230   2.554
 5316SOL     OW16846   6.177   5.562   4.998
 5316SOL    HW116847   6.119   5.606   4.930
 5316SOL    HW216848   6.120   5.512   5.063
 5317SOL     OW16849   5.860   5.513   2.855
 5317SOL    HW116850   5.908   5.563   2.927
 5317SOL    HW216851   5.761   5.517   2.871
 5318SOL     OW16852   0.660   2.336   4.749
 5318SOL    HW116853   0.681   2.361   4.843
 5318SOL    HW216854   0.638   2.239   4.744
 5319SOL     OW16855   3.673   0.501   1.414
 5319SOL    HW116856   3.680   0.599   1.435
 5319SOL    HW216857   3.744   0.452   1.464
 5320SOL     OW16858   6.112   3.683   5.777
 5320SOL    HW116859   6.069   3.711   5.862
 5320SOL    HW216860   6.078   3.740   5.702
 5321SOL     OW16861   1.720   5.618   6.122
 5321SOL    HW116862   1.742   5.616   6.219
 5321SOL    HW216863   1.805   5.612   6.068
 5322SOL     OW16864   3.284   6.401   0.592
 5322SOL    HW116865   3.278   6.497   0.620
 5322SOL    HW216866   3.325   6.347   0.666
 5323SOL     OW16867   6.013   3.334   0.105
 5323SOL    HW116868   6.096   3.386   0.121
 5323SOL    HW216869   5.939   3.371   0.160
 5324SOL     OW16870   3.866   3.155   1.669
 5324SOL    HW116871   3.949   3.110   1.703
 5324SOL    HW216872   3.812   3.089   1.617
 5325SOL     OW16873   4.729   5.818   4.325
 5325SOL    HW116874   4.773   5.738   4.285
 5325SOL    HW216875   4.748   5.898   4.269
 5326SOL     OW16876   0.541   0.344   2.178
 5326SOL    HW116877   0.542   0.397   2.093
 5326SOL    HW216878   0.534   0.406   2.256
 5327SOL     OW16879   6.532   0.972   4.095
 5327SOL    HW116880   6.495   0.899   4.152
 5327SOL    HW216881   6.474   1.053   4.103
 5328SOL     OW16882   3.863   4.846   1.260
 5328SOL    HW116883   3.764   4.861   1.256
 5328SOL    HW216884   3.899   4.882   1.346
 5329SOL     OW16885   6.577   5.612   0.495
 5329SOL    HW116886   6.480   5.615   0.522
 5329SOL    HW216887   6.625   5.546   0.552
 5330SOL     OW16888   3.905   5.190   0.359
 5330SOL    HW116889   3.978   5.227   0.417
 5330SOL    HW216890   3.887   5.095   0.384
 5331SOL     OW16891   4.778   2.619   6.521
 5331SOL    HW116892   4.784   2.711   6.482
 5331SOL    HW216893   4.870   2.580   6.528
 5332SOL     OW16894   5.838   3.141   7.007
 5332SOL    HW116895   5.861   3.070   0.050
 5332SOL    HW216896   5.901   3.218   7.018
 5333SOL     OW16897   1.153   1.906   4.228
 5333SOL    HW116898   1.244   1.864   4.230
 5333SOL    HW216899   1.138   1.950   4.140
 5334SOL     OW16900   3.554   5.828   1.382
 5334SOL    HW116901   3.523   5.776   1.303
 5334SOL    HW216902   3.476   5.851   1.440
 5335SOL     OW16903   0.479   4.556   1.407
 5335SOL    HW116904   0.451   4.533   1.314
 5335SOL    HW216905   0.523   4.646   1.408
 5336SOL     OW16906   1.719   2.895   4.999
 5336SOL    HW116907   1.695   2.841   5.080
 5336SOL    HW216908   1.665   2.979   4.997
 5337SOL     OW16909   6.533   4.907   0.836
 5337SOL    HW116910   6.454   4.861   0.796
 5337SOL    HW216911   6.617   4.865   0.802
 5338SOL     OW16912   5.986   3.320   0.416
 5338SOL    HW116913   5.980   3.411   0.457
 5338SOL    HW216914   6.073   3.278   0.441
 5339SOL     OW16915   5.244   3.337   2.466
 5339SOL    HW116916   5.304   3.259   2.484
 5339SOL    HW216917   5.181   3.313   2.392
 5340SOL     OW16918   5.093   3.618   2.139
 5340SOL    HW116919   4.996   3.616   2.163
 5340SOL    HW216920   5.108   3.560   2.059
 5341SOL     OW16921   4.532   4.536   3.813
 5341SOL    HW116922   4.620   4.552   3.767
 5341SOL    HW216923   4.523   4.600   3.889
 5342SOL     OW16924   6.578   5.599   4.946
 5342SOL    HW116925   6.572   5.591   4.846
 5342SOL    HW216926   6.552   5.692   4.973
 5343SOL     OW16927   3.499   2.896   6.462
 5343SOL    HW116928   3.523   2.807   6.500
 5343SOL    HW216929   3.578   2.933   6.412
 5344SOL     OW16930   6.980   1.499   6.109
 5344SOL    HW116931   6.986   1.481   6.011
 5344SOL    HW216932   0.047   1.517   6.145
 5345SOL     OW16933   5.508   1.384   6.185
 5345SOL    HW116934   5.504   1.393   6.285
 5345SOL    HW216935   5.567   1.307   6.161
 5346SOL     OW16936   3.292   5.648   3.384
 5346SOL    HW116937   3.292   5.747   3.388
 5346SOL    HW216938   3.198   5.614   3.392
 5347SOL     OW16939   5.973   1.919   4.207
 5347SOL    HW116940   5.975   1.996   4.271
 5347SOL    HW216941   5.988   1.952   4.114
 5348SOL     OW16942   4.940   2.600   4.782
 5348SOL    HW116943   4.931   2.564   4.875
 5348SOL    HW216944   4.852   2.636   4.751
 5349SOL     OW16945   1.128   3.709   1.654
 5349SOL    HW116946   1.079   3.796   1.650
 5349SOL    HW216947   1.076   3.638   1.607
 5350SOL     OW16948   1.375   6.132   6.890
 5350SOL    HW116949   1.365   6.221   6.936
 5350SOL    HW216950   1.289   6.082   6.894
 5351SOL     OW16951   6.610   6.011   3.558
 5351SOL    HW116952   6.679   5.956   3.606
 5351SOL    HW216953   6.625   6.005   3.460
 5352SOL     OW16954   1.008   3.013   6.010
 5352SOL    HW116955   1.021   2.921   6.048
 5352SOL    HW216956   1.096   3.048   5.979
 5353SOL     OW16957   3.818   4.899   3.779
 5353SOL    HW116958   3.903   4.845   3.773
 5353SOL    HW216959   3.792   4.910   3.875
 5354SOL     OW16960   3.621   5.334   1.457
 5354SOL    HW116961   3.676   5.398   1.510
 5354SOL    HW216962   3.529   5.329   1.495
 5355SOL     OW16963   5.684   5.258   5.211
 5355SOL    HW116964   5.699   5.250   5.112
 5355SOL    HW216965   5.720   5.177   5.257
 5356SOL     OW16966   0.640   6.440   0.709
 5356SOL    HW116967   0.576   6.365   0.694
 5356SOL    HW216968   0.729   6.404   0.738
 5357SOL     OW16969   6.063   3.656   2.850
 5357SOL    HW116970   5.980   3.660   2.795
 5357SOL    HW216971   6.113   3.743   2.841
 5358SOL     OW16972   4.562   1.003   6.805
 5358SOL    HW116973   4.583   1.020   6.708
 5358SOL    HW216974   4.646   1.003   6.858
 5359SOL     OW16975   3.351   2.257   6.685
 5359SOL    HW116976   3.410   2.310   6.624
 5359SOL    HW216977   3.261   2.245   6.643
 5360SOL     OW16978   5.875   5.054   4.002
 5360SOL    HW116979   5.844   5.131   4.057
 5360SOL    HW216980   5.853   5.071   3.906
 5361SOL     OW16981   1.438   5.203   2.562
 5361SOL    HW116982   1.467   5.276   2.624
 5361SOL    HW216983   1.377   5.140   2.612
 5362SOL     OW16984   6.110   1.477   2.480
 5362SOL    HW116985   6.024   1.456   2.528
 5362SOL    HW216986   6.142   1.568   2.507
 5363SOL     OW16987   5.208   4.776   3.376
 5363SOL    HW116988   5.179   4.834   3.452
 5363SOL    HW216989   5.290   4.725   3.401
 5364SOL     OW16990   4.465   1.831   2.626
 5364SOL    HW116991   4.560   1.862   2.638
 5364SOL    HW216992   4.428   1.804   2.715
 5365SOL     OW16993   2.903   3.619   4.756
 5365SOL    HW116994   2.861   3.561   4.686
 5365SOL    HW216995   2.896   3.574   4.845
 5366SOL     OW16996   6.506   5.742   3.494
 5366SOL    HW116997   6.511   5.838   3.523
 5366SOL    HW216998   6.536   5.735   3.399
 5367SOL     OW16999   6.120   5.975   1.363
 5367SOL    HW117000   6.042   6.028   1.330
 5367SOL    HW217001   6.202   6.034   1.367
 5368SOL     OW17002   0.054   6.144   4.530
 5368SOL    HW117003   0.127   6.208   4.506
 5368SOL    HW217004   0.083   6.050   4.510
 5369SOL     OW17005   4.311   5.604   2.737
 5369SOL    HW117006   4.220   5.620   2.699
 5369SOL    HW217007   4.381   5.636   2.673
 5370SOL     OW17008   1.702   3.026   0.434
 5370SOL    HW117009   1.726   3.067   0.522
 5370SOL    HW217010   1.652   2.941   0.449
 5371SOL     OW17011   6.506   5.533   4.670
 5371SOL    HW117012   6.564   5.494   4.599
 5371SOL    HW217013   6.428   5.579   4.627
 5372SOL     OW17014   1.611   6.956   2.892
 5372SOL    HW117015   1.636   0.017   2.846
 5372SOL    HW217016   1.693   6.916   2.933
 5373SOL     OW17017   2.682   1.286   6.623
 5373SOL    HW117018   2.639   1.218   6.563
 5373SOL    HW217019   2.696   1.246   6.714
 5374SOL     OW17020   2.047   3.964   1.680
 5374SOL    HW117021   2.120   3.902   1.710
 5374SOL    HW217022   2.078   4.013   1.599
 5375SOL     OW17023   2.490   4.738   4.868
 5375SOL    HW117024   2.416   4.738   4.800
 5375SOL    HW217025   2.453   4.760   4.958
 5376SOL     OW17026   0.534   0.095   5.963
 5376SOL    HW117027   0.437   0.092   5.939
 5376SOL    HW217028   0.550   0.173   6.024
 5377SOL     OW17029   1.308   1.470   3.021
 5377SOL    HW117030   1.382   1.517   3.067
 5377SOL    HW217031   1.323   1.472   2.922
 5378SOL     OW17032   4.495   0.078   2.554
 5378SOL    HW117033   4.544   0.163   2.572
 5378SOL    HW217034   4.419   0.096   2.491
 5379SOL     OW17035   2.191   2.184   4.220
 5379SOL    HW117036   2.153   2.107   4.168
 5379SOL    HW217037   2.133   2.203   4.299
 5380SOL     OW17038   4.899   5.843   1.999
 5380SOL    HW117039   4.922   5.807   1.909
 5380SOL    HW217040   4.978   5.835   2.060
 5381SOL     OW17041   2.984   0.239   3.163
 5381SOL    HW117042   3.037   0.183   3.226
 5381SOL    HW217043   3.036   0.254   3.079
 5382SOL     OW17044   4.631   0.972   2.661
 5382SOL    HW117045   4.687   0.890   2.668
 5382SOL    HW217046   4.535   0.946   2.646
 5383SOL     OW17047   2.225   2.929   4.436
 5383SOL    HW117048   2.197   3.001   4.500
 5383SOL    HW217049   2.312   2.889   4.467
 5384SOL     OW17050   5.496   5.683   5.609
 5384SOL    HW117051   5.536   5.715   5.695
 5384SOL    HW217052   5.430   5.611   5.628
 5385SOL     OW17053   3.851   3.343   6.270
 5385SOL    HW117054   3.895   3.432   6.280
 5385SOL    HW217055   3.846   3.297   6.359
 5386SOL     OW17056   4.844   4.671   4.158
 5386SOL    HW117057   4.858   4.702   4.064
 5386SOL    HW217058   4.843   4.571   4.161
 5387SOL     OW17059   1.213   1.539   4.088
 5387SOL    HW117060   1.258   1.605   4.029
 5387SOL    HW217061   1.227   1.447   4.052
 5388SOL     OW17062   6.769   6.955   3.316
 5388SOL    HW117063   6.812   6.905   3.391
 5388SOL    HW217064   6.688   7.003   3.350
 5389SOL     OW17065   5.245   0.965   3.642
 5389SOL    HW117066   5.214   0.902   3.570
 5389SOL    HW217067   5.333   0.933   3.678
 5390SOL     OW17068   0.007   3.927   3.444
 5390SOL    HW117069   6.960   3.859   3.460
 5390SOL    HW217070   6.989   4.018   3.435
 5391SOL     OW17071   3.023   2.608   1.058
 5391SOL    HW117072   3.010   2.517   1.099
 5391SOL    HW217073   3.082   2.600   0.978
 5392SOL     OW17074   5.921   0.761   4.185
 5392SOL    HW117075   5.860   0.789   4.111
 5392SOL    HW217076   5.869   0.747   4.269
 5393SOL     OW17077   4.503   2.557   4.197
 5393SOL    HW117078   4.562   2.638   4.197
 5393SOL    HW217079   4.525   2.500   4.277
 5394SOL     OW17080   0.697   2.251   1.600
 5394SOL    HW117081   0.775   2.264   1.539
 5394SOL    HW217082   0.703   2.315   1.676
 5395SOL     OW17083   6.590   1.341   0.864
 5395SOL    HW117084   6.554   1.314   0.953
 5395SOL    HW217085   6.518   1.388   0.812
 5396SOL     OW17086   4.267   3.710   0.562
 5396SOL    HW117087   4.293   3.625   0.607
 5396SOL    HW217088   4.174   3.735   0.590
 5397SOL     OW17089   6.861   0.568   2.706
 5397SOL    HW117090   6.825   0.511   2.780
 5397SOL    HW217091   6.961   0.568   2.711
 5398SOL     OW17092   6.581   3.150   2.491
 5398SOL    HW117093   6.593   3.247   2.515
 5398SOL    HW217094   6.666   3.101   2.509
 5399SOL     OW17095   1.899   2.353   0.251
 5399SOL    HW117096   1.996   2.361   0.274
 5399SOL    HW217097   1.889   2.311   0.161
 5400SOL     OW17098   4.836   2.941   1.522
 5400SOL    HW117099   4.766   2.931   1.592
 5400SOL    HW217100   4.902   2.865   1.530
 5401SOL     OW17101   5.553   2.466   1.371
 5401SOL    HW117102   5.514   2.548   1.330
 5401SOL    HW217103   5.652   2.471   1.368
 5402SOL     OW17104   1.257   6.157   2.957
 5402SOL    HW117105   1.206   6.121   3.036
 5402SOL    HW217106   1.194   6.203   2.895
 5403SOL     OW17107   4.879   2.586   0.123
 5403SOL    HW117108   4.841   2.544   0.041
 5403SOL    HW217109   4.854   2.532   0.203
 5404SOL     OW17110   4.640   6.973   0.177
 5404SOL    HW117111   4.581   6.925   0.112
 5404SOL    HW217112   4.736   6.951   0.157
 5405SOL     OW17113   0.166   4.951   0.549
 5405SOL    HW117114   0.160   4.992   0.458
 5405SOL    HW217115   0.262   4.942   0.576
 5406SOL     OW17116   2.191   1.055   6.145
 5406SOL    HW117117   2.107   1.106   6.131
 5406SOL    HW217118   2.212   1.001   6.063
 5407SOL     OW17119   1.412   6.877   3.033
 5407SOL    HW117120   1.473   6.921   2.968
 5407SOL    HW217121   1.455   6.874   3.123
 5408SOL     OW17122   2.138   1.744   4.308
 5408SOL    HW117123   2.222   1.770   4.355
 5408SOL    HW217124   2.161   1.688   4.228
 5409SOL     OW17125   0.988   2.380   2.347
 5409SOL    HW117126   0.997   2.294   2.297
 5409SOL    HW217127   0.895   2.389   2.381
 5410SOL     OW17128   6.065   2.374   0.731
 5410SOL    HW117129   6.155   2.418   0.722
 5410SOL    HW217130   6.054   2.306   0.658
 5411SOL     OW17131   3.771   5.462   6.753
 5411SOL    HW117132   3.816   5.545   6.720
 5411SOL    HW217133   3.769   5.394   6.679
 5412SOL     OW17134   0.380   2.184   5.840
 5412SOL    HW117135   0.375   2.084   5.846
 5412SOL    HW217136   0.429   2.219   5.921
 5413SOL     OW17137   0.875   5.010   4.871
 5413SOL    HW117138   0.892   4.912   4.858
 5413SOL    HW217139   0.825   5.024   4.957
 5414SOL     OW17140   5.511   4.567   5.683
 5414SOL    HW117141   5.605   4.536   5.696
 5414SOL    HW217142   5.486   4.557   5.587
 5415SOL     OW17143   3.389   1.323   0.378
 5415SOL    HW117144   3.467   1.301   0.436
 5415SOL    HW217145   3.410   1.299   0.283
 5416SOL     OW17146   3.656   5.499   0.088
 5416SOL    HW117147   3.728   5.554   0.131
 5416SOL    HW217148   3.601   5.455   0.158
 5417SOL     OW17149   4.744   6.563   4.048
 5417SOL    HW117150   4.681   6.600   4.116
 5417SOL    HW217151   4.809   6.635   4.021
 5418SOL     OW17152   6.727   3.040   5.713
 5418SOL    HW117153   6.825   3.038   5.729
 5418SOL    HW217154   6.705   2.985   5.632
 5419SOL     OW17155   3.931   1.700   6.203
 5419SOL    HW117156   4.013   1.647   6.225
 5419SOL    HW217157   3.879   1.717   6.286
 5420SOL     OW17158   1.635   2.083   2.058
 5420SOL    HW117159   1.686   2.161   2.093
 5420SOL    HW217160   1.559   2.115   2.002
 5421SOL     OW17161   3.685   4.943   2.161
 5421SOL    HW117162   3.626   4.878   2.113
 5421SOL    HW217163   3.675   5.034   2.121
 5422SOL     OW17164   2.899   5.042   3.605
 5422SOL    HW117165   2.877   5.077   3.695
 5422SOL    HW217166   2.828   5.068   3.540
 5423SOL     OW17167   4.994   6.902   1.824
 5423SOL    HW117168   5.014   6.811   1.862
 5423SOL    HW217169   4.962   6.892   1.730
 5424SOL     OW17170   4.188   3.790   5.250
 5424SOL    HW117171   4.118   3.745   5.195
 5424SOL    HW217172   4.257   3.724   5.278
 5425SOL     OW17173   1.343   4.378   5.974
 5425SOL    HW117174   1.408   4.454   5.969
 5425SOL    HW217175   1.394   4.291   5.971
 5426SOL     OW17176   6.927   5.030   1.564
 5426SOL    HW117177   6.938   5.086   1.482
 5426SOL    HW217178   7.018   5.008   1.601
 5427SOL     OW17179   4.379   3.414   0.577
 5427SOL    HW117180   4.461   3.358   0.591
 5427SOL    HW217181   4.299   3.365   0.613
 5428SOL     OW17182   5.072   5.231   3.427
 5428SOL    HW117183   5.120   5.290   3.362
 5428SOL    HW217184   4.997   5.184   3.380
 5429SOL     OW17185   2.612   7.009   4.281
 5429SOL    HW117186   2.638   0.081   4.266
 5429SOL    HW217187   2.546   6.982   4.211
 5430SOL     OW17188   2.623   3.838   5.589
 5430SOL    HW117189   2.679   3.845   5.506
 5430SOL    HW217190   2.565   3.757   5.583
 5431SOL     OW17191   4.592   4.632   0.425
 5431SOL    HW117192   4.637   4.581   0.352
 5431SOL    HW217193   4.518   4.577   0.464
 5432SOL     OW17194   0.471   5.329   6.577
 5432SOL    HW117195   0.445   5.312   6.672
 5432SOL    HW217196   0.394   5.369   6.528
 5433SOL     OW17197   3.518   6.988   1.251
 5433SOL    HW117198   3.434   7.007   1.201
 5433SOL    HW217199   3.596   0.004   1.203
 5434SOL     OW17200   4.798   0.302   4.328
 5434SOL    HW117201   4.829   0.297   4.424
 5434SOL    HW217202   4.793   0.398   4.300
 5435SOL     OW17203   6.637   5.140   0.375
 5435SOL    HW117204   6.720   5.084   0.380
 5435SOL    HW217205   6.567   5.092   0.322
 5436SOL     OW17206   1.829   4.613   2.374
 5436SOL    HW117207   1.850   4.578   2.465
 5436SOL    HW217208   1.757   4.559   2.333
 5437SOL     OW17209   3.356   6.420   0.970
 5437SOL    HW117210   3.337   6.490   0.901
 5437SOL    HW217211   3.270   6.374   0.995
 5438SOL     OW17212   4.653   6.430   1.992
 5438SOL    HW117213   4.706   6.352   2.026
 5438SOL    HW217214   4.599   6.468   2.067
 5439SOL     OW17215   1.030   4.234   1.176
 5439SOL    HW117216   1.097   4.189   1.235
 5439SOL    HW217217   1.074   4.309   1.127
 5440SOL     OW17218   5.579   6.249   3.702
 5440SOL    HW117219   5.655   6.314   3.695
 5440SOL    HW217220   5.497   6.297   3.733
 5441SOL     OW17221   5.548   2.368   4.967
 5441SOL    HW117222   5.550   2.366   4.867
 5441SOL    HW217223   5.548   2.275   5.002
 5442SOL     OW17224   3.058   0.642   6.383
 5442SOL    HW117225   3.054   0.714   6.453
 5442SOL    HW217226   2.975   0.586   6.389
 5443SOL     OW17227   5.299   0.825   2.713
 5443SOL    HW117228   5.297   0.727   2.734
 5443SOL    HW217229   5.292   0.839   2.614
 5444SOL     OW17230   6.894   1.108   6.409
 5444SOL    HW117231   6.900   1.132   6.312
 5444SOL    HW217232   6.937   1.180   6.463
 5445SOL     OW17233   5.974   6.202   5.919
 5445SOL    HW117234   6.010   6.199   5.825
 5445SOL    HW217235   5.892   6.259   5.921
 5446SOL     OW17236   7.009   4.499   6.168
 5446SOL    HW117237   7.023   4.598   6.171
 5446SOL    HW217238   0.067   4.455   6.131
 5447SOL     OW17239   0.094   1.235   1.824
 5447SOL    HW117240   0.150   1.257   1.903
 5447SOL    HW217241   0.108   1.139   1.799
 5448SOL     OW17242   5.368   4.763   2.777
 5448SOL    HW117243   5.352   4.668   2.801
 5448SOL    HW217244   5.299   4.821   2.820
 5449SOL     OW17245   2.973   0.951   2.003
 5449SOL    HW117246   3.012   1.035   2.039
 5449SOL    HW217247   2.876   0.946   2.027
 5450SOL     OW17248   4.653   5.829   2.204
 5450SOL    HW117249   4.562   5.867   2.192
 5450SOL    HW217250   4.696   5.815   2.115
 5451SOL     OW17251   6.497   6.472   3.721
 5451SOL    HW117252   6.532   6.559   3.755
 5451SOL    HW217253   6.548   6.397   3.763
 5452SOL     OW17254   2.136   3.717   2.667
 5452SOL    HW117255   2.119   3.693   2.571
 5452SOL    HW217256   2.216   3.776   2.672
 5453SOL     OW17257   6.691   4.678   3.910
 5453SOL    HW117258   6.741   4.739   3.970
 5453SOL    HW217259   6.672   4.592   3.957
 5454SOL     OW17260   5.916   3.902   3.224
 5454SOL    HW117261   5.948   3.943   3.139
 5454SOL    HW217262   5.928   3.803   3.220
 5455SOL     OW17263   2.530   2.022   3.522
 5455SOL    HW117264   2.580   1.947   3.564
 5455SOL    HW217265   2.582   2.057   3.444
 5456SOL     OW17266   5.467   2.559   0.548
 5456SOL    HW117267   5.496   2.475   0.595
 5456SOL    HW217268   5.520   2.570   0.464
 5457SOL     OW17269   5.687   1.006   6.402
 5457SOL    HW117270   5.653   0.913   6.387
 5457SOL    HW217271   5.781   1.002   6.438
 5458SOL     OW17272   5.870   3.821   7.009
 5458SOL    HW117273   5.820   3.748   0.030
 5458SOL    HW217274   5.814   3.904   7.007
 5459SOL     OW17275   2.143   3.371   4.752
 5459SOL    HW117276   2.221   3.386   4.812
 5459SOL    HW217277   2.107   3.459   4.721
 5460SOL     OW17278   0.703   0.409   1.510
 5460SOL    HW117279   0.613   0.405   1.466
 5460SOL    HW217280   0.774   0.395   1.442
 5461SOL     OW17281   6.400   1.102   6.067
 5461SOL    HW117282   6.317   1.069   6.022
 5461SOL    HW217283   6.451   1.024   6.104
 5462SOL     OW17284   4.949   4.390   6.486
 5462SOL    HW117285   4.974   4.321   6.419
 5462SOL    HW217286   4.852   4.412   6.477
 5463SOL     OW17287   0.754   3.136   6.062
 5463SOL    HW117288   0.838   3.094   6.027
 5463SOL    HW217289   0.777   3.219   6.114
 5464SOL     OW17290   2.004   5.779   5.572
 5464SOL    HW117291   1.942   5.700   5.572
 5464SOL    HW217292   1.987   5.835   5.491
 5465SOL     OW17293   0.420   6.912   4.326
 5465SOL    HW117294   0.377   6.966   4.254
 5465SOL    HW217295   0.360   6.836   4.352
 5466SOL     OW17296   6.041   2.120   4.371
 5466SOL    HW117297   6.133   2.086   4.393
 5466SOL    HW217298   5.985   2.120   4.454
 5467SOL     OW17299   4.925   3.371   4.154
 5467SOL    HW117300   4.895   3.463   4.179
 5467SOL    HW217301   4.997   3.377   4.085
 5468SOL     OW17302   0.101   1.278   0.984
 5468SOL    HW117303   0.010   1.303   0.953
 5468SOL    HW217304   0.096   1.201   1.046
 5469SOL     OW17305   3.456   0.573   4.094
 5469SOL    HW117306   3.424   0.667   4.106
 5469SOL    HW217307   3.378   0.514   4.072
 5470SOL     OW17308   4.514   4.908   4.261
 5470SOL    HW117309   4.415   4.894   4.268
 5470SOL    HW217310   4.559   4.871   4.342
 5471SOL     OW17311   4.677   0.390   3.196
 5471SOL    HW117312   4.683   0.360   3.291
 5471SOL    HW217313   4.714   0.319   3.136
 5472SOL     OW17314   3.145   3.434   6.526
 5472SOL    HW117315   3.230   3.390   6.500
 5472SOL    HW217316   3.072   3.366   6.533
 5473SOL     OW17317   2.966   4.955   1.906
 5473SOL    HW117318   2.895   4.904   1.858
 5473SOL    HW217319   2.993   4.906   1.989
 5474SOL     OW17320   1.092   4.867   2.539
 5474SOL    HW117321   1.184   4.871   2.579
 5474SOL    HW217322   1.057   4.773   2.548
 5475SOL     OW17323   0.797   1.219   5.260
 5475SOL    HW117324   0.746   1.298   5.292
 5475SOL    HW217325   0.895   1.234   5.276
 5476SOL     OW17326   2.203   6.948   5.199
 5476SOL    HW117327   2.300   6.974   5.200
 5476SOL    HW217328   2.169   6.948   5.105
 5477SOL     OW17329   1.913   3.706   3.975
 5477SOL    HW117330   1.869   3.769   3.911
 5477SOL    HW217331   1.964   3.636   3.925
 5478SOL     OW17332   4.825   4.796   5.718
 5478SOL    HW117333   4.794   4.710   5.678
 5478SOL    HW217334   4.824   4.789   5.818
 5479SOL     OW17335   4.776   2.121   4.238
 5479SOL    HW117336   4.746   2.116   4.142
 5479SOL    HW217337   4.869   2.085   4.245
 5480SOL     OW17338   0.926   3.416   4.389
 5480SOL    HW117339   0.842   3.363   4.395
 5480SOL    HW217340   0.916   3.486   4.318
 5481SOL     OW17341   4.455   1.830   6.454
 5481SOL    HW117342   4.539   1.828   6.508
 5481SOL    HW217343   4.479   1.827   6.357
 5482SOL     OW17344   5.280   3.298   1.818
 5482SOL    HW117345   5.342   3.252   1.755
 5482SOL    HW217346   5.316   3.389   1.840
 5483SOL     OW17347   6.797   3.024   6.952
 5483SOL    HW117348   6.881   2.971   6.957
 5483SOL    HW217349   6.794   3.089   0.004
 5484SOL     OW17350   6.474   6.647   4.974
 5484SOL    HW117351   6.565   6.687   4.964
 5484SOL    HW217352   6.468   6.598   5.060
 5485SOL     OW17353   3.509   0.230   5.205
 5485SOL    HW117354   3.463   0.314   5.234
 5485SOL    HW217355   3.446   0.177   5.148
 5486SOL     OW17356   1.215   0.971   3.743
 5486SOL    HW117357   1.208   1.031   3.823
 5486SOL    HW217358   1.216   0.876   3.773
 5487SOL     OW17359   4.546   5.024   0.464
 5487SOL    HW117360   4.469   5.027   0.528
 5487SOL    HW217361   4.525   4.962   0.390
 5488SOL     OW17362   4.823   0.942   5.949
 5488SOL    HW117363   4.733   0.936   5.991
 5488SOL    HW217364   4.850   1.039   5.941
 5489SOL     OW17365   0.923   3.784   3.552
 5489SOL    HW117366   0.836   3.818   3.590
 5489SOL    HW217367   0.953   3.705   3.605
 5490SOL     OW17368   2.149   2.316   7.001
 5490SOL    HW117369   2.243   2.295   6.975
 5490SOL    HW217370   2.147   2.344   0.073
 5491SOL     OW17371   0.415   5.465   1.485
 5491SOL    HW117372   0.509   5.438   1.464
 5491SOL    HW217373   0.409   5.565   1.489
 5492SOL     OW17374   1.565   1.264   5.154
 5492SOL    HW117375   1.560   1.257   5.254
 5492SOL    HW217376   1.477   1.237   5.115
 5493SOL     OW17377   3.074   2.745   0.387
 5493SOL    HW117378   2.999   2.772   0.447
 5493SOL    HW217379   3.049   2.764   0.292
 5494SOL     OW17380   6.007   2.729   2.468
 5494SOL    HW117381   6.058   2.644   2.453
 5494SOL    HW217382   6.032   2.795   2.397
 5495SOL     OW17383   3.546   2.952   2.656
 5495SOL    HW117384   3.450   2.950   2.683
 5495SOL    HW217385   3.577   3.047   2.649
 5496SOL     OW17386   3.555   5.399   1.120
 5496SOL    HW117387   3.539   5.496   1.138
 5496SOL    HW217388   3.542   5.347   1.205
 5497SOL     OW17389   6.380   6.709   2.212
 5497SOL    HW117390   6.403   6.672   2.301
 5497SOL    HW217391   6.291   6.754   2.216
 5498SOL     OW17392   4.271   0.399   5.420
 5498SOL    HW117393   4.341   0.444   5.476
 5498SOL    HW217394   4.285   0.300   5.423
 5499SOL     OW17395   7.018   1.937   4.360
 5499SOL    HW117396   6.962   1.912   4.281
 5499SOL    HW217397   0.043   1.857   4.394
 5500SOL     OW17398   1.723   5.890   1.676
 5500SOL    HW117399   1.763   5.821   1.736
 5500SOL    HW217400   1.635   5.857   1.642
 5501SOL     OW17401   2.119   6.956   2.767
 5501SOL    HW117402   2.108   6.995   2.675
 5501SOL    HW217403   2.194   6.889   2.765
 5502SOL     OW17404   4.631   3.839   0.118
 5502SOL    HW117405   4.605   3.743   0.103
 5502SOL    HW217406   4.607   3.893   0.038
 5503SOL     OW17407   1.228   5.674   4.355
 5503SOL    HW117408   1.178   5.610   4.413
 5503SOL    HW217409   1.327   5.658   4.365
 5504SOL     OW17410   3.386   2.110   4.821
 5504SOL    HW117411   3.458   2.170   4.786
 5504SOL    HW217412   3.319   2.094   4.748
 5505SOL     OW17413   2.936   4.912   6.116
 5505SOL    HW117414   2.947   4.847   6.191
 5505SOL    HW217415   2.874   4.985   6.144
 5506SOL     OW17416   6.377   0.157   5.506
 5506SOL    HW117417   6.379   0.078   5.444
 5506SOL    HW217418   6.448   0.222   5.478
 5507SOL     OW17419   2.976   5.569   4.459
 5507SOL    HW117420   2.946   5.657   4.496
 5507SOL    HW217421   2.974   5.571   4.359
 5508SOL     OW17422   2.497   0.791   6.112
 5508SOL    HW117423   2.519   0.708   6.163
 5508SOL    HW217424   2.513   0.776   6.014
 5509SOL     OW17425   5.784   6.183   6.761
 5509SOL    HW117426   5.722   6.194   6.838
 5509SOL    HW217427   5.823   6.091   6.762
 5510SOL     OW17428   4.574   0.665   5.424
 5510SOL    HW117429   4.606   0.653   5.518
 5510SOL    HW217430   4.555   0.761   5.407
 5511SOL     OW17431   0.607   1.598   2.131
 5511SOL    HW117432   0.637   1.573   2.040
 5511SOL    HW217433   0.554   1.683   2.127
 5512SOL     OW17434   1.930   0.230   1.243
 5512SOL    HW117435   1.831   0.243   1.250
 5512SOL    HW217436   1.955   0.216   1.147
 5513SOL     OW17437   3.614   5.049   4.486
 5513SOL    HW117438   3.619   5.033   4.584
 5513SOL    HW217439   3.624   5.146   4.466
 5514SOL     OW17440   5.998   5.082   3.345
 5514SOL    HW117441   6.071   5.078   3.414
 5514SOL    HW217442   6.037   5.106   3.256
 5515SOL     OW17443   6.812   3.083   2.043
 5515SOL    HW117444   6.737   3.077   1.977
 5515SOL    HW217445   6.781   3.047   2.132
 5516SOL     OW17446   1.470   3.503   5.939
 5516SOL    HW117447   1.544   3.489   5.873
 5516SOL    HW217448   1.505   3.488   6.032
 5517SOL     OW17449   2.622   1.234   2.834
 5517SOL    HW117450   2.670   1.319   2.854
 5517SOL    HW217451   2.560   1.247   2.757
 5518SOL     OW17452   5.698   4.835   5.275
 5518SOL    HW117453   5.670   4.819   5.370
 5518SOL    HW217454   5.633   4.790   5.214
 5519SOL     OW17455   5.284   3.381   3.806
 5519SOL    HW117456   5.261   3.434   3.724
 5519SOL    HW217457   5.232   3.416   3.884
 5520SOL     OW17458   1.533   3.878   1.342
 5520SOL    HW117459   1.563   3.947   1.407
 5520SOL    HW217460   1.485   3.804   1.390
 5521SOL     OW17461   5.489   5.370   2.020
 5521SOL    HW117462   5.487   5.421   2.106
 5521SOL    HW217463   5.453   5.278   2.034
 5522SOL     OW17464   2.143   3.692   2.167
 5522SOL    HW117465   2.070   3.737   2.115
 5522SOL    HW217466   2.177   3.613   2.116
 5523SOL     OW17467   2.805   0.944   1.656
 5523SOL    HW117468   2.739   0.887   1.706
 5523SOL    HW217469   2.896   0.932   1.696
 5524SOL     OW17470   6.747   5.659   6.054
 5524SOL    HW117471   6.708   5.727   5.992
 5524SOL    HW217472   6.776   5.704   6.139
 5525SOL     OW17473   0.054   5.363   4.910
 5525SOL    HW117474   7.020   5.294   4.954
 5525SOL    HW217475   0.132   5.317   4.867
 5526SOL     OW17476   6.218   2.807   4.615
 5526SOL    HW117477   6.284   2.745   4.573
 5526SOL    HW217478   6.206   2.887   4.557
 5527SOL     OW17479   2.072   3.531   1.225
 5527SOL    HW117480   2.032   3.440   1.238
 5527SOL    HW217481   2.116   3.535   1.136
 5528SOL     OW17482   0.606   3.539   3.542
 5528SOL    HW117483   0.667   3.461   3.535
 5528SOL    HW217484   0.592   3.579   3.451
 5529SOL     OW17485   1.635   1.577   4.889
 5529SOL    HW117486   1.593   1.623   4.967
 5529SOL    HW217487   1.648   1.480   4.912
 5530SOL     OW17488   1.289   2.609   0.776
 5530SOL    HW117489   1.358   2.679   0.796
 5530SOL    HW217490   1.321   2.551   0.701
 5531SOL     OW17491   3.035   2.775   6.035
 5531SOL    HW117492   3.092   2.699   6.003
 5531SOL    HW217493   2.971   2.802   5.963
 5532SOL     OW17494   2.688   1.265   1.048
 5532SOL    HW117495   2.714   1.305   1.136
 5532SOL    HW217496   2.612   1.201   1.061
 5533SOL     OW17497   4.318   0.756   1.137
 5533SOL    HW117498   4.219   0.768   1.144
 5533SOL    HW217499   4.342   0.662   1.163
 5534SOL     OW17500   6.978   4.089   5.641
 5534SOL    HW117501   6.926   4.156   5.694
 5534SOL    HW217502   6.963   4.106   5.543
 5535SOL     OW17503   6.307   3.551   3.491
 5535SOL    HW117504   6.274   3.464   3.454
 5535SOL    HW217505   6.352   3.535   3.578
 5536SOL     OW17506   1.525   0.621   3.455
 5536SOL    HW117507   1.447   0.649   3.399
 5536SOL    HW217508   1.496   0.549   3.518
 5537SOL     OW17509   4.286   0.911   4.453
 5537SOL    HW117510   4.277   0.987   4.389
 5537SOL    HW217511   4.368   0.859   4.431
 5538SOL     OW17512   5.675   1.672   0.568
 5538SOL    HW117513   5.638   1.580   0.576
 5538SOL    HW217514   5.638   1.730   0.641
 5539SOL     OW17515   3.359   6.806   6.919
 5539SOL    HW117516   3.298   6.873   6.878
 5539SOL    HW217517   3.371   6.827   7.016
 5540SOL     OW17518   5.177   0.833   6.680
 5540SOL    HW117519   5.130   0.921   6.685
 5540SOL    HW217520   5.228   0.818   6.765
 5541SOL     OW17521   4.956   3.545   5.841
 5541SOL    HW117522   4.955   3.447   5.859
 5541SOL    HW217523   4.980   3.595   5.924
 5542SOL     OW17524   4.015   4.599   6.999
 5542SOL    HW117525   3.930   4.546   6.999
 5542SOL    HW217526   4.000   4.687   6.954
 5543SOL     OW17527   1.477   0.247   0.478
 5543SOL    HW117528   1.487   0.301   0.394
 5543SOL    HW217529   1.458   0.308   0.555
 5544SOL     OW17530   3.910   5.731   5.882
 5544SOL    HW117531   3.877   5.643   5.916
 5544SOL    HW217532   3.863   5.754   5.796
 5545SOL     OW17533   3.953   0.439   3.164
 5545SOL    HW117534   4.038   0.388   3.177
 5545SOL    HW217535   3.973   0.525   3.117
 5546SOL     OW17536   0.759   5.308   4.917
 5546SOL    HW117537   0.746   5.354   5.005
 5546SOL    HW217538   0.806   5.370   4.854
 5547SOL     OW17539   5.471   1.347   4.390
 5547SOL    HW117540   5.510   1.272   4.336
 5547SOL    HW217541   5.471   1.431   4.336
 5548SOL     OW17542   6.677   4.496   5.276
 5548SOL    HW117543   6.634   4.425   5.220
 5548SOL    HW217544   6.621   4.513   5.357
 5549SOL     OW17545   4.155   3.021   0.819
 5549SOL    HW117546   4.172   2.951   0.750
 5549SOL    HW217547   4.241   3.047   0.862
 5550SOL     OW17548   1.914   4.037   2.161
 5550SOL    HW117549   1.829   4.000   2.198
 5550SOL    HW217550   1.918   4.019   2.062
 5551SOL     OW17551   1.832   5.660   3.927
 5551SOL    HW117552   1.878   5.659   3.839
 5551SOL    HW217553   1.821   5.566   3.960
 5552SOL     OW17554   0.251   6.260   6.814
 5552SOL    HW117555   0.343   6.242   6.848
 5552SOL    HW217556   0.221   6.349   6.847
 5553SOL     OW17557   4.259   0.288   6.809
 5553SOL    HW117558   4.268   0.384   6.784
 5553SOL    HW217559   4.266   0.279   6.908
 5554SOL     OW17560   5.251   2.591   1.835
 5554SOL    HW117561   5.265   2.622   1.929
 5554SOL    HW217562   5.248   2.671   1.775
 5555SOL     OW17563   1.678   4.279   2.092
 5555SOL    HW117564   1.775   4.261   2.110
 5555SOL    HW217565   1.652   4.365   2.137
 5556SOL     OW17566   7.013   0.679   4.679
 5556SOL    HW117567   6.996   0.667   4.776
 5556SOL    HW217568   7.012   0.776   4.655
 5557SOL     OW17569   3.229   6.158   1.932
 5557SOL    HW117570   3.298   6.108   1.984
 5557SOL    HW217571   3.153   6.182   1.992
 5558SOL     OW17572   3.894   4.800   6.827
 5558SOL    HW117573   3.822   4.734   6.847
 5558SOL    HW217574   3.872   4.850   6.743
 5559SOL     OW17575   1.866   0.142   2.592
 5559SOL    HW117576   1.832   0.051   2.566
 5559SOL    HW217577   1.861   0.203   2.513
 5560SOL     OW17578   0.878   6.090   2.887
 5560SOL    HW117579   0.895   6.027   2.811
 5560SOL    HW217580   0.887   6.184   2.854
 5561SOL     OW17581   3.227   0.007   3.723
 5561SOL    HW117582   3.221   6.993   3.815
 5561SOL    HW217583   3.210   0.105   3.726
 5562SOL     OW17584   4.154   3.653   1.369
 5562SOL    HW117585   4.075   3.677   1.313
 5562SOL    HW217586   4.177   3.729   1.430
 5563SOL     OW17587   2.692   4.666   2.921
 5563SOL    HW117588   2.649   4.717   2.995
 5563SOL    HW217589   2.791   4.671   2.930
 5564SOL     OW17590   5.234   0.702   5.915
 5564SOL    HW117591   5.239   0.623   5.853
 5564SOL    HW217592   5.316   0.758   5.904
 5565SOL     OW17593   3.056   2.207   6.639
 5565SOL    HW117594   3.022   2.239   6.551
 5565SOL    HW217595   3.002   2.249   6.712
 5566SOL     OW17596   1.345   3.347   6.645
 5566SOL    HW117597   1.315   3.311   6.557
 5566SOL    HW217598   1.269   3.394   6.689
 5567SOL     OW17599   6.866   4.549   1.533
 5567SOL    HW117600   6.942   4.495   1.498
 5567SOL    HW217601   6.780   4.499   1.522
 5568SOL     OW17602   4.499   6.119   1.839
 5568SOL    HW117603   4.411   6.079   1.864
 5568SOL    HW217604   4.515   6.106   1.741
 5569SOL     OW17605   2.292   2.919   4.175
 5569SOL    HW117606   2.260   2.919   4.270
 5569SOL    HW217607   2.336   3.006   4.154
 5570SOL     OW17608   0.397   3.831   2.999
 5570SOL    HW117609   0.488   3.802   3.028
 5570SOL    HW217610   0.342   3.855   3.080
 5571SOL     OW17611   6.466   5.142   1.971
 5571SOL    HW117612   6.378   5.113   1.933
 5571SOL    HW217613   6.530   5.161   1.897
 5572SOL     OW17614   0.900   3.149   5.012
 5572SOL    HW117615   0.933   3.164   5.106
 5572SOL    HW217616   0.963   3.193   4.948
 5573SOL     OW17617   2.823   5.271   4.232
 5573SOL    HW117618   2.736   5.269   4.282
 5573SOL    HW217619   2.833   5.186   4.180
 5574SOL     OW17620   6.739   2.317   6.312
 5574SOL    HW117621   6.694   2.351   6.394
 5574SOL    HW217622   6.783   2.229   6.332
 5575SOL     OW17623   0.737   0.051   1.582
 5575SOL    HW117624   0.698   0.110   1.653
 5575SOL    HW217625   0.667   7.011   1.549
 5576SOL     OW17626   2.264   4.019   3.617
 5576SOL    HW117627   2.271   3.932   3.666
 5576SOL    HW217628   2.203   4.080   3.668
 5577SOL     OW17629   1.621   3.256   6.280
 5577SOL    HW117630   1.593   3.352   6.273
 5577SOL    HW217631   1.589   3.219   6.367
 5578SOL     OW17632   3.979   3.386   2.980
 5578SOL    HW117633   3.984   3.287   2.964
 5578SOL    HW217634   3.972   3.433   2.893
 5579SOL     OW17635   0.509   2.827   1.536
 5579SOL    HW117636   0.548   2.847   1.627
 5579SOL    HW217637   0.432   2.889   1.519
 5580SOL     OW17638   5.172   1.806   5.233
 5580SOL    HW117639   5.073   1.791   5.230
 5580SOL    HW217640   5.211   1.789   5.143
 5581SOL     OW17641   0.812   1.774   0.097
 5581SOL    HW117642   0.874   1.845   0.130
 5581SOL    HW217643   0.775   1.724   0.176
 5582SOL     OW17644   2.603   2.789   6.649
 5582SOL    HW117645   2.692   2.806   6.690
 5582SOL    HW217646   2.616   2.758   6.554
 5583SOL     OW17647   5.542   0.989   2.222
 5583SOL    HW117648   5.506   1.079   2.246
 5583SOL    HW217649   5.638   0.997   2.196
 5584SOL     OW17650   0.376   4.244   5.258
 5584SOL    HW117651   0.305   4.308   5.286
 5584SOL    HW217652   0.466   4.285   5.272
 5585SOL     OW17653   4.992   4.990   2.023
 5585SOL    HW117654   5.033   4.928   1.956
 5585SOL    HW217655   5.065   5.032   2.077
 5586SOL     OW17656   6.751   2.719   6.600
 5586SOL    HW117657   6.778   2.807   6.636
 5586SOL    HW217658   6.772   2.647   6.666
 5587SOL     OW17659   4.945   0.465   6.498
 5587SOL    HW117660   4.910   0.390   6.554
 5587SOL    HW217661   4.889   0.475   6.416
 5588SOL     OW17662   3.303   6.570   1.385
 5588SOL    HW117663   3.347   6.489   1.347
 5588SOL    HW217664   3.235   6.543   1.454
 5589SOL     OW17665   5.835   4.799   6.350
 5589SOL    HW117666   5.801   4.893   6.355
 5589SOL    HW217667   5.934   4.799   6.358
 5590SOL     OW17668   5.906   5.729   4.483
 5590SOL    HW117669   5.922   5.804   4.419
 5590SOL    HW217670   5.844   5.758   4.555
 5591SOL     OW17671   6.116   1.621   1.417
 5591SOL    HW117672   6.044   1.691   1.420
 5591SOL    HW217673   6.198   1.659   1.376
 5592SOL     OW17674   0.808   4.576   3.621
 5592SOL    HW117675   0.857   4.633   3.555
 5592SOL    HW217676   0.870   4.506   3.657
 5593SOL     OW17677   6.467   1.977   0.485
 5593SOL    HW117678   6.477   2.076   0.480
 5593SOL    HW217679   6.553   1.933   0.459
 5594SOL     OW17680   5.456   2.310   5.382
 5594SOL    HW117681   5.537   2.260   5.352
 5594SOL    HW217682   5.375   2.276   5.333
 5595SOL     OW17683   1.080   2.485   5.395
 5595SOL    HW117684   1.035   2.445   5.315
 5595SOL    HW217685   1.177   2.497   5.376
 5596SOL     OW17686   4.503   6.375   2.248
 5596SOL    HW117687   4.535   6.447   2.311
 5596SOL    HW217688   4.511   6.286   2.292
 5597SOL     OW17689   4.859   3.432   3.274
 5597SOL    HW117690   4.850   3.496   3.350
 5597SOL    HW217691   4.900   3.347   3.307
 5598SOL     OW17692   5.095   2.038   4.658
 5598SOL    HW117693   5.070   2.135   4.655
 5598SOL    HW217694   5.123   2.008   4.567
 5599SOL     OW17695   0.412   1.965   3.865
 5599SOL    HW117696   0.335   1.942   3.924
 5599SOL    HW217697   0.488   1.999   3.921
 5600SOL     OW17698   1.481   2.640   4.297
 5600SOL    HW117699   1.411   2.709   4.277
 5600SOL    HW217700   1.516   2.655   4.389
 5601SOL     OW17701   2.277   1.172   5.510
 5601SOL    HW117702   2.329   1.087   5.507
 5601SOL    HW217703   2.339   1.250   5.520
 5602SOL     OW17704   1.037   1.781   0.847
 5602SOL    HW117705   1.011   1.760   0.942
 5602SOL    HW217706   1.106   1.715   0.816
 5603SOL     OW17707   5.263   2.329   6.769
 5603SOL    HW117708   5.320   2.395   6.817
 5603SOL    HW217709   5.286   2.237   6.800
 5604SOL     OW17710   6.088   1.796   5.605
 5604SOL    HW117711   6.176   1.800   5.558
 5604SOL    HW217712   6.033   1.721   5.566
 5605SOL     OW17713   0.472   1.892   4.609
 5605SOL    HW117714   0.488   1.795   4.629
 5605SOL    HW217715   0.476   1.906   4.510
 5606SOL     OW17716   4.348   7.012   1.876
 5606SOL    HW117717   4.366   0.011   1.972
 5606SOL    HW217718   4.424   6.959   1.839
 5607SOL     OW17719   5.810   1.921   1.756
 5607SOL    HW117720   5.808   1.942   1.853
 5607SOL    HW217721   5.856   1.995   1.706
 5608SOL     OW17722   4.087   6.775   5.022
 5608SOL    HW117723   4.172   6.828   5.021
 5608SOL    HW217724   4.015   6.828   4.976
 5609SOL     OW17725   2.865   6.525   6.442
 5609SOL    HW117726   2.864   6.473   6.527
 5609SOL    HW217727   2.804   6.604   6.451
 5610SOL     OW17728   5.059   0.815   0.343
 5610SOL    HW117729   5.015   0.812   0.433
 5610SOL    HW217730   5.053   0.908   0.306
 5611SOL     OW17731   1.553   4.608   3.366
 5611SOL    HW117732   1.454   4.605   3.349
 5611SOL    HW217733   1.570   4.617   3.464
 5612SOL     OW17734   2.720   0.485   5.384
 5612SOL    HW117735   2.666   0.401   5.394
 5612SOL    HW217736   2.693   0.533   5.301
 5613SOL     OW17737   4.359   4.541   1.888
 5613SOL    HW117738   4.327   4.489   1.808
 5613SOL    HW217739   4.451   4.511   1.912
 5614SOL     OW17740   4.815   2.397   2.947
 5614SOL    HW117741   4.834   2.316   2.892
 5614SOL    HW217742   4.809   2.371   3.043
 5615SOL     OW17743   1.676   0.600   0.357
 5615SOL    HW117744   1.716   0.556   0.438
 5615SOL    HW217745   1.608   0.539   0.316
 5616SOL     OW17746   2.088   0.967   4.230
 5616SOL    HW117747   2.108   0.947   4.134
 5616SOL    HW217748   1.989   0.969   4.243
 5617SOL     OW17749   1.870   0.619   4.696
 5617SOL    HW117750   1.771   0.603   4.699
 5617SOL    HW217751   1.917   0.546   4.746
 5618SOL     OW17752   7.015   4.240   3.923
 5618SOL    HW117753   7.015   4.207   3.829
 5618SOL    HW217754   7.012   4.340   3.924
 5619SOL     OW17755   2.351   4.003   5.651
 5619SOL    HW117756   2.420   4.008   5.578
 5619SOL    HW217757   2.395   4.019   5.739
 5620SOL     OW17758   3.725   2.051   6.762
 5620SOL    HW117759   3.775   1.966   6.744
 5620SOL    HW217760   3.765   2.096   6.842
 5621SOL     OW17761   1.575   2.205   5.383
 5621SOL    HW117762   1.494   2.228   5.437
 5621SOL    HW217763   1.558   2.227   5.287
 5622SOL     OW17764   5.216   0.526   6.147
 5622SOL    HW117765   5.200   0.615   6.106
 5622SOL    HW217766   5.304   0.490   6.117
 5623SOL     OW17767   1.547   6.045   6.698
 5623SOL    HW117768   1.624   6.108   6.695
 5623SOL    HW217769   1.476   6.082   6.758
 5624SOL     OW17770   0.982   4.657   3.437
 5624SOL    HW117771   1.007   4.747   3.401
 5624SOL    HW217772   1.063   4.598   3.439
 5625SOL     OW17773   6.654   2.834   4.833
 5625SOL    HW117774   6.623   2.926   4.812
 5625SOL    HW217775   6.672   2.826   4.932
 5626SOL     OW17776   3.750   0.118   5.008
 5626SOL    HW117777   3.807   0.125   4.926
 5626SOL    HW217778   3.702   0.030   5.007
 5627SOL     OW17779   1.431   6.093   1.600
 5627SOL    HW117780   1.382   6.009   1.578
 5627SOL    HW217781   1.392   6.133   1.683
 5628SOL     OW17782   2.200   1.789   4.825
 5628SOL    HW117783   2.247   1.709   4.862
 5628SOL    HW217784   2.162   1.843   4.899
 5629SOL     OW17785   3.545   3.587   2.437
 5629SOL    HW117786   3.642   3.596   2.413
 5629SOL    HW217787   3.495   3.668   2.406
 5630SOL     OW17788   0.828   4.536   1.503
 5630SOL    HW117789   0.812   4.591   1.421
 5630SOL    HW217790   0.810   4.591   1.584
 5631SOL     OW17791   4.607   0.941   0.341
 5631SOL    HW117792   4.583   0.949   0.244
 5631SOL    HW217793   4.525   0.917   0.394
 5632SOL     OW17794   4.311   3.615   6.868
 5632SOL    HW117795   4.404   3.632   6.901
 5632SOL    HW217796   4.250   3.687   6.902
 5633SOL     OW17797   6.585   2.803   4.346
 5633SOL    HW117798   6.650   2.764   4.280
 5633SOL    HW217799   6.635   2.862   4.409
 5634SOL     OW17800   3.836   5.527   4.096
 5634SOL    HW117801   3.861   5.477   4.013
 5634SOL    HW217802   3.879   5.617   4.096
 5635SOL     OW17803   2.659   2.420   4.900
 5635SOL    HW117804   2.701   2.417   4.991
 5635SOL    HW217805   2.726   2.390   4.832
 5636SOL     OW17806   4.392   5.322   2.805
 5636SOL    HW117807   4.374   5.420   2.795
 5636SOL    HW217808   4.369   5.293   2.898
 5637SOL     OW17809   5.665   6.720   3.524
 5637SOL    HW117810   5.702   6.813   3.513
 5637SOL    HW217811   5.740   6.654   3.523
 5638SOL     OW17812   5.050   2.518   6.486
 5638SOL    HW117813   5.033   2.458   6.408
 5638SOL    HW217814   5.074   2.610   6.454
 5639SOL     OW17815   1.693   1.531   6.184
 5639SOL    HW117816   1.727   1.624   6.174
 5639SOL    HW217817   1.593   1.531   6.188
 5640SOL     OW17818   2.710   0.284   3.221
 5640SOL    HW117819   2.661   0.246   3.142
 5640SOL    HW217820   2.808   0.265   3.211
 5641SOL     OW17821   6.437   5.126   5.365
 5641SOL    HW117822   6.393   5.145   5.453
 5641SOL    HW217823   6.368   5.094   5.300
 5642SOL     OW17824   1.165   1.946   5.975
 5642SOL    HW117825   1.160   2.043   5.950
 5642SOL    HW217826   1.130   1.891   5.899
 5643SOL     OW17827   6.173   2.423   4.339
 5643SOL    HW117828   6.076   2.402   4.343
 5643SOL    HW217829   6.208   2.438   4.431
 5644SOL     OW17830   3.349   0.192   6.671
 5644SOL    HW117831   3.268   0.210   6.616
 5644SOL    HW217832   3.423   0.255   6.645
 5645SOL     OW17833   5.870   3.118   4.250
 5645SOL    HW117834   5.796   3.186   4.247
 5645SOL    HW217835   5.946   3.149   4.192
 5646SOL     OW17836   1.755   4.302   2.917
 5646SOL    HW117837   1.704   4.335   2.838
 5646SOL    HW217838   1.826   4.368   2.941
 5647SOL     OW17839   6.969   5.904   3.000
 5647SOL    HW117840   7.016   5.992   3.007
 5647SOL    HW217841   7.016   5.846   2.934
 5648SOL     OW17842   4.304   6.432   2.669
 5648SOL    HW117843   4.260   6.420   2.758
 5648SOL    HW217844   4.400   6.457   2.682
 5649SOL     OW17845   0.431   6.412   4.024
 5649SOL    HW117846   0.435   6.378   4.118
 5649SOL    HW217847   0.524   6.429   3.991
 5650SOL     OW17848   6.809   4.008   0.334
 5650SOL    HW117849   6.854   4.066   0.401
 5650SOL    HW217850   6.863   3.924   0.321
 5651SOL     OW17851   1.581   0.500   1.616
 5651SOL    HW117852   1.643   0.490   1.694
 5651SOL    HW217853   1.487   0.511   1.648
 5652SOL     OW17854   1.395   5.835   1.764
 5652SOL    HW117855   1.298   5.815   1.776
 5652SOL    HW217856   1.414   5.928   1.795
 5653SOL     OW17857   0.316   6.728   1.487
 5653SOL    HW117858   0.283   6.722   1.581
 5653SOL    HW217859   0.318   6.824   1.458
 5654SOL     OW17860   2.432   5.980   5.118
 5654SOL    HW117861   2.343   6.021   5.138
 5654SOL    HW217862   2.430   5.883   5.143
 5655SOL     OW17863   6.526   3.197   4.341
 5655SOL    HW117864   6.592   3.236   4.277
 5655SOL    HW217865   6.437   3.189   4.296
 5656SOL     OW17866   0.547   3.087   0.205
 5656SOL    HW117867   0.560   3.121   0.112
 5656SOL    HW217868   0.486   3.008   0.204
 5657SOL     OW17869   4.596   5.543   5.131
 5657SOL    HW117870   4.598   5.471   5.061
 5657SOL    HW217871   4.594   5.501   5.221
 5658SOL     OW17872   1.964   1.981   5.715
 5658SOL    HW117873   1.992   2.049   5.783
 5658SOL    HW217874   2.045   1.933   5.681
 5659SOL     OW17875   3.952   4.183   6.297
 5659SOL    HW117876   3.866   4.226   6.270
 5659SOL    HW217877   4.005   4.246   6.353
 5660SOL     OW17878   4.287   0.810   6.519
 5660SOL    HW117879   4.229   0.743   6.472
 5660SOL    HW217880   4.256   0.902   6.496
 5661SOL     OW17881   1.475   5.289   5.569
 5661SOL    HW117882   1.444   5.242   5.486
 5661SOL    HW217883   1.409   5.274   5.642
 5662SOL     OW17884   2.396   6.109   2.406
 5662SOL    HW117885   2.459   6.077   2.336
 5662SOL    HW217886   2.358   6.197   2.379
 5663SOL     OW17887   0.921   2.658   0.360
 5663SOL    HW117888   0.923   2.634   0.457
 5663SOL    HW217889   1.000   2.618   0.313
 5664SOL     OW17890   5.025   3.909   4.207
 5664SOL    HW117891   5.005   3.855   4.289
 5664SOL    HW217892   4.951   3.898   4.141
 5665SOL     OW17893   2.441   1.080   1.029
 5665SOL    HW117894   2.427   1.143   1.106
 5665SOL    HW217895   2.374   1.006   1.034
 5666SOL     OW17896   5.389   1.286   4.753
 5666SOL    HW117897   5.300   1.244   4.769
 5666SOL    HW217898   5.441   1.231   4.688
 5667SOL     OW17899   2.457   5.036   5.009
 5667SOL    HW117900   2.532   5.010   5.070
 5667SOL    HW217901   2.493   5.080   4.927
 5668SOL     OW17902   5.452   3.140   3.521
 5668SOL    HW117903   5.497   3.052   3.508
 5668SOL    HW217904   5.489   3.184   3.603
 5669SOL     OW17905   6.543   4.456   6.697
 5669SOL    HW117906   6.572   4.475   6.791
 5669SOL    HW217907   6.452   4.495   6.682
 5670SOL     OW17908   0.912   2.109   2.545
 5670SOL    HW117909   0.894   2.062   2.458
 5670SOL    HW217910   0.854   2.070   2.616
 5671SOL     OW17911   0.348   6.786   3.679
 5671SOL    HW117912   0.297   6.702   3.660
 5671SOL    HW217913   0.309   6.831   3.760
 5672SOL     OW17914   5.346   3.375   5.742
 5672SOL    HW117915   5.374   3.352   5.835
 5672SOL    HW217916   5.270   3.316   5.715
 5673SOL     OW17917   0.702   0.541   1.099
 5673SOL    HW117918   0.656   0.505   1.018
 5673SOL    HW217919   0.668   0.632   1.119
 5674SOL     OW17920   2.092   5.334   5.806
 5674SOL    HW117921   2.140   5.371   5.727
 5674SOL    HW217922   2.145   5.258   5.844
 5675SOL     OW17923   2.103   1.700   0.444
 5675SOL    HW117924   2.054   1.787   0.433
 5675SOL    HW217925   2.140   1.671   0.356
 5676SOL     OW17926   3.037   2.175   1.513
 5676SOL    HW117927   3.124   2.198   1.468
 5676SOL    HW217928   3.011   2.081   1.489
 5677SOL     OW17929   6.916   0.662   1.239
 5677SOL    HW117930   6.973   0.638   1.161
 5677SOL    HW217931   6.867   0.747   1.219
 5678SOL     OW17932   3.409   2.064   2.136
 5678SOL    HW117933   3.360   2.051   2.050
 5678SOL    HW217934   3.479   2.135   2.124
 5679SOL     OW17935   6.209   3.478   5.255
 5679SOL    HW117936   6.129   3.429   5.290
 5679SOL    HW217937   6.213   3.568   5.298
 5680SOL     OW17938   1.637   6.026   5.304
 5680SOL    HW117939   1.585   5.941   5.303
 5680SOL    HW217940   1.697   6.028   5.384
 5681SOL     OW17941   1.125   3.966   3.516
 5681SOL    HW117942   1.184   3.912   3.576
 5681SOL    HW217943   1.034   3.926   3.514
 5682SOL     OW17944   2.333   4.161   1.589
 5682SOL    HW117945   2.253   4.128   1.539
 5682SOL    HW217946   2.317   4.254   1.620
 5683SOL     OW17947   6.174   1.509   6.392
 5683SOL    HW117948   6.183   1.462   6.304
 5683SOL    HW217949   6.249   1.482   6.452
 5684SOL     OW17950   1.927   2.900   5.598
 5684SOL    HW117951   1.837   2.856   5.595
 5684SOL    HW217952   1.920   2.994   5.564
 5685SOL     OW17953   2.725   1.831   3.598
 5685SOL    HW117954   2.807   1.858   3.647
 5685SOL    HW217955   2.745   1.826   3.500
 5686SOL     OW17956   3.634   6.020   6.002
 5686SOL    HW117957   3.691   5.942   6.026
 5686SOL    HW217958   3.541   6.006   6.037
 5687SOL     OW17959   2.209   6.285   6.275
 5687SOL    HW117960   2.182   6.335   6.193
 5687SOL    HW217961   2.244   6.195   6.249
 5688SOL     OW17962   2.337   2.624   3.161
 5688SOL    HW117963   2.361   2.637   3.065
 5688SOL    HW217964   2.291   2.536   3.173
 5689SOL     OW17965   0.264   2.309   1.780
 5689SOL    HW117966   0.302   2.265   1.861
 5689SOL    HW217967   0.339   2.334   1.718
 5690SOL     OW17968   1.520   5.691   0.432
 5690SOL    HW117969   1.583   5.749   0.380
 5690SOL    HW217970   1.429   5.732   0.430
 5691SOL     OW17971   3.019   1.238   2.809
 5691SOL    HW117972   3.031   1.219   2.711
 5691SOL    HW217973   2.964   1.320   2.821
 5692SOL     OW17974   4.520   5.002   1.419
 5692SOL    HW117975   4.439   4.982   1.364
 5692SOL    HW217976   4.592   4.936   1.397
 5693SOL     OW17977   3.732   1.023   1.326
 5693SOL    HW117978   3.690   1.043   1.237
 5693SOL    HW217979   3.786   1.101   1.356
 5694SOL     OW17980   0.904   6.542   2.062
 5694SOL    HW117981   1.002   6.529   2.078
 5694SOL    HW217982   0.864   6.457   2.028
 5695SOL     OW17983   1.781   0.536   1.180
 5695SOL    HW117984   1.738   0.446   1.187
 5695SOL    HW217985   1.765   0.587   1.265
 5696SOL     OW17986   1.480   0.320   3.669
 5696SOL    HW117987   1.517   0.237   3.627
 5696SOL    HW217988   1.523   0.334   3.758
 5697SOL     OW17989   6.194   3.127   0.551
 5697SOL    HW117990   6.149   3.076   0.478
 5697SOL    HW217991   6.279   3.081   0.576
 5698SOL     OW17992   2.599   2.489   3.945
 5698SOL    HW117993   2.600   2.588   3.955
 5698SOL    HW217994   2.681   2.459   3.897
 5699SOL     OW17995   2.187   2.426   2.772
 5699SOL    HW117996   2.112   2.493   2.769
 5699SOL    HW217997   2.152   2.335   2.750
 5700SOL     OW17998   6.327   0.867   3.500
 5700SOL    HW117999   6.312   0.794   3.567
 5700SOL    HW218000   6.263   0.942   3.519
 5701SOL     OW18001   0.257   0.800   1.469
 5701SOL    HW118002   0.164   0.786   1.503
 5701SOL    HW218003   0.320   0.743   1.521
 5702SOL     OW18004   2.679   6.761   4.344
 5702SOL    HW118005   2.653   6.846   4.298
 5702SOL    HW218006   2.657   6.683   4.284
 5703SOL     OW18007   0.050   2.949   6.731
 5703SOL    HW118008   0.052   2.939   6.830
 5703SOL    HW218009   6.980   2.943   6.698
 5704SOL     OW18010   5.266   4.135   3.783
 5704SOL    HW118011   5.235   4.117   3.876
 5704SOL    HW218012   5.347   4.193   3.784
 5705SOL     OW18013   6.208   6.779   5.547
 5705SOL    HW118014   6.266   6.847   5.502
 5705SOL    HW218015   6.143   6.826   5.607
 5706SOL     OW18016   4.928   2.192   0.143
 5706SOL    HW118017   4.942   2.150   0.233
 5706SOL    HW218018   4.873   2.275   0.153
 5707SOL     OW18019   5.911   5.819   2.364
 5707SOL    HW118020   5.842   5.747   2.367
 5707SOL    HW218021   5.891   5.887   2.435
 5708SOL     OW18022   4.555   5.784   2.880
 5708SOL    HW118023   4.547   5.884   2.891
 5708SOL    HW218024   4.575   5.763   2.784
 5709SOL     OW18025   0.506   1.428   2.698
 5709SOL    HW118026   0.579   1.397   2.638
 5709SOL    HW218027   0.461   1.508   2.657
 5710SOL     OW18028   2.794   2.265   0.912
 5710SOL    HW118029   2.776   2.360   0.886
 5710SOL    HW218030   2.855   2.263   0.991
 5711SOL     OW18031   5.569   2.234   2.105
 5711SOL    HW118032   5.557   2.313   2.165
 5711SOL    HW218033   5.629   2.167   2.150
 5712SOL     OW18034   6.255   6.414   1.450
 5712SOL    HW118035   6.248   6.489   1.516
 5712SOL    HW218036   6.348   6.377   1.451
 5713SOL     OW18037   2.536   6.509   0.372
 5713SOL    HW118038   2.511   6.605   0.362
 5713SOL    HW218039   2.628   6.503   0.412
 5714SOL     OW18040   6.047   0.126   1.285
 5714SOL    HW118041   6.123   0.113   1.221
 5714SOL    HW218042   6.067   0.080   1.371
 5715SOL     OW18043   0.672   0.272   1.233
 5715SOL    HW118044   0.711   0.350   1.185
 5715SOL    HW218045   0.597   0.303   1.292
 5716SOL     OW18046   6.682   4.595   5.861
 5716SOL    HW118047   6.591   4.576   5.824
 5716SOL    HW218048   6.739   4.635   5.789
 5717SOL     OW18049   1.217   4.906   2.905
 5717SOL    HW118050   1.190   4.963   2.983
 5717SOL    HW218051   1.141   4.900   2.841
 5718SOL     OW18052   0.788   3.369   0.355
 5718SOL    HW118053   0.704   3.401   0.311
 5718SOL    HW218054   0.867   3.415   0.313
 5719SOL     OW18055   2.496   3.942   0.837
 5719SOL    HW118056   2.544   3.863   0.874
 5719SOL    HW218057   2.554   4.023   0.848
 5720SOL     OW18058   2.706   4.300   6.252
 5720SOL    HW118059   2.717   4.202   6.272
 5720SOL    HW218060   2.724   4.316   6.154
 5721SOL     OW18061   3.623   4.117   0.482
 5721SOL    HW118062   3.606   4.213   0.464
 5721SOL    HW218063   3.544   4.063   0.451
 5722SOL     OW18064   0.910   1.192   5.639
 5722SOL    HW118065   0.849   1.252   5.691
 5722SOL    HW218066   1.005   1.213   5.663
 5723SOL     OW18067   4.546   3.334   6.991
 5723SOL    HW118068   4.532   3.345   6.893
 5723SOL    HW218069   4.551   3.237   7.014
 5724SOL     OW18070   6.190   2.690   3.833
 5724SOL    HW118071   6.143   2.605   3.860
 5724SOL    HW218072   6.190   2.754   3.910
 5725SOL     OW18073   6.664   4.082   4.326
 5725SOL    HW118074   6.763   4.090   4.337
 5725SOL    HW218075   6.642   4.064   4.231
 5726SOL     OW18076   5.360   4.664   2.528
 5726SOL    HW118077   5.276   4.701   2.489
 5726SOL    HW218078   5.365   4.689   2.625
 5727SOL     OW18079   0.586   2.177   5.036
 5727SOL    HW118080   0.593   2.142   4.943
 5727SOL    HW218081   0.639   2.262   5.044
 5728SOL     OW18082   4.832   6.402   5.076
 5728SOL    HW118083   4.802   6.357   5.160
 5728SOL    HW218084   4.780   6.487   5.063
 5729SOL     OW18085   1.949   2.134   5.158
 5729SOL    HW118086   2.029   2.153   5.101
 5729SOL    HW218087   1.979   2.083   5.239
 5730SOL     OW18088   6.607   4.301   5.102
 5730SOL    HW118089   6.640   4.207   5.089
 5730SOL    HW218090   6.515   4.309   5.065
 5731SOL     OW18091   0.226   6.296   2.215
 5731SOL    HW118092   0.325   6.311   2.213
 5731SOL    HW218093   0.202   6.221   2.155
 5732SOL     OW18094   0.902   0.155   3.518
 5732SOL    HW118095   0.909   0.240   3.465
 5732SOL    HW218096   0.915   0.176   3.615
 5733SOL     OW18097   3.516   0.938   5.603
 5733SOL    HW118098   3.555   0.853   5.568
 5733SOL    HW218099   3.431   0.958   5.554
 5734SOL     OW18100   2.106   6.442   2.995
 5734SOL    HW118101   2.093   6.355   2.946
 5734SOL    HW218102   2.130   6.513   2.929
 5735SOL     OW18103   2.946   1.377   1.951
 5735SOL    HW118104   3.022   1.411   2.006
 5735SOL    HW218105   2.981   1.332   1.869
 5736SOL     OW18106   1.799   5.039   0.460
 5736SOL    HW118107   1.810   4.966   0.391
 5736SOL    HW218108   1.788   5.127   0.413
 5737SOL     OW18109   5.151   4.773   0.775
 5737SOL    HW118110   5.109   4.815   0.695
 5737SOL    HW218111   5.138   4.833   0.854
 5738SOL     OW18112   1.461   3.731   5.826
 5738SOL    HW118113   1.384   3.791   5.847
 5738SOL    HW218114   1.451   3.646   5.877
 5739SOL     OW18115   0.749   0.904   1.033
 5739SOL    HW118116   0.836   0.896   0.984
 5739SOL    HW218117   0.767   0.915   1.131
 5740SOL     OW18118   4.223   5.668   6.400
 5740SOL    HW118119   4.174   5.626   6.324
 5740SOL    HW218120   4.176   5.646   6.486
 5741SOL     OW18121   0.611   4.707   3.488
 5741SOL    HW118122   0.539   4.755   3.537
 5741SOL    HW218123   0.675   4.666   3.554
 5742SOL     OW18124   6.466   6.626   4.260
 5742SOL    HW118125   6.507   6.626   4.351
 5742SOL    HW218126   6.539   6.617   4.192
 5743SOL     OW18127   1.741   6.527   5.314
 5743SOL    HW118128   1.806   6.453   5.301
 5743SOL    HW218129   1.767   6.580   5.395
 5744SOL     OW18130   5.596   6.674   2.320
 5744SOL    HW118131   5.666   6.602   2.322
 5744SOL    HW218132   5.629   6.750   2.265
 5745SOL     OW18133   1.079   2.008   3.982
 5745SOL    HW118134   1.170   2.035   3.951
 5745SOL    HW218135   1.011   2.041   3.916
 5746SOL     OW18136   5.695   3.636   0.107
 5746SOL    HW118137   5.683   3.561   0.042
 5746SOL    HW218138   5.632   3.623   0.184
 5747SOL     OW18139   1.099   6.109   3.188
 5747SOL    HW118140   1.002   6.135   3.187
 5747SOL    HW218141   1.148   6.167   3.252
 5748SOL     OW18142   2.565   6.211   2.897
 5748SOL    HW118143   2.571   6.228   2.995
 5748SOL    HW218144   2.522   6.123   2.880
 5749SOL     OW18145   2.380   1.511   3.558
 5749SOL    HW118146   2.344   1.592   3.604
 5749SOL    HW218147   2.479   1.520   3.548
 5750SOL     OW18148   6.820   5.515   2.800
 5750SOL    HW118149   6.789   5.546   2.710
 5750SOL    HW218150   6.800   5.417   2.809
 5751SOL     OW18151   2.771   4.012   6.292
 5751SOL    HW118152   2.825   3.964   6.223
 5751SOL    HW218153   2.824   4.019   6.377
 5752SOL     OW18154   6.255   0.145   6.864
 5752SOL    HW118155   6.251   0.207   6.942
 5752SOL    HW218156   6.169   0.149   6.814
 5753SOL     OW18157   3.631   2.284   0.401
 5753SOL    HW118158   3.654   2.293   0.498
 5753SOL    HW218159   3.700   2.228   0.356
 5754SOL     OW18160   6.309   4.641   0.983
 5754SOL    HW118161   6.262   4.699   1.049
 5754SOL    HW218162   6.318   4.689   0.896
 5755SOL     OW18163   3.559   3.902   1.760
 5755SOL    HW118164   3.581   3.952   1.677
 5755SOL    HW218165   3.517   3.814   1.737
 5756SOL     OW18166   0.212   6.321   4.384
 5756SOL    HW118167   0.167   6.314   4.295
 5756SOL    HW218168   0.310   6.338   4.371
 5757SOL     OW18169   0.627   5.359   1.361
 5757SOL    HW118170   0.603   5.283   1.300
 5757SOL    HW218171   0.663   5.322   1.447
 5758SOL     OW18172   0.893   1.863   5.512
 5758SOL    HW118173   0.990   1.845   5.524
 5758SOL    HW218174   0.849   1.784   5.469
 5759SOL     OW18175   4.938   2.073   5.078
 5759SOL    HW118176   4.949   2.132   5.159
 5759SOL    HW218177   4.876   2.117   5.014
 5760SOL     OW18178   1.650   5.604   2.035
 5760SOL    HW118179   1.710   5.659   1.976
 5760SOL    HW218180   1.568   5.657   2.056
 5761SOL     OW18181   4.738   0.253   5.017
 5761SOL    HW118182   4.676   0.330   5.033
 5761SOL    HW218183   4.819   0.263   5.074
 5762SOL     OW18184   5.496   5.971   1.401
 5762SOL    HW118185   5.569   5.903   1.409
 5762SOL    HW218186   5.455   5.965   1.309
 5763SOL     OW18187   1.064   1.175   1.119
 5763SOL    HW118188   1.051   1.212   1.211
 5763SOL    HW218189   1.128   1.233   1.068
 5764SOL     OW18190   4.411   3.621   5.587
 5764SOL    HW118191   4.334   3.685   5.596
 5764SOL    HW218192   4.493   3.660   5.628
 5765SOL     OW18193   5.692   4.982   0.614
 5765SOL    HW118194   5.764   4.919   0.643
 5765SOL    HW218195   5.638   4.938   0.542
 5766SOL     OW18196   3.187   1.379   3.646
 5766SOL    HW118197   3.167   1.295   3.698
 5766SOL    HW218198   3.141   1.456   3.689
 5767SOL     OW18199   0.174   6.414   1.347
 5767SOL    HW118200   0.206   6.436   1.439
 5767SOL    HW218201   0.231   6.342   1.308
 5768SOL     OW18202   6.605   0.833   2.813
 5768SOL    HW118203   6.641   0.890   2.739
 5768SOL    HW218204   6.646   0.742   2.809
 5769SOL     OW18205   2.369   5.630   3.622
 5769SOL    HW118206   2.329   5.543   3.590
 5769SOL    HW218207   2.464   5.615   3.649
 5770SOL     OW18208   6.174   0.175   1.703
 5770SOL    HW118209   6.111   0.132   1.639
 5770SOL    HW218210   6.264   0.186   1.661
 5771SOL     OW18211   1.108   1.775   2.278
 5771SOL    HW118212   1.075   1.822   2.196
 5771SOL    HW218213   1.156   1.692   2.252
 5772SOL     OW18214   6.452   4.269   6.964
 5772SOL    HW118215   6.442   4.170   6.976
 5772SOL    HW218216   6.370   4.306   6.920
 5773SOL     OW18217   5.890   5.710   4.018
 5773SOL    HW118218   5.880   5.732   3.921
 5773SOL    HW218219   5.802   5.680   4.054
 5774SOL     OW18220   2.603   5.461   2.789
 5774SOL    HW118221   2.557   5.435   2.874
 5774SOL    HW218222   2.617   5.379   2.733
 5775SOL     OW18223   7.013   0.390   0.683
 5775SOL    HW118224   6.998   0.292   0.694
 5775SOL    HW218225   0.087   0.409   0.684
 5776SOL     OW18226   5.168   1.071   5.820
 5776SOL    HW118227   5.251   1.128   5.813
 5776SOL    HW218228   5.164   1.030   5.911
 5777SOL     OW18229   6.180   0.562   5.537
 5777SOL    HW118230   6.214   0.655   5.524
 5777SOL    HW218231   6.098   0.564   5.594
 5778SOL     OW18232   2.670   0.027   3.817
 5778SOL    HW118233   2.625   0.115   3.837
 5778SOL    HW218234   2.768   0.037   3.830
 5779SOL     OW18235   4.127   1.086   2.503
 5779SOL    HW118236   4.043   1.073   2.556
 5779SOL    HW218237   4.132   1.017   2.431
 5780SOL     OW18238   6.154   3.671   1.392
 5780SOL    HW118239   6.242   3.681   1.439
 5780SOL    HW218240   6.149   3.737   1.317
 5781SOL     OW18241   2.174   5.079   4.981
 5781SOL    HW118242   2.273   5.062   4.976
 5781SOL    HW218243   2.144   5.067   5.076
 5782SOL     OW18244   2.638   1.229   3.162
 5782SOL    HW118245   2.544   1.212   3.134
 5782SOL    HW218246   2.644   1.225   3.262
 5783SOL     OW18247   2.354   6.509   0.805
 5783SOL    HW118248   2.282   6.545   0.746
 5783SOL    HW218249   2.394   6.427   0.764
 5784SOL     OW18250   1.938   5.531   0.057
 5784SOL    HW118251   1.971   5.535   0.151
 5784SOL    HW218252   1.975   5.450   0.012
 5785SOL     OW18253   2.506   1.525   0.347
 5785SOL    HW118254   2.526   1.599   0.411
 5785SOL    HW218255   2.478   1.444   0.399
 5786SOL     OW18256   1.257   3.455   0.704
 5786SOL    HW118257   1.294   3.539   0.743
 5786SOL    HW218258   1.202   3.408   0.772
 5787SOL     OW18259   7.013   3.093   5.744
 5787SOL    HW118260   7.013   3.039   5.828
 5787SOL    HW218261   0.005   3.033   5.665
 5788SOL     OW18262   1.874   2.426   1.803
 5788SOL    HW118263   1.808   2.495   1.831
 5788SOL    HW218264   1.831   2.364   1.737
 5789SOL     OW18265   3.142   5.656   6.885
 5789SOL    HW118266   3.191   5.738   6.912
 5789SOL    HW218267   3.043   5.673   6.891
 5790SOL     OW18268   6.280   5.633   3.569
 5790SOL    HW118269   6.336   5.660   3.491
 5790SOL    HW218270   6.337   5.629   3.651
 5791SOL     OW18271   4.070   1.351   2.034
 5791SOL    HW118272   4.094   1.335   2.130
 5791SOL    HW218273   4.030   1.441   2.024
 5792SOL     OW18274   4.640   2.481   2.672
 5792SOL    HW118275   4.614   2.553   2.736
 5792SOL    HW218276   4.598   2.497   2.583
 5793SOL     OW18277   3.967   2.406   6.412
 5793SOL    HW118278   4.017   2.492   6.425
 5793SOL    HW218279   3.885   2.424   6.359
 5794SOL     OW18280   3.634   6.256   0.120
 5794SOL    HW118281   3.727   6.275   0.088
 5794SOL    HW218282   3.596   6.337   0.164
 5795SOL     OW18283   2.235   5.880   1.634
 5795SOL    HW118284   2.243   5.956   1.570
 5795SOL    HW218285   2.317   5.824   1.630
 5796SOL     OW18286   5.328   0.900   6.452
 5796SOL    HW118287   5.279   0.860   6.529
 5796SOL    HW218288   5.268   0.901   6.372
 5797SOL     OW18289   6.761   2.743   0.838
 5797SOL    HW118290   6.821   2.776   0.911
 5797SOL    HW218291   6.669   2.779   0.852
 5798SOL     OW18292   1.710   3.482   4.407
 5798SOL    HW118293   1.627   3.501   4.460
 5798SOL    HW218294   1.725   3.384   4.403
 5799SOL     OW18295   2.938   0.057   3.398
 5799SOL    HW118296   2.894   0.036   3.311
 5799SOL    HW218297   2.996   7.005   3.426
 5800SOL     OW18298   1.850   0.193   1.545
 5800SOL    HW118299   1.859   0.222   1.450
 5800SOL    HW218300   1.789   0.114   1.550
 5801SOL     OW18301   1.983   1.662   1.965
 5801SOL    HW118302   1.949   1.577   2.004
 5801SOL    HW218303   1.906   1.720   1.938
 5802SOL     OW18304   0.964   0.181   1.894
 5802SOL    HW118305   1.014   0.260   1.931
 5802SOL    HW218306   0.891   0.156   1.957
 5803SOL     OW18307   0.817   5.688   4.175
 5803SOL    HW118308   0.819   5.774   4.123
 5803SOL    HW218309   0.804   5.708   4.272
 5804SOL     OW18310   6.254   1.888   2.950
 5804SOL    HW118311   6.285   1.942   2.872
 5804SOL    HW218312   6.293   1.925   3.034
 5805SOL     OW18313   1.614   2.559   2.165
 5805SOL    HW118314   1.518   2.555   2.138
 5805SOL    HW218315   1.667   2.606   2.093
 5806SOL     OW18316   6.536   4.093   1.983
 5806SOL    HW118317   6.625   4.061   2.017
 5806SOL    HW218318   6.528   4.072   1.886
 5807SOL     OW18319   1.923   0.986   1.845
 5807SOL    HW118320   2.023   0.993   1.849
 5807SOL    HW218321   1.883   1.041   1.919
 5808SOL     OW18322   6.683   0.791   5.869
 5808SOL    HW118323   6.749   0.744   5.810
 5808SOL    HW218324   6.727   0.816   5.955
 5809SOL     OW18325   0.173   2.702   5.223
 5809SOL    HW118326   0.121   2.772   5.175
 5809SOL    HW218327   0.211   2.739   5.307
 5810SOL     OW18328   3.196   6.750   5.048
 5810SOL    HW118329   3.097   6.757   5.053
 5810SOL    HW218330   3.234   6.744   5.140
 5811SOL     OW18331   4.074   4.380   6.441
 5811SOL    HW118332   4.057   4.478   6.445
 5811SOL    HW218333   4.172   4.362   6.451
 5812SOL     OW18334   5.378   2.663   6.427
 5812SOL    HW118335   5.301   2.726   6.441
 5812SOL    HW218336   5.459   2.716   6.401
 5813SOL     OW18337   5.027   5.529   0.747
 5813SOL    HW118338   5.018   5.439   0.790
 5813SOL    HW218339   4.938   5.557   0.710
 5814SOL     OW18340   5.793   0.978   2.123
 5814SOL    HW118341   5.825   1.008   2.033
 5814SOL    HW218342   5.868   0.983   2.189
 5815SOL     OW18343   6.319   3.184   3.926
 5815SOL    HW118344   6.251   3.234   3.871
 5815SOL    HW218345   6.363   3.114   3.869
 5816SOL     OW18346   0.253   4.003   2.720
 5816SOL    HW118347   0.266   3.963   2.629
 5816SOL    HW218348   0.342   4.025   2.760
 5817SOL     OW18349   5.869   3.635   3.122
 5817SOL    HW118350   5.959   3.611   3.085
 5817SOL    HW218351   5.820   3.691   3.055
 5818SOL     OW18352   2.782   0.741   4.396
 5818SOL    HW118353   2.705   0.767   4.338
 5818SOL    HW218354   2.868   0.752   4.345
 5819SOL     OW18355   3.887   4.326   0.402
 5819SOL    HW118356   3.840   4.289   0.321
 5819SOL    HW218357   3.926   4.250   0.455
 5820SOL     OW18358   6.242   6.288   2.764
 5820SOL    HW118359   6.161   6.297   2.822
 5820SOL    HW218360   6.214   6.271   2.670
 5821SOL     OW18361   0.104   7.013   1.729
 5821SOL    HW118362   0.107   0.024   1.823
 5821SOL    HW218363   0.063   0.058   1.669
 5822SOL     OW18364   1.454   3.993   3.025
 5822SOL    HW118365   1.407   4.027   3.106
 5822SOL    HW218366   1.430   3.897   3.010
 5823SOL     OW18367   1.692   6.349   3.781
 5823SOL    HW118368   1.791   6.336   3.786
 5823SOL    HW218369   1.673   6.432   3.728
 5824SOL     OW18370   1.372   6.756   2.431
 5824SOL    HW118371   1.451   6.817   2.440
 5824SOL    HW218372   1.343   6.753   2.335
 5825SOL     OW18373   4.990   1.840   3.859
 5825SOL    HW118374   5.078   1.796   3.876
 5825SOL    HW218375   5.003   1.915   3.793
 5826SOL     OW18376   1.349   6.675   5.572
 5826SOL    HW118377   1.374   6.656   5.477
 5826SOL    HW218378   1.306   6.766   5.577
 5827SOL     OW18379   2.062   4.224   3.700
 5827SOL    HW118380   2.005   4.280   3.759
 5827SOL    HW218381   2.041   4.244   3.604
 5828SOL     OW18382   3.960   0.895   5.817
 5828SOL    HW118383   3.898   0.972   5.800
 5828SOL    HW218384   3.932   0.849   5.902
 5829SOL     OW18385   2.342   0.350   3.187
 5829SOL    HW118386   2.421   0.291   3.173
 5829SOL    HW218387   2.259   0.302   3.159
 5830SOL     OW18388   4.046   5.338   4.155
 5830SOL    HW118389   3.962   5.390   4.171
 5830SOL    HW218390   4.032   5.243   4.182
 5831SOL     OW18391   1.729   2.103   4.976
 5831SOL    HW118392   1.739   2.158   4.894
 5831SOL    HW218393   1.798   2.130   5.043
 5832SOL     OW18394   2.872   5.382   2.172
 5832SOL    HW118395   2.794   5.387   2.109
 5832SOL    HW218396   2.900   5.287   2.183
 5833SOL     OW18397   3.661   5.240   0.285
 5833SOL    HW118398   3.651   5.185   0.202
 5833SOL    HW218399   3.754   5.231   0.321
 5834SOL     OW18400   6.101   2.604   6.608
 5834SOL    HW118401   6.169   2.579   6.539
 5834SOL    HW218402   6.060   2.692   6.584
 5835SOL     OW18403   4.903   2.054   2.737
 5835SOL    HW118404   4.821   2.104   2.708
 5835SOL    HW218405   4.978   2.118   2.752
 5836SOL     OW18406   5.353   5.885   2.496
 5836SOL    HW118407   5.420   5.886   2.422
 5836SOL    HW218408   5.320   5.792   2.511
 5837SOL     OW18409   2.777   5.116   6.193
 5837SOL    HW118410   2.749   5.131   6.287
 5837SOL    HW218411   2.756   5.197   6.138
 5838SOL     OW18412   3.904   2.611   0.433
 5838SOL    HW118413   3.891   2.558   0.517
 5838SOL    HW218414   3.977   2.678   0.447
 5839SOL     OW18415   1.678   2.147   0.583
 5839SOL    HW118416   1.697   2.240   0.615
 5839SOL    HW218417   1.673   2.085   0.661
 5840SOL     OW18418   0.296   3.537   3.643
 5840SOL    HW118419   0.246   3.518   3.727
 5840SOL    HW218420   0.315   3.452   3.595
 5841SOL     OW18421   5.190   1.139   0.514
 5841SOL    HW118422   5.143   1.143   0.426
 5841SOL    HW218423   5.171   1.223   0.565
 5842SOL     OW18424   2.857   1.774   0.974
 5842SOL    HW118425   2.799   1.852   0.952
 5842SOL    HW218426   2.843   1.702   0.906
 5843SOL     OW18427   2.894   3.499   0.879
 5843SOL    HW118428   2.979   3.486   0.828
 5843SOL    HW218429   2.916   3.516   0.975
 5844SOL     OW18430   0.338   5.737   4.637
 5844SOL    HW118431   0.288   5.733   4.723
 5844SOL    HW218432   0.294   5.802   4.576
 5845SOL     OW18433   1.352   0.038   2.557
 5845SOL    HW118434   1.408   0.073   2.482
 5845SOL    HW218435   1.294   6.988   2.523
 5846SOL     OW18436   0.436   3.718   5.689
 5846SOL    HW118437   0.377   3.714   5.770
 5846SOL    HW218438   0.512   3.781   5.707
 5847SOL     OW18439   1.572   4.108   6.175
 5847SOL    HW118440   1.572   4.156   6.087
 5847SOL    HW218441   1.658   4.058   6.186
 5848SOL     OW18442   1.554   5.511   2.297
 5848SOL    HW118443   1.571   5.525   2.199
 5848SOL    HW218444   1.629   5.459   2.337
 5849SOL     OW18445   3.097   5.804   6.101
 5849SOL    HW118446   3.052   5.808   6.191
 5849SOL    HW218447   3.029   5.812   6.029
 5850SOL     OW18448   0.791   1.515   2.323
 5850SOL    HW118449   0.867   1.465   2.281
 5850SOL    HW218450   0.724   1.538   2.252
 5851SOL     OW18451   6.158   3.697   4.322
 5851SOL    HW118452   6.150   3.752   4.405
 5851SOL    HW218453   6.068   3.659   4.298
 5852SOL     OW18454   4.960   4.303   2.415
 5852SOL    HW118455   4.901   4.384   2.412
 5852SOL    HW218456   5.032   4.317   2.483
 5853SOL     OW18457   4.695   4.791   6.455
 5853SOL    HW118458   4.771   4.727   6.442
 5853SOL    HW218459   4.718   4.879   6.415
 5854SOL     OW18460   3.788   5.091   5.347
 5854SOL    HW118461   3.793   5.031   5.267
 5854SOL    HW218462   3.777   5.186   5.317
 5855SOL     OW18463   2.359   2.766   2.876
 5855SOL    HW118464   2.271   2.782   2.831
 5855SOL    HW218465   2.428   2.826   2.836
 5856SOL     OW18466   1.221   5.879   3.085
 5856SOL    HW118467   1.316   5.901   3.062
 5856SOL    HW218468   1.182   5.954   3.139
 5857SOL     OW18469   5.549   4.904   6.560
 5857SOL    HW118470   5.627   4.841   6.564
 5857SOL    HW218471   5.568   4.984   6.616
 5858SOL     OW18472   1.690   0.880   2.676
 5858SOL    HW118473   1.727   0.817   2.745
 5858SOL    HW218474   1.673   0.969   2.718
 5859SOL     OW18475   5.615   5.744   1.532
 5859SOL    HW118476   5.543   5.691   1.487
 5859SOL    HW218477   5.590   5.760   1.628
 5860SOL     OW18478   0.614   4.164   3.186
 5860SOL    HW118479   0.597   4.233   3.116
 5860SOL    HW218480   0.538   4.164   3.251
 5861SOL     OW18481   4.779   1.176   5.282
 5861SOL    HW118482   4.829   1.258   5.254
 5861SOL    HW218483   4.771   1.113   5.204
 5862SOL     OW18484   6.363   5.589   2.933
 5862SOL    HW118485   6.457   5.616   2.955
 5862SOL    HW218486   6.365   5.514   2.866
 5863SOL     OW18487   3.968   6.898   6.900
 5863SOL    HW118488   3.972   6.936   6.807
 5863SOL    HW218489   3.955   6.972   6.966
 5864SOL     OW18490   3.449   4.124   2.427
 5864SOL    HW118491   3.451   4.207   2.372
 5864SOL    HW218492   3.374   4.065   2.396
 5865SOL     OW18493   6.651   0.310   6.468
 5865SOL    HW118494   6.589   0.301   6.546
 5865SOL    HW218495   6.682   0.405   6.461
 5866SOL     OW18496   3.054   3.089   3.070
 5866SOL    HW118497   3.128   3.043   3.020
 5866SOL    HW218498   2.984   3.022   3.094
 5867SOL     OW18499   2.769   1.612   1.434
 5867SOL    HW118500   2.803   1.680   1.499
 5867SOL    HW218501   2.698   1.652   1.378
 5868SOL     OW18502   0.586   1.288   6.504
 5868SOL    HW118503   0.591   1.308   6.602
 5868SOL    HW218504   0.589   1.189   6.490
 5869SOL     OW18505   1.523   6.097   3.403
 5869SOL    HW118506   1.589   6.085   3.330
 5869SOL    HW218507   1.569   6.129   3.486
 5870SOL     OW18508   3.580   6.133   4.531
 5870SOL    HW118509   3.554   6.068   4.460
 5870SOL    HW218510   3.671   6.169   4.512
 5871SOL     OW18511   3.132   3.095   3.897
 5871SOL    HW118512   3.129   3.041   3.982
 5871SOL    HW218513   3.227   3.118   3.876
 5872SOL     OW18514   4.764   5.663   0.745
 5872SOL    HW118515   4.680   5.622   0.778
 5872SOL    HW218516   4.778   5.752   0.790
 5873SOL     OW18517   4.478   6.049   2.104
 5873SOL    HW118518   4.505   6.103   2.024
 5873SOL    HW218519   4.497   6.101   2.188
 5874SOL     OW18520   0.948   4.076   5.578
 5874SOL    HW118521   0.971   4.023   5.497
 5874SOL    HW218522   0.990   4.033   5.658
 5875SOL     OW18523   3.685   2.059   1.555
 5875SOL    HW118524   3.778   2.025   1.570
 5875SOL    HW218525   3.632   1.991   1.504
 5876SOL     OW18526   3.436   3.034   1.488
 5876SOL    HW118527   3.438   3.006   1.392
 5876SOL    HW218528   3.367   2.980   1.537
 5877SOL     OW18529   5.756   4.491   1.145
 5877SOL    HW118530   5.801   4.530   1.065
 5877SOL    HW218531   5.666   4.534   1.157
 5878SOL     OW18532   2.218   4.585   2.404
 5878SOL    HW118533   2.300   4.635   2.375
 5878SOL    HW218534   2.139   4.647   2.404
 5879SOL     OW18535   0.392   4.123   4.064
 5879SOL    HW118536   0.449   4.063   4.008
 5879SOL    HW218537   0.327   4.069   4.117
 5880SOL     OW18538   3.470   5.606   0.301
 5880SOL    HW118539   3.466   5.700   0.267
 5880SOL    HW218540   3.396   5.553   0.259
 5881SOL     OW18541   1.435   5.895   4.642
 5881SOL    HW118542   1.487   5.958   4.700
 5881SOL    HW218543   1.470   5.802   4.655
 5882SOL     OW18544   4.872   0.763   2.678
 5882SOL    HW118545   4.923   0.848   2.692
 5882SOL    HW218546   4.916   0.690   2.730
 5883SOL     OW18547   0.168   3.240   5.478
 5883SOL    HW118548   0.174   3.245   5.578
 5883SOL    HW218549   0.260   3.241   5.438
 5884SOL     OW18550   0.653   1.441   3.775
 5884SOL    HW118551   0.717   1.518   3.779
 5884SOL    HW218552   0.661   1.396   3.686
 5885SOL     OW18553   5.917   6.876   0.965
 5885SOL    HW118554   5.987   6.881   0.893
 5885SOL    HW218555   5.847   6.945   0.948
 5886SOL     OW18556   0.319   1.018   6.710
 5886SOL    HW118557   0.327   1.058   6.618
 5886SOL    HW218558   0.357   0.926   6.709
 5887SOL     OW18559   4.457   6.449   2.893
 5887SOL    HW118560   4.425   6.364   2.936
 5887SOL    HW218561   4.478   6.517   2.964
 5888SOL     OW18562   1.102   0.304   3.142
 5888SOL    HW118563   1.053   0.371   3.086
 5888SOL    HW218564   1.042   0.228   3.164
 5889SOL     OW18565   2.642   0.335   0.330
 5889SOL    HW118566   2.572   0.279   0.374
 5889SOL    HW218567   2.733   0.299   0.352
 5890SOL     OW18568   3.305   4.982   5.878
 5890SOL    HW118569   3.382   4.957   5.818
 5890SOL    HW218570   3.334   5.056   5.939
 5891SOL     OW18571   2.017   3.554   6.703
 5891SOL    HW118572   2.074   3.550   6.785
 5891SOL    HW218573   1.992   3.461   6.675
 5892SOL     OW18574   1.476   0.247   2.404
 5892SOL    HW118575   1.523   0.206   2.326
 5892SOL    HW218576   1.491   0.346   2.403
 5893SOL     OW18577   1.921   0.873   3.036
 5893SOL    HW118578   1.892   0.902   3.127
 5893SOL    HW218579   2.012   0.832   3.041
 5894SOL     OW18580   0.745   3.296   3.566
 5894SOL    HW118581   0.833   3.307   3.520
 5894SOL    HW218582   0.760   3.262   3.659
 5895SOL     OW18583   5.384   3.863   3.913
 5895SOL    HW118584   5.445   3.942   3.924
 5895SOL    HW218585   5.365   3.850   3.816
 5896SOL     OW18586   4.411   2.310   5.664
 5896SOL    HW118587   4.339   2.355   5.611
 5896SOL    HW218588   4.500   2.348   5.639
 5897SOL     OW18589   4.083   0.133   1.876
 5897SOL    HW118590   4.166   0.081   1.857
 5897SOL    HW218591   4.100   0.230   1.859
 5898SOL     OW18592   1.603   6.911   2.389
 5898SOL    HW118593   1.649   6.949   2.469
 5898SOL    HW218594   1.660   6.925   2.308
 5899SOL     OW18595   5.138   6.933   3.868
 5899SOL    HW118596   5.190   6.860   3.823
 5899SOL    HW218597   5.196   6.979   3.935
 5900SOL     OW18598   4.277   4.976   2.252
 5900SOL    HW118599   4.220   4.894   2.251
 5900SOL    HW218600   4.222   5.054   2.283
 5901SOL     OW18601   3.411   0.042   5.412
 5901SOL    HW118602   3.369   6.978   5.389
 5901SOL    HW218603   3.439   0.089   5.328
 5902SOL     OW18604   6.233   1.156   6.816
 5902SOL    HW118605   6.248   1.136   6.719
 5902SOL    HW218606   6.194   1.247   6.826
 5903SOL     OW18607   0.077   3.168   6.585
 5903SOL    HW118608   7.003   3.183   6.576
 5903SOL    HW218609   0.093   3.083   6.634
 5904SOL     OW18610   0.392   4.199   2.518
 5904SOL    HW118611   0.312   4.154   2.479
 5904SOL    HW218612   0.390   4.296   2.497
 5905SOL     OW18613   6.567   4.863   2.055
 5905SOL    HW118614   6.653   4.872   2.107
 5905SOL    HW218615   6.516   4.949   2.062
 5906SOL     OW18616   6.850   1.424   4.011
 5906SOL    HW118617   6.852   1.350   4.077
 5906SOL    HW218618   6.759   1.432   3.971
 5907SOL     OW18619   1.737   6.924   2.168
 5907SOL    HW118620   1.835   6.904   2.167
 5907SOL    HW218621   1.696   6.890   2.083
 5908SOL     OW18622   0.260   2.365   6.146
 5908SOL    HW118623   0.228   2.442   6.092
 5908SOL    HW218624   0.206   2.284   6.125
 5909SOL     OW18625   6.743   4.164   0.992
 5909SOL    HW118626   6.796   4.140   1.073
 5909SOL    HW218627   6.750   4.091   0.924
 5910SOL     OW18628   2.300   1.765   3.671
 5910SOL    HW118629   2.303   1.836   3.742
 5910SOL    HW218630   2.230   1.789   3.604
 5911SOL     OW18631   0.121   5.742   6.041
 5911SOL    HW118632   0.038   5.794   6.060
 5911SOL    HW218633   0.120   5.658   6.095
 5912SOL     OW18634   0.896   0.982   3.844
 5912SOL    HW118635   0.906   1.076   3.878
 5912SOL    HW218636   0.814   0.941   3.883
 5913SOL     OW18637   6.011   1.179   0.059
 5913SOL    HW118638   6.079   1.109   0.080
 5913SOL    HW218639   6.046   1.269   0.083
 5914SOL     OW18640   0.298   6.454   0.404
 5914SOL    HW118641   0.207   6.493   0.390
 5914SOL    HW218642   0.318   6.450   0.502
 5915SOL     OW18643   4.003   1.795   5.959
 5915SOL    HW118644   4.044   1.886   5.969
 5915SOL    HW218645   3.993   1.753   6.049
 5916SOL     OW18646   0.698   6.548   2.237
 5916SOL    HW118647   0.635   6.625   2.244
 5916SOL    HW218648   0.773   6.570   2.175
 5917SOL     OW18649   3.256   4.877   0.678
 5917SOL    HW118650   3.216   4.967   0.699
 5917SOL    HW218651   3.185   4.816   0.643
 5918SOL     OW18652   2.784   6.489   5.437
 5918SOL    HW118653   2.800   6.400   5.480
 5918SOL    HW218654   2.728   6.477   5.355
 5919SOL     OW18655   3.200   3.268   4.474
 5919SOL    HW118656   3.200   3.207   4.554
 5919SOL    HW218657   3.212   3.362   4.504
 5920SOL     OW18658   5.727   0.657   5.499
 5920SOL    HW118659   5.729   0.656   5.599
 5920SOL    HW218660   5.678   0.738   5.468
 5921SOL     OW18661   2.962   4.407   6.434
 5921SOL    HW118662   2.996   4.383   6.343
 5921SOL    HW218663   2.866   4.379   6.443
 5922SOL     OW18664   4.920   3.480   2.701
 5922SOL    HW118665   4.924   3.501   2.603
 5922SOL    HW218666   4.907   3.382   2.714
 5923SOL     OW18667   6.423   0.305   3.480
 5923SOL    HW118668   6.341   0.271   3.527
 5923SOL    HW218669   6.505   0.267   3.524
 5924SOL     OW18670   5.503   6.952   3.326
 5924SOL    HW118671   5.499   6.876   3.262
 5924SOL    HW218672   5.476   6.920   3.417
 5925SOL     OW18673   4.441   0.384   1.335
 5925SOL    HW118674   4.367   0.366   1.270
 5925SOL    HW218675   4.431   0.477   1.372
 5926SOL     OW18676   4.902   4.885   4.001
 5926SOL    HW118677   4.803   4.869   3.997
 5926SOL    HW218678   4.924   4.971   3.954
 5927SOL     OW18679   0.806   4.648   1.932
 5927SOL    HW118680   0.761   4.650   2.022
 5927SOL    HW218681   0.896   4.604   1.941
 5928SOL     OW18682   2.784   0.723   0.068
 5928SOL    HW118683   2.824   0.815   0.061
 5928SOL    HW218684   2.696   0.721   0.019
 5929SOL     OW18685   1.692   0.864   6.672
 5929SOL    HW118686   1.656   0.841   6.763
 5929SOL    HW218687   1.631   0.929   6.628
 5930SOL     OW18688   1.536   3.421   2.238
 5930SOL    HW118689   1.483   3.452   2.317
 5930SOL    HW218690   1.573   3.501   2.190
 5931SOL     OW18691   5.079   6.549   2.748
 5931SOL    HW118692   4.999   6.515   2.796
 5931SOL    HW218693   5.078   6.649   2.748
 5932SOL     OW18694   2.901   0.861   6.206
 5932SOL    HW118695   2.860   0.946   6.174
 5932SOL    HW218696   2.881   0.848   6.303
 5933SOL     OW18697   6.270   6.270   4.052
 5933SOL    HW118698   6.328   6.225   4.120
 5933SOL    HW218699   6.215   6.340   4.097
 5934SOL     OW18700   3.332   3.670   6.614
 5934SOL    HW118701   3.348   3.585   6.564
 5934SOL    HW218702   3.301   3.649   6.707
 5935SOL     OW18703   1.314   6.008   5.949
 5935SOL    HW118704   1.383   5.936   5.942
 5935SOL    HW218705   1.223   5.968   5.942
 5936SOL     OW18706   3.093   3.086   2.232
 5936SOL    HW118707   3.108   3.176   2.191
 5936SOL    HW218708   3.034   3.031   2.172
 5937SOL     OW18709   0.300   3.301   1.431
 5937SOL    HW118710   0.398   3.321   1.434
 5937SOL    HW218711   0.250   3.372   1.480
 5938SOL     OW18712   0.537   4.662   4.225
 5938SOL    HW118713   0.518   4.564   4.224
 5938SOL    HW218714   0.617   4.681   4.282
 5939SOL     OW18715   3.497   1.114   4.975
 5939SOL    HW118716   3.481   1.047   4.903
 5939SOL    HW218717   3.485   1.206   4.938
 5940SOL     OW18718   5.472   5.784   2.217
 5940SOL    HW118719   5.558   5.739   2.194
 5940SOL    HW218720   5.480   5.882   2.198
 5941SOL     OW18721   0.211   2.636   2.612
 5941SOL    HW118722   0.152   2.673   2.683
 5941SOL    HW218723   0.306   2.659   2.632
 5942SOL     OW18724   5.056   3.026   6.106
 5942SOL    HW118725   5.063   3.105   6.045
 5942SOL    HW218726   5.106   2.949   6.068
 5943SOL     OW18727   3.055   4.319   1.633
 5943SOL    HW118728   2.985   4.350   1.699
 5943SOL    HW218729   3.066   4.220   1.641
 5944SOL     OW18730   6.988   3.641   6.752
 5944SOL    HW118731   6.947   3.647   6.843
 5944SOL    HW218732   0.002   3.730   6.727
 5945SOL     OW18733   6.792   5.909   4.834
 5945SOL    HW118734   6.846   5.843   4.782
 5945SOL    HW218735   6.816   6.001   4.805
 5946SOL     OW18736   3.068   4.168   0.594
 5946SOL    HW118737   3.074   4.107   0.516
 5946SOL    HW218738   2.975   4.204   0.602
 5947SOL     OW18739   3.759   3.412   4.728
 5947SOL    HW118740   3.857   3.395   4.733
 5947SOL    HW218741   3.727   3.395   4.635
 5948SOL     OW18742   5.051   3.653   1.753
 5948SOL    HW118743   5.040   3.577   1.816
 5948SOL    HW218744   5.093   3.730   1.800
 5949SOL     OW18745   0.015   4.182   2.758
 5949SOL    HW118746   6.962   4.175   2.695
 5949SOL    HW218747   0.074   4.101   2.746
 5950SOL     OW18748   4.080   0.326   4.953
 5950SOL    HW118749   4.001   0.381   4.929
 5950SOL    HW218750   4.093   0.327   5.052
 5951SOL     OW18751   0.527   3.585   6.476
 5951SOL    HW118752   0.484   3.579   6.386
 5951SOL    HW218753   0.624   3.606   6.465
 5952SOL     OW18754   4.097   4.631   0.907
 5952SOL    HW118755   4.031   4.681   0.962
 5952SOL    HW218756   4.181   4.685   0.899
 5953SOL     OW18757   6.738   2.817   5.108
 5953SOL    HW118758   6.811   2.750   5.097
 5953SOL    HW218759   6.774   2.897   5.157
 5954SOL     OW18760   1.864   6.116   4.263
 5954SOL    HW118761   1.802   6.063   4.320
 5954SOL    HW218762   1.812   6.186   4.214
 5955SOL     OW18763   5.251   3.509   0.674
 5955SOL    HW118764   5.250   3.416   0.637
 5955SOL    HW218765   5.292   3.509   0.765
 5956SOL     OW18766   5.373   2.559   5.432
 5956SOL    HW118767   5.428   2.476   5.433
 5956SOL    HW218768   5.312   2.559   5.353
 5957SOL     OW18769   0.517   1.730   2.995
 5957SOL    HW118770   0.501   1.779   2.909
 5957SOL    HW218771   0.614   1.709   3.004
 5958SOL     OW18772   3.599   7.010   2.382
 5958SOL    HW118773   3.632   7.023   2.289
 5958SOL    HW218774   3.652   0.042   2.445
 5959SOL     OW18775   5.094   2.632   4.325
 5959SOL    HW118776   5.017   2.574   4.298
 5959SOL    HW218777   5.088   2.651   4.423
 5960SOL     OW18778   3.932   0.362   6.127
 5960SOL    HW118779   4.005   0.408   6.077
 5960SOL    HW218780   3.844   0.383   6.084
 5961SOL     OW18781   2.731   2.371   3.299
 5961SOL    HW118782   2.690   2.460   3.319
 5961SOL    HW218783   2.756   2.326   3.385
 5962SOL     OW18784   5.158   6.115   0.882
 5962SOL    HW118785   5.124   6.187   0.822
 5962SOL    HW218786   5.240   6.147   0.931
 5963SOL     OW18787   3.276   4.547   0.027
 5963SOL    HW118788   3.300   4.577   6.959
 5963SOL    HW218789   3.232   4.623   0.076
 5964SOL     OW18790   2.631   6.751   2.629
 5964SOL    HW118791   2.673   6.680   2.685
 5964SOL    HW218792   2.647   6.731   2.532
 5965SOL     OW18793   1.849   0.743   6.928
 5965SOL    HW118794   1.881   0.738   6.834
 5965SOL    HW218795   1.761   0.791   6.931
 5966SOL     OW18796   2.374   0.956   4.606
 5966SOL    HW118797   2.424   1.013   4.540
 5966SOL    HW218798   2.309   0.898   4.558
 5967SOL     OW18799   3.315   1.722   4.468
 5967SOL    HW118800   3.241   1.710   4.402
 5967SOL    HW218801   3.355   1.813   4.457
 5968SOL     OW18802   5.849   2.571   1.729
 5968SOL    HW118803   5.851   2.634   1.651
 5968SOL    HW218804   5.754   2.555   1.756
 5969SOL     OW18805   5.352   0.581   0.128
 5969SOL    HW118806   5.271   0.560   0.182
 5969SOL    HW218807   5.353   0.679   0.105
 5970SOL     OW18808   0.229   3.075   0.771
 5970SOL    HW118809   0.274   2.990   0.794
 5970SOL    HW218810   0.154   3.091   0.836
 5971SOL     OW18811   6.963   6.633   3.719
 5971SOL    HW118812   0.035   6.618   3.746
 5971SOL    HW218813   6.907   6.646   3.801
 5972SOL     OW18814   4.851   4.908   0.906
 5972SOL    HW118815   4.759   4.947   0.903
 5972SOL    HW218816   4.847   4.809   0.890
 5973SOL     OW18817   2.771   2.045   2.646
 5973SOL    HW118818   2.835   2.123   2.647
 5973SOL    HW218819   2.679   2.078   2.666
 5974SOL     OW18820   5.316   2.042   5.599
 5974SOL    HW118821   5.290   2.113   5.534
 5974SOL    HW218822   5.343   2.084   5.686
 5975SOL     OW18823   4.817   5.008   0.418
 5975SOL    HW118824   4.811   4.962   0.330
 5975SOL    HW218825   4.725   5.031   0.451
 5976SOL     OW18826   2.434   3.433   5.846
 5976SOL    HW118827   2.457   3.343   5.807
 5976SOL    HW218828   2.501   3.456   5.917
 5977SOL     OW18829   6.127   4.169   0.404
 5977SOL    HW118830   6.215   4.199   0.365
 5977SOL    HW218831   6.097   4.086   0.357
 5978SOL     OW18832   2.650   3.950   0.436
 5978SOL    HW118833   2.714   4.002   0.379
 5978SOL    HW218834   2.590   3.895   0.377
 5979SOL     OW18835   5.755   0.652   1.650
 5979SOL    HW118836   5.764   0.739   1.602
 5979SOL    HW218837   5.683   0.598   1.607
 5980SOL     OW18838   2.907   2.994   1.125
 5980SOL    HW118839   2.823   2.968   1.173
 5980SOL    HW218840   2.946   3.075   1.169
 5981SOL     OW18841   3.161   2.563   0.838
 5981SOL    HW118842   3.136   2.475   0.797
 5981SOL    HW218843   3.217   2.615   0.773
 5982SOL     OW18844   5.701   2.897   0.991
 5982SOL    HW118845   5.705   2.994   1.015
 5982SOL    HW218846   5.684   2.889   0.892
 5983SOL     OW18847   6.962   0.912   3.217
 5983SOL    HW118848   6.868   0.914   3.250
 5983SOL    HW218849   6.987   0.818   3.193
 5984SOL     OW18850   6.131   0.054   3.776
 5984SOL    HW118851   6.116   0.107   3.859
 5984SOL    HW218852   6.152   6.983   3.800
 5985SOL     OW18853   6.045   3.144   3.040
 5985SOL    HW118854   6.000   3.195   2.967
 5985SOL    HW218855   6.079   3.208   3.110
 5986SOL     OW18856   4.098   3.785   4.921
 5986SOL    HW118857   4.154   3.840   4.982
 5986SOL    HW218858   4.057   3.844   4.851
 5987SOL     OW18859   6.844   0.055   5.362
 5987SOL    HW118860   6.777   0.058   5.436
 5987SOL    HW218861   6.868   6.984   5.342
 5988SOL     OW18862   1.261   2.538   6.271
 5988SOL    HW118863   1.338   2.577   6.322
 5988SOL    HW218864   1.225   2.459   6.320
 5989SOL     OW18865   0.642   6.064   6.276
 5989SOL    HW118866   0.656   6.119   6.358
 5989SOL    HW218867   0.705   6.095   6.204
 5990SOL     OW18868   3.549   5.022   1.805
 5990SOL    HW118869   3.560   4.930   1.844
 5990SOL    HW218870   3.602   5.030   1.721
 5991SOL     OW18871   4.928   6.841   1.182
 5991SOL    HW118872   4.919   6.750   1.221
 5991SOL    HW218873   4.846   6.862   1.128
 5992SOL     OW18874   3.902   6.195   2.265
 5992SOL    HW118875   3.967   6.119   2.269
 5992SOL    HW218876   3.882   6.226   2.358
 5993SOL     OW18877   6.208   1.895   0.458
 5993SOL    HW118878   6.198   1.798   0.480
 5993SOL    HW218879   6.302   1.924   0.476
 5994SOL     OW18880   0.589   3.727   0.391
 5994SOL    HW118881   0.599   3.628   0.379
 5994SOL    HW218882   0.679   3.769   0.386
 5995SOL     OW18883   4.870   3.987   1.499
 5995SOL    HW118884   4.778   4.023   1.484
 5995SOL    HW218885   4.868   3.887   1.500
 5996SOL     OW18886   2.651   5.614   1.409
 5996SOL    HW118887   2.690   5.532   1.449
 5996SOL    HW218888   2.668   5.615   1.311
 5997SOL     OW18889   6.150   0.170   4.020
 5997SOL    HW118890   6.164   0.269   4.020
 5997SOL    HW218891   6.138   0.138   4.114
 5998SOL     OW18892   5.992   6.397   1.288
 5998SOL    HW118893   6.051   6.341   1.230
 5998SOL    HW218894   5.992   6.360   1.381
 5999SOL     OW18895   5.258   2.844   1.476
 5999SOL    HW118896   5.221   2.804   1.560
 5999SOL    HW218897   5.319   2.919   1.499
 6000SOL     OW18898   0.582   4.023   1.173
 6000SOL    HW118899   0.539   3.986   1.256
 6000SOL    HW218900   0.590   3.951   1.104
 6001SOL     OW18901   6.685   5.155   5.809
 6001SOL    HW118902   6.611   5.170   5.875
 6001SOL    HW218903   6.742   5.237   5.804
 6002SOL     OW18904   6.117   4.749   5.112
 6002SOL    HW118905   6.053   4.739   5.188
 6002SOL    HW218906   6.068   4.734   5.026
 6003SOL     OW18907   0.986   2.618   4.805
 6003SOL    HW118908   1.078   2.583   4.820
 6003SOL    HW218909   0.983   2.667   4.718
 6004SOL     OW18910   4.753   2.835   4.521
 6004SOL    HW118911   4.701   2.786   4.450
 6004SOL    HW218912   4.749   2.783   4.607
 6005SOL     OW18913   3.878   5.236   6.566
 6005SOL    HW118914   3.861   5.289   6.483
 6005SOL    HW218915   3.959   5.272   6.613
 6006SOL     OW18916   2.966   6.075   6.089
 6006SOL    HW118917   2.960   6.018   6.007
 6006SOL    HW218918   2.914   6.032   6.163
 6007SOL     OW18919   2.608   5.730   6.333
 6007SOL    HW118920   2.648   5.669   6.264
 6007SOL    HW218921   2.512   5.706   6.347
 6008SOL     OW18922   3.459   3.994   6.237
 6008SOL    HW118923   3.416   3.904   6.234
 6008SOL    HW218924   3.454   4.037   6.147
 6009SOL     OW18925   3.694   4.858   3.065
 6009SOL    HW118926   3.763   4.888   2.999
 6009SOL    HW218927   3.734   4.857   3.157
 6010SOL     OW18928   0.682   5.773   4.414
 6010SOL    HW118929   0.599   5.717   4.412
 6010SOL    HW218930   0.722   5.769   4.506
 6011SOL     OW18931   6.407   2.077   1.452
 6011SOL    HW118932   6.348   2.144   1.497
 6011SOL    HW218933   6.457   2.025   1.521
 6012SOL     OW18934   6.811   0.351   5.916
 6012SOL    HW118935   6.830   0.370   6.012
 6012SOL    HW218936   6.748   0.274   5.909
 6013SOL     OW18937   6.065   1.635   2.192
 6013SOL    HW118938   6.051   1.545   2.233
 6013SOL    HW218939   6.077   1.625   2.093
 6014SOL     OW18940   3.619   3.707   3.786
 6014SOL    HW118941   3.548   3.740   3.848
 6014SOL    HW218942   3.669   3.785   3.749
 6015SOL     OW18943   5.589   1.450   4.180
 6015SOL    HW118944   5.600   1.350   4.178
 6015SOL    HW218945   5.601   1.485   4.087
 6016SOL     OW18946   4.819   1.015   4.333
 6016SOL    HW118947   4.790   1.093   4.388
 6016SOL    HW218948   4.773   1.017   4.244
 6017SOL     OW18949   6.869   2.164   5.150
 6017SOL    HW118950   6.936   2.223   5.105
 6017SOL    HW218951   6.824   2.214   5.224
 6018SOL     OW18952   2.534   1.080   5.260
 6018SOL    HW118953   2.629   1.106   5.244
 6018SOL    HW218954   2.531   0.992   5.306
 6019SOL     OW18955   6.670   3.794   6.865
 6019SOL    HW118956   6.634   3.753   6.782
 6019SOL    HW218957   6.703   3.722   6.926
 6020SOL     OW18958   0.955   4.799   6.661
 6020SOL    HW118959   0.966   4.818   6.759
 6020SOL    HW218960   1.044   4.797   6.617
 6021SOL     OW18961   5.325   6.775   3.715
 6021SOL    HW118962   5.355   6.680   3.719
 6021SOL    HW218963   5.282   6.793   3.626
 6022SOL     OW18964   6.274   1.763   1.693
 6022SOL    HW118965   6.334   1.707   1.636
 6022SOL    HW218966   6.180   1.731   1.684
 6023SOL     OW18967   4.050   0.529   2.250
 6023SOL    HW118968   4.115   0.514   2.175
 6023SOL    HW218969   4.054   0.625   2.279
 6024SOL     OW18970   1.138   5.899   0.217
 6024SOL    HW118971   1.073   5.830   0.182
 6024SOL    HW218972   1.220   5.899   0.160
 6025SOL     OW18973   3.237   0.515   4.469
 6025SOL    HW118974   3.295   0.435   4.483
 6025SOL    HW218975   3.280   0.595   4.512
 6026SOL     OW18976   5.940   4.706   4.895
 6026SOL    HW118977   5.953   4.638   4.823
 6026SOL    HW218978   5.851   4.749   4.884
 6027SOL     OW18979   5.919   4.087   6.615
 6027SOL    HW118980   5.970   4.157   6.666
 6027SOL    HW218981   5.971   4.061   6.534
 6028SOL     OW18982   5.782   5.699   6.354
 6028SOL    HW118983   5.786   5.645   6.438
 6028SOL    HW218984   5.729   5.650   6.285
 6029SOL     OW18985   2.174   0.801   3.034
 6029SOL    HW118986   2.250   0.811   2.970
 6029SOL    HW218987   2.158   0.704   3.052
 6030SOL     OW18988   5.553   3.572   4.327
 6030SOL    HW118989   5.572   3.512   4.250
 6030SOL    HW218990   5.630   3.634   4.340
 6031SOL     OW18991   0.529   6.169   4.903
 6031SOL    HW118992   0.525   6.072   4.929
 6031SOL    HW218993   0.466   6.186   4.827
 6032SOL     OW18994   3.482   6.115   3.254
 6032SOL    HW118995   3.420   6.193   3.248
 6032SOL    HW218996   3.444   6.037   3.205
 6033SOL     OW18997   1.767   1.754   2.618
 6033SOL    HW118998   1.696   1.794   2.560
 6033SOL    HW218999   1.850   1.740   2.564
 6034SOL     OW19000   0.627   0.232   0.410
 6034SOL    HW119001   0.639   0.225   0.311
 6034SOL    HW219002   0.530   0.239   0.433
 6035SOL     OW19003   2.153   0.611   2.743
 6035SOL    HW119004   2.175   0.604   2.840
 6035SOL    HW219005   2.121   0.523   2.709
 6036SOL     OW19006   6.816   3.101   1.138
 6036SOL    HW119007   6.893   3.161   1.162
 6036SOL    HW219008   6.793   3.044   1.218
 6037SOL     OW19009   5.136   1.824   7.016
 6037SOL    HW119010   5.135   1.924   7.018
 6037SOL    HW219011   5.052   1.792   6.971
 6038SOL     OW19012   0.323   1.797   5.779
 6038SOL    HW119013   0.274   1.869   5.828
 6038SOL    HW219014   0.417   1.826   5.762
 6039SOL     OW19015   3.706   3.369   3.346
 6039SOL    HW119016   3.758   3.450   3.319
 6039SOL    HW219017   3.732   3.292   3.287
 6040SOL     OW19018   0.614   1.427   0.347
 6040SOL    HW119019   0.541   1.461   0.405
 6040SOL    HW219020   0.576   1.399   0.258
 6041SOL     OW19021   2.496   3.180   5.788
 6041SOL    HW119022   2.531   3.142   5.874
 6041SOL    HW219023   2.505   3.113   5.715
 6042SOL     OW19024   3.441   5.937   3.643
 6042SOL    HW119025   3.409   5.942   3.549
 6042SOL    HW219026   3.453   6.030   3.680
 6043SOL     OW19027   2.448   0.174   3.561
 6043SOL    HW119028   2.496   0.118   3.494
 6043SOL    HW219029   2.487   0.266   3.563
 6044SOL     OW19030   0.869   3.238   1.556
 6044SOL    HW119031   0.780   3.192   1.559
 6044SOL    HW219032   0.923   3.212   1.636
 6045SOL     OW19033   4.868   1.772   3.130
 6045SOL    HW119034   4.782   1.820   3.112
 6045SOL    HW219035   4.917   1.817   3.204
 6046SOL     OW19036   3.502   2.840   2.388
 6046SOL    HW119037   3.565   2.809   2.317
 6046SOL    HW219038   3.554   2.861   2.471
 6047SOL     OW19039   6.205   1.832   1.180
 6047SOL    HW119040   6.280   1.801   1.238
 6047SOL    HW219041   6.208   1.783   1.093
 6048SOL     OW19042   6.173   5.999   4.443
 6048SOL    HW119043   6.141   5.923   4.387
 6048SOL    HW219044   6.273   6.001   4.442
 6049SOL     OW19045   4.473   5.031   5.503
 6049SOL    HW119046   4.539   5.095   5.462
 6049SOL    HW219047   4.522   4.968   5.563
 6050SOL     OW19048   3.540   6.118   1.561
 6050SOL    HW119049   3.517   6.045   1.625
 6050SOL    HW219050   3.639   6.133   1.561
 6051SOL     OW19051   0.758   1.432   3.311
 6051SOL    HW119052   0.743   1.379   3.228
 6051SOL    HW219053   0.856   1.444   3.326
 6052SOL     OW19054   5.053   6.442   0.512
 6052SOL    HW119055   5.153   6.447   0.512
 6052SOL    HW219056   5.016   6.517   0.567
 6053SOL     OW19057   3.969   2.928   6.506
 6053SOL    HW119058   4.018   2.931   6.419
 6053SOL    HW219059   4.034   2.932   6.581
 6054SOL     OW19060   4.043   4.170   0.886
 6054SOL    HW119061   4.070   4.258   0.848
 6054SOL    HW219062   3.968   4.183   0.951
 6055SOL     OW19063   3.321   4.286   0.531
 6055SOL    HW119064   3.370   4.274   0.444
 6055SOL    HW219065   3.278   4.200   0.557
 6056SOL     OW19066   5.333   5.935   4.677
 6056SOL    HW119067   5.356   5.905   4.585
 6056SOL    HW219068   5.396   6.009   4.704
 6057SOL     OW19069   4.479   7.004   4.227
 6057SOL    HW119070   4.513   0.018   4.141
 6057SOL    HW219071   4.380   7.017   4.233
 6058SOL     OW19072   5.539   2.481   5.867
 6058SOL    HW119073   5.466   2.512   5.806
 6058SOL    HW219074   5.500   2.433   5.945
 6059SOL     OW19075   4.090   2.876   0.033
 6059SOL    HW119076   4.076   2.925   0.119
 6059SOL    HW219077   4.172   2.910   7.012
 6060SOL     OW19078   2.655   3.203   0.014
 6060SOL    HW119079   2.575   3.202   6.979
 6060SOL    HW219080   2.732   3.159   6.991
 6061SOL     OW19081   3.414   5.265   0.021
 6061SOL    HW119082   3.492   5.203   0.033
 6061SOL    HW219083   3.438   5.336   6.979
 6062SOL     OW19084   1.887   2.197   7.020
 6062SOL    HW119085   1.980   2.213   6.987
 6062SOL    HW219086   1.864   2.100   7.009
 6063SOL     OW19087   4.700   3.936   6.262
 6063SOL    HW119088   4.648   3.950   6.347
 6063SOL    HW219089   4.746   4.021   6.236
 6064SOL     OW19090   0.417   5.598   1.089
 6064SOL    HW119091   0.428   5.647   1.003
 6064SOL    HW219092   0.322   5.568   1.098
 6065SOL     OW19093   0.851   6.785   2.501
 6065SOL    HW119094   0.840   6.820   2.595
 6065SOL    HW219095   0.930   6.724   2.497
 6066SOL     OW19096   5.393   5.603   3.246
 6066SOL    HW119097   5.392   5.549   3.331
 6066SOL    HW219098   5.301   5.635   3.226
 6067SOL     OW19099   5.696   6.777   6.126
 6067SOL    HW119100   5.785   6.788   6.082
 6067SOL    HW219101   5.640   6.857   6.108
 6068SOL     OW19102   4.579   1.822   5.001
 6068SOL    HW119103   4.575   1.905   5.058
 6068SOL    HW219104   4.492   1.810   4.954
 6069SOL     OW19105   0.168   3.676   6.261
 6069SOL    HW119106   0.120   3.681   6.349
 6069SOL    HW219107   0.202   3.767   6.237
 6070SOL     OW19108   2.808   1.356   0.621
 6070SOL    HW119109   2.739   1.397   0.681
 6070SOL    HW219110   2.764   1.291   0.559
 6071SOL     OW19111   6.189   0.737   5.816
 6071SOL    HW119112   6.215   0.647   5.852
 6071SOL    HW219113   6.113   0.726   5.752
 6072SOL     OW19114   6.953   2.746   0.534
 6072SOL    HW119115   6.934   2.663   0.586
 6072SOL    HW219116   7.000   2.723   0.449
 6073SOL     OW19117   4.543   2.543   0.482
 6073SOL    HW119118   4.504   2.499   0.401
 6073SOL    HW219119   4.607   2.614   0.453
 6074SOL     OW19120   0.477   6.406   2.164
 6074SOL    HW119121   0.488   6.348   2.084
 6074SOL    HW219122   0.561   6.460   2.178
 6075SOL     OW19123   4.936   6.876   6.666
 6075SOL    HW119124   5.009   6.935   6.631
 6075SOL    HW219125   4.848   6.923   6.658
 6076SOL     OW19126   1.460   5.120   3.484
 6076SOL    HW119127   1.369   5.161   3.488
 6076SOL    HW219128   1.483   5.082   3.574
 6077SOL     OW19129   5.013   6.600   1.792
 6077SOL    HW119130   4.994   6.508   1.827
 6077SOL    HW219131   4.951   6.619   1.716
 6078SOL     OW19132   3.897   3.579   0.857
 6078SOL    HW119133   3.893   3.579   0.757
 6078SOL    HW219134   3.991   3.566   0.888
 6079SOL     OW19135   3.432   3.526   6.848
 6079SOL    HW119136   3.446   3.563   6.940
 6079SOL    HW219137   3.334   3.511   6.832
 6080SOL     OW19138   6.995   4.788   6.886
 6080SOL    HW119139   6.922   4.856   6.892
 6080SOL    HW219140   6.954   4.696   6.884
 6081SOL     OW19141   1.524   3.554   4.133
 6081SOL    HW119142   1.574   3.620   4.188
 6081SOL    HW219143   1.556   3.461   4.155
 6082SOL     OW19144   4.761   0.871   0.999
 6082SOL    HW119145   4.770   0.888   0.901
 6082SOL    HW219146   4.670   0.899   1.030
 6083SOL     OW19147   4.480   0.363   6.470
 6083SOL    HW119148   4.525   0.366   6.381
 6083SOL    HW219149   4.549   0.360   6.543
 6084SOL     OW19150   0.350   6.608   2.725
 6084SOL    HW119151   0.268   6.569   2.683
 6084SOL    HW219152   0.338   6.613   2.824
 6085SOL     OW19153   0.578   6.610   0.902
 6085SOL    HW119154   0.673   6.631   0.925
 6085SOL    HW219155   0.575   6.560   0.816
 6086SOL     OW19156   3.595   4.113   6.426
 6086SOL    HW119157   3.546   4.077   6.346
 6086SOL    HW219158   3.628   4.036   6.481
 6087SOL     OW19159   5.098   6.758   0.932
 6087SOL    HW119160   5.002   6.782   0.937
 6087SOL    HW219161   5.149   6.832   0.888
 6088SOL     OW19162   5.517   5.845   3.140
 6088SOL    HW119163   5.469   5.811   3.059
 6088SOL    HW219164   5.484   5.797   3.221
 6089SOL     OW19165   6.443   3.927   3.600
 6089SOL    HW119166   6.384   3.896   3.525
 6089SOL    HW219167   6.448   4.027   3.600
 6090SOL     OW19168   3.916   6.058   4.115
 6090SOL    HW119169   3.991   6.063   4.181
 6090SOL    HW219170   3.865   6.144   4.118
 6091SOL     OW19171   1.704   1.255   2.127
 6091SOL    HW119172   1.783   1.194   2.135
 6091SOL    HW219173   1.681   1.292   2.218
 6092SOL     OW19174   3.392   6.133   1.343
 6092SOL    HW119175   3.430   6.119   1.434
 6092SOL    HW219176   3.292   6.133   1.347
 6093SOL     OW19177   2.407   2.027   1.992
 6093SOL    HW119178   2.386   1.941   1.945
 6093SOL    HW219179   2.387   2.103   1.931
 6094SOL     OW19180   0.328   6.189   4.701
 6094SOL    HW119181   0.387   6.196   4.620
 6094SOL    HW219182   0.274   6.273   4.709
 6095SOL     OW19183   4.739   5.169   1.339
 6095SOL    HW119184   4.670   5.099   1.360
 6095SOL    HW219185   4.732   5.243   1.406
 6096SOL     OW19186   5.635   6.518   2.983
 6096SOL    HW119187   5.673   6.466   2.906
 6096SOL    HW219188   5.543   6.485   3.004
 6097SOL     OW19189   1.859   5.430   1.954
 6097SOL    HW119190   1.926   5.504   1.964
 6097SOL    HW219191   1.769   5.463   1.985
 6098SOL     OW19192   6.698   1.105   4.947
 6098SOL    HW119193   6.702   1.205   4.942
 6098SOL    HW219194   6.614   1.073   4.902
 6099SOL     OW19195   3.864   0.689   6.257
 6099SOL    HW119196   3.773   0.651   6.273
 6099SOL    HW219197   3.856   0.785   6.230
 6100SOL     OW19198   0.475   6.344   5.126
 6100SOL    HW119199   0.444   6.284   5.052
 6100SOL    HW219200   0.538   6.412   5.090
 6101SOL     OW19201   6.614   3.010   1.407
 6101SOL    HW119202   6.647   2.916   1.415
 6101SOL    HW219203   6.576   3.025   1.316
 6102SOL     OW19204   4.516   6.633   2.616
 6102SOL    HW119205   4.445   6.684   2.663
 6102SOL    HW219206   4.605   6.655   2.656
 6103SOL     OW19207   0.094   1.628   1.747
 6103SOL    HW119208   0.049   1.555   1.695
 6103SOL    HW219209   0.097   1.711   1.692
 6104SOL     OW19210   6.809   0.572   4.111
 6104SOL    HW119211   6.887   0.620   4.152
 6104SOL    HW219212   6.773   0.627   4.036
 6105SOL     OW19213   3.171   4.650   5.323
 6105SOL    HW119214   3.096   4.620   5.265
 6105SOL    HW219215   3.188   4.581   5.394
 6106SOL     OW19216   6.245   5.329   6.148
 6106SOL    HW119217   6.200   5.326   6.237
 6106SOL    HW219218   6.189   5.379   6.083
 6107SOL     OW19219   5.784   4.873   5.648
 6107SOL    HW119220   5.743   4.951   5.600
 6107SOL    HW219221   5.747   4.867   5.741
 6108SOL     OW19222   2.326   1.777   0.908
 6108SOL    HW119223   2.424   1.758   0.910
 6108SOL    HW219224   2.281   1.726   0.981
 6109SOL     OW19225   6.273   7.000   3.409
 6109SOL    HW119226   6.199   7.019   3.345
 6109SOL    HW219227   6.273   0.045   3.482
 6110SOL     OW19228   2.136   1.928   4.615
 6110SOL    HW119229   2.179   1.897   4.700
 6110SOL    HW219230   2.131   1.851   4.551
 6111SOL     OW19231   2.104   4.732   0.875
 6111SOL    HW119232   2.172   4.755   0.944
 6111SOL    HW219233   2.112   4.636   0.851
 6112SOL     OW19234   5.376   0.145   2.350
 6112SOL    HW119235   5.327   0.215   2.297
 6112SOL    HW219236   5.313   0.070   2.372
 6113SOL     OW19237   2.159   5.768   6.946
 6113SOL    HW119238   2.091   5.749   6.876
 6113SOL    HW219239   2.169   5.687   7.005
 6114SOL     OW19240   5.132   1.590   1.246
 6114SOL    HW119241   5.156   1.678   1.288
 6114SOL    HW219242   5.086   1.533   1.314
 6115SOL     OW19243   0.933   0.488   5.395
 6115SOL    HW119244   0.967   0.559   5.334
 6115SOL    HW219245   0.922   0.525   5.487
 6116SOL     OW19246   5.185   1.791   5.506
 6116SOL    HW119247   5.254   1.860   5.529
 6116SOL    HW219248   5.175   1.786   5.407
 6117SOL     OW19249   1.578   2.438   0.826
 6117SOL    HW119250   1.543   2.525   0.863
 6117SOL    HW219251   1.519   2.363   0.855
 6118SOL     OW19252   6.284   0.439   0.398
 6118SOL    HW119253   6.324   0.508   0.338
 6118SOL    HW219254   6.322   0.349   0.377
 6119SOL     OW19255   6.718   1.762   1.042
 6119SOL    HW119256   6.729   1.684   1.103
 6119SOL    HW219257   6.796   1.824   1.052
 6120SOL     OW19258   2.372   0.546   5.185
 6120SOL    HW119259   2.340   0.639   5.203
 6120SOL    HW219260   2.298   0.493   5.144
 6121SOL     OW19261   0.620   2.994   4.454
 6121SOL    HW119262   0.648   3.090   4.442
 6121SOL    HW219263   0.652   2.961   4.543
 6122SOL     OW19264   5.367   5.303   6.005
 6122SOL    HW119265   5.339   5.383   6.058
 6122SOL    HW219266   5.294   5.234   6.008
 6123SOL     OW19267   5.531   1.650   4.866
 6123SOL    HW119268   5.470   1.633   4.943
 6123SOL    HW219269   5.491   1.719   4.806
 6124SOL     OW19270   2.673   6.683   3.919
 6124SOL    HW119271   2.624   6.770   3.913
 6124SOL    HW219272   2.612   6.609   3.891
 6125SOL     OW19273   2.044   2.143   6.716
 6125SOL    HW119274   2.104   2.063   6.714
 6125SOL    HW219275   1.952   2.116   6.744
 6126SOL     OW19276   6.385   2.803   5.523
 6126SOL    HW119277   6.328   2.859   5.462
 6126SOL    HW219278   6.337   2.789   5.610
 6127SOL     OW19279   3.910   2.134   1.803
 6127SOL    HW119280   3.835   2.196   1.823
 6127SOL    HW219281   3.989   2.157   1.860
 6128SOL     OW19282   6.076   5.776   0.527
 6128SOL    HW119283   5.994   5.752   0.475
 6128SOL    HW219284   6.153   5.720   0.497
 6129SOL     OW19285   1.507   5.404   2.759
 6129SOL    HW119286   1.522   5.469   2.685
 6129SOL    HW219287   1.571   5.424   2.833
 6130SOL     OW19288   5.742   2.068   0.652
 6130SOL    HW119289   5.774   1.987   0.603
 6130SOL    HW219290   5.783   2.071   0.743
 6131SOL     OW19291   6.670   1.690   2.526
 6131SOL    HW119292   6.713   1.657   2.443
 6131SOL    HW219293   6.740   1.709   2.595
 6132SOL     OW19294   3.457   1.426   6.453
 6132SOL    HW119295   3.389   1.451   6.522
 6132SOL    HW219296   3.428   1.343   6.406
 6133SOL     OW19297   1.822   1.593   3.837
 6133SOL    HW119298   1.800   1.499   3.865
 6133SOL    HW219299   1.894   1.591   3.768
 6134SOL     OW19300   5.757   6.715   6.595
 6134SOL    HW119301   5.712   6.805   6.590
 6134SOL    HW219302   5.846   6.720   6.549
 6135SOL     OW19303   6.358   0.006   0.085
 6135SOL    HW119304   6.283   0.072   0.097
 6135SOL    HW219305   6.372   7.016   7.011
 6136SOL     OW19306   1.530   3.008   2.518
 6136SOL    HW119307   1.609   3.067   2.501
 6136SOL    HW219308   1.536   2.927   2.460
 6137SOL     OW19309   6.830   4.308   1.919
 6137SOL    HW119310   6.770   4.380   1.884
 6137SOL    HW219311   6.847   4.240   1.847
 6138SOL     OW19312   3.582   0.157   1.883
 6138SOL    HW119313   3.591   0.254   1.861
 6138SOL    HW219314   3.594   0.145   1.982
 6139SOL     OW19315   1.808   0.605   5.699
 6139SOL    HW119316   1.891   0.596   5.644
 6139SOL    HW219317   1.731   0.633   5.641
 6140SOL     OW19318   1.548   0.092   3.243
 6140SOL    HW119319   1.614   0.018   3.230
 6140SOL    HW219320   1.479   0.089   3.171
 6141SOL     OW19321   0.470   0.965   5.747
 6141SOL    HW119322   0.459   0.878   5.698
 6141SOL    HW219323   0.447   0.952   5.844
 6142SOL     OW19324   0.460   0.373   1.376
 6142SOL    HW119325   0.417   0.464   1.373
 6142SOL    HW219326   0.408   0.314   1.438
 6143SOL     OW19327   6.952   4.185   5.380
 6143SOL    HW119328   6.997   4.273   5.365
 6143SOL    HW219329   6.898   4.161   5.299
 6144SOL     OW19330   4.160   5.039   3.197
 6144SOL    HW119331   4.092   5.089   3.143
 6144SOL    HW219332   4.249   5.083   3.188
 6145SOL     OW19333   5.219   3.096   4.179
 6145SOL    HW119334   5.240   3.056   4.090
 6145SOL    HW219335   5.209   3.195   4.169
 6146SOL     OW19336   5.364   6.917   5.129
 6146SOL    HW119337   5.407   6.914   5.039
 6146SOL    HW219338   5.292   6.848   5.134
 6147SOL     OW19339   1.825   2.330   3.685
 6147SOL    HW119340   1.852   2.353   3.592
 6147SOL    HW219341   1.906   2.308   3.739
 6148SOL     OW19342   3.461   5.845   0.175
 6148SOL    HW119343   3.559   5.864   0.174
 6148SOL    HW219344   3.413   5.920   0.221
 6149SOL     OW19345   2.896   0.169   1.771
 6149SOL    HW119346   2.834   0.108   1.721
 6149SOL    HW219347   2.990   0.155   1.739
 6150SOL     OW19348   6.402   4.109   6.137
 6150SOL    HW119349   6.464   4.107   6.059
 6150SOL    HW219350   6.402   4.200   6.178
 6151SOL     OW19351   4.421   4.544   4.413
 6151SOL    HW119352   4.368   4.506   4.337
 6151SOL    HW219353   4.371   4.621   4.453
 6152SOL     OW19354   1.074   5.043   4.112
 6152SOL    HW119355   1.046   4.970   4.175
 6152SOL    HW219356   1.030   5.129   4.139
 6153SOL     OW19357   5.234   5.205   0.933
 6153SOL    HW119358   5.223   5.111   0.965
 6153SOL    HW219359   5.277   5.205   0.842
 6154SOL     OW19360   5.978   3.338   2.239
 6154SOL    HW119361   5.957   3.388   2.155
 6154SOL    HW219362   5.904   3.275   2.260
 6155SOL     OW19363   1.608   1.733   3.070
 6155SOL    HW119364   1.560   1.733   2.982
 6155SOL    HW219365   1.565   1.798   3.132
 6156SOL     OW19366   5.102   4.819   1.416
 6156SOL    HW119367   5.032   4.749   1.404
 6156SOL    HW219368   5.089   4.865   1.504
 6157SOL     OW19369   1.250   2.412   2.327
 6157SOL    HW119370   1.292   2.367   2.406
 6157SOL    HW219371   1.152   2.395   2.327
 6158SOL     OW19372   3.059   3.049   5.513
 6158SOL    HW119373   3.117   3.007   5.583
 6158SOL    HW219374   3.002   3.120   5.554
 6159SOL     OW19375   5.956   2.903   0.560
 6159SOL    HW119376   5.938   2.809   0.531
 6159SOL    HW219377   6.013   2.949   0.492
 6160SOL     OW19378   0.749   0.198   0.141
 6160SOL    HW119379   0.817   0.205   0.067
 6160SOL    HW219380   0.684   0.126   0.120
 6161SOL     OW19381   4.601   2.843   6.553
 6161SOL    HW119382   4.601   2.847   6.653
 6161SOL    HW219383   4.641   2.927   6.516
 6162SOL     OW19384   6.361   5.555   3.236
 6162SOL    HW119385   6.339   5.576   3.141
 6162SOL    HW219386   6.438   5.491   3.239
 6163SOL     OW19387   5.509   5.698   3.654
 6163SOL    HW119388   5.472   5.787   3.680
 6163SOL    HW219389   5.595   5.682   3.702
 6164SOL     OW19390   3.467   4.166   4.822
 6164SOL    HW119391   3.372   4.187   4.799
 6164SOL    HW219392   3.488   4.204   4.912
 6165SOL     OW19393   3.882   1.733   0.466
 6165SOL    HW119394   3.872   1.832   0.458
 6165SOL    HW219395   3.976   1.711   0.494
 6166SOL     OW19396   1.432   2.005   6.588
 6166SOL    HW119397   1.394   2.065   6.517
 6166SOL    HW219398   1.524   2.036   6.611
 6167SOL     OW19399   1.198   4.008   3.249
 6167SOL    HW119400   1.194   4.012   3.349
 6167SOL    HW219401   1.179   4.099   3.212
 6168SOL     OW19402   0.210   3.966   4.232
 6168SOL    HW119403   0.118   3.973   4.195
 6168SOL    HW219404   0.220   3.880   4.282
 6169SOL     OW19405   2.477   6.754   0.297
 6169SOL    HW119406   2.448   6.790   0.208
 6169SOL    HW219407   2.568   6.790   0.318
 6170SOL     OW19408   3.676   4.652   6.853
 6170SOL    HW119409   3.658   4.631   6.757
 6170SOL    HW219410   3.670   4.567   6.906
 6171SOL     OW19411   2.102   4.302   2.529
 6171SOL    HW119412   2.133   4.397   2.527
 6171SOL    HW219413   2.170   4.244   2.484
 6172SOL     OW19414   1.105   6.246   2.735
 6172SOL    HW119415   1.027   6.307   2.724
 6172SOL    HW219416   1.108   6.181   2.659
 6173SOL     OW19417   1.313   5.840   2.561
 6173SOL    HW119418   1.233   5.815   2.615
 6173SOL    HW219419   1.393   5.789   2.594
 6174SOL     OW19420   5.522   5.213   3.197
 6174SOL    HW119421   5.530   5.311   3.180
 6174SOL    HW219422   5.432   5.181   3.168
 6175SOL     OW19423   5.035   0.180   3.209
 6175SOL    HW119424   5.100   0.227   3.269
 6175SOL    HW219425   4.997   0.245   3.143
 6176SOL     OW19426   6.323   3.533   5.857
 6176SOL    HW119427   6.257   3.587   5.804
 6176SOL    HW219428   6.372   3.471   5.796
 6177SOL     OW19429   5.933   2.247   0.236
 6177SOL    HW119430   5.958   2.335   0.196
 6177SOL    HW219431   5.974   2.173   0.183
 6178SOL     OW19432   5.835   3.495   0.944
 6178SOL    HW119433   5.849   3.523   1.039
 6178SOL    HW219434   5.924   3.477   0.901
 6179SOL     OW19435   6.970   2.469   5.724
 6179SOL    HW119436   0.030   2.434   5.764
 6179SOL    HW219437   6.925   2.531   5.790
 6180SOL     OW19438   4.284   6.818   0.939
 6180SOL    HW119439   4.190   6.792   0.920
 6180SOL    HW219440   4.288   6.875   1.021
 6181SOL     OW19441   5.037   6.478   6.781
 6181SOL    HW119442   4.999   6.393   6.818
 6181SOL    HW219443   5.118   6.458   6.727
 6182SOL     OW19444   4.956   6.579   6.496
 6182SOL    HW119445   4.993   6.487   6.484
 6182SOL    HW219446   4.857   6.577   6.487
 6183SOL     OW19447   3.566   0.377   3.215
 6183SOL    HW119448   3.598   0.471   3.201
 6183SOL    HW219449   3.493   0.357   3.150
 6184SOL     OW19450   0.236   6.934   6.432
 6184SOL    HW119451   0.161   6.869   6.422
 6184SOL    HW219452   0.269   6.961   6.342
 6185SOL     OW19453   7.015   3.620   6.057
 6185SOL    HW119454   7.014   3.520   6.055
 6185SOL    HW219455   0.048   3.650   6.133
 6186SOL     OW19456   5.395   0.568   4.992
 6186SOL    HW119457   5.361   0.655   5.026
 6186SOL    HW219458   5.348   0.543   4.908
 6187SOL     OW19459   4.538   4.591   4.098
 6187SOL    HW119460   4.590   4.562   4.179
 6187SOL    HW219461   4.563   4.685   4.075
 6188SOL     OW19462   2.598   6.514   1.320
 6188SOL    HW119463   2.569   6.580   1.390
 6188SOL    HW219464   2.664   6.557   1.259
 6189SOL     OW19465   5.303   4.917   3.676
 6189SOL    HW119466   5.372   4.847   3.662
 6189SOL    HW219467   5.270   4.913   3.770
 6190SOL     OW19468   5.524   2.520   6.935
 6190SOL    HW119469   5.511   2.572   6.850
 6190SOL    HW219470   5.603   2.459   6.925
 6191SOL     OW19471   6.171   1.500   6.898
 6191SOL    HW119472   6.124   1.583   6.869
 6191SOL    HW219473   6.270   1.515   6.895
 6192SOL     OW19474   2.870   2.842   6.716
 6192SOL    HW119475   2.935   2.831   6.641
 6192SOL    HW219476   2.912   2.810   6.801
 6193SOL     OW19477   5.014   0.329   1.682
 6193SOL    HW119478   4.945   0.298   1.616
 6193SOL    HW219479   5.068   0.403   1.641
 6194SOL     OW19480   2.313   0.650   0.331
 6194SOL    HW119481   2.283   0.601   0.249
 6194SOL    HW219482   2.346   0.741   0.305
 6195SOL     OW19483   3.236   0.456   6.475
 6195SOL    HW119484   3.179   0.378   6.500
 6195SOL    HW219485   3.183   0.519   6.417
 6196SOL     OW19486   0.564   1.386   6.267
 6196SOL    HW119487   0.560   1.336   6.353
 6196SOL    HW219488   0.568   1.321   6.191
 6197SOL     OW19489   2.266   3.499   0.466
 6197SOL    HW119490   2.303   3.481   0.557
 6197SOL    HW219491   2.341   3.522   0.404
 6198SOL     OW19492   3.814   4.888   2.427
 6198SOL    HW119493   3.746   4.846   2.367
 6198SOL    HW219494   3.814   4.987   2.413
 6199SOL     OW19495   1.631   6.688   0.006
 6199SOL    HW119496   1.564   6.760   0.024
 6199SOL    HW219497   1.628   6.663   6.934
 6200SOL     OW19498   4.197   1.131   6.536
 6200SOL    HW119499   4.118   1.138   6.475
 6200SOL    HW219500   4.279   1.114   6.482
 6201SOL     OW19501   2.062   4.023   5.569
 6201SOL    HW119502   2.009   4.010   5.653
 6201SOL    HW219503   2.160   4.026   5.592
 6202SOL     OW19504   3.461   1.692   0.834
 6202SOL    HW119505   3.468   1.784   0.872
 6202SOL    HW219506   3.399   1.637   0.890
 6203SOL     OW19507   5.082   1.082   4.046
 6203SOL    HW119508   5.104   1.048   4.138
 6203SOL    HW219509   4.985   1.109   4.044
 6204SOL     OW19510   2.133   6.256   5.462
 6204SOL    HW119511   2.232   6.264   5.476
 6204SOL    HW219512   2.088   6.247   5.551
 6205SOL     OW19513   5.043   5.836   6.970
 6205SOL    HW119514   4.988   5.796   6.896
 6205SOL    HW219515   5.076   5.926   6.941
 6206SOL     OW19516   5.621   0.007   2.565
 6206SOL    HW119517   5.660   0.028   2.655
 6206SOL    HW219518   5.645   0.080   2.500
 6207SOL     OW19519   1.499   4.188   4.986
 6207SOL    HW119520   1.544   4.162   4.901
 6207SOL    HW219521   1.412   4.234   4.966
 6208SOL     OW19522   5.880   6.432   6.086
 6208SOL    HW119523   5.866   6.511   6.145
 6208SOL    HW219524   5.941   6.367   6.131
 6209SOL     OW19525   4.109   6.538   0.662
 6209SOL    HW119526   4.088   6.622   0.712
 6209SOL    HW219527   4.099   6.460   0.723
 6210SOL     OW19528   5.608   4.321   3.611
 6210SOL    HW119529   5.560   4.253   3.556
 6210SOL    HW219530   5.701   4.334   3.575
 6211SOL     OW19531   2.885   6.898   4.494
 6211SOL    HW119532   2.826   6.978   4.507
 6211SOL    HW219533   2.832   6.823   4.456
 6212SOL     OW19534   6.738   6.647   3.896
 6212SOL    HW119535   6.677   6.660   3.817
 6212SOL    HW219536   6.705   6.571   3.951
 6213SOL     OW19537   6.336   0.450   6.619
 6213SOL    HW119538   6.259   0.387   6.608
 6213SOL    HW219539   6.352   0.500   6.534
 6214SOL     OW19540   6.696   4.511   2.801
 6214SOL    HW119541   6.763   4.442   2.827
 6214SOL    HW219542   6.604   4.474   2.811
 6215SOL     OW19543   3.071   2.915   0.881
 6215SOL    HW119544   3.044   2.960   0.966
 6215SOL    HW219545   3.136   2.842   0.901
 6216SOL     OW19546   5.532   1.598   2.256
 6216SOL    HW119547   5.625   1.635   2.263
 6216SOL    HW219548   5.508   1.551   2.340
 6217SOL     OW19549   5.076   2.850   1.219
 6217SOL    HW119550   5.128   2.852   1.304
 6217SOL    HW219551   5.052   2.756   1.196
 6218SOL     OW19552   2.498   5.063   4.535
 6218SOL    HW119553   2.558   4.984   4.546
 6218SOL    HW219554   2.530   5.118   4.457
 6219SOL     OW19555   0.913   2.416   5.211
 6219SOL    HW119556   0.960   2.425   5.123
 6219SOL    HW219557   0.818   2.443   5.201
 6220SOL     OW19558   2.025   4.733   5.122
 6220SOL    HW119559   1.995   4.642   5.152
 6220SOL    HW219560   1.986   4.803   5.182
 6221SOL     OW19561   3.825   4.940   4.323
 6221SOL    HW119562   3.746   4.965   4.378
 6221SOL    HW219563   3.899   4.909   4.383
 6222SOL     OW19564   6.694   6.960   1.702
 6222SOL    HW119565   6.736   0.026   1.694
 6222SOL    HW219566   6.595   6.969   1.696
 6223SOL     OW19567   5.366   2.795   4.714
 6223SOL    HW119568   5.376   2.768   4.810
 6223SOL    HW219569   5.274   2.831   4.698
 6224SOL     OW19570   2.823   1.578   5.262
 6224SOL    HW119571   2.795   1.555   5.169
 6224SOL    HW219572   2.823   1.677   5.273
 6225SOL     OW19573   3.730   3.082   0.526
 6225SOL    HW119574   3.706   3.018   0.453
 6225SOL    HW219575   3.712   3.039   0.615
 6226SOL     OW19576   5.579   0.737   4.574
 6226SOL    HW119577   5.624   0.651   4.599
 6226SOL    HW219578   5.633   0.814   4.607
 6227SOL     OW19579   3.664   4.684   5.932
 6227SOL    HW119580   3.684   4.780   5.916
 6227SOL    HW219581   3.620   4.645   5.851
 6228SOL     OW19582   0.176   0.959   3.073
 6228SOL    HW119583   0.161   1.056   3.053
 6228SOL    HW219584   0.116   0.931   3.148
 6229SOL     OW19585   2.387   2.681   2.423
 6229SOL    HW119586   2.379   2.585   2.448
 6229SOL    HW219587   2.484   2.706   2.415
 6230SOL     OW19588   2.210   2.454   4.112
 6230SOL    HW119589   2.180   2.365   4.145
 6230SOL    HW219590   2.260   2.444   4.026
 6231SOL     OW19591   0.156   5.379   1.516
 6231SOL    HW119592   0.256   5.382   1.506
 6231SOL    HW219593   0.120   5.301   1.465
 6232SOL     OW19594   0.294   0.682   0.603
 6232SOL    HW119595   0.280   0.632   0.517
 6232SOL    HW219596   0.328   0.774   0.583
 6233SOL     OW19597   4.535   2.283   6.804
 6233SOL    HW119598   4.565   2.377   6.788
 6233SOL    HW219599   4.524   2.237   6.716
 6234SOL     OW19600   2.070   1.809   3.922
 6234SOL    HW119601   2.062   1.714   3.892
 6234SOL    HW219602   1.991   1.832   3.979
 6235SOL     OW19603   2.402   0.342   2.777
 6235SOL    HW119604   2.335   0.380   2.841
 6235SOL    HW219605   2.475   0.408   2.762
 6236SOL     OW19606   0.072   4.049   0.733
 6236SOL    HW119607   0.053   4.143   0.707
 6236SOL    HW219608   7.010   4.004   0.761
 6237SOL     OW19609   4.321   6.976   1.162
 6237SOL    HW119610   4.337   0.040   1.117
 6237SOL    HW219611   4.276   6.991   1.250
 6238SOL     OW19612   4.645   5.456   1.080
 6238SOL    HW119613   4.673   5.361   1.091
 6238SOL    HW219614   4.725   5.515   1.079
 6239SOL     OW19615   2.190   6.907   3.098
 6239SOL    HW119616   2.255   6.835   3.120
 6239SOL    HW219617   2.097   6.870   3.101
 6240SOL     OW19618   1.794   3.321   0.304
 6240SOL    HW119619   1.838   3.398   0.350
 6240SOL    HW219620   1.863   3.267   0.256
 6241SOL     OW19621   3.523   6.923   1.559
 6241SOL    HW119622   3.444   6.875   1.595
 6241SOL    HW219623   3.508   6.945   1.462
 6242SOL     OW19624   4.866   2.473   3.945
 6242SOL    HW119625   4.814   2.431   3.871
 6242SOL    HW219626   4.880   2.570   3.924
 6243SOL     OW19627   5.552   6.094   4.446
 6243SOL    HW119628   5.526   6.121   4.539
 6243SOL    HW219629   5.486   6.132   4.381
 6244SOL     OW19630   2.812   1.820   1.655
 6244SOL    HW119631   2.853   1.779   1.736
 6244SOL    HW219632   2.773   1.909   1.678
 6245SOL     OW19633   3.050   5.022   1.240
 6245SOL    HW119634   2.984   5.076   1.188
 6245SOL    HW219635   3.002   4.971   1.312
 6246SOL     OW19636   3.032   2.378   5.563
 6246SOL    HW119637   2.967   2.307   5.536
 6246SOL    HW219638   3.056   2.434   5.484
 6247SOL     OW19639   0.268   6.382   3.230
 6247SOL    HW119640   0.250   6.284   3.223
 6247SOL    HW219641   0.321   6.400   3.313
 6248SOL     OW19642   0.570   4.897   1.126
 6248SOL    HW119643   0.476   4.866   1.117
 6248SOL    HW219644   0.571   4.997   1.134
 6249SOL     OW19645   6.865   3.993   6.786
 6249SOL    HW119646   6.809   3.927   6.837
 6249SOL    HW219647   6.829   4.085   6.800
 6250SOL     OW19648   6.190   6.362   6.962
 6250SOL    HW119649   6.217   6.358   0.035
 6250SOL    HW219650   6.267   6.335   6.905
 6251SOL     OW19651   4.593   1.635   0.597
 6251SOL    HW119652   4.528   1.709   0.615
 6251SOL    HW219653   4.650   1.659   0.518
 6252SOL     OW19654   2.972   6.242   5.139
 6252SOL    HW119655   2.951   6.147   5.165
 6252SOL    HW219656   3.028   6.243   5.056
 6253SOL     OW19657   2.194   3.867   1.912
 6253SOL    HW119658   2.117   3.928   1.931
 6253SOL    HW219659   2.258   3.869   1.989
 6254SOL     OW19660   5.355   6.990   0.428
 6254SOL    HW119661   5.269   0.016   0.443
 6254SOL    HW219662   5.338   6.892   0.434
 6255SOL     OW19663   0.368   1.564   2.245
 6255SOL    HW119664   0.301   1.491   2.251
 6255SOL    HW219665   0.455   1.527   2.210
 6256SOL     OW19666   3.987   4.827   2.616
 6256SOL    HW119667   3.949   4.833   2.708
 6256SOL    HW219668   3.915   4.842   2.549
 6257SOL     OW19669   5.304   2.805   0.126
 6257SOL    HW119670   5.240   2.857   0.183
 6257SOL    HW219671   5.256   2.730   0.081
 6258SOL     OW19672   4.673   2.099   2.081
 6258SOL    HW119673   4.680   2.084   2.180
 6258SOL    HW219674   4.642   2.193   2.065
 6259SOL     OW19675   3.121   2.219   1.793
 6259SOL    HW119676   3.069   2.163   1.728
 6259SOL    HW219677   3.061   2.248   1.867
 6260SOL     OW19678   3.868   3.878   0.011
 6260SOL    HW119679   3.817   3.810   6.981
 6260SOL    HW219680   3.958   3.892   6.995
 6261SOL     OW19681   3.996   1.384   0.470
 6261SOL    HW119682   3.926   1.339   0.526
 6261SOL    HW219683   3.973   1.372   0.374
 6262SOL     OW19684   1.229   4.776   6.601
 6262SOL    HW119685   1.274   4.720   6.669
 6262SOL    HW219686   1.242   4.873   6.623
 6263SOL     OW19687   6.833   6.908   0.409
 6263SOL    HW119688   6.852   6.987   0.350
 6263SOL    HW219689   6.743   6.920   0.452
 6264SOL     OW19690   2.556   1.733   0.506
 6264SOL    HW119691   2.482   1.759   0.567
 6264SOL    HW219692   2.548   1.781   0.419
 6265SOL     OW19693   4.189   3.457   1.564
 6265SOL    HW119694   4.171   3.378   1.506
 6265SOL    HW219695   4.184   3.541   1.509
 6266SOL     OW19696   3.134   0.317   2.960
 6266SOL    HW119697   3.097   0.267   2.882
 6266SOL    HW219698   3.182   0.399   2.928
 6267SOL     OW19699   3.414   0.266   6.336
 6267SOL    HW119700   3.340   0.295   6.396
 6267SOL    HW219701   3.438   0.171   6.356
 6268SOL     OW19702   3.908   4.923   2.846
 6268SOL    HW119703   3.945   4.860   2.914
 6268SOL    HW219704   3.945   5.015   2.861
 6269SOL     OW19705   5.962   5.364   1.416
 6269SOL    HW119706   6.061   5.360   1.403
 6269SOL    HW219707   5.940   5.436   1.480
 6270SOL     OW19708   0.889   0.635   4.769
 6270SOL    HW119709   0.841   0.691   4.700
 6270SOL    HW219710   0.841   0.641   4.856
 6271SOL     OW19711   6.704   1.393   0.624
 6271SOL    HW119712   6.670   1.387   0.718
 6271SOL    HW219713   6.669   1.316   0.571
 6272SOL     OW19714   2.294   2.487   3.425
 6272SOL    HW119715   2.247   2.399   3.421
 6272SOL    HW219716   2.227   2.561   3.421
 6273SOL     OW19717   3.770   1.420   1.456
 6273SOL    HW119718   3.685   1.404   1.407
 6273SOL    HW219719   3.813   1.332   1.478
 6274SOL     OW19720   3.508   6.804   5.859
 6274SOL    HW119721   3.487   6.707   5.844
 6274SOL    HW219722   3.492   6.827   5.955
 6275SOL     OW19723   1.591   0.235   4.810
 6275SOL    HW119724   1.512   0.179   4.835
 6275SOL    HW219725   1.644   0.188   4.739
 6276SOL     OW19726   1.558   5.509   3.822
 6276SOL    HW119727   1.618   5.546   3.893
 6276SOL    HW219728   1.605   5.511   3.734
 6277SOL     OW19729   5.152   3.055   3.079
 6277SOL    HW119730   5.105   3.128   3.028
 6277SOL    HW219731   5.228   3.094   3.130
 6278SOL     OW19732   5.284   0.344   4.358
 6278SOL    HW119733   5.209   0.310   4.413
 6278SOL    HW219734   5.340   0.268   4.326
 6279SOL     OW19735   4.206   1.977   0.428
 6279SOL    HW119736   4.257   1.898   0.462
 6279SOL    HW219737   4.151   2.016   0.502
 6280SOL     OW19738   0.633   5.000   5.764
 6280SOL    HW119739   0.605   4.905   5.781
 6280SOL    HW219740   0.729   5.001   5.736
 6281SOL     OW19741   2.116   0.429   5.148
 6281SOL    HW119742   2.097   0.489   5.226
 6281SOL    HW219743   2.032   0.383   5.120
 6282SOL     OW19744   2.354   6.686   4.241
 6282SOL    HW119745   2.292   6.613   4.212
 6282SOL    HW219746   2.449   6.659   4.222
 6283SOL     OW19747   6.710   2.437   5.059
 6283SOL    HW119748   6.687   2.534   5.054
 6283SOL    HW219749   6.719   2.401   4.966
 6284SOL     OW19750   1.298   4.519   5.570
 6284SOL    HW119751   1.349   4.475   5.496
 6284SOL    HW219752   1.228   4.456   5.604
 6285SOL     OW19753   1.422   3.713   3.007
 6285SOL    HW119754   1.359   3.694   3.082
 6285SOL    HW219755   1.508   3.665   3.023
 6286SOL     OW19756   5.077   0.584   3.199
 6286SOL    HW119757   5.098   0.607   3.294
 6286SOL    HW219758   5.078   0.668   3.144
 6287SOL     OW19759   4.651   4.094   1.717
 6287SOL    HW119760   4.695   4.035   1.785
 6287SOL    HW219761   4.581   4.150   1.761
 6288SOL     OW19762   5.591   3.587   0.479
 6288SOL    HW119763   5.569   3.519   0.410
 6288SOL    HW219764   5.571   3.551   0.570
 6289SOL     OW19765   1.652   1.591   3.623
 6289SOL    HW119766   1.679   1.618   3.715
 6289SOL    HW219767   1.674   1.666   3.559
 6290SOL     OW19768   4.852   3.975   3.457
 6290SOL    HW119769   4.787   4.040   3.417
 6290SOL    HW219770   4.913   3.941   3.385
 6291SOL     OW19771   3.320   4.092   3.646
 6291SOL    HW119772   3.276   4.051   3.725
 6291SOL    HW219773   3.326   4.192   3.658
 6292SOL     OW19774   1.310   1.222   2.245
 6292SOL    HW119775   1.401   1.193   2.272
 6292SOL    HW219776   1.312   1.254   2.150
 6293SOL     OW19777   4.652   0.036   0.451
 6293SOL    HW119778   4.641   7.016   0.361
 6293SOL    HW219779   4.575   0.099   0.466
 6294SOL     OW19780   4.422   5.081   3.020
 6294SOL    HW119781   4.470   5.034   3.094
 6294SOL    HW219782   4.404   5.176   3.047
 6295SOL     OW19783   6.053   6.142   6.175
 6295SOL    HW119784   6.021   6.146   6.080
 6295SOL    HW219785   5.975   6.153   6.237
 6296SOL     OW19786   6.151   0.928   2.890
 6296SOL    HW119787   6.084   0.931   2.964
 6296SOL    HW219788   6.243   0.916   2.928
 6297SOL     OW19789   5.926   6.293   5.668
 6297SOL    HW119790   6.016   6.336   5.659
 6297SOL    HW219791   5.859   6.343   5.614
 6298SOL     OW19792   0.717   2.877   5.130
 6298SOL    HW119793   0.734   2.930   5.048
 6298SOL    HW219794   0.637   2.818   5.116
 6299SOL     OW19795   6.418   2.901   6.657
 6299SOL    HW119796   6.375   2.961   6.724
 6299SOL    HW219797   6.399   2.806   6.681
 6300SOL     OW19798   4.908   0.712   3.561
 6300SOL    HW119799   4.820   0.664   3.563
 6300SOL    HW219800   4.983   0.645   3.561
 6301SOL     OW19801   3.105   6.813   0.786
 6301SOL    HW119802   3.049   6.764   0.853
 6301SOL    HW219803   3.089   6.911   0.794
 6302SOL     OW19804   1.516   1.245   3.187
 6302SOL    HW119805   1.541   1.253   3.090
 6302SOL    HW219806   1.433   1.190   3.195
 6303SOL     OW19807   1.960   6.185   4.954
 6303SOL    HW119808   1.985   6.280   4.937
 6303SOL    HW219809   1.870   6.180   4.998
 6304SOL     OW19810   2.763   1.171   6.855
 6304SOL    HW119811   2.727   1.079   6.869
 6304SOL    HW219812   2.861   1.171   6.876
 6305SOL     OW19813   6.750   0.018   1.268
 6305SOL    HW119814   6.735   0.005   1.170
 6305SOL    HW219815   6.823   6.981   1.298
 6306SOL     OW19816   6.457   3.006   3.749
 6306SOL    HW119817   6.482   3.000   3.653
 6306SOL    HW219818   6.478   2.920   3.795
 6307SOL     OW19819   2.120   5.194   0.225
 6307SOL    HW119820   2.093   5.099   0.241
 6307SOL    HW219821   2.073   5.230   0.144
 6308SOL     OW19822   3.199   1.997   5.002
 6308SOL    HW119823   3.272   1.988   4.933
 6308SOL    HW219824   3.197   2.092   5.034
 6309SOL     OW19825   5.715   2.085   4.039
 6309SOL    HW119826   5.772   2.131   4.107
 6309SOL    HW219827   5.658   2.153   3.993
 6310SOL     OW19828   1.722   4.917   4.578
 6310SOL    HW119829   1.629   4.909   4.542
 6310SOL    HW219830   1.725   4.879   4.671
 6311SOL     OW19831   5.814   0.630   4.868
 6311SOL    HW119832   5.745   0.698   4.895
 6311SOL    HW219833   5.836   0.572   4.946
 6312SOL     OW19834   4.014   5.091   5.515
 6312SOL    HW119835   3.942   5.080   5.447
 6312SOL    HW219836   4.045   5.002   5.547
 6313SOL     OW19837   2.446   5.561   3.229
 6313SOL    HW119838   2.499   5.548   3.145
 6313SOL    HW219839   2.416   5.471   3.263
 6314SOL     OW19840   2.858   6.329   2.872
 6314SOL    HW119841   2.848   6.401   2.940
 6314SOL    HW219842   2.892   6.368   2.787
 6315SOL     OW19843   3.242   3.780   6.986
 6315SOL    HW119844   3.271   3.875   6.976
 6315SOL    HW219845   3.167   3.761   6.923
 6316SOL     OW19846   4.548   2.876   5.507
 6316SOL    HW119847   4.474   2.810   5.491
 6316SOL    HW219848   4.511   2.969   5.496
 6317SOL     OW19849   4.973   6.694   3.956
 6317SOL    HW119850   5.053   6.640   3.981
 6317SOL    HW219851   4.983   6.727   3.862
 6318SOL     OW19852   2.412   2.283   4.908
 6318SOL    HW119853   2.501   2.320   4.883
 6318SOL    HW219854   2.341   2.326   4.853
 6319SOL     OW19855   0.574   1.768   3.724
 6319SOL    HW119856   0.585   1.814   3.636
 6319SOL    HW219857   0.511   1.819   3.782
 6320SOL     OW19858   5.704   3.734   2.891
 6320SOL    HW119859   5.655   3.654   2.857
 6320SOL    HW219860   5.647   3.816   2.878
 6321SOL     OW19861   2.744   4.588   0.293
 6321SOL    HW119862   2.699   4.597   0.204
 6321SOL    HW219863   2.686   4.630   0.363
 6322SOL     OW19864   0.588   0.985   6.431
 6322SOL    HW119865   0.628   0.933   6.506
 6322SOL    HW219866   0.631   0.957   6.345
 6323SOL     OW19867   3.587   2.708   0.549
 6323SOL    HW119868   3.605   2.789   0.492
 6323SOL    HW219869   3.668   2.651   0.552
 6324SOL     OW19870   4.197   1.336   6.201
 6324SOL    HW119871   4.250   1.403   6.253
 6324SOL    HW219872   4.134   1.289   6.262
 6325SOL     OW19873   0.739   2.332   2.685
 6325SOL    HW119874   0.743   2.256   2.621
 6325SOL    HW219875   0.821   2.389   2.675
 6326SOL     OW19876   5.079   5.572   1.405
 6326SOL    HW119877   5.064   5.491   1.349
 6326SOL    HW219878   5.052   5.553   1.499
 6327SOL     OW19879   5.879   5.646   5.639
 6327SOL    HW119880   5.827   5.666   5.722
 6327SOL    HW219881   5.817   5.644   5.561
 6328SOL     OW19882   3.081   3.912   6.550
 6328SOL    HW119883   3.172   3.955   6.553
 6328SOL    HW219884   3.012   3.981   6.529
 6329SOL     OW19885   0.850   1.701   3.238
 6329SOL    HW119886   0.943   1.663   3.237
 6329SOL    HW219887   0.792   1.643   3.294
 6330SOL     OW19888   3.926   1.276   0.215
 6330SOL    HW119889   3.953   1.267   0.119
 6330SOL    HW219890   3.965   1.200   0.267
 6331SOL     OW19891   6.456   2.382   1.682
 6331SOL    HW119892   6.554   2.362   1.686
 6331SOL    HW219893   6.419   2.384   1.775
 6332SOL     OW19894   6.079   5.758   1.610
 6332SOL    HW119895   6.138   5.701   1.667
 6332SOL    HW219896   6.103   5.747   1.514
 6333SOL     OW19897   3.893   4.858   3.276
 6333SOL    HW119898   3.875   4.870   3.374
 6333SOL    HW219899   3.970   4.916   3.249
 6334SOL     OW19900   1.939   1.049   2.508
 6334SOL    HW119901   1.865   0.990   2.540
 6334SOL    HW219902   2.015   0.993   2.476
 6335SOL     OW19903   6.736   1.430   6.530
 6335SOL    HW119904   6.835   1.430   6.517
 6335SOL    HW219905   6.710   1.505   6.591
 6336SOL     OW19906   6.876   2.725   4.382
 6336SOL    HW119907   6.849   2.809   4.428
 6336SOL    HW219908   6.846   2.646   4.436
 6337SOL     OW19909   6.211   4.737   5.820
 6337SOL    HW119910   6.117   4.705   5.820
 6337SOL    HW219911   6.213   4.835   5.799
 6338SOL     OW19912   3.643   1.248   3.238
 6338SOL    HW119913   3.557   1.198   3.241
 6338SOL    HW219914   3.711   1.194   3.188
 6339SOL     OW19915   0.189   1.820   3.960
 6339SOL    HW119916   0.100   1.778   3.978
 6339SOL    HW219917   0.247   1.754   3.913
 6340SOL     OW19918   2.375   5.359   4.311
 6340SOL    HW119919   2.297   5.302   4.335
 6340SOL    HW219920   2.342   5.444   4.270
 6341SOL     OW19921   0.238   4.497   3.519
 6341SOL    HW119922   0.291   4.532   3.596
 6341SOL    HW219923   0.259   4.549   3.437
 6342SOL     OW19924   1.017   2.499   1.149
 6342SOL    HW119925   0.968   2.585   1.159
 6342SOL    HW219926   1.029   2.457   1.239
 6343SOL     OW19927   3.608   1.348   6.841
 6343SOL    HW119928   3.558   1.264   6.821
 6343SOL    HW219929   3.545   1.425   6.844
 6344SOL     OW19930   0.851   4.461   4.280
 6344SOL    HW119931   0.826   4.542   4.333
 6344SOL    HW219932   0.823   4.473   4.185
 6345SOL     OW19933   3.748   1.275   2.210
 6345SOL    HW119934   3.800   1.341   2.263
 6345SOL    HW219935   3.728   1.313   2.119
 6346SOL     OW19936   0.604   4.160   3.659
 6346SOL    HW119937   0.572   4.097   3.730
 6346SOL    HW219938   0.595   4.254   3.691
 6347SOL     OW19939   3.064   0.088   0.803
 6347SOL    HW119940   2.976   0.072   0.847
 6347SOL    HW219941   3.113   0.161   0.851
 6348SOL     OW19942   0.686   3.284   4.317
 6348SOL    HW119943   0.605   3.284   4.376
 6348SOL    HW219944   0.669   3.343   4.238
 6349SOL     OW19945   2.710   0.610   0.323
 6349SOL    HW119946   2.737   0.644   0.233
 6349SOL    HW219947   2.696   0.511   0.317
 6350SOL     OW19948   1.582   5.977   2.136
 6350SOL    HW119949   1.678   5.949   2.137
 6350SOL    HW219950   1.525   5.900   2.109
 6351SOL     OW19951   7.011   1.615   2.493
 6351SOL    HW119952   6.939   1.591   2.429
 6351SOL    HW219953   6.976   1.682   2.559
 6352SOL     OW19954   0.293   5.455   2.040
 6352SOL    HW119955   0.317   5.358   2.028
 6352SOL    HW219956   0.200   5.461   2.075
 6353SOL     OW19957   0.365   0.027   0.910
 6353SOL    HW119958   0.391   6.955   0.901
 6353SOL    HW219959   0.346   0.065   0.820
 6354SOL     OW19960   0.640   6.580   3.308
 6354SOL    HW119961   0.661   6.672   3.275
 6354SOL    HW219962   0.684   6.512   3.249
 6355SOL     OW19963   1.985   2.812   3.177
 6355SOL    HW119964   2.007   2.867   3.097
 6355SOL    HW219965   1.989   2.715   3.154
 6356SOL     OW19966   3.584   4.108   1.574
 6356SOL    HW119967   3.526   4.124   1.494
 6356SOL    HW219968   3.675   4.079   1.544
 6357SOL     OW19969   4.420   2.151   0.442
 6357SOL    HW119970   4.510   2.120   0.412
 6357SOL    HW219971   4.349   2.101   0.391
 6358SOL     OW19972   0.104   2.363   3.380
 6358SOL    HW119973   0.091   2.305   3.460
 6358SOL    HW219974   0.181   2.329   3.326
 6359SOL     OW19975   6.982   0.493   6.487
 6359SOL    HW119976   6.897   0.473   6.437
 6359SOL    HW219977   6.974   0.582   6.531
 6360SOL     OW19978   2.971   5.532   4.191
 6360SOL    HW119979   3.054   5.500   4.146
 6360SOL    HW219980   2.904   5.458   4.194
 6361SOL     OW19981   4.336   5.780   6.088
 6361SOL    HW119982   4.410   5.840   6.120
 6361SOL    HW219983   4.254   5.835   6.071
 6362SOL     OW19984   5.914   5.263   6.078
 6362SOL    HW119985   5.880   5.227   5.992
 6362SOL    HW219986   5.932   5.361   6.069
 6363SOL     OW19987   1.416   5.981   4.370
 6363SOL    HW119988   1.323   5.945   4.364
 6363SOL    HW219989   1.451   5.968   4.463
 6364SOL     OW19990   2.549   2.781   5.790
 6364SOL    HW119991   2.536   2.859   5.729
 6364SOL    HW219992   2.460   2.743   5.814
 6365SOL     OW19993   4.780   6.560   2.969
 6365SOL    HW119994   4.701   6.613   3.003
 6365SOL    HW219995   4.804   6.593   2.878
 6366SOL     OW19996   0.474   5.578   5.043
 6366SOL    HW119997   0.496   5.673   5.064
 6366SOL    HW219998   0.376   5.569   5.029
 6367SOL     OW19999   5.291   6.682   4.251
 6367SOL    HW120000   5.375   6.735   4.267
 6367SOL    HW220001   5.220   6.712   4.315
 6368SOL     OW20002   3.099   6.944   4.651
 6368SOL    HW120003   3.016   6.902   4.615
 6368SOL    HW220004   3.081   0.015   4.674
 6369SOL     OW20005   2.417   4.928   4.139
 6369SOL    HW120006   2.332   4.972   4.167
 6369SOL    HW220007   2.438   4.853   4.201
 6370SOL     OW20008   6.022   2.307   1.425
 6370SOL    HW120009   5.958   2.369   1.380
 6370SOL    HW220010   6.103   2.296   1.367
 6371SOL     OW20011   4.788   2.314   2.368
 6371SOL    HW120012   4.712   2.365   2.327
 6371SOL    HW220013   4.875   2.356   2.340
 6372SOL     OW20014   2.977   5.905   2.029
 6372SOL    HW120015   3.067   5.947   2.046
 6372SOL    HW220016   2.917   5.922   2.107
 6373SOL     OW20017   4.499   4.007   6.439
 6373SOL    HW120018   4.404   3.980   6.430
 6373SOL    HW220019   4.505   4.092   6.492
 6374SOL     OW20020   2.950   3.275   2.869
 6374SOL    HW120021   2.991   3.228   2.948
 6374SOL    HW220022   2.929   3.369   2.893
 6375SOL     OW20023   1.473   6.390   2.730
 6375SOL    HW120024   1.488   6.408   2.827
 6375SOL    HW220025   1.396   6.444   2.697
 6376SOL     OW20026   6.663   2.287   5.279
 6376SOL    HW120027   6.680   2.331   5.367
 6376SOL    HW220028   6.660   2.357   5.207
 6377SOL     OW20029   0.596   1.205   4.503
 6377SOL    HW120030   0.617   1.247   4.592
 6377SOL    HW220031   0.595   1.276   4.433
 6378SOL     OW20032   4.673   4.218   4.147
 6378SOL    HW120033   4.703   4.306   4.185
 6378SOL    HW220034   4.673   4.223   4.048
 6379SOL     OW20035   2.342   4.263   3.489
 6379SOL    HW120036   2.338   4.176   3.538
 6379SOL    HW220037   2.295   4.255   3.401
 6380SOL     OW20038   0.233   0.750   6.047
 6380SOL    HW120039   0.295   0.752   6.126
 6380SOL    HW220040   0.139   0.760   6.079
 6381SOL     OW20041   3.172   4.061   3.033
 6381SOL    HW120042   3.169   4.069   3.133
 6381SOL    HW220043   3.144   4.148   2.992
 6382SOL     OW20044   1.323   3.330   5.799
 6382SOL    HW120045   1.384   3.384   5.858
 6382SOL    HW220046   1.306   3.381   5.715
 6383SOL     OW20047   2.576   1.118   4.231
 6383SOL    HW120048   2.635   1.178   4.176
 6383SOL    HW220049   2.543   1.042   4.174
 6384SOL     OW20050   0.002   4.573   3.025
 6384SOL    HW120051   0.099   4.599   3.021
 6384SOL    HW220052   7.006   4.505   2.955
 6385SOL     OW20053   0.452   5.071   4.695
 6385SOL    HW120054   0.426   5.110   4.607
 6385SOL    HW220055   0.534   5.117   4.729
 6386SOL     OW20056   2.911   4.960   1.491
 6386SOL    HW120057   2.826   4.913   1.469
 6386SOL    HW220058   2.979   4.894   1.521
 6387SOL     OW20059   6.269   0.833   5.502
 6387SOL    HW120060   6.354   0.842   5.449
 6387SOL    HW220061   6.287   0.857   5.597
 6388SOL     OW20062   3.230   4.853   2.360
 6388SOL    HW120063   3.298   4.834   2.431
 6388SOL    HW220064   3.276   4.868   2.273
 6389SOL     OW20065   1.125   5.400   3.351
 6389SOL    HW120066   1.135   5.500   3.349
 6389SOL    HW220067   1.198   5.358   3.298
 6390SOL     OW20068   0.769   3.177   3.820
 6390SOL    HW120069   0.770   3.077   3.823
 6390SOL    HW220070   0.838   3.213   3.884
 6391SOL     OW20071   2.904   1.831   0.108
 6391SOL    HW120072   3.003   1.816   0.097
 6391SOL    HW220073   2.854   1.760   0.059
 6392SOL     OW20074   1.831   6.508   4.099
 6392SOL    HW120075   1.806   6.412   4.087
 6392SOL    HW220076   1.774   6.548   4.171
 6393SOL     OW20077   6.209   5.968   0.189
 6393SOL    HW120078   6.293   6.004   0.227
 6393SOL    HW220079   6.136   5.973   0.258
 6394SOL     OW20080   2.412   5.037   0.486
 6394SOL    HW120081   2.363   5.083   0.559
 6394SOL    HW220082   2.347   5.011   0.414
 6395SOL     OW20083   6.462   1.619   0.943
 6395SOL    HW120084   6.535   1.688   0.948
 6395SOL    HW220085   6.461   1.565   1.027
 6396SOL     OW20086   4.996   4.413   5.584
 6396SOL    HW120087   5.070   4.475   5.611
 6396SOL    HW220088   5.031   4.320   5.579
 6397SOL     OW20089   6.875   1.351   0.880
 6397SOL    HW120090   6.905   1.305   0.796
 6397SOL    HW220091   6.778   1.335   0.894
 6398SOL     OW20092   3.314   1.535   1.355
 6398SOL    HW120093   3.364   1.620   1.368
 6398SOL    HW220094   3.378   1.458   1.354
 6399SOL     OW20095   2.226   5.522   6.758
 6399SOL    HW120096   2.279   5.516   6.673
 6399SOL    HW220097   2.139   5.567   6.740
 6400SOL     OW20098   2.615   5.602   3.684
 6400SOL    HW120099   2.700   5.599   3.737
 6400SOL    HW220100   2.635   5.583   3.588
 6401SOL     OW20101   0.462   4.772   3.950
 6401SOL    HW120102   0.447   4.736   4.042
 6401SOL    HW220103   0.446   4.870   3.949
 6402SOL     OW20104   2.416   0.876   2.902
 6402SOL    HW120105   2.478   0.853   2.827
 6402SOL    HW220106   2.376   0.967   2.886
 6403SOL     OW20107   0.734   5.332   6.884
 6403SOL    HW120108   0.743   5.234   6.868
 6403SOL    HW220109   0.803   5.362   6.950
 6404SOL     OW20110   5.447   1.337   3.472
 6404SOL    HW120111   5.349   1.327   3.486
 6404SOL    HW220112   5.465   1.410   3.406
 6405SOL     OW20113   2.801   1.573   2.335
 6405SOL    HW120114   2.857   1.645   2.376
 6405SOL    HW220115   2.779   1.505   2.405
 6406SOL     OW20116   2.426   1.601   3.872
 6406SOL    HW120117   2.402   1.668   3.801
 6406SOL    HW220118   2.509   1.631   3.919
 6407SOL     OW20119   3.887   5.442   5.809
 6407SOL    HW120120   3.955   5.378   5.845
 6407SOL    HW220121   3.810   5.390   5.772
 6408SOL     OW20122   5.930   1.207   6.809
 6408SOL    HW120123   5.861   1.135   6.796
 6408SOL    HW220124   5.972   1.196   6.899
 6409SOL     OW20125   0.715   4.079   1.919
 6409SOL    HW120126   0.763   3.995   1.895
 6409SOL    HW220127   0.715   4.091   2.019
 6410SOL     OW20128   1.448   1.211   0.973
 6410SOL    HW120129   1.482   1.135   0.917
 6410SOL    HW220130   1.513   1.287   0.970
 6411SOL     OW20131   0.719   1.300   3.550
 6411SOL    HW120132   0.775   1.217   3.559
 6411SOL    HW220133   0.743   1.347   3.466
 6412SOL     OW20134   0.326   2.492   5.178
 6412SOL    HW120135   0.253   2.559   5.191
 6412SOL    HW220136   0.302   2.432   5.101
 6413SOL     OW20137   6.904   4.207   0.503
 6413SOL    HW120138   6.825   4.223   0.562
 6413SOL    HW220139   6.983   4.257   0.539
 6414SOL     OW20140   5.824   6.547   2.580
 6414SOL    HW120141   5.815   6.549   2.480
 6414SOL    HW220142   5.775   6.624   2.620
 6415SOL     OW20143   1.671   1.331   1.708
 6415SOL    HW120144   1.611   1.294   1.779
 6415SOL    HW220145   1.624   1.403   1.658
 6416SOL     OW20146   1.263   0.655   6.316
 6416SOL    HW120147   1.245   0.682   6.221
 6416SOL    HW220148   1.239   0.559   6.329
 6417SOL     OW20149   0.680   6.849   3.281
 6417SOL    HW120150   0.603   6.908   3.307
 6417SOL    HW220151   0.762   6.879   3.330
 6418SOL     OW20152   6.452   6.137   2.191
 6418SOL    HW120153   6.472   6.097   2.281
 6418SOL    HW220154   6.455   6.237   2.198
 6419SOL     OW20155   3.426   4.974   1.487
 6419SOL    HW120156   3.469   5.042   1.547
 6419SOL    HW220157   3.434   4.883   1.529
 6420SOL     OW20158   2.276   4.359   6.571
 6420SOL    HW120159   2.370   4.332   6.593
 6420SOL    HW220160   2.240   4.298   6.501
 6421SOL     OW20161   5.733   1.324   1.460
 6421SOL    HW120162   5.744   1.235   1.417
 6421SOL    HW220163   5.720   1.313   1.559
 6422SOL     OW20164   5.936   1.289   3.402
 6422SOL    HW120165   5.841   1.295   3.372
 6422SOL    HW220166   5.990   1.241   3.332
 6423SOL     OW20167   5.140   3.565   0.421
 6423SOL    HW120168   5.056   3.618   0.435
 6423SOL    HW220169   5.195   3.567   0.505
 6424SOL     OW20170   6.847   4.287   5.779
 6424SOL    HW120171   6.926   4.342   5.749
 6424SOL    HW220172   6.788   4.344   5.837
 6425SOL     OW20173   0.790   4.941   2.265
 6425SOL    HW120174   0.714   4.966   2.325
 6425SOL    HW220175   0.871   4.994   2.290
 6426SOL     OW20176   0.946   2.647   3.519
 6426SOL    HW120177   1.032   2.696   3.534
 6426SOL    HW220178   0.935   2.577   3.590
 6427SOL     OW20179   1.806   3.639   5.084
 6427SOL    HW120180   1.890   3.584   5.094
 6427SOL    HW220181   1.793   3.695   5.166
 6428SOL     OW20182   6.864   3.607   2.238
 6428SOL    HW120183   6.816   3.601   2.325
 6428SOL    HW220184   6.881   3.515   2.203
 6429SOL     OW20185   1.231   0.121   3.872
 6429SOL    HW120186   1.260   0.035   3.829
 6429SOL    HW220187   1.261   0.122   3.968
 6430SOL     OW20188   5.737   2.307   0.976
 6430SOL    HW120189   5.700   2.216   0.957
 6430SOL    HW220190   5.834   2.298   1.000
 6431SOL     OW20191   5.431   6.798   2.553
 6431SOL    HW120192   5.482   6.883   2.557
 6431SOL    HW220193   5.452   6.751   2.467
 6432SOL     OW20194   4.897   3.282   0.884
 6432SOL    HW120195   4.986   3.326   0.897
 6432SOL    HW220196   4.844   3.289   0.968
 6433SOL     OW20197   3.066   4.036   1.657
 6433SOL    HW120198   3.022   4.042   1.567
 6433SOL    HW220199   3.088   3.941   1.678
 6434SOL     OW20200   1.379   4.136   0.721
 6434SOL    HW120201   1.402   4.232   0.701
 6434SOL    HW220202   1.452   4.094   0.774
 6435SOL     OW20203   4.243   3.997   6.512
 6435SOL    HW120204   4.154   3.995   6.467
 6435SOL    HW220205   4.250   3.919   6.575
 6436SOL     OW20206   1.729   2.810   3.708
 6436SOL    HW120207   1.781   2.732   3.744
 6436SOL    HW220208   1.743   2.817   3.609
 6437SOL     OW20209   1.449   0.095   6.672
 6437SOL    HW120210   1.521   0.048   6.621
 6437SOL    HW220211   1.397   0.154   6.610
 6438SOL     OW20212   0.895   4.005   3.871
 6438SOL    HW120213   0.903   4.027   3.774
 6438SOL    HW220214   0.858   3.913   3.881
 6439SOL     OW20215   1.513   6.778   1.393
 6439SOL    HW120216   1.432   6.824   1.427
 6439SOL    HW220217   1.578   6.846   1.358
 6440SOL     OW20218   1.491   1.713   2.817
 6440SOL    HW120219   1.449   1.800   2.843
 6440SOL    HW220220   1.471   1.693   2.721
 6441SOL     OW20221   2.207   1.117   3.511
 6441SOL    HW120222   2.146   1.194   3.530
 6441SOL    HW220223   2.166   1.059   3.440
 6442SOL     OW20224   2.660   1.635   4.044
 6442SOL    HW120225   2.609   1.579   4.109
 6442SOL    HW220226   2.757   1.610   4.048
 6443SOL     OW20227   2.656   2.210   0.416
 6443SOL    HW120228   2.703   2.295   0.441
 6443SOL    HW220229   2.714   2.155   0.358
 6444SOL     OW20230   0.467   1.282   3.179
 6444SOL    HW120231   0.447   1.365   3.128
 6444SOL    HW220232   0.557   1.247   3.152
 6445SOL     OW20233   3.910   2.998   5.491
 6445SOL    HW120234   3.964   3.075   5.457
 6445SOL    HW220235   3.813   3.019   5.482
 6446SOL     OW20236   6.485   1.306   6.971
 6446SOL    HW120237   6.580   1.280   6.990
 6446SOL    HW220238   6.437   1.321   0.034
 6447SOL     OW20239   1.528   0.520   2.435
 6447SOL    HW120240   1.557   0.487   2.525
 6447SOL    HW220241   1.581   0.601   2.410
 6448SOL     OW20242   5.497   2.485   3.175
 6448SOL    HW120243   5.490   2.386   3.163
 6448SOL    HW220244   5.439   2.531   3.108
 6449SOL     OW20245   3.111   3.357   0.782
 6449SOL    HW120246   3.132   3.267   0.745
 6449SOL    HW220247   3.190   3.391   0.834
 6450SOL     OW20248   6.146   3.477   0.860
 6450SOL    HW120249   6.185   3.518   0.943
 6450SOL    HW220250   6.192   3.513   0.780
 6451SOL     OW20251   2.862   5.971   5.144
 6451SOL    HW120252   2.897   5.879   5.164
 6451SOL    HW220253   2.792   5.964   5.072
 6452SOL     OW20254   3.412   6.510   4.047
 6452SOL    HW120255   3.428   6.552   3.958
 6452SOL    HW220256   3.351   6.432   4.038
 6453SOL     OW20257   1.741   5.992   6.253
 6453SOL    HW120258   1.653   6.021   6.290
 6453SOL    HW220259   1.764   5.901   6.289
 6454SOL     OW20260   3.377   1.351   4.577
 6454SOL    HW120261   3.457   1.411   4.575
 6454SOL    HW220262   3.326   1.366   4.661
 6455SOL     OW20263   5.899   2.754   5.173
 6455SOL    HW120264   5.857   2.703   5.099
 6455SOL    HW220265   5.982   2.800   5.140
 6456SOL     OW20266   0.323   0.317   3.370
 6456SOL    HW120267   0.358   0.408   3.393
 6456SOL    HW220268   0.396   0.262   3.329
 6457SOL     OW20269   6.609   2.462   0.725
 6457SOL    HW120270   6.698   2.503   0.744
 6457SOL    HW220271   6.553   2.463   0.808
 6458SOL     OW20272   1.498   5.781   3.110
 6458SOL    HW120273   1.459   5.736   3.030
 6458SOL    HW220274   1.562   5.719   3.155
 6459SOL     OW20275   5.397   4.440   6.624
 6459SOL    HW120276   5.408   4.538   6.640
 6459SOL    HW220277   5.357   4.397   6.705
 6460SOL     OW20278   3.440   4.976   6.475
 6460SOL    HW120279   3.380   4.916   6.528
 6460SOL    HW220280   3.390   5.059   6.451
 6461SOL     OW20281   3.731   5.002   4.742
 6461SOL    HW120282   3.745   5.101   4.747
 6461SOL    HW220283   3.803   4.961   4.686
 6462SOL     OW20284   2.056   3.775   4.596
 6462SOL    HW120285   2.068   3.696   4.656
 6462SOL    HW220286   2.116   3.849   4.626
 6463SOL     OW20287   1.811   3.985   6.116
 6463SOL    HW120288   1.852   3.962   6.028
 6463SOL    HW220289   1.852   3.928   6.188
 6464SOL     OW20290   0.569   5.415   2.806
 6464SOL    HW120291   0.640   5.367   2.754
 6464SOL    HW220292   0.483   5.364   2.801
 6465SOL     OW20293   6.461   1.650   3.435
 6465SOL    HW120294   6.422   1.611   3.519
 6465SOL    HW220295   6.496   1.576   3.377
 6466SOL     OW20296   7.013   2.381   5.031
 6466SOL    HW120297   0.083   2.388   4.996
 6466SOL    HW220298   6.961   2.462   5.003
 6467SOL     OW20299   2.538   1.097   6.495
 6467SOL    HW120300   2.462   1.126   6.553
 6467SOL    HW220301   2.503   1.061   6.408
 6468SOL     OW20302   5.075   5.682   0.965
 6468SOL    HW120303   5.037   5.626   0.892
 6468SOL    HW220304   5.012   5.683   1.043
 6469SOL     OW20305   6.878   1.255   5.461
 6469SOL    HW120306   6.865   1.156   5.451
 6469SOL    HW220307   6.926   1.290   5.381
 6470SOL     OW20308   6.215   6.980   5.779
 6470SOL    HW120309   6.136   6.920   5.770
 6470SOL    HW220310   6.186   0.051   5.764
 6471SOL     OW20311   6.004   5.005   6.077
 6471SOL    HW120312   6.098   4.995   6.109
 6471SOL    HW220313   5.966   5.091   6.112
 6472SOL     OW20314   0.843   5.840   1.975
 6472SOL    HW120315   0.846   5.901   2.053
 6472SOL    HW220316   0.750   5.837   1.938
 6473SOL     OW20317   1.941   1.915   6.522
 6473SOL    HW120318   1.979   1.823   6.518
 6473SOL    HW220319   1.841   1.910   6.512
 6474SOL     OW20320   1.579   3.121   5.017
 6474SOL    HW120321   1.578   3.219   4.998
 6474SOL    HW220322   1.604   3.105   5.112
 6475SOL     OW20323   4.062   6.322   4.095
 6475SOL    HW120324   4.013   6.295   4.012
 6475SOL    HW220325   4.026   6.410   4.128
 6476SOL     OW20326   4.553   4.753   2.545
 6476SOL    HW120327   4.572   4.801   2.630
 6476SOL    HW220328   4.573   4.813   2.467
 6477SOL     OW20329   6.697   5.823   0.394
 6477SOL    HW120330   6.633   5.752   0.424
 6477SOL    HW220331   6.784   5.812   0.443
 6478SOL     OW20332   5.343   6.529   1.474
 6478SOL    HW120333   5.367   6.450   1.531
 6478SOL    HW220334   5.424   6.586   1.459
 6479SOL     OW20335   4.109   5.188   2.319
 6479SOL    HW120336   4.012   5.175   2.341
 6479SOL    HW220337   4.123   5.283   2.289
 6480SOL     OW20338   2.929   2.455   0.226
 6480SOL    HW120339   3.025   2.478   0.242
 6480SOL    HW220340   2.874   2.497   0.298
 6481SOL     OW20341   4.400   0.890   1.369
 6481SOL    HW120342   4.355   0.842   1.293
 6481SOL    HW220343   4.369   0.985   1.372
 6482SOL     OW20344   6.855   0.038   6.580
 6482SOL    HW120345   6.877   6.979   6.630
 6482SOL    HW220346   6.939   0.090   6.562
 6483SOL     OW20347   1.080   6.788   2.702
 6483SOL    HW120348   1.120   6.797   2.794
 6483SOL    HW220349   0.990   6.830   2.701
 6484SOL     OW20350   4.749   6.633   3.607
 6484SOL    HW120351   4.670   6.579   3.577
 6484SOL    HW220352   4.731   6.730   3.588
 6485SOL     OW20353   1.820   2.351   3.137
 6485SOL    HW120354   1.851   2.441   3.105
 6485SOL    HW220355   1.880   2.280   3.099
 6486SOL     OW20356   1.631   3.519   3.593
 6486SOL    HW120357   1.720   3.551   3.561
 6486SOL    HW220358   1.625   3.532   3.692
 6487SOL     OW20359   5.894   6.665   4.067
 6487SOL    HW120360   5.857   6.662   4.160
 6487SOL    HW220361   5.900   6.572   4.030
 6488SOL     OW20362   3.382   5.461   5.705
 6488SOL    HW120363   3.309   5.448   5.637
 6488SOL    HW220364   3.344   5.451   5.797
 6489SOL     OW20365   2.061   1.993   5.348
 6489SOL    HW120366   2.083   1.912   5.401
 6489SOL    HW220367   2.099   2.074   5.394
 6490SOL     OW20368   3.699   1.550   0.546
 6490SOL    HW120369   3.761   1.626   0.528
 6490SOL    HW220370   3.723   1.507   0.633
 6491SOL     OW20371   4.199   1.963   6.864
 6491SOL    HW120372   4.181   1.968   6.766
 6491SOL    HW220373   4.116   1.935   6.912
 6492SOL     OW20374   6.051   6.108   7.015
 6492SOL    HW120375   6.096   6.041   0.051
 6492SOL    HW220376   6.109   6.190   7.009
 6493SOL     OW20377   1.223   6.433   5.971
 6493SOL    HW120378   1.162   6.476   5.905
 6493SOL    HW220379   1.269   6.355   5.929
 6494SOL     OW20380   0.955   0.679   3.294
 6494SOL    HW120381   0.880   0.699   3.356
 6494SOL    HW220382   1.039   0.665   3.347
 6495SOL     OW20383   5.538   4.847   3.005
 6495SOL    HW120384   5.449   4.840   3.051
 6495SOL    HW220385   5.524   4.866   2.908
 6496SOL     OW20386   0.708   0.163   2.496
 6496SOL    HW120387   0.659   0.076   2.507
 6496SOL    HW220388   0.806   0.146   2.504
 6497SOL     OW20389   1.527   4.106   0.313
 6497SOL    HW120390   1.491   4.028   0.262
 6497SOL    HW220391   1.487   4.190   0.277
 6498SOL     OW20392   2.349   4.466   3.994
 6498SOL    HW120393   2.375   4.389   3.935
 6498SOL    HW220394   2.276   4.437   4.056
 6499SOL     OW20395   5.592   1.252   3.692
 6499SOL    HW120396   5.519   1.292   3.637
 6499SOL    HW220397   5.679   1.298   3.670
 6500SOL     OW20398   4.778   4.537   3.710
 6500SOL    HW120399   4.873   4.526   3.737
 6500SOL    HW220400   4.766   4.512   3.614
 6501SOL     OW20401   6.537   3.990   1.268
 6501SOL    HW120402   6.629   3.962   1.296
 6501SOL    HW220403   6.539   4.085   1.235
 6502SOL     OW20404   0.975   5.393   2.918
 6502SOL    HW120405   0.951   5.361   3.009
 6502SOL    HW220406   1.029   5.476   2.925
 6503SOL     OW20407   4.613   6.772   4.577
 6503SOL    HW120408   4.561   6.857   4.566
 6503SOL    HW220409   4.558   6.705   4.626
 6504SOL     OW20410   3.035   0.817   0.594
 6504SOL    HW120411   3.073   0.814   0.687
 6504SOL    HW220412   2.995   0.727   0.572
 6505SOL     OW20413   6.112   4.981   1.297
 6505SOL    HW120414   6.118   4.895   1.348
 6505SOL    HW220415   6.118   5.058   1.360
 6506SOL     OW20416   2.248   2.881   1.214
 6506SOL    HW120417   2.272   2.819   1.289
 6506SOL    HW220418   2.199   2.960   1.251
 6507SOL     OW20419   2.114   6.937   1.789
 6507SOL    HW120420   2.028   6.889   1.806
 6507SOL    HW220421   2.106   6.992   1.706
 6508SOL     OW20422   2.559   2.032   3.149
 6508SOL    HW120423   2.510   1.991   3.071
 6508SOL    HW220424   2.515   2.118   3.174
 6509SOL     OW20425   0.802   2.814   4.269
 6509SOL    HW120426   0.720   2.860   4.302
 6509SOL    HW220427   0.879   2.835   4.328
 6510SOL     OW20428   6.102   4.802   6.401
 6510SOL    HW120429   6.166   4.878   6.412
 6510SOL    HW220430   6.146   4.729   6.348
 6511SOL     OW20431   6.546   6.311   6.446
 6511SOL    HW120432   6.532   6.213   6.455
 6511SOL    HW220433   6.610   6.342   6.517
 6512SOL     OW20434   4.852   6.420   3.747
 6512SOL    HW120435   4.811   6.492   3.692
 6512SOL    HW220436   4.792   6.399   3.825
 6513SOL     OW20437   3.858   6.441   2.433
 6513SOL    HW120438   3.870   6.462   2.336
 6513SOL    HW220439   3.821   6.520   2.480
 6514SOL     OW20440   4.000   0.164   4.089
 6514SOL    HW120441   4.043   0.115   4.013
 6514SOL    HW220442   3.977   0.257   4.060
 6515SOL     OW20443   0.647   0.054   4.961
 6515SOL    HW120444   0.735   0.077   5.001
 6515SOL    HW220445   0.597   0.137   4.940
 6516SOL     OW20446   0.816   1.647   5.362
 6516SOL    HW120447   0.904   1.617   5.325
 6516SOL    HW220448   0.766   1.568   5.398
 6517SOL     OW20449   0.928   1.260   0.090
 6517SOL    HW120450   0.908   1.355   0.115
 6517SOL    HW220451   0.952   1.255   7.017
 6518SOL     OW20452   6.597   6.571   1.545
 6518SOL    HW120453   6.508   6.617   1.550
 6518SOL    HW220454   6.583   6.472   1.537
 6519SOL     OW20455   1.920   2.187   4.299
 6519SOL    HW120456   1.924   2.087   4.305
 6519SOL    HW220457   1.842   2.220   4.352
 6520SOL     OW20458   5.874   5.599   1.522
 6520SOL    HW120459   5.952   5.651   1.558
 6520SOL    HW220460   5.790   5.652   1.534
 6521SOL     OW20461   0.111   1.605   5.052
 6521SOL    HW120462   0.182   1.676   5.056
 6521SOL    HW220463   0.028   1.638   5.096
 6522SOL     OW20464   2.458   5.503   6.113
 6522SOL    HW120465   2.423   5.595   6.097
 6522SOL    HW220466   2.518   5.476   6.038
 6523SOL     OW20467   2.023   1.926   6.235
 6523SOL    HW120468   2.016   1.968   6.326
 6523SOL    HW220469   2.106   1.872   6.230
 6524SOL     OW20470   4.141   3.483   3.504
 6524SOL    HW120471   4.124   3.448   3.412
 6524SOL    HW220472   4.136   3.408   3.570
 6525SOL     OW20473   0.491   2.803   3.763
 6525SOL    HW120474   0.473   2.850   3.677
 6525SOL    HW220475   0.562   2.852   3.814
 6526SOL     OW20476   1.225   6.393   5.083
 6526SOL    HW120477   1.266   6.423   4.997
 6526SOL    HW220478   1.130   6.424   5.087
 6527SOL     OW20479   1.480   7.008   4.728
 6527SOL    HW120480   1.489   6.909   4.714
 6527SOL    HW220481   1.432   0.024   4.650
 6528SOL     OW20482   0.114   1.308   4.676
 6528SOL    HW120483   0.016   1.294   4.662
 6528SOL    HW220484   0.159   1.220   4.684
 6529SOL     OW20485   6.851   1.598   2.015
 6529SOL    HW120486   6.949   1.619   2.021
 6529SOL    HW220487   6.839   1.504   1.985
 6530SOL     OW20488   0.080   1.791   0.575
 6530SOL    HW120489   0.002   1.730   0.585
 6530SOL    HW220490   0.140   1.782   0.654
 6531SOL     OW20491   4.840   3.074   4.445
 6531SOL    HW120492   4.816   2.983   4.479
 6531SOL    HW220493   4.939   3.084   4.444
 6532SOL     OW20494   6.716   1.632   6.275
 6532SOL    HW120495   6.708   1.571   6.354
 6532SOL    HW220496   6.801   1.611   6.226
 6533SOL     OW20497   4.599   0.133   1.443
 6533SOL    HW120498   4.538   0.211   1.433
 6533SOL    HW220499   4.693   0.164   1.444
 6534SOL     OW20500   2.098   3.832   1.085
 6534SOL    HW120501   2.087   3.931   1.080
 6534SOL    HW220502   2.175   3.804   1.028
 6535SOL     OW20503   0.538   3.649   5.432
 6535SOL    HW120504   0.526   3.720   5.363
 6535SOL    HW220505   0.510   3.684   5.521
 6536SOL     OW20506   6.188   2.246   0.044
 6536SOL    HW120507   6.190   2.224   0.142
 6536SOL    HW220508   6.263   2.199   7.023
 6537SOL     OW20509   0.541   6.786   7.015
 6537SOL    HW120510   0.592   6.871   0.006
 6537SOL    HW220511   0.500   6.756   0.078
 6538SOL     OW20512   2.922   3.122   0.019
 6538SOL    HW120513   2.959   3.030   0.004
 6538SOL    HW220514   2.981   3.188   6.997
 6539SOL     OW20515   2.287   1.654   6.787
 6539SOL    HW120516   2.233   1.581   6.831
 6539SOL    HW220517   2.382   1.623   6.777
 6540SOL     OW20518   2.655   1.500   5.029
 6540SOL    HW120519   2.621   1.583   4.986
 6540SOL    HW220520   2.743   1.475   4.988
 6541SOL     OW20521   2.274   2.562   6.241
 6541SOL    HW120522   2.232   2.639   6.193
 6541SOL    HW220523   2.240   2.476   6.203
 6542SOL     OW20524   5.987   4.182   4.074
 6542SOL    HW120525   5.887   4.175   4.072
 6542SOL    HW220526   6.024   4.109   4.132
 6543SOL     OW20527   6.629   5.953   6.775
 6543SOL    HW120528   6.572   5.940   6.856
 6543SOL    HW220529   6.653   6.049   6.765
 6544SOL     OW20530   6.198   6.552   4.168
 6544SOL    HW120531   6.290   6.572   4.202
 6544SOL    HW220532   6.190   6.585   4.074
 6545SOL     OW20533   4.977   1.668   5.645
 6545SOL    HW120534   4.976   1.672   5.745
 6545SOL    HW220535   5.065   1.700   5.611
 6546SOL     OW20536   3.139   4.763   5.994
 6546SOL    HW120537   3.075   4.802   6.061
 6546SOL    HW220538   3.203   4.834   5.965
 6547SOL     OW20539   5.112   2.077   6.999
 6547SOL    HW120540   5.186   2.144   7.005
 6547SOL    HW220541   5.037   2.104   0.034
 6548SOL     OW20542   0.027   4.757   5.706
 6548SOL    HW120543   0.095   4.829   5.711
 6548SOL    HW220544   6.961   4.794   5.731
 6549SOL     OW20545   3.508   1.964   0.938
 6549SOL    HW120546   3.525   2.026   1.013
 6549SOL    HW220547   3.432   1.998   0.882
 6550SOL     OW20548   0.716   5.912   3.296
 6550SOL    HW120549   0.796   5.851   3.287
 6550SOL    HW220550   0.676   5.926   3.206
 6551SOL     OW20551   2.074   4.920   1.829
 6551SOL    HW120552   2.065   4.905   1.927
 6551SOL    HW220553   2.155   4.975   1.811
 6552SOL     OW20554   3.283   5.238   5.472
 6552SOL    HW120555   3.237   5.304   5.412
 6552SOL    HW220556   3.219   5.205   5.541
 6553SOL     OW20557   0.936   3.330   2.769
 6553SOL    HW120558   0.945   3.239   2.728
 6553SOL    HW220559   0.917   3.321   2.867
 6554SOL     OW20560   6.839   2.377   5.496
 6554SOL    HW120561   6.887   2.383   5.408
 6554SOL    HW220562   6.897   2.416   5.568
 6555SOL     OW20563   0.687   0.999   1.917
 6555SOL    HW120564   0.772   1.011   1.865
 6555SOL    HW220565   0.705   1.014   2.014
 6556SOL     OW20566   3.864   6.003   4.691
 6556SOL    HW120567   3.824   6.074   4.633
 6556SOL    HW220568   3.833   6.015   4.785
 6557SOL     OW20569   6.711   5.139   1.133
 6557SOL    HW120570   6.687   5.233   1.106
 6557SOL    HW220571   6.809   5.125   1.121
 6558SOL     OW20572   6.472   5.641   6.728
 6558SOL    HW120573   6.384   5.613   6.768
 6558SOL    HW220574   6.544   5.635   6.797
 6559SOL     OW20575   4.029   3.768   0.668
 6559SOL    HW120576   4.043   3.788   0.765
 6559SOL    HW220577   3.942   3.807   0.638
 6560SOL     OW20578   3.848   2.140   0.310
 6560SOL    HW120579   3.892   2.052   0.291
 6560SOL    HW220580   3.916   2.213   0.306
 6561SOL     OW20581   4.002   3.226   3.364
 6561SOL    HW120582   4.020   3.141   3.313
 6561SOL    HW220583   3.987   3.204   3.461
 6562SOL     OW20584   6.452   3.978   6.407
 6562SOL    HW120585   6.452   3.908   6.336
 6562SOL    HW220586   6.422   4.065   6.366
 6563SOL     OW20587   0.952   5.317   1.902
 6563SOL    HW120588   0.963   5.292   1.998
 6563SOL    HW220589   0.886   5.391   1.894
 6564SOL     OW20590   0.991   5.022   2.030
 6564SOL    HW120591   0.900   5.056   2.007
 6564SOL    HW220592   1.009   5.038   2.126
 6565SOL     OW20593   6.564   2.774   6.107
 6565SOL    HW120594   6.580   2.754   6.204
 6565SOL    HW220595   6.482   2.726   6.077
 6566SOL     OW20596   3.420   6.789   0.977
 6566SOL    HW120597   3.368   6.714   0.936
 6566SOL    HW220598   3.468   6.756   1.058
 6567SOL     OW20599   5.520   2.828   1.658
 6567SOL    HW120600   5.583   2.857   1.586
 6567SOL    HW220601   5.547   2.738   1.691
 6568SOL     OW20602   4.019   4.175   1.378
 6568SOL    HW120603   3.953   4.131   1.318
 6568SOL    HW220604   4.107   4.185   1.331
 6569SOL     OW20605   1.009   4.330   6.802
 6569SOL    HW120606   0.966   4.370   6.883
 6569SOL    HW220607   1.091   4.279   6.829
 6570SOL     OW20608   5.871   2.119   1.611
 6570SOL    HW120609   5.777   2.135   1.640
 6570SOL    HW220610   5.902   2.196   1.555
 6571SOL     OW20611   2.691   5.569   3.416
 6571SOL    HW120612   2.615   5.549   3.354
 6571SOL    HW220613   2.776   5.535   3.375
 6572SOL     OW20614   0.572   4.322   5.769
 6572SOL    HW120615   0.546   4.320   5.672
 6572SOL    HW220616   0.495   4.354   5.823
 6573SOL     OW20617   2.267   1.490   2.258
 6573SOL    HW120618   2.245   1.533   2.345
 6573SOL    HW220619   2.312   1.557   2.198
 6574SOL     OW20620   3.195   4.868   3.011
 6574SOL    HW120621   3.290   4.886   3.035
 6574SOL    HW220622   3.138   4.872   3.093
 6575SOL     OW20623   0.848   1.885   2.752
 6575SOL    HW120624   0.751   1.865   2.763
 6575SOL    HW220625   0.884   1.835   2.673
 6576SOL     OW20626   1.193   5.946   6.437
 6576SOL    HW120627   1.114   5.887   6.421
 6576SOL    HW220628   1.214   5.997   6.355
 6577SOL     OW20629   6.607   2.460   3.673
 6577SOL    HW120630   6.547   2.396   3.625
 6577SOL    HW220631   6.656   2.411   3.746
 6578SOL     OW20632   6.332   4.985   3.740
 6578SOL    HW120633   6.264   4.945   3.801
 6578SOL    HW220634   6.415   4.929   3.742
 6579SOL     OW20635   6.844   3.979   3.112
 6579SOL    HW120636   6.848   4.078   3.126
 6579SOL    HW220637   6.810   3.935   3.195
 6580SOL     OW20638   5.996   2.103   2.067
 6580SOL    HW120639   6.048   2.164   2.007
 6580SOL    HW220640   6.057   2.036   2.108
 6581SOL     OW20641   2.984   1.874   6.612
 6581SOL    HW120642   3.073   1.919   6.606
 6581SOL    HW220643   2.979   1.819   6.695
 6582SOL     OW20644   6.247   0.451   2.912
 6582SOL    HW120645   6.244   0.430   2.814
 6582SOL    HW220646   6.229   0.367   2.964
 6583SOL     OW20647   5.313   1.519   6.045
 6583SOL    HW120648   5.382   1.460   6.087
 6583SOL    HW220649   5.295   1.598   6.105
 6584SOL     OW20650   5.807   1.851   6.505
 6584SOL    HW120651   5.745   1.805   6.569
 6584SOL    HW220652   5.901   1.834   6.532
 6585SOL     OW20653   1.060   1.363   6.887
 6585SOL    HW120654   1.026   1.456   6.873
 6585SOL    HW220655   1.137   1.366   6.950
 6586SOL     OW20656   6.374   2.228   6.110
 6586SOL    HW120657   6.286   2.183   6.091
 6586SOL    HW220658   6.401   2.210   6.205
 6587SOL     OW20659   2.219   6.502   3.223
 6587SOL    HW120660   2.164   6.476   3.144
 6587SOL    HW220661   2.271   6.422   3.255
 6588SOL     OW20662   1.360   2.996   0.185
 6588SOL    HW120663   1.271   3.037   0.166
 6588SOL    HW220664   1.432   3.061   0.161
 6589SOL     OW20665   4.298   1.590   5.622
 6589SOL    HW120666   4.211   1.569   5.666
 6589SOL    HW220667   4.326   1.513   5.565
 6590SOL     OW20668   0.033   1.386   5.286
 6590SOL    HW120669   7.005   1.394   5.201
 6590SOL    HW220670   0.042   1.477   5.328
 6591SOL     OW20671   5.730   0.971   2.992
 6591SOL    HW120672   5.666   0.895   2.988
 6591SOL    HW220673   5.818   0.941   3.029
 6592SOL     OW20674   4.973   5.480   4.936
 6592SOL    HW120675   4.946   5.516   5.025
 6592SOL    HW220676   4.938   5.386   4.927
 6593SOL     OW20677   3.449   1.664   2.333
 6593SOL    HW120678   3.406   1.749   2.363
 6593SOL    HW220679   3.483   1.675   2.240
 6594SOL     OW20680   5.418   0.179   6.667
 6594SOL    HW120681   5.458   0.240   6.599
 6594SOL    HW220682   5.406   0.228   6.754
 6595SOL     OW20683   1.645   3.530   1.406
 6595SOL    HW120684   1.553   3.570   1.415
 6595SOL    HW220685   1.692   3.572   1.329
 6596SOL     OW20686   4.343   6.751   5.323
 6596SOL    HW120687   4.344   6.657   5.287
 6596SOL    HW220688   4.374   6.814   5.251
 6597SOL     OW20689   0.635   5.374   5.150
 6597SOL    HW120690   0.587   5.292   5.121
 6597SOL    HW220691   0.582   5.455   5.124
 6598SOL     OW20692   1.732   5.737   5.408
 6598SOL    HW120693   1.809   5.745   5.344
 6598SOL    HW220694   1.752   5.666   5.475
 6599SOL     OW20695   4.158   4.375   5.628
 6599SOL    HW120696   4.220   4.392   5.705
 6599SOL    HW220697   4.086   4.443   5.627
 6600SOL     OW20698   4.716   5.904   3.927
 6600SOL    HW120699   4.647   5.903   3.854
 6600SOL    HW220700   4.793   5.961   3.899
 6601SOL     OW20701   0.543   0.045   0.056
 6601SOL    HW120702   0.539   0.085   6.989
 6601SOL    HW220703   0.469   0.084   0.112
 6602SOL     OW20704   6.496   1.621   1.593
 6602SOL    HW120705   6.581   1.666   1.621
 6602SOL    HW220706   6.471   1.652   1.502
 6603SOL     OW20707   2.038   3.755   3.189
 6603SOL    HW120708   2.093   3.829   3.227
 6603SOL    HW220709   2.015   3.776   3.094
 6604SOL     OW20710   3.537   5.570   2.374
 6604SOL    HW120711   3.550   5.571   2.274
 6604SOL    HW220712   3.469   5.501   2.398
 6605SOL     OW20713   5.767   5.926   0.002
 6605SOL    HW120714   5.822   5.929   6.943
 6605SOL    HW220715   5.725   6.015   0.018
 6606SOL     OW20716   5.248   1.237   2.576
 6606SOL    HW120717   5.203   1.181   2.506
 6606SOL    HW220718   5.224   1.333   2.562
 6607SOL     OW20719   1.447   1.641   2.403
 6607SOL    HW120720   1.470   1.563   2.461
 6607SOL    HW220721   1.372   1.616   2.343
 6608SOL     OW20722   5.911   3.509   4.016
 6608SOL    HW120723   5.915   3.558   4.103
 6608SOL    HW220724   5.969   3.556   3.948
 6609SOL     OW20725   5.659   1.592   6.046
 6609SOL    HW120726   5.608   1.520   6.093
 6609SOL    HW220727   5.649   1.581   5.947
 6610SOL     OW20728   1.990   0.429   6.764
 6610SOL    HW120729   1.891   0.429   6.751
 6610SOL    HW220730   2.010   0.421   6.862
 6611SOL     OW20731   5.805   2.392   2.666
 6611SOL    HW120732   5.799   2.303   2.711
 6611SOL    HW220733   5.718   2.411   2.619
 6612SOL     OW20734   2.040   6.439   6.828
 6612SOL    HW120735   1.991   6.411   6.746
 6612SOL    HW220736   2.109   6.508   6.804
 6613SOL     OW20737   4.946   4.951   1.677
 6613SOL    HW120738   4.976   4.883   1.743
 6613SOL    HW220739   4.849   4.938   1.656
 6614SOL     OW20740   4.882   5.821   6.429
 6614SOL    HW120741   4.794   5.865   6.447
 6614SOL    HW220742   4.868   5.726   6.404
 6615SOL     OW20743   0.784   3.824   5.317
 6615SOL    HW120744   0.880   3.843   5.295
 6615SOL    HW220745   0.730   3.823   5.232
 6616SOL     OW20746   4.999   0.672   4.814
 6616SOL    HW120747   5.064   0.607   4.775
 6616SOL    HW220748   4.975   0.644   4.907
 6617SOL     OW20749   4.069   0.177   5.564
 6617SOL    HW120750   3.981   0.183   5.516
 6617SOL    HW220751   4.140   0.148   5.501
 6618SOL     OW20752   0.937   4.291   1.514
 6618SOL    HW120753   0.864   4.223   1.503
 6618SOL    HW220754   0.896   4.381   1.528
 6619SOL     OW20755   5.049   5.611   2.549
 6619SOL    HW120756   5.015   5.662   2.470
 6619SOL    HW220757   5.004   5.522   2.554
 6620SOL     OW20758   1.652   2.859   5.610
 6620SOL    HW120759   1.628   2.900   5.698
 6620SOL    HW220760   1.619   2.917   5.536
 6621SOL     OW20761   2.840   4.063   0.277
 6621SOL    HW120762   2.794   4.141   0.234
 6621SOL    HW220763   2.879   4.004   0.207
 6622SOL     OW20764   6.881   6.201   0.455
 6622SOL    HW120765   6.951   6.188   0.385
 6622SOL    HW220766   6.824   6.279   0.431
 6623SOL     OW20767   3.391   3.390   2.311
 6623SOL    HW120768   3.367   3.428   2.221
 6623SOL    HW220769   3.463   3.445   2.352
 6624SOL     OW20770   4.266   4.751   4.474
 6624SOL    HW120771   4.209   4.737   4.555
 6624SOL    HW220772   4.318   4.836   4.484
 6625SOL     OW20773   6.218   0.579   0.116
 6625SOL    HW120774   6.217   0.638   0.036
 6625SOL    HW220775   6.132   0.591   0.167
 6626SOL     OW20776   3.844   5.296   3.574
 6626SOL    HW120777   3.902   5.376   3.586
 6626SOL    HW220778   3.753   5.326   3.544
 6627SOL     OW20779   2.333   6.758   1.038
 6627SOL    HW120780   2.282   6.770   1.123
 6627SOL    HW220781   2.320   6.665   1.004
 6628SOL     OW20782   4.097   5.646   3.200
 6628SOL    HW120783   4.046   5.726   3.168
 6628SOL    HW220784   4.195   5.667   3.198
 6629SOL     OW20785   3.117   5.112   0.750
 6629SOL    HW120786   3.037   5.160   0.786
 6629SOL    HW220787   3.169   5.174   0.690
 6630SOL     OW20788   3.282   1.886   0.250
 6630SOL    HW120789   3.315   1.817   0.185
 6630SOL    HW220790   3.350   1.959   0.259
 6631SOL     OW20791   5.207   0.684   2.178
 6631SOL    HW120792   5.144   0.651   2.107
 6631SOL    HW220793   5.297   0.699   2.138
 6632SOL     OW20794   7.015   1.117   1.369
 6632SOL    HW120795   0.015   1.081   1.279
 6632SOL    HW220796   0.074   1.141   1.419
 6633SOL     OW20797   1.355   6.775   1.103
 6633SOL    HW120798   1.308   6.703   1.051
 6633SOL    HW220799   1.360   6.748   1.199
 6634SOL     OW20800   6.929   2.847   6.238
 6634SOL    HW120801   6.872   2.890   6.168
 6634SOL    HW220802   6.875   2.781   6.289
 6635SOL     OW20803   4.630   4.509   3.340
 6635SOL    HW120804   4.575   4.491   3.258
 6635SOL    HW220805   4.652   4.607   3.344
 6636SOL     OW20806   2.015   2.638   4.154
 6636SOL    HW120807   2.102   2.589   4.151
 6636SOL    HW220808   2.006   2.695   4.073
 6637SOL     OW20809   7.021   0.139   1.086
 6637SOL    HW120810   0.011   0.236   1.104
 6637SOL    HW220811   0.046   0.085   1.155
 6638SOL     OW20812   2.506   5.850   5.679
 6638SOL    HW120813   2.408   5.867   5.694
 6638SOL    HW220814   2.517   5.778   5.611
 6639SOL     OW20815   5.603   5.419   6.772
 6639SOL    HW120816   5.615   5.320   6.785
 6639SOL    HW220817   5.586   5.462   6.860
 6640SOL     OW20818   6.198   2.568   3.100
 6640SOL    HW120819   6.108   2.548   3.140
 6640SOL    HW220820   6.239   2.647   3.146
 6641SOL     OW20821   2.254   4.339   6.111
 6641SOL    HW120822   2.179   4.399   6.140
 6641SOL    HW220823   2.342   4.385   6.128
 6642SOL     OW20824   0.491   6.045   0.062
 6642SOL    HW120825   0.514   6.029   6.989
 6642SOL    HW220826   0.532   6.130   0.093
 6643SOL     OW20827   5.115   4.707   6.506
 6643SOL    HW120828   5.101   4.609   6.494
 6643SOL    HW220829   5.056   4.740   6.580
 6644SOL     OW20830   3.008   4.791   2.115
 6644SOL    HW120831   3.100   4.770   2.148
 6644SOL    HW220832   2.968   4.711   2.072
 6645SOL     OW20833   0.427   5.230   5.758
 6645SOL    HW120834   0.480   5.290   5.698
 6645SOL    HW220835   0.470   5.139   5.760
 6646SOL     OW20836   2.297   5.566   4.016
 6646SOL    HW120837   2.228   5.578   3.945
 6646SOL    HW220838   2.313   5.653   4.062
 6647SOL     OW20839   3.328   2.056   1.880
 6647SOL    HW120840   3.239   2.091   1.852
 6647SOL    HW220841   3.400   2.100   1.827
 6648SOL     OW20842   5.137   5.849   2.122
 6648SOL    HW120843   5.154   5.947   2.134
 6648SOL    HW220844   5.197   5.797   2.182
 6649SOL     OW20845   3.871   2.166   6.510
 6649SOL    HW120846   3.851   2.129   6.419
 6649SOL    HW220847   3.903   2.261   6.501
 6650SOL     OW20848   4.055   1.837   3.089
 6650SOL    HW120849   4.008   1.912   3.136
 6650SOL    HW220850   4.129   1.875   3.033
 6651SOL     OW20851   0.525   2.832   6.760
 6651SOL    HW120852   0.558   2.859   6.850
 6651SOL    HW220853   0.580   2.756   6.726
 6652SOL     OW20854   6.983   5.624   2.301
 6652SOL    HW120855   6.904   5.613   2.361
 6652SOL    HW220856   0.018   5.544   2.308
 6653SOL     OW20857   3.424   3.771   4.250
 6653SOL    HW120858   3.368   3.827   4.311
 6653SOL    HW220859   3.375   3.754   4.165
 6654SOL     OW20860   2.346   3.228   1.723
 6654SOL    HW120861   2.354   3.314   1.774
 6654SOL    HW220862   2.434   3.181   1.724
 6655SOL     OW20863   2.720   6.466   2.225
 6655SOL    HW120864   2.756   6.552   2.191
 6655SOL    HW220865   2.736   6.394   2.158
 6656SOL     OW20866   6.635   2.545   1.358
 6656SOL    HW120867   6.594   2.612   1.296
 6656SOL    HW220868   6.671   2.592   1.439
 6657SOL     OW20869   3.222   6.361   6.355
 6657SOL    HW120870   3.184   6.337   6.266
 6657SOL    HW220871   3.318   6.332   6.359
 6658SOL     OW20872   5.344   1.134   5.179
 6658SOL    HW120873   5.326   1.098   5.271
 6658SOL    HW220874   5.257   1.154   5.134
 6659SOL     OW20875   1.925   2.918   0.003
 6659SOL    HW120876   2.018   2.889   7.007
 6659SOL    HW220877   1.896   2.878   0.091
 6660SOL     OW20878   6.999   6.964   2.858
 6660SOL    HW120879   0.066   6.926   2.878
 6660SOL    HW220880   6.964   7.009   2.940
 6661SOL     OW20881   0.399   6.161   3.608
 6661SOL    HW120882   0.366   6.096   3.540
 6661SOL    HW220883   0.495   6.183   3.589
 6662SOL     OW20884   1.614   1.872   7.013
 6662SOL    HW120885   1.580   1.950   0.042
 6662SOL    HW220886   1.537   1.814   6.987
 6663SOL     OW20887   0.059   5.812   2.507
 6663SOL    HW120888   0.002   5.880   2.552
 6663SOL    HW220889   0.058   5.828   2.408
 6664SOL     OW20890   1.444   1.084   2.764
 6664SOL    HW120891   1.534   1.111   2.731
 6664SOL    HW220892   1.454   1.027   2.846
 6665SOL     OW20893   2.225   6.651   2.831
 6665SOL    HW120894   2.282   6.658   2.750
 6665SOL    HW220895   2.281   6.665   2.913
 6666SOL     OW20896   6.111   0.316   6.556
 6666SOL    HW120897   6.074   0.282   6.470
 6666SOL    HW220898   6.041   0.308   6.628
 6667SOL     OW20899   6.635   4.539   4.917
 6667SOL    HW120900   6.643   4.547   4.817
 6667SOL    HW220901   6.683   4.456   4.947
 6668SOL     OW20902   0.809   4.780   1.676
 6668SOL    HW120903   0.888   4.833   1.705
 6668SOL    HW220904   0.778   4.722   1.752
 6669SOL     OW20905   1.954   5.815   2.833
 6669SOL    HW120906   2.016   5.794   2.756
 6669SOL    HW220907   1.991   5.776   2.917
 6670SOL     OW20908   3.408   4.941   0.160
 6670SOL    HW120909   3.423   4.993   0.244
 6670SOL    HW220910   3.493   4.897   0.132
 6671SOL     OW20911   6.614   3.117   4.773
 6671SOL    HW120912   6.558   3.183   4.723
 6671SOL    HW220913   6.682   3.165   4.828
 6672SOL     OW20914   1.146   1.312   5.711
 6672SOL    HW120915   1.145   1.272   5.803
 6672SOL    HW220916   1.232   1.361   5.697
 6673SOL     OW20917   4.557   4.620   1.597
 6673SOL    HW120918   4.590   4.572   1.679
 6673SOL    HW220919   4.498   4.559   1.544
 6674SOL     OW20920   0.688   6.536   4.241
 6674SOL    HW120921   0.752   6.568   4.311
 6674SOL    HW220922   0.738   6.518   4.156
 6675SOL     OW20923   5.982   4.862   0.416
 6675SOL    HW120924   5.952   4.831   0.507
 6675SOL    HW220925   5.922   4.822   0.347
 6676SOL     OW20926   0.859   2.228   6.238
 6676SOL    HW120927   0.794   2.300   6.260
 6676SOL    HW220928   0.874   2.226   6.139
 6677SOL     OW20929   0.939   3.063   0.611
 6677SOL    HW120930   0.906   3.157   0.614
 6677SOL    HW220931   0.888   3.008   0.677
 6678SOL     OW20932   0.453   2.718   5.773
 6678SOL    HW120933   0.504   2.782   5.716
 6678SOL    HW220934   0.451   2.628   5.728
 6679SOL     OW20935   2.257   2.318   4.484
 6679SOL    HW120936   2.311   2.354   4.560
 6679SOL    HW220937   2.311   2.249   4.435
 6680SOL     OW20938   3.351   6.689   6.336
 6680SOL    HW120939   3.440   6.642   6.334
 6680SOL    HW220940   3.348   6.751   6.414
 6681SOL     OW20941   5.535   5.215   0.479
 6681SOL    HW120942   5.553   5.313   0.490
 6681SOL    HW220943   5.470   5.186   0.550
 6682SOL     OW20944   0.198   5.673   1.905
 6682SOL    HW120945   0.280   5.618   1.921
 6682SOL    HW220946   0.118   5.623   1.939
 6683SOL     OW20947   5.186   1.747   4.138
 6683SOL    HW120948   5.196   1.722   4.042
 6683SOL    HW220949   5.126   1.682   4.184
 6684SOL     OW20950   1.990   6.690   2.578
 6684SOL    HW120951   1.938   6.604   2.584
 6684SOL    HW220952   2.071   6.683   2.637
 6685SOL     OW20953   5.012   3.564   6.570
 6685SOL    HW120954   4.926   3.523   6.539
 6685SOL    HW220955   5.048   3.509   6.645
 6686SOL     OW20956   6.554   4.167   2.894
 6686SOL    HW120957   6.528   4.184   2.799
 6686SOL    HW220958   6.513   4.236   2.953
 6687SOL     OW20959   1.236   2.258   0.660
 6687SOL    HW120960   1.229   2.280   0.563
 6687SOL    HW220961   1.176   2.181   0.681
 6688SOL     OW20962   0.708   4.596   2.604
 6688SOL    HW120963   0.773   4.565   2.673
 6688SOL    HW220964   0.675   4.517   2.552
 6689SOL     OW20965   4.750   4.848   0.187
 6689SOL    HW120966   4.797   4.761   0.172
 6689SOL    HW220967   4.652   4.835   0.176
 6690SOL     OW20968   2.041   2.427   0.771
 6690SOL    HW120969   2.128   2.378   0.763
 6690SOL    HW220970   2.055   2.513   0.819
 6691SOL     OW20971   2.439   4.594   1.432
 6691SOL    HW120972   2.493   4.639   1.360
 6691SOL    HW220973   2.411   4.662   1.499
 6692SOL     OW20974   3.400   3.923   5.566
 6692SOL    HW120975   3.310   3.960   5.592
 6692SOL    HW220976   3.470   3.993   5.582
 6693SOL     OW20977   4.005   3.403   5.282
 6693SOL    HW120978   4.031   3.391   5.186
 6693SOL    HW220979   4.034   3.494   5.313
 6694SOL     OW20980   3.802   5.732   0.973
 6694SOL    HW120981   3.717   5.685   0.994
 6694SOL    HW220982   3.846   5.689   0.894
 6695SOL     OW20983   1.626   1.597   6.733
 6695SOL    HW120984   1.570   1.568   6.811
 6695SOL    HW220985   1.715   1.629   6.766
 6696SOL     OW20986   1.977   2.977   2.069
 6696SOL    HW120987   2.045   2.904   2.061
 6696SOL    HW220988   1.990   3.042   1.994
 6697SOL     OW20989   4.873   0.955   3.295
 6697SOL    HW120990   4.852   0.936   3.199
 6697SOL    HW220991   4.796   0.929   3.352
 6698SOL     OW20992   3.523   3.358   0.152
 6698SOL    HW120993   3.469   3.442   0.144
 6698SOL    HW220994   3.620   3.381   0.149
 6699SOL     OW20995   1.765   4.523   0.151
 6699SOL    HW120996   1.730   4.444   0.099
 6699SOL    HW220997   1.690   4.566   0.201
 6700SOL     OW20998   0.376   5.693   0.837
 6700SOL    HW120999   0.276   5.688   0.842
 6700SOL    HW221000   0.403   5.775   0.786
 6701SOL     OW21001   0.654   2.254   0.468
 6701SOL    HW121002   0.745   2.281   0.436
 6701SOL    HW221003   0.662   2.209   0.557
 6702SOL     OW21004   2.898   1.922   1.267
 6702SOL    HW121005   2.854   1.893   1.182
 6702SOL    HW221006   2.968   1.855   1.292
 6703SOL     OW21007   0.151   1.888   6.790
 6703SOL    HW121008   0.216   1.829   6.838
 6703SOL    HW221009   0.097   1.833   6.726
 6704SOL     OW21010   5.261   1.612   2.270
 6704SOL    HW121011   5.199   1.575   2.201
 6704SOL    HW221012   5.355   1.608   2.237
 6705SOL     OW21013   5.514   1.541   0.258
 6705SOL    HW121014   5.555   1.563   0.170
 6705SOL    HW221015   5.439   1.604   0.277
 6706SOL     OW21016   0.435   4.242   6.332
 6706SOL    HW121017   0.346   4.208   6.302
 6706SOL    HW221018   0.435   4.342   6.329
 6707SOL     OW21019   1.127   6.067   2.487
 6707SOL    HW121020   1.157   6.057   2.392
 6707SOL    HW221021   1.198   6.032   2.548
 6708SOL     OW21022   1.917   5.979   1.499
 6708SOL    HW121023   1.847   5.933   1.553
 6708SOL    HW221024   1.946   6.062   1.546
 6709SOL     OW21025   4.600   1.342   2.739
 6709SOL    HW121026   4.526   1.386   2.789
 6709SOL    HW221027   4.569   1.319   2.646
 6710SOL     OW21028   3.167   2.487   0.325
 6710SOL    HW121029   3.146   2.581   0.351
 6710SOL    HW221030   3.262   2.466   0.348
 6711SOL     OW21031   3.960   4.477   0.612
 6711SOL    HW121032   3.926   4.409   0.547
 6711SOL    HW221033   4.040   4.441   0.660
 6712SOL     OW21034   3.805   5.689   0.206
 6712SOL    HW121035   3.784   5.682   0.303
 6712SOL    HW221036   3.794   5.784   0.176
 6713SOL     OW21037   1.981   1.904   1.536
 6713SOL    HW121038   2.022   1.969   1.599
 6713SOL    HW221039   1.981   1.942   1.443
 6714SOL     OW21040   6.121   0.840   4.367
 6714SOL    HW121041   6.082   0.793   4.447
 6714SOL    HW221042   6.068   0.816   4.285
 6715SOL     OW21043   0.357   1.305   0.864
 6715SOL    HW121044   0.405   1.269   0.783
 6715SOL    HW221045   0.267   1.262   0.872
 6716SOL     OW21046   2.115   6.261   0.970
 6716SOL    HW121047   2.054   6.213   0.907
 6716SOL    HW221048   2.188   6.199   1.000
 6717SOL     OW21049   3.828   1.748   6.722
 6717SOL    HW121050   3.861   1.653   6.722
 6717SOL    HW221051   3.861   1.795   6.804
 6718SOL     OW21052   2.930   0.300   0.642
 6718SOL    HW121053   2.865   0.292   0.718
 6718SOL    HW221054   3.002   0.231   0.652
 6719SOL     OW21055   6.749   0.235   5.201
 6719SOL    HW121056   6.772   0.174   5.277
 6719SOL    HW221057   6.780   0.194   5.115
 6720SOL     OW21058   2.166   4.354   1.738
 6720SOL    HW121059   2.097   4.389   1.674
 6720SOL    HW221060   2.153   4.397   1.827
 6721SOL     OW21061   5.569   5.970   3.740
 6721SOL    HW121062   5.587   6.064   3.714
 6721SOL    HW221063   5.488   5.966   3.798
 6722SOL     OW21064   4.446   3.388   6.719
 6722SOL    HW121065   4.368   3.417   6.775
 6722SOL    HW221066   4.413   3.327   6.647
 6723SOL     OW21067   4.540   6.141   2.353
 6723SOL    HW121068   4.502   6.113   2.442
 6723SOL    HW221069   4.635   6.110   2.346
 6724SOL     OW21070   3.240   5.167   4.999
 6724SOL    HW121071   3.247   5.106   4.920
 6724SOL    HW221072   3.324   5.161   5.054
 6725SOL     OW21073   0.373   4.462   2.424
 6725SOL    HW121074   0.345   4.533   2.488
 6725SOL    HW221075   0.452   4.494   2.371
 6726SOL     OW21076   2.442   2.260   3.260
 6726SOL    HW121077   2.386   2.312   3.196
 6726SOL    HW221078   2.529   2.308   3.275
 6727SOL     OW21079   3.750   3.692   6.880
 6727SOL    HW121080   3.778   3.616   6.822
 6727SOL    HW221081   3.665   3.731   6.845
 6728SOL     OW21082   4.354   1.377   3.620
 6728SOL    HW121083   4.411   1.453   3.652
 6728SOL    HW221084   4.268   1.412   3.584
 6729SOL     OW21085   5.714   0.398   2.204
 6729SOL    HW121086   5.777   0.445   2.142
 6729SOL    HW221087   5.712   0.445   2.292
 6730SOL     OW21088   2.407   0.894   0.770
 6730SOL    HW121089   2.359   0.980   0.756
 6730SOL    HW221090   2.504   0.912   0.785
 6731SOL     OW21091   2.747   4.796   1.822
 6731SOL    HW121092   2.792   4.722   1.873
 6731SOL    HW221093   2.652   4.804   1.853
 6732SOL     OW21094   2.309   4.901   1.253
 6732SOL    HW121095   2.227   4.864   1.296
 6732SOL    HW221096   2.284   4.971   1.186
 6733SOL     OW21097   5.424   5.956   5.429
 6733SOL    HW121098   5.449   5.873   5.478
 6733SOL    HW221099   5.324   5.960   5.419
 6734SOL     OW21100   2.432   3.626   5.632
 6734SOL    HW121101   2.456   3.587   5.543
 6734SOL    HW221102   2.431   3.553   5.701
 6735SOL     OW21103   0.068   5.078   6.119
 6735SOL    HW121104   0.043   5.146   6.189
 6735SOL    HW221105   0.128   5.009   6.159
 6736SOL     OW21106   2.158   3.967   2.257
 6736SOL    HW121107   2.068   3.994   2.224
 6736SOL    HW221108   2.173   3.870   2.239
 6737SOL     OW21109   2.390   0.754   1.367
 6737SOL    HW121110   2.375   0.769   1.269
 6737SOL    HW221111   2.353   0.665   1.393
 6738SOL     OW21112   3.144   1.526   2.376
 6738SOL    HW121113   3.235   1.551   2.407
 6738SOL    HW221114   3.080   1.531   2.452
 6739SOL     OW21115   3.449   6.440   4.895
 6739SOL    HW121116   3.463   6.346   4.927
 6739SOL    HW221117   3.534   6.492   4.907
 6740SOL     OW21118   0.221   2.342   4.146
 6740SOL    HW121119   0.169   2.314   4.065
 6740SOL    HW221120   0.212   2.273   4.217
 6741SOL     OW21121   6.260   0.100   6.144
 6741SOL    HW121122   6.218   0.070   6.229
 6741SOL    HW221123   6.355   0.068   6.141
 6742SOL     OW21124   6.291   6.061   6.305
 6742SOL    HW121125   6.211   6.082   6.249
 6742SOL    HW221126   6.373   6.061   6.248
 6743SOL     OW21127   4.609   2.955   0.692
 6743SOL    HW121128   4.568   2.864   0.691
 6743SOL    HW221129   4.665   2.965   0.775
 6744SOL     OW21130   5.001   4.984   5.556
 6744SOL    HW121131   4.927   4.956   5.617
 6744SOL    HW221132   5.072   5.031   5.609
 6745SOL     OW21133   6.987   4.458   3.476
 6745SOL    HW121134   6.962   4.486   3.383
 6745SOL    HW221135   0.060   4.478   3.492
 6746SOL     OW21136   0.449   1.594   0.839
 6746SOL    HW121137   0.407   1.505   0.855
 6746SOL    HW221138   0.547   1.582   0.823
 6747SOL     OW21139   5.199   6.541   5.797
 6747SOL    HW121140   5.289   6.548   5.841
 6747SOL    HW221141   5.202   6.468   5.729
 6748SOL     OW21142   0.170   0.085   1.992
 6748SOL    HW121143   0.080   0.118   2.020
 6748SOL    HW221144   0.235   0.099   2.066
 6749SOL     OW21145   3.559   6.141   1.068
 6749SOL    HW121146   3.477   6.091   1.095
 6749SOL    HW221147   3.633   6.077   1.049
 6750SOL     OW21148   2.539   3.203   5.402
 6750SOL    HW121149   2.536   3.151   5.488
 6750SOL    HW221150   2.553   3.140   5.326
 6751SOL     OW21151   3.450   2.023   5.414
 6751SOL    HW121152   3.468   1.957   5.341
 6751SOL    HW221153   3.384   2.091   5.382
 6752SOL     OW21154   6.282   1.582   0.307
 6752SOL    HW121155   6.209   1.564   0.241
 6752SOL    HW221156   6.339   1.657   0.274
 6753SOL     OW21157   5.119   2.061   6.740
 6753SOL    HW121158   5.113   2.054   6.840
 6753SOL    HW221159   5.215   2.056   6.712
 6754SOL     OW21160   5.879   0.682   0.272
 6754SOL    HW121161   5.795   0.631   0.289
 6754SOL    HW221162   5.912   0.722   0.357
 6755SOL     OW21163   4.867   2.294   3.210
 6755SOL    HW121164   4.797   2.316   3.278
 6755SOL    HW221165   4.921   2.216   3.242
 6756SOL     OW21166   5.355   4.497   4.481
 6756SOL    HW121167   5.337   4.460   4.389
 6756SOL    HW221168   5.452   4.520   4.489
 6757SOL     OW21169   5.807   5.215   1.692
 6757SOL    HW121170   5.773   5.182   1.604
 6757SOL    HW221171   5.753   5.176   1.766
 6758SOL     OW21172   5.507   2.841   2.685
 6758SOL    HW121173   5.441   2.889   2.743
 6758SOL    HW221174   5.587   2.817   2.738
 6759SOL     OW21175   0.089   4.800   3.573
 6759SOL    HW121176   0.080   4.778   3.670
 6759SOL    HW221177   0.002   4.784   3.527
 6760SOL     OW21178   0.096   4.148   4.853
 6760SOL    HW121179   0.042   4.229   4.873
 6760SOL    HW221180   0.038   4.067   4.861
 6761SOL     OW21181   5.389   3.437   6.573
 6761SOL    HW121182   5.387   3.454   6.474
 6761SOL    HW221183   5.454   3.500   6.616
 6762SOL     OW21184   5.911   4.848   4.370
 6762SOL    HW121185   6.002   4.889   4.367
 6762SOL    HW221186   5.841   4.917   4.351
 6763SOL     OW21187   5.167   6.700   5.596
 6763SOL    HW121188   5.251   6.709   5.543
 6763SOL    HW221189   5.177   6.626   5.663
 6764SOL     OW21190   2.091   3.908   6.922
 6764SOL    HW121191   2.109   3.963   6.841
 6764SOL    HW221192   2.173   3.904   6.980
 6765SOL     OW21193   5.592   5.176   2.621
 6765SOL    HW121194   5.547   5.206   2.706
 6765SOL    HW221195   5.667   5.239   2.600
 6766SOL     OW21196   1.287   1.360   5.355
 6766SOL    HW121197   1.256   1.454   5.370
 6766SOL    HW221198   1.373   1.346   5.403
 6767SOL     OW21199   0.488   2.272   6.050
 6767SOL    HW121200   0.411   2.306   6.104
 6767SOL    HW221201   0.571   2.325   6.073
 6768SOL     OW21202   0.202   0.240   5.545
 6768SOL    HW121203   0.126   0.178   5.562
 6768SOL    HW221204   0.271   0.227   5.617
 6769SOL     OW21205   2.108   3.222   6.527
 6769SOL    HW121206   2.088   3.133   6.487
 6769SOL    HW221207   2.049   3.291   6.486
 6770SOL     OW21208   6.917   1.929   3.490
 6770SOL    HW121209   6.875   1.843   3.460
 6770SOL    HW221210   7.001   1.910   3.539
 6771SOL     OW21211   3.927   1.144   2.668
 6771SOL    HW121212   3.923   1.241   2.644
 6771SOL    HW221213   3.835   1.105   2.663
 6772SOL     OW21214   0.937   0.868   2.175
 6772SOL    HW121215   0.863   0.935   2.174
 6772SOL    HW221216   0.911   0.791   2.233
 6773SOL     OW21217   1.023   6.949   1.090
 6773SOL    HW121218   0.960   6.911   1.159
 6773SOL    HW221219   1.109   6.898   1.092
 6774SOL     OW21220   2.592   2.021   5.959
 6774SOL    HW121221   2.615   1.993   5.865
 6774SOL    HW221222   2.677   2.039   6.010
 6775SOL     OW21223   0.485   2.756   4.780
 6775SOL    HW121224   0.564   2.714   4.738
 6775SOL    HW221225   0.433   2.807   4.711
 6776SOL     OW21226   3.723   3.623   3.260
 6776SOL    HW121227   3.677   3.654   3.343
 6776SOL    HW221228   3.656   3.587   3.196
 6777SOL     OW21229   0.167   6.283   6.400
 6777SOL    HW121230   0.230   6.235   6.339
 6777SOL    HW221231   0.078   6.239   6.396
 6778SOL     OW21232   5.854   6.174   1.967
 6778SOL    HW121233   5.832   6.116   1.889
 6778SOL    HW221234   5.908   6.252   1.936
 6779SOL     OW21235   5.090   4.266   6.230
 6779SOL    HW121236   5.079   4.169   6.250
 6779SOL    HW221237   5.170   4.301   6.280
 6780SOL     OW21238   3.720   1.858   2.568
 6780SOL    HW121239   3.687   1.952   2.571
 6780SOL    HW221240   3.820   1.858   2.564
 6781SOL     OW21241   6.328   2.016   3.210
 6781SOL    HW121242   6.337   2.098   3.153
 6781SOL    HW221243   6.232   1.989   3.215
 6782SOL     OW21244   6.917   2.231   3.019
 6782SOL    HW121245   6.955   2.151   2.972
 6782SOL    HW221246   6.895   2.207   3.114
 6783SOL     OW21247   0.264   5.738   6.373
 6783SOL    HW121248   0.173   5.709   6.345
 6783SOL    HW221249   0.256   5.816   6.436
 6784SOL     OW21250   1.563   4.259   1.329
 6784SOL    HW121251   1.627   4.297   1.262
 6784SOL    HW221252   1.472   4.295   1.312
 6785SOL     OW21253   5.764   5.279   4.148
 6785SOL    HW121254   5.806   5.362   4.112
 6785SOL    HW221255   5.756   5.285   4.247
 6786SOL     OW21256   5.700   2.111   5.812
 6786SOL    HW121257   5.692   2.176   5.737
 6786SOL    HW221258   5.611   2.100   5.856
 6787SOL     OW21259   3.135   1.925   0.462
 6787SOL    HW121260   3.042   1.888   0.460
 6787SOL    HW221261   3.184   1.896   0.379
 6788SOL     OW21262   0.476   4.722   1.698
 6788SOL    HW121263   0.476   4.762   1.606
 6788SOL    HW221264   0.527   4.636   1.697
 6789SOL     OW21265   5.549   4.656   3.258
 6789SOL    HW121266   5.567   4.732   3.196
 6789SOL    HW221267   5.628   4.642   3.318
 6790SOL     OW21268   0.675   4.904   6.636
 6790SOL    HW121269   0.663   4.964   6.715
 6790SOL    HW221270   0.772   4.887   6.620
 6791SOL     OW21271   2.858   6.597   2.704
 6791SOL    HW121272   2.845   6.554   2.615
 6791SOL    HW221273   2.906   6.684   2.693
 6792SOL     OW21274   4.316   6.982   5.914
 6792SOL    HW121275   4.242   0.014   5.876
 6792SOL    HW221276   4.404   7.018   5.883
 6793SOL     OW21277   2.143   3.574   6.231
 6793SOL    HW121278   2.233   3.561   6.273
 6793SOL    HW221279   2.147   3.651   6.167
 6794SOL     OW21280   6.067   2.263   5.439
 6794SOL    HW121281   6.121   2.314   5.372
 6794SOL    HW221282   6.034   2.325   5.509
 6795SOL     OW21283   1.024   0.886   1.628
 6795SOL    HW121284   0.998   0.964   1.684
 6795SOL    HW221285   1.047   0.917   1.536
 6796SOL     OW21286   6.869   1.733   2.707
 6796SOL    HW121287   6.785   1.763   2.752
 6796SOL    HW221288   6.886   1.637   2.729
 6797SOL     OW21289   0.954   3.254   0.926
 6797SOL    HW121290   1.045   3.231   0.891
 6797SOL    HW221291   0.892   3.272   0.850
 6798SOL     OW21292   5.135   0.994   2.004
 6798SOL    HW121293   5.189   0.929   2.057
 6798SOL    HW221294   5.196   1.062   1.963
 6799SOL     OW21295   5.888   6.592   3.435
 6799SOL    HW121296   5.953   6.529   3.393
 6799SOL    HW221297   5.883   6.676   3.380
 6800SOL     OW21298   6.424   3.408   1.273
 6800SOL    HW121299   6.399   3.325   1.222
 6800SOL    HW221300   6.524   3.410   1.285
 6801SOL     OW21301   0.774   6.504   6.765
 6801SOL    HW121302   0.798   6.525   6.670
 6801SOL    HW221303   0.781   6.405   6.780
 6802SOL     OW21304   3.133   4.636   1.746
 6802SOL    HW121305   3.108   4.694   1.823
 6802SOL    HW221306   3.072   4.556   1.743
 6803SOL     OW21307   4.976   5.408   6.081
 6803SOL    HW121308   5.068   5.402   6.119
 6803SOL    HW221309   4.969   5.489   6.022
 6804SOL     OW21310   3.713   5.205   2.692
 6804SOL    HW121311   3.666   5.250   2.768
 6804SOL    HW221312   3.675   5.113   2.680
 6805SOL     OW21313   0.313   4.413   4.495
 6805SOL    HW121314   0.399   4.371   4.522
 6805SOL    HW221315   0.326   4.467   4.412
 6806SOL     OW21316   5.941   3.283   1.566
 6806SOL    HW121317   5.964   3.187   1.582
 6806SOL    HW221318   5.982   3.313   1.480
 6807SOL     OW21319   3.252   4.010   2.231
 6807SOL    HW121320   3.179   3.944   2.248
 6807SOL    HW221321   3.226   4.070   2.155
 6808SOL     OW21322   3.360   0.854   4.071
 6808SOL    HW121323   3.306   0.809   4.000
 6808SOL    HW221324   3.402   0.937   4.033
 6809SOL     OW21325   5.969   2.837   6.566
 6809SOL    HW121326   5.935   2.854   6.473
 6809SOL    HW221327   5.936   2.908   6.627
 6810SOL     OW21328   2.972   0.545   4.579
 6810SOL    HW121329   3.052   0.541   4.519
 6810SOL    HW221330   2.938   0.639   4.584
 6811SOL     OW21331   6.278   0.890   0.813
 6811SOL    HW121332   6.247   0.946   0.737
 6811SOL    HW221333   6.370   0.920   0.841
 6812SOL     OW21334   3.533   4.825   5.291
 6812SOL    HW121335   3.437   4.835   5.264
 6812SOL    HW221336   3.539   4.829   5.391
 6813SOL     OW21337   0.187   3.554   2.358
 6813SOL    HW121338   0.151   3.487   2.423
 6813SOL    HW221339   0.136   3.548   2.273
 6814SOL     OW21340   5.877   0.695   0.652
 6814SOL    HW121341   5.901   0.609   0.697
 6814SOL    HW221342   5.778   0.701   0.643
 6815SOL     OW21343   0.883   5.747   6.633
 6815SOL    HW121344   0.801   5.699   6.665
 6815SOL    HW221345   0.962   5.685   6.640
 6816SOL     OW21346   6.822   0.242   3.952
 6816SOL    HW121347   6.744   0.239   4.015
 6816SOL    HW221348   6.906   0.226   4.004
 6817SOL     OW21349   4.485   1.852   1.123
 6817SOL    HW121350   4.429   1.771   1.140
 6817SOL    HW221351   4.472   1.917   1.198
 6818SOL     OW21352   1.181   6.928   4.875
 6818SOL    HW121353   1.210   6.855   4.937
 6818SOL    HW221354   1.212   7.016   4.912
 6819SOL     OW21355   4.640   4.523   1.851
 6819SOL    HW121356   4.733   4.508   1.818
 6819SOL    HW221357   4.604   4.437   1.888
 6820SOL     OW21358   2.740   5.119   1.908
 6820SOL    HW121359   2.681   5.078   1.838
 6820SOL    HW221360   2.836   5.106   1.884
 6821SOL     OW21361   3.624   2.739   5.330
 6821SOL    HW121362   3.607   2.763   5.234
 6821SOL    HW221363   3.721   2.721   5.344
 6822SOL     OW21364   5.958   3.392   5.315
 6822SOL    HW121365   5.904   3.308   5.313
 6822SOL    HW221366   5.936   3.448   5.235
 6823SOL     OW21367   0.326   3.121   5.077
 6823SOL    HW121368   0.375   3.070   5.148
 6823SOL    HW221369   0.386   3.191   5.039
 6824SOL     OW21370   0.750   6.800   5.345
 6824SOL    HW121371   0.849   6.788   5.338
 6824SOL    HW221372   0.708   6.784   5.256
 6825SOL     OW21373   4.203   4.208   1.171
 6825SOL    HW121374   4.183   4.188   1.075
 6825SOL    HW221375   4.301   4.195   1.188
 6826SOL     OW21376   5.844   0.161   3.978
 6826SOL    HW121377   5.857   0.223   4.056
 6826SOL    HW221378   5.851   0.213   3.893
 6827SOL     OW21379   4.865   5.615   5.147
 6827SOL    HW121380   4.859   5.651   5.240
 6827SOL    HW221381   4.781   5.639   5.097
 6828SOL     OW21382   3.334   2.156   2.692
 6828SOL    HW121383   3.277   2.204   2.625
 6828SOL    HW221384   3.356   2.065   2.658
 6829SOL     OW21385   4.116   6.950   2.806
 6829SOL    HW121386   4.063   6.880   2.853
 6829SOL    HW221387   4.093   0.016   2.843
 6830SOL     OW21388   4.085   4.795   2.307
 6830SOL    HW121389   4.036   4.858   2.368
 6830SOL    HW221390   4.170   4.766   2.350
 6831SOL     OW21391   1.455   1.881   6.042
 6831SOL    HW121392   1.516   1.960   6.045
 6831SOL    HW221393   1.366   1.910   6.006
 6832SOL     OW21394   2.571   2.463   6.528
 6832SOL    HW121395   2.586   2.436   6.624
 6832SOL    HW221396   2.473   2.460   6.508
 6833SOL     OW21397   3.559   5.341   6.207
 6833SOL    HW121398   3.516   5.431   6.213
 6833SOL    HW221399   3.557   5.309   6.112
 6834SOL     OW21400   6.205   6.646   6.673
 6834SOL    HW121401   6.128   6.594   6.711
 6834SOL    HW221402   6.264   6.586   6.620
 6835SOL     OW21403   2.468   0.941   4.053
 6835SOL    HW121404   2.373   0.937   4.024
 6835SOL    HW221405   2.526   0.970   3.976
 6836SOL     OW21406   1.592   5.113   6.535
 6836SOL    HW121407   1.553   5.152   6.452
 6836SOL    HW221408   1.591   5.181   6.608
 6837SOL     OW21409   6.172   0.652   2.293
 6837SOL    HW121410   6.227   0.573   2.264
 6837SOL    HW221411   6.182   0.664   2.392
 6838SOL     OW21412   2.746   4.364   5.379
 6838SOL    HW121413   2.802   4.446   5.385
 6838SOL    HW221414   2.653   4.385   5.408
 6839SOL     OW21415   6.071   3.265   4.606
 6839SOL    HW121416   6.038   3.272   4.700
 6839SOL    HW221417   6.145   3.198   4.601
 6840SOL     OW21418   2.918   6.570   4.473
 6840SOL    HW121419   2.892   6.627   4.551
 6840SOL    HW221420   3.001   6.519   4.494
 6841SOL     OW21421   5.255   6.745   1.179
 6841SOL    HW121422   5.188   6.795   1.123
 6841SOL    HW221423   5.317   6.694   1.120
 6842SOL     OW21424   0.357   3.795   4.917
 6842SOL    HW121425   0.264   3.778   4.949
 6842SOL    HW221426   0.422   3.778   4.991
 6843SOL     OW21427   4.254   1.975   1.445
 6843SOL    HW121428   4.211   1.913   1.510
 6843SOL    HW221429   4.292   2.053   1.494
 6844SOL     OW21430   3.625   5.678   4.418
 6844SOL    HW121431   3.550   5.744   4.429
 6844SOL    HW221432   3.600   5.611   4.349
 6845SOL     OW21433   3.862   4.431   0.885
 6845SOL    HW121434   3.771   4.470   0.874
 6845SOL    HW221435   3.931   4.502   0.872
 6846SOL     OW21436   3.295   2.898   2.727
 6846SOL    HW121437   3.262   2.978   2.677
 6846SOL    HW221438   3.275   2.815   2.675
 6847SOL     OW21439   6.273   3.739   1.841
 6847SOL    HW121440   6.280   3.664   1.907
 6847SOL    HW221441   6.364   3.777   1.824
 6848SOL     OW21442   6.505   6.763   3.767
 6848SOL    HW121443   6.435   6.808   3.823
 6848SOL    HW221444   6.483   6.774   3.670
 6849SOL     OW21445   3.412   6.723   4.359
 6849SOL    HW121446   3.398   6.641   4.303
 6849SOL    HW221447   3.324   6.764   4.380
 6850SOL     OW21448   5.388   3.180   0.995
 6850SOL    HW121449   5.319   3.118   1.033
 6850SOL    HW221450   5.469   3.180   1.053
 6851SOL     OW21451   1.463   5.762   5.299
 6851SOL    HW121452   1.455   5.760   5.199
 6851SOL    HW221453   1.557   5.739   5.325
 6852SOL     OW21454   0.474   4.769   1.975
 6852SOL    HW121455   0.476   4.734   1.881
 6852SOL    HW221456   0.565   4.801   2.001
 6853SOL     OW21457   6.632   3.911   5.657
 6853SOL    HW121458   6.732   3.918   5.660
 6853SOL    HW221459   6.597   3.892   5.749
 6854SOL     OW21460   0.477   1.848   6.742
 6854SOL    HW121461   0.457   1.936   6.785
 6854SOL    HW221462   0.394   1.794   6.737
 6855SOL     OW21463   3.216   6.104   1.662
 6855SOL    HW121464   3.146   6.162   1.621
 6855SOL    HW221465   3.220   6.119   1.760
 6856SOL     OW21466   0.189   4.450   5.364
 6856SOL    HW121467   0.235   4.539   5.359
 6856SOL    HW221468   0.093   4.461   5.338
 6857SOL     OW21469   4.483   1.429   5.833
 6857SOL    HW121470   4.395   1.457   5.870
 6857SOL    HW221471   4.502   1.480   5.749
 6858SOL     OW21472   3.761   3.048   5.132
 6858SOL    HW121473   3.709   3.127   5.163
 6858SOL    HW221474   3.773   2.984   5.208
 6859SOL     OW21475   3.566   0.167   0.442
 6859SOL    HW121476   3.531   0.156   0.535
 6859SOL    HW221477   3.505   0.122   0.377
 6860SOL     OW21478   4.936   4.652   0.117
 6860SOL    HW121479   5.018   4.698   0.083
 6860SOL    HW221480   4.882   4.620   0.039
 6861SOL     OW21481   5.671   4.303   0.658
 6861SOL    HW121482   5.697   4.261   0.571
 6861SOL    HW221483   5.670   4.233   0.730
 6862SOL     OW21484   3.668   5.828   3.557
 6862SOL    HW121485   3.580   5.859   3.595
 6862SOL    HW221486   3.732   5.812   3.632
 6863SOL     OW21487   0.248   2.845   4.205
 6863SOL    HW121488   0.297   2.759   4.190
 6863SOL    HW221489   0.150   2.831   4.190
 6864SOL     OW21490   4.421   5.858   5.525
 6864SOL    HW121491   4.339   5.883   5.576
 6864SOL    HW221492   4.414   5.763   5.496
 6865SOL     OW21493   5.624   3.302   4.734
 6865SOL    HW121494   5.625   3.329   4.638
 6865SOL    HW221495   5.604   3.204   4.741
 6866SOL     OW21496   0.463   3.719   2.011
 6866SOL    HW121497   0.447   3.621   1.999
 6866SOL    HW221498   0.560   3.734   2.030
 6867SOL     OW21499   2.223   4.742   2.030
 6867SOL    HW121500   2.294   4.694   2.081
 6867SOL    HW221501   2.180   4.811   2.088
 6868SOL     OW21502   1.907   5.340   5.151
 6868SOL    HW121503   1.968   5.272   5.192
 6868SOL    HW221504   1.816   5.300   5.137
 6869SOL     OW21505   6.070   3.793   5.115
 6869SOL    HW121506   6.157   3.798   5.164
 6869SOL    HW221507   6.070   3.862   5.042
 6870SOL     OW21508   5.270   3.852   2.901
 6870SOL    HW121509   5.215   3.769   2.912
 6870SOL    HW221510   5.248   3.895   2.813
 6871SOL     OW21511   5.170   0.469   1.885
 6871SOL    HW121512   5.116   0.551   1.904
 6871SOL    HW221513   5.132   0.422   1.805
 6872SOL     OW21514   2.762   3.686   7.003
 6872SOL    HW121515   2.766   3.660   6.906
 6872SOL    HW221516   2.804   3.614   0.034
 6873SOL     OW21517   5.228   4.242   5.825
 6873SOL    HW121518   5.202   4.214   5.732
 6873SOL    HW221519   5.267   4.334   5.822
 6874SOL     OW21520   0.679   2.570   5.500
 6874SOL    HW121521   0.693   2.550   5.403
 6874SOL    HW221522   0.704   2.490   5.554
 6875SOL     OW21523   2.472   1.829   4.119
 6875SOL    HW121524   2.556   1.777   4.102
 6875SOL    HW221525   2.437   1.807   4.210
 6876SOL     OW21526   3.617   6.312   6.018
 6876SOL    HW121527   3.546   6.299   6.087
 6876SOL    HW221528   3.654   6.223   5.991
 6877SOL     OW21529   2.674   4.540   6.814
 6877SOL    HW121530   2.643   4.607   6.746
 6877SOL    HW221531   2.644   4.449   6.786
 6878SOL     OW21532   1.506   1.794   4.742
 6878SOL    HW121533   1.488   1.869   4.807
 6878SOL    HW221534   1.538   1.714   4.793
 6879SOL     OW21535   0.891   1.387   6.147
 6879SOL    HW121536   0.970   1.337   6.184
 6879SOL    HW221537   0.911   1.485   6.148
 6880SOL     OW21538   1.806   4.477   4.962
 6880SOL    HW121539   1.831   4.381   4.975
 6880SOL    HW221540   1.860   4.534   5.024
 6881SOL     OW21541   6.605   4.676   1.363
 6881SOL    HW121542   6.640   4.761   1.401
 6881SOL    HW221543   6.652   4.656   1.277
 6882SOL     OW21544   2.021   6.940   5.417
 6882SOL    HW121545   2.081   6.971   5.344
 6882SOL    HW221546   2.052   6.979   5.504
 6883SOL     OW21547   3.309   5.575   1.351
 6883SOL    HW121548   3.261   5.519   1.283
 6883SOL    HW221549   3.252   5.653   1.375
 6884SOL     OW21550   2.958   4.760   2.936
 6884SOL    HW121551   3.057   4.761   2.933
 6884SOL    HW221552   2.922   4.850   2.912
 6885SOL     OW21553   3.587   5.433   5.063
 6885SOL    HW121554   3.527   5.368   5.111
 6885SOL    HW221555   3.589   5.411   4.966
 6886SOL     OW21556   5.779   2.141   2.795
 6886SOL    HW121557   5.771   2.069   2.863
 6886SOL    HW221558   5.832   2.107   2.717
 6887SOL     OW21559   5.187   0.487   4.720
 6887SOL    HW121560   5.228   0.577   4.708
 6887SOL    HW221561   5.258   0.419   4.732
 6888SOL     OW21562   5.525   6.159   4.730
 6888SOL    HW121563   5.500   6.214   4.810
 6888SOL    HW221564   5.625   6.154   4.723
 6889SOL     OW21565   1.757   4.176   5.770
 6889SOL    HW121566   1.779   4.193   5.674
 6889SOL    HW221567   1.766   4.078   5.789
 6890SOL     OW21568   2.229   0.603   0.085
 6890SOL    HW121569   2.314   0.634   0.041
 6890SOL    HW221570   2.182   0.539   0.024
 6891SOL     OW21571   3.337   4.970   4.474
 6891SOL    HW121572   3.432   4.998   4.486
 6891SOL    HW221573   3.327   4.916   4.390
 6892SOL     OW21574   3.991   0.977   3.696
 6892SOL    HW121575   4.010   0.939   3.605
 6892SOL    HW221576   3.892   0.986   3.707
 6893SOL     OW21577   5.795   6.822   2.186
 6893SOL    HW121578   5.752   6.894   2.132
 6893SOL    HW221579   5.855   6.768   2.126
 6894SOL     OW21580   6.208   4.309   6.313
 6894SOL    HW121581   6.248   4.400   6.301
 6894SOL    HW221582   6.158   4.283   6.230
 6895SOL     OW21583   4.121   5.342   6.215
 6895SOL    HW121584   4.048   5.409   6.226
 6895SOL    HW221585   4.142   5.331   6.117
 6896SOL     OW21586   4.534   6.786   3.287
 6896SOL    HW121587   4.526   6.731   3.370
 6896SOL    HW221588   4.600   6.859   3.302
 6897SOL     OW21589   3.606   1.993   0.524
 6897SOL    HW121590   3.583   2.090   0.514
 6897SOL    HW221591   3.523   1.942   0.547
 6898SOL     OW21592   4.036   1.459   2.744
 6898SOL    HW121593   4.059   1.494   2.835
 6898SOL    HW221594   3.941   1.430   2.742
 6899SOL     OW21595   5.143   6.334   0.123
 6899SOL    HW121596   5.107   6.427   0.126
 6899SOL    HW221597   5.216   6.328   0.054
 6900SOL     OW21598   3.958   1.641   5.067
 6900SOL    HW121599   3.888   1.578   5.101
 6900SOL    HW221600   3.964   1.720   5.128
 6901SOL     OW21601   1.366   0.592   6.933
 6901SOL    HW121602   1.313   0.560   7.012
 6901SOL    HW221603   1.304   0.628   6.864
 6902SOL     OW21604   6.620   5.391   1.151
 6902SOL    HW121605   6.647   5.441   1.068
 6902SOL    HW221606   6.523   5.404   1.168
 6903SOL     OW21607   4.377   3.600   0.842
 6903SOL    HW121608   4.471   3.565   0.851
 6903SOL    HW221609   4.348   3.640   0.928
 6904SOL     OW21610   0.073   1.702   2.930
 6904SOL    HW121611   0.050   1.677   3.024
 6904SOL    HW221612   0.040   1.794   2.910
 6905SOL     OW21613   4.176   5.305   1.319
 6905SOL    HW121614   4.263   5.351   1.303
 6905SOL    HW221615   4.170   5.222   1.264
 6906SOL     OW21616   4.130   6.146   3.479
 6906SOL    HW121617   4.057   6.078   3.479
 6906SOL    HW221618   4.214   6.105   3.443
 6907SOL     OW21619   3.766   1.680   1.606
 6907SOL    HW121620   3.795   1.597   1.557
 6907SOL    HW221621   3.831   1.753   1.588
 6908SOL     OW21622   0.546   6.933   6.392
 6908SOL    HW121623   0.461   6.971   6.355
 6908SOL    HW221624   0.540   6.833   6.390
 6909SOL     OW21625   4.846   3.363   6.753
 6909SOL    HW121626   4.937   3.391   6.783
 6909SOL    HW221627   4.793   3.444   6.729
 6910SOL     OW21628   6.786   1.572   2.316
 6910SOL    HW121629   6.754   1.477   2.307
 6910SOL    HW221630   6.818   1.605   2.227
 6911SOL     OW21631   3.846   0.853   4.933
 6911SOL    HW121632   3.915   0.805   4.879
 6911SOL    HW221633   3.799   0.788   4.993
 6912SOL     OW21634   4.933   5.269   0.900
 6912SOL    HW121635   4.878   5.255   0.982
 6912SOL    HW221636   5.015   5.213   0.904
 6913SOL     OW21637   5.499   5.483   5.307
 6913SOL    HW121638   5.474   5.448   5.398
 6913SOL    HW221639   5.598   5.476   5.295
 6914SOL     OW21640   6.089   5.131   0.677
 6914SOL    HW121641   6.123   5.068   0.608
 6914SOL    HW221642   6.088   5.224   0.640
 6915SOL     OW21643   0.887   5.775   1.225
 6915SOL    HW121644   0.797   5.767   1.268
 6915SOL    HW221645   0.897   5.705   1.154
 6916SOL     OW21646   0.026   1.273   6.798
 6916SOL    HW121647   6.984   1.198   6.795
 6916SOL    HW221648   0.051   1.292   6.893
 6917SOL     OW21649   4.549   0.148   6.891
 6917SOL    HW121650   4.496   0.116   6.970
 6917SOL    HW221651   4.530   0.245   6.876
 6918SOL     OW21652   2.247   3.084   3.541
 6918SOL    HW121653   2.195   3.156   3.496
 6918SOL    HW221654   2.281   3.020   3.472
 6919SOL     OW21655   1.755   6.517   3.464
 6919SOL    HW121656   1.758   6.422   3.432
 6919SOL    HW221657   1.833   6.567   3.425
 6920SOL     OW21658   4.972   6.139   4.982
 6920SOL    HW121659   4.947   6.081   4.904
 6920SOL    HW221660   4.899   6.206   4.998
 6921SOL     OW21661   0.153   0.014   3.108
 6921SOL    HW121662   0.135   6.951   3.153
 6921SOL    HW221663   0.195   7.023   3.019
 6922SOL     OW21664   1.421   5.433   0.364
 6922SOL    HW121665   1.448   5.526   0.388
 6922SOL    HW221666   1.328   5.415   0.396
 6923SOL     OW21667   4.815   6.679   4.437
 6923SOL    HW121668   4.807   6.722   4.347
 6923SOL    HW221669   4.735   6.702   4.492
 6924SOL     OW21670   0.194   5.945   1.199
 6924SOL    HW121671   0.268   5.886   1.232
 6924SOL    HW221672   0.214   6.040   1.223
 6925SOL     OW21673   5.962   6.027   2.549
 6925SOL    HW121674   5.983   6.003   2.644
 6925SOL    HW221675   6.024   6.100   2.519
 6926SOL     OW21676   3.024   3.698   5.118
 6926SOL    HW121677   2.984   3.616   5.075
 6926SOL    HW221678   3.110   3.721   5.073
 6927SOL     OW21679   4.438   3.766   5.874
 6927SOL    HW121680   4.498   3.822   5.817
 6927SOL    HW221681   4.429   3.807   5.965
 6928SOL     OW21682   6.023   6.767   6.499
 6928SOL    HW121683   6.073   6.844   6.539
 6928SOL    HW221684   6.042   6.684   6.551
 6929SOL     OW21685   3.258   5.449   0.158
 6929SOL    HW121686   3.238   5.521   0.092
 6929SOL    HW221687   3.295   5.369   0.110
 6930SOL     OW21688   1.206   6.277   3.417
 6930SOL    HW121689   1.234   6.217   3.491
 6930SOL    HW221690   1.138   6.343   3.450
 6931SOL     OW21691   1.562   1.151   1.436
 6931SOL    HW121692   1.661   1.142   1.444
 6931SOL    HW221693   1.530   1.226   1.495
 6932SOL     OW21694   2.495   2.754   0.921
 6932SOL    HW121695   2.549   2.819   0.974
 6932SOL    HW221696   2.535   2.744   0.830
 6933SOL     OW21697   3.884   6.452   6.531
 6933SOL    HW121698   3.805   6.475   6.588
 6933SOL    HW221699   3.952   6.405   6.587
 6934SOL     OW21700   6.022   3.586   6.198
 6934SOL    HW121701   6.120   3.606   6.192
 6934SOL    HW221702   5.988   3.614   6.288
 6935SOL     OW21703   4.420   5.509   3.343
 6935SOL    HW121704   4.504   5.484   3.390
 6935SOL    HW221705   4.344   5.454   3.377
 6936SOL     OW21706   1.970   4.337   1.544
 6936SOL    HW121707   2.035   4.264   1.523
 6936SOL    HW221708   1.887   4.298   1.584
 6937SOL     OW21709   4.519   6.665   5.938
 6937SOL    HW121710   4.432   6.692   5.978
 6937SOL    HW221711   4.522   6.566   5.927
 6938SOL     OW21712   4.996   1.866   4.869
 6938SOL    HW121713   5.045   1.913   4.796
 6938SOL    HW221714   4.980   1.930   4.945
 6939SOL     OW21715   0.925   4.399   2.671
 6939SOL    HW121716   0.880   4.354   2.749
 6939SOL    HW221717   1.017   4.360   2.659
 6940SOL     OW21718   4.280   0.672   5.273
 6940SOL    HW121719   4.290   0.641   5.178
 6940SOL    HW221720   4.248   0.596   5.330
 6941SOL     OW21721   3.670   3.128   3.193
 6941SOL    HW121722   3.755   3.087   3.159
 6941SOL    HW221723   3.650   3.092   3.284
 6942SOL     OW21724   6.657   1.684   0.010
 6942SOL    HW121725   6.753   1.683   0.040
 6942SOL    HW221726   6.603   1.737   0.076
 6943SOL     OW21727   4.996   6.281   6.430
 6943SOL    HW121728   5.056   6.280   6.350
 6943SOL    HW221729   4.904   6.252   6.404
 6944SOL     OW21730   1.619   6.419   6.052
 6944SOL    HW121731   1.524   6.410   6.083
 6944SOL    HW221732   1.625   6.491   5.984
 6945SOL     OW21733   5.216   2.525   6.127
 6945SOL    HW121734   5.276   2.490   6.199
 6945SOL    HW221735   5.121   2.500   6.148
 6946SOL     OW21736   6.310   4.281   3.285
 6946SOL    HW121737   6.228   4.279   3.227
 6946SOL    HW221738   6.282   4.275   3.381
 6947SOL     OW21739   3.693   7.018   2.852
 6947SOL    HW121740   3.772   6.960   2.876
 6947SOL    HW221741   3.654   0.032   2.935
 6948SOL     OW21742   3.813   1.772   4.833
 6948SOL    HW121743   3.789   1.767   4.930
 6948SOL    HW221744   3.882   1.703   4.812
 6949SOL     OW21745   5.337   0.489   2.568
 6949SOL    HW121746   5.292   0.480   2.478
 6949SOL    HW221747   5.376   0.401   2.594
 6950SOL     OW21748   1.884   0.776   3.454
 6950SOL    HW121749   1.855   0.763   3.549
 6950SOL    HW221750   1.837   0.711   3.395
 6951SOL     OW21751   5.928   5.331   5.780
 6951SOL    HW121752   5.945   5.233   5.773
 6951SOL    HW221753   5.850   5.356   5.722
 6952SOL     OW21754   0.609   4.777   4.634
 6952SOL    HW121755   0.634   4.837   4.711
 6952SOL    HW221756   0.510   4.764   4.633
 6953SOL     OW21757   5.217   1.488   4.727
 6953SOL    HW121758   5.156   1.452   4.656
 6953SOL    HW221759   5.312   1.464   4.705
 6954SOL     OW21760   0.873   4.216   3.354
 6954SOL    HW121761   0.872   4.194   3.452
 6954SOL    HW221762   0.791   4.179   3.311
 6955SOL     OW21763   6.526   5.515   2.548
 6955SOL    HW121764   6.432   5.522   2.581
 6955SOL    HW221765   6.538   5.428   2.500
 6956SOL     OW21766   3.402   4.779   1.646
 6956SOL    HW121767   3.474   4.743   1.705
 6956SOL    HW221768   3.321   4.721   1.654
 6957SOL     OW21769   0.971   4.289   0.430
 6957SOL    HW121770   0.937   4.312   0.521
 6957SOL    HW221771   0.915   4.217   0.391
 6958SOL     OW21772   2.582   3.753   6.334
 6958SOL    HW121773   2.493   3.800   6.329
 6958SOL    HW221774   2.655   3.820   6.319
 6959SOL     OW21775   3.294   1.202   4.378
 6959SOL    HW121776   3.197   1.226   4.380
 6959SOL    HW221777   3.340   1.244   4.456
 6960SOL     OW21778   0.065   4.922   0.127
 6960SOL    HW121779   0.056   4.863   0.047
 6960SOL    HW221780   0.138   4.988   0.112
 6961SOL     OW21781   6.862   1.473   2.775
 6961SOL    HW121782   6.936   1.420   2.732
 6961SOL    HW221783   6.830   1.425   2.857
 6962SOL     OW21784   4.650   3.528   0.317
 6962SOL    HW121785   4.640   3.437   0.355
 6962SOL    HW221786   4.559   3.568   0.301
 6963SOL     OW21787   6.382   5.712   2.082
 6963SOL    HW121788   6.398   5.796   2.030
 6963SOL    HW221789   6.305   5.725   2.145
 6964SOL     OW21790   3.922   6.641   5.327
 6964SOL    HW121791   3.910   6.545   5.355
 6964SOL    HW221792   3.964   6.644   5.237
 6965SOL     OW21793   6.611   2.768   6.381
 6965SOL    HW121794   6.571   2.859   6.393
 6965SOL    HW221795   6.661   2.743   6.464
 6966SOL     OW21796   4.656   2.684   3.862
 6966SOL    HW121797   4.638   2.588   3.885
 6966SOL    HW221798   4.718   2.688   3.784
 6967SOL     OW21799   2.169   0.775   6.193
 6967SOL    HW121800   2.251   0.735   6.233
 6967SOL    HW221801   2.189   0.868   6.163
 6968SOL     OW21802   4.976   6.944   2.140
 6968SOL    HW121803   4.891   6.893   2.153
 6968SOL    HW221804   5.019   6.961   2.229
 6969SOL     OW21805   3.442   1.763   1.421
 6969SOL    HW121806   3.506   1.796   1.352
 6969SOL    HW221807   3.469   1.796   1.511
 6970SOL     OW21808   4.911   3.725   0.494
 6970SOL    HW121809   4.867   3.682   0.415
 6970SOL    HW221810   4.841   3.766   0.553
 6971SOL     OW21811   5.487   0.717   2.116
 6971SOL    HW121812   5.545   0.719   2.035
 6971SOL    HW221813   5.520   0.784   2.183
 6972SOL     OW21814   5.736   4.367   4.617
 6972SOL    HW121815   5.657   4.327   4.663
 6972SOL    HW221816   5.709   4.453   4.573
 6973SOL     OW21817   2.022   4.840   3.547
 6973SOL    HW121818   2.091   4.804   3.609
 6973SOL    HW221819   1.978   4.919   3.589
 6974SOL     OW21820   3.572   3.908   5.017
 6974SOL    HW121821   3.531   3.907   4.926
 6974SOL    HW221822   3.587   3.815   5.049
 6975SOL     OW21823   3.830   1.667   5.779
 6975SOL    HW121824   3.755   1.733   5.781
 6975SOL    HW221825   3.902   1.696   5.843
 6976SOL     OW21826   2.321   5.179   6.464
 6976SOL    HW121827   2.261   5.102   6.440
 6976SOL    HW221828   2.354   5.167   6.558
 6977SOL     OW21829   3.744   2.137   3.080
 6977SOL    HW121830   3.725   2.089   2.994
 6977SOL    HW221831   3.739   2.235   3.066
 6978SOL     OW21832   6.358   0.497   3.308
 6978SOL    HW121833   6.377   0.415   3.362
 6978SOL    HW221834   6.325   0.570   3.369
 6979SOL     OW21835   0.507   4.619   2.888
 6979SOL    HW121836   0.436   4.594   2.822
 6979SOL    HW221837   0.516   4.719   2.891
 6980SOL     OW21838   3.208   1.047   4.631
 6980SOL    HW121839   3.219   1.086   4.722
 6980SOL    HW221840   3.282   1.078   4.571
 6981SOL     OW21841   3.091   5.042   6.819
 6981SOL    HW121842   3.169   5.022   6.879
 6981SOL    HW221843   3.031   5.108   6.865
 6982SOL     OW21844   0.267   6.888   4.816
 6982SOL    HW121845   0.206   6.949   4.766
 6982SOL    HW221846   0.351   6.875   4.763
 6983SOL     OW21847   6.148   0.637   4.084
 6983SOL    HW121848   6.073   0.656   4.148
 6983SOL    HW221849   6.229   0.689   4.112
 6984SOL     OW21850   1.900   1.351   6.225
 6984SOL    HW121851   1.823   1.414   6.216
 6984SOL    HW221852   1.922   1.313   6.135
 6985SOL     OW21853   5.267   5.878   1.588
 6985SOL    HW121854   5.321   5.944   1.535
 6985SOL    HW221855   5.291   5.886   1.684
 6986SOL     OW21856   1.944   0.204   5.009
 6986SOL    HW121857   2.027   0.148   5.015
 6986SOL    HW221858   1.864   0.146   5.002
 6987SOL     OW21859   0.485   3.275   6.302
 6987SOL    HW121860   0.451   3.369   6.299
 6987SOL    HW221861   0.579   3.275   6.336
 6988SOL     OW21862   5.250   0.758   4.277
 6988SOL    HW121863   5.279   0.786   4.185
 6988SOL    HW221864   5.176   0.817   4.308
 6989SOL     OW21865   1.671   2.652   4.073
 6989SOL    HW121866   1.609   2.653   4.151
 6989SOL    HW221867   1.734   2.730   4.080
 6990SOL     OW21868   4.000   3.040   0.405
 6990SOL    HW121869   3.922   3.056   0.465
 6990SOL    HW221870   4.046   3.127   0.388
 6991SOL     OW21871   3.780   4.433   5.397
 6991SOL    HW121872   3.855   4.380   5.359
 6991SOL    HW221873   3.752   4.394   5.485
 6992SOL     OW21874   5.193   6.729   5.215
 6992SOL    HW121875   5.138   6.782   5.280
 6992SOL    HW221876   5.150   6.640   5.200
 6993SOL     OW21877   0.314   0.290   2.998
 6993SOL    HW121878   0.234   0.253   3.045
 6993SOL    HW221879   0.384   0.219   2.991
 6994SOL     OW21880   1.476   2.499   0.136
 6994SOL    HW121881   1.462   2.597   0.145
 6994SOL    HW221882   1.573   2.480   0.127
 6995SOL     OW21883   0.440   5.664   2.964
 6995SOL    HW121884   0.453   5.565   2.954
 6995SOL    HW221885   0.522   5.705   3.004
 6996SOL     OW21886   2.307   6.821   6.077
 6996SOL    HW121887   2.321   6.728   6.041
 6996SOL    HW221888   2.272   6.880   6.004
 6997SOL     OW21889   4.532   0.390   4.628
 6997SOL    HW121890   4.557   0.463   4.692
 6997SOL    HW221891   4.586   0.309   4.648
 6998SOL     OW21892   1.383   2.866   3.337
 6998SOL    HW121893   1.432   2.786   3.303
 6998SOL    HW221894   1.442   2.946   3.334
 6999SOL     OW21895   3.363   2.173   6.386
 6999SOL    HW121896   3.403   2.262   6.366
 6999SOL    HW221897   3.426   2.120   6.442
 7000SOL     OW21898   0.234   6.320   1.715
 7000SOL    HW121899   0.155   6.375   1.742
 7000SOL    HW221900   0.317   6.373   1.726
 7001SOL     OW21901   2.720   2.293   5.891
 7001SOL    HW121902   2.690   2.199   5.872
 7001SOL    HW221903   2.814   2.292   5.925
 7002SOL     OW21904   1.632   4.587   3.087
 7002SOL    HW121905   1.601   4.582   3.182
 7002SOL    HW221906   1.610   4.501   3.040
 7003SOL     OW21907   2.912   6.143   0.515
 7003SOL    HW121908   2.882   6.172   0.424
 7003SOL    HW221909   2.910   6.222   0.577
 7004SOL     OW21910   1.197   4.615   1.309
 7004SOL    HW121911   1.143   4.594   1.227
 7004SOL    HW221912   1.193   4.713   1.327
 7005SOL     OW21913   5.523   6.975   5.525
 7005SOL    HW121914   5.456   0.024   5.543
 7005SOL    HW221915   5.586   6.968   5.602
 7006SOL     OW21916   4.452   4.719   4.870
 7006SOL    HW121917   4.412   4.662   4.942
 7006SOL    HW221918   4.476   4.663   4.791
 7007SOL     OW21919   4.930   5.045   2.727
 7007SOL    HW121920   4.900   4.984   2.800
 7007SOL    HW221921   4.909   5.140   2.752
 7008SOL     OW21922   0.359   4.904   4.301
 7008SOL    HW121923   0.408   4.830   4.255
 7008SOL    HW221924   0.261   4.882   4.304
 7009SOL     OW21925   0.333   4.867   2.518
 7009SOL    HW121926   0.306   4.796   2.582
 7009SOL    HW221927   0.277   4.862   2.435
 7010SOL     OW21928   4.043   4.649   6.410
 7010SOL    HW121929   4.123   4.708   6.409
 7010SOL    HW221930   3.967   4.694   6.363
 7011SOL     OW21931   2.379   1.305   5.265
 7011SOL    HW121932   2.427   1.218   5.268
 7011SOL    HW221933   2.390   1.347   5.175
 7012SOL     OW21934   1.095   0.962   2.383
 7012SOL    HW121935   1.077   0.915   2.296
 7012SOL    HW221936   1.022   1.027   2.403
 7013SOL     OW21937   1.136   0.519   2.274
 7013SOL    HW121938   1.115   0.423   2.254
 7013SOL    HW221939   1.055   0.563   2.312
 7014SOL     OW21940   2.651   5.034   1.662
 7014SOL    HW121941   2.687   4.953   1.707
 7014SOL    HW221942   2.587   5.007   1.590
 7015SOL     OW21943   4.711   2.765   2.459
 7015SOL    HW121944   4.778   2.696   2.487
 7015SOL    HW221945   4.756   2.835   2.404
 7016SOL     OW21946   3.279   5.240   0.958
 7016SOL    HW121947   3.216   5.191   0.898
 7016SOL    HW221948   3.366   5.254   0.910
 7017SOL     OW21949   4.048   1.372   3.888
 7017SOL    HW121950   4.108   1.429   3.944
 7017SOL    HW221951   3.996   1.310   3.947
 7018SOL     OW21952   0.604   5.468   4.119
 7018SOL    HW121953   0.693   5.504   4.093
 7018SOL    HW221954   0.615   5.405   4.197
 7019SOL     OW21955   2.320   6.233   6.866
 7019SOL    HW121956   2.337   6.136   6.886
 7019SOL    HW221957   2.236   6.241   6.812
 7020SOL     OW21958   6.254   6.372   6.117
 7020SOL    HW121959   6.214   6.401   6.030
 7020SOL    HW221960   6.189   6.312   6.164
 7021SOL     OW21961   2.923   1.389   5.690
 7021SOL    HW121962   3.007   1.335   5.690
 7021SOL    HW221963   2.932   1.465   5.625
 7022SOL     OW21964   5.184   5.057   6.865
 7022SOL    HW121965   5.113   5.069   6.795
 7022SOL    HW221966   5.188   5.139   6.922
 7023SOL     OW21967   6.162   4.113   2.671
 7023SOL    HW121968   6.208   4.157   2.747
 7023SOL    HW221969   6.077   4.161   2.651
 7024SOL     OW21970   0.059   6.231   0.259
 7024SOL    HW121971   0.058   6.320   0.304
 7024SOL    HW221972   0.135   6.176   0.293
 7025SOL     OW21973   2.234   0.933   5.915
 7025SOL    HW121974   2.194   1.003   5.856
 7025SOL    HW221975   2.316   0.895   5.872
 7026SOL     OW21976   4.056   2.685   0.994
 7026SOL    HW121977   4.073   2.586   0.996
 7026SOL    HW221978   4.036   2.717   1.087
 7027SOL     OW21979   4.483   6.984   4.538
 7027SOL    HW121980   4.412   0.020   4.574
 7027SOL    HW221981   4.484   6.987   4.438
 7028SOL     OW21982   3.839   0.064   4.701
 7028SOL    HW121983   3.912   0.043   4.636
 7028SOL    HW221984   3.762   0.105   4.652
 7029SOL     OW21985   3.037   0.837   5.411
 7029SOL    HW121986   3.023   0.749   5.456
 7029SOL    HW221987   2.952   0.869   5.371
 7030SOL     OW21988   1.628   4.105   4.755
 7030SOL    HW121989   1.682   4.030   4.794
 7030SOL    HW221990   1.566   4.069   4.687
 7031SOL     OW21991   2.309   6.394   4.673
 7031SOL    HW121992   2.338   6.473   4.619
 7031SOL    HW221993   2.380   6.324   4.669
 7032SOL     OW21994   6.289   1.269   2.383
 7032SOL    HW121995   6.246   1.359   2.384
 7032SOL    HW221996   6.384   1.276   2.412
 7033SOL     OW21997   6.659   0.696   3.918
 7033SOL    HW121998   6.666   0.617   3.858
 7033SOL    HW221999   6.574   0.746   3.898
 7034SOL     OW22000   6.211   5.998   3.225
 7034SOL    HW122001   6.231   6.042   3.138
 7034SOL    HW222002   6.233   6.060   3.300
 7035SOL     OW22003   6.642   5.403   1.592
 7035SOL    HW122004   6.735   5.425   1.622
 7035SOL    HW222005   6.604   5.480   1.541
 7036SOL     OW22006   6.316   4.344   1.425
 7036SOL    HW122007   6.226   4.382   1.403
 7036SOL    HW222008   6.309   4.287   1.507
 7037SOL     OW22009   1.380   6.709   6.260
 7037SOL    HW122010   1.368   6.806   6.240
 7037SOL    HW222011   1.433   6.665   6.187
 7038SOL     OW22012   1.584   4.654   4.070
 7038SOL    HW122013   1.524   4.732   4.087
 7038SOL    HW222014   1.531   4.580   4.029
 7039SOL     OW22015   4.124   1.398   6.987
 7039SOL    HW122016   4.119   1.346   6.902
 7039SOL    HW222017   4.209   1.375   0.011
 7040SOL     OW22018   4.581   2.705   6.239
 7040SOL    HW122019   4.503   2.642   6.232
 7040SOL    HW222020   4.627   2.692   6.327
 7041SOL     OW22021   2.735   1.949   2.381
 7041SOL    HW122022   2.766   2.008   2.456
 7041SOL    HW222023   2.810   1.932   2.318
 7042SOL     OW22024   2.335   0.325   6.491
 7042SOL    HW122025   2.342   0.360   6.584
 7042SOL    HW222026   2.334   0.225   6.493
 7043SOL     OW22027   1.836   2.058   2.878
 7043SOL    HW122028   1.749   2.076   2.832
 7043SOL    HW222029   1.848   1.959   2.888
 7044SOL     OW22030   5.106   6.028   2.513
 7044SOL    HW122031   5.108   6.090   2.591
 7044SOL    HW222032   5.187   5.969   2.516
 7045SOL     OW22033   5.537   5.793   1.055
 7045SOL    HW122034   5.440   5.782   1.074
 7045SOL    HW222035   5.583   5.704   1.062
 7046SOL     OW22036   2.501   0.870   4.845
 7046SOL    HW122037   2.457   0.895   4.759
 7046SOL    HW222038   2.472   0.934   4.916
 7047SOL     OW22039   1.761   1.325   4.007
 7047SOL    HW122040   1.795   1.369   4.090
 7047SOL    HW222041   1.774   1.226   4.015
 7048SOL     OW22042   6.465   6.587   0.367
 7048SOL    HW122043   6.471   6.657   0.295
 7048SOL    HW222044   6.531   6.515   0.349
 7049SOL     OW22045   2.453   1.170   0.769
 7049SOL    HW122046   2.443   1.166   0.868
 7049SOL    HW222047   2.516   1.098   0.739
 7050SOL     OW22048   3.834   4.017   5.045
 7050SOL    HW122049   3.835   4.049   5.140
 7050SOL    HW222050   3.750   3.964   5.030
 7051SOL     OW22051   6.433   6.648   2.474
 7051SOL    HW122052   6.410   6.667   2.570
 7051SOL    HW222053   6.525   6.608   2.470
 7052SOL     OW22054   6.402   2.435   3.374
 7052SOL    HW122055   6.460   2.390   3.443
 7052SOL    HW222056   6.381   2.369   3.302
 7053SOL     OW22057   0.162   4.734   6.707
 7053SOL    HW122058   0.126   4.771   6.621
 7053SOL    HW222059   0.114   4.776   6.784
 7054SOL     OW22060   6.778   6.885   1.964
 7054SOL    HW122061   6.749   6.888   1.869
 7054SOL    HW222062   6.783   6.977   2.001
 7055SOL     OW22063   3.696   6.991   5.407
 7055SOL    HW122064   3.735   0.028   5.338
 7055SOL    HW222065   3.769   6.933   5.445
 7056SOL     OW22066   4.777   4.853   3.568
 7056SOL    HW122067   4.795   4.843   3.470
 7056SOL    HW222068   4.825   4.781   3.618
 7057SOL     OW22069   0.862   6.128   3.424
 7057SOL    HW122070   0.846   6.212   3.371
 7057SOL    HW222071   0.821   6.051   3.377
 7058SOL     OW22072   0.753   5.357   5.394
 7058SOL    HW122073   0.712   5.371   5.304
 7058SOL    HW222074   0.827   5.424   5.407
 7059SOL     OW22075   1.659   0.487   2.676
 7059SOL    HW122076   1.723   0.551   2.718
 7059SOL    HW222077   1.645   0.409   2.737
 7060SOL     OW22078   2.980   6.675   1.339
 7060SOL    HW122079   3.021   6.620   1.413
 7060SOL    HW222080   3.045   6.745   1.311
 7061SOL     OW22081   0.446   1.032   2.503
 7061SOL    HW122082   0.383   0.954   2.510
 7061SOL    HW222083   0.415   1.104   2.566
 7062SOL     OW22084   5.708   2.013   4.933
 7062SOL    HW122085   5.679   2.057   4.848
 7062SOL    HW222086   5.713   2.081   5.006
 7063SOL     OW22087   3.136   6.135   1.346
 7063SOL    HW122088   3.087   6.070   1.404
 7063SOL    HW222089   3.075   6.212   1.324
 7064SOL     OW22090   4.080   2.343   0.284
 7064SOL    HW122091   4.047   2.420   0.338
 7064SOL    HW222092   4.169   2.366   0.243
 7065SOL     OW22093   4.345   3.926   1.266
 7065SOL    HW122094   4.311   3.877   1.186
 7065SOL    HW222095   4.268   3.950   1.326
 7066SOL     OW22096   3.621   6.219   0.527
 7066SOL    HW122097   3.682   6.140   0.536
 7066SOL    HW222098   3.555   6.219   0.602
 7067SOL     OW22099   0.247   3.998   5.266
 7067SOL    HW122100   0.160   4.011   5.219
 7067SOL    HW222101   0.296   4.085   5.271
 7068SOL     OW22102   1.270   0.437   3.389
 7068SOL    HW122103   1.248   0.399   3.479
 7068SOL    HW222104   1.222   0.386   3.318
 7069SOL     OW22105   1.345   4.531   5.124
 7069SOL    HW122106   1.400   4.474   5.186
 7069SOL    HW222107   1.251   4.498   5.123
 7070SOL     OW22108   6.318   5.117   4.532
 7070SOL    HW122109   6.391   5.050   4.549
 7070SOL    HW222110   6.231   5.082   4.566
 7071SOL     OW22111   1.228   6.414   5.606
 7071SOL    HW122112   1.275   6.501   5.619
 7071SOL    HW222113   1.254   6.350   5.679
 7072SOL     OW22114   0.240   6.532   6.133
 7072SOL    HW122115   0.334   6.501   6.146
 7072SOL    HW222116   0.233   6.629   6.156
 7073SOL     OW22117   0.672   0.758   5.516
 7073SOL    HW122118   0.673   0.852   5.484
 7073SOL    HW222119   0.580   0.733   5.544
 7074SOL     OW22120   3.673   2.329   1.473
 7074SOL    HW122121   3.652   2.384   1.553
 7074SOL    HW222122   3.710   2.241   1.501
 7075SOL     OW22123   1.370   5.691   2.879
 7075SOL    HW122124   1.408   5.611   2.833
 7075SOL    HW222125   1.279   5.710   2.843
 7076SOL     OW22126   2.664   2.411   6.796
 7076SOL    HW122127   2.634   2.323   6.833
 7076SOL    HW222128   2.605   2.484   6.831
 7077SOL     OW22129   2.255   5.426   5.613
 7077SOL    HW122130   2.209   5.421   5.525
 7077SOL    HW222131   2.331   5.361   5.615
 7078SOL     OW22132   5.683   0.718   3.306
 7078SOL    HW122133   5.587   0.737   3.289
 7078SOL    HW222134   5.727   0.686   3.222
 7079SOL     OW22135   6.012   6.032   5.553
 7079SOL    HW122136   6.085   6.031   5.484
 7079SOL    HW222137   5.963   6.119   5.549
 7080SOL     OW22138   4.598   0.108   4.019
 7080SOL    HW122139   4.695   0.097   4.039
 7080SOL    HW222140   4.580   0.077   3.926
 7081SOL     OW22141   3.672   1.033   4.357
 7081SOL    HW122142   3.731   1.071   4.428
 7081SOL    HW222143   3.612   0.964   4.397
 7082SOL     OW22144   5.216   0.462   6.419
 7082SOL    HW122145   5.121   0.476   6.450
 7082SOL    HW222146   5.221   0.477   6.320
 7083SOL     OW22147   3.274   0.403   5.954
 7083SOL    HW122148   3.178   0.374   5.954
 7083SOL    HW222149   3.333   0.322   5.955
 7084SOL     OW22150   6.837   6.346   6.224
 7084SOL    HW122151   6.764   6.343   6.155
 7084SOL    HW222152   6.814   6.412   6.295
 7085SOL     OW22153   2.531   2.257   1.245
 7085SOL    HW122154   2.558   2.178   1.191
 7085SOL    HW222155   2.611   2.293   1.294
 7086SOL     OW22156   6.170   0.653   6.428
 7086SOL    HW122157   6.114   0.722   6.474
 7086SOL    HW222158   6.114   0.574   6.406
 7087SOL     OW22159   1.603   3.262   4.133
 7087SOL    HW122160   1.541   3.232   4.060
 7087SOL    HW222161   1.696   3.271   4.097
 7088SOL     OW22162   6.410   2.255   5.659
 7088SOL    HW122163   6.503   2.255   5.695
 7088SOL    HW222164   6.397   2.333   5.598
 7089SOL     OW22165   2.685   1.387   0.163
 7089SOL    HW122166   2.619   1.348   0.100
 7089SOL    HW222167   2.637   1.442   0.232
 7090SOL     OW22168   2.637   2.102   4.769
 7090SOL    HW122169   2.557   2.094   4.711
 7090SOL    HW222170   2.615   2.069   4.861
 7091SOL     OW22171   0.035   5.859   6.884
 7091SOL    HW122172   0.109   5.830   6.823
 7091SOL    HW222173   0.024   5.959   6.877
 7092SOL     OW22174   3.498   3.819   0.501
 7092SOL    HW122175   3.449   3.859   0.423
 7092SOL    HW222176   3.484   3.720   0.501
 7093SOL     OW22177   3.198   3.519   4.826
 7093SOL    HW122178   3.218   3.614   4.849
 7093SOL    HW222179   3.175   3.512   4.729
 7094SOL     OW22180   0.580   0.457   5.704
 7094SOL    HW122181   0.510   0.525   5.684
 7094SOL    HW222182   0.582   0.387   5.633
 7095SOL     OW22183   0.926   2.888   6.611
 7095SOL    HW122184   0.849   2.912   6.670
 7095SOL    HW222185   0.907   2.917   6.517
 7096SOL     OW22186   4.759   1.578   2.807
 7096SOL    HW122187   4.718   1.501   2.759
 7096SOL    HW222188   4.856   1.560   2.823
 7097SOL     OW22189   0.589   0.471   1.913
 7097SOL    HW122190   0.493   0.454   1.892
 7097SOL    HW222191   0.645   0.399   1.873
 7098SOL     OW22192   1.472   6.522   5.768
 7098SOL    HW122193   1.469   6.583   5.689
 7098SOL    HW222194   1.445   6.572   5.850
 7099SOL     OW22195   0.443   0.730   6.257
 7099SOL    HW122196   0.381   0.766   6.327
 7099SOL    HW222197   0.533   0.771   6.269
 7100SOL     OW22198   5.671   3.096   1.276
 7100SOL    HW122199   5.628   3.161   1.213
 7100SOL    HW222200   5.644   3.117   1.370
 7101SOL     OW22201   2.477   0.007   5.199
 7101SOL    HW122202   2.434   0.074   5.260
 7101SOL    HW222203   2.553   6.987   5.247
 7102SOL     OW22204   4.679   2.213   0.971
 7102SOL    HW122205   4.740   2.281   0.932
 7102SOL    HW222206   4.589   2.253   0.986
 7103SOL     OW22207   3.848   6.720   6.715
 7103SOL    HW122208   3.894   6.779   6.782
 7103SOL    HW222209   3.887   6.735   6.625
 7104SOL     OW22210   1.173   2.273   2.824
 7104SOL    HW122211   1.120   2.188   2.836
 7104SOL    HW222212   1.172   2.324   2.910
 7105SOL     OW22213   3.213   3.798   4.922
 7105SOL    HW122214   3.126   3.846   4.921
 7105SOL    HW222215   3.282   3.853   4.876
 7106SOL     OW22216   3.316   2.821   5.215
 7106SOL    HW122217   3.300   2.920   5.217
 7106SOL    HW222218   3.392   2.801   5.153
 7107SOL     OW22219   2.776   1.970   0.289
 7107SOL    HW122220   2.789   1.902   0.361
 7107SOL    HW222221   2.818   1.937   0.204
 7108SOL     OW22222   4.870   0.292   1.421
 7108SOL    HW122223   4.826   0.348   1.351
 7108SOL    HW222224   4.963   0.268   1.391
 7109SOL     OW22225   3.960   6.606   6.337
 7109SOL    HW122226   3.923   6.552   6.412
 7109SOL    HW222227   4.059   6.610   6.344
 7110SOL     OW22228   4.401   5.193   3.524
 7110SOL    HW122229   4.330   5.262   3.507
 7110SOL    HW222230   4.385   5.150   3.612
 7111SOL     OW22231   2.159   3.448   4.247
 7111SOL    HW122232   2.068   3.488   4.232
 7111SOL    HW222233   2.176   3.443   4.346
 7112SOL     OW22234   1.039   6.461   3.556
 7112SOL    HW122235   1.072   6.541   3.606
 7112SOL    HW222236   0.941   6.472   3.536
 7113SOL     OW22237   4.059   3.644   4.315
 7113SOL    HW122238   4.051   3.735   4.355
 7113SOL    HW222239   4.091   3.652   4.220
 7114SOL     OW22240   3.556   1.132   0.552
 7114SOL    HW122241   3.480   1.121   0.616
 7114SOL    HW222242   3.576   1.043   0.509
 7115SOL     OW22243   4.701   1.727   0.990
 7115SOL    HW122244   4.668   1.814   0.956
 7115SOL    HW222245   4.632   1.686   1.050
 7116SOL     OW22246   5.512   4.107   3.093
 7116SOL    HW122247   5.510   4.065   3.002
 7116SOL    HW222248   5.424   4.091   3.139
 7117SOL     OW22249   5.805   6.513   1.537
 7117SOL    HW122250   5.709   6.488   1.525
 7117SOL    HW222251   5.863   6.437   1.511
 7118SOL     OW22252   6.494   3.350   0.948
 7118SOL    HW122253   6.557   3.373   1.022
 7118SOL    HW222254   6.531   3.382   0.861
 7119SOL     OW22255   6.509   2.258   3.537
 7119SOL    HW122256   6.559   2.238   3.453
 7119SOL    HW222257   6.514   2.180   3.598
 7120SOL     OW22258   4.974   0.386   3.035
 7120SOL    HW122259   5.015   0.449   3.101
 7120SOL    HW222260   5.013   0.402   2.944
 7121SOL     OW22261   3.583   6.587   2.586
 7121SOL    HW122262   3.540   6.636   2.510
 7121SOL    HW222263   3.576   6.642   2.669
 7122SOL     OW22264   5.886   0.878   6.568
 7122SOL    HW122265   5.878   0.785   6.533
 7122SOL    HW222266   5.948   0.879   6.647
 7123SOL     OW22267   2.368   5.246   1.363
 7123SOL    HW122268   2.310   5.327   1.356
 7123SOL    HW222269   2.457   5.265   1.322
 7124SOL     OW22270   0.464   4.922   0.514
 7124SOL    HW122271   0.498   4.850   0.454
 7124SOL    HW222272   0.528   4.999   0.513
 7125SOL     OW22273   6.014   6.303   2.959
 7125SOL    HW122274   6.003   6.211   2.997
 7125SOL    HW222275   6.025   6.368   3.034
 7126SOL     OW22276   1.495   4.435   0.255
 7126SOL    HW122277   1.432   4.491   0.309
 7126SOL    HW222278   1.556   4.385   0.315
 7127SOL     OW22279   3.628   6.672   4.781
 7127SOL    HW122280   3.615   6.751   4.841
 7127SOL    HW222281   3.674   6.599   4.832
 7128SOL     OW22282   3.225   3.922   1.296
 7128SOL    HW122283   3.185   3.852   1.356
 7128SOL    HW222284   3.153   3.963   1.240
 7129SOL     OW22285   2.759   0.151   1.395
 7129SOL    HW122286   2.778   0.074   1.455
 7129SOL    HW222287   2.660   0.166   1.391
 7130SOL     OW22288   2.349   4.711   3.058
 7130SOL    HW122289   2.278   4.763   3.011
 7130SOL    HW222290   2.383   4.639   2.998
 7131SOL     OW22291   2.547   0.836   3.165
 7131SOL    HW122292   2.633   0.787   3.181
 7131SOL    HW222293   2.507   0.806   3.078
 7132SOL     OW22294   3.407   4.144   3.291
 7132SOL    HW122295   3.442   4.077   3.356
 7132SOL    HW222296   3.308   4.134   3.281
 7133SOL     OW22297   5.291   5.093   3.035
 7133SOL    HW122298   5.272   5.001   3.070
 7133SOL    HW222299   5.275   5.095   2.936
 7134SOL     OW22300   5.286   3.935   4.246
 7134SOL    HW122301   5.197   3.969   4.215
 7134SOL    HW222302   5.358   3.994   4.211
 7135SOL     OW22303   0.953   2.351   4.918
 7135SOL    HW122304   0.914   2.443   4.907
 7135SOL    HW222305   1.045   2.350   4.878
 7136SOL     OW22306   2.014   1.560   0.017
 7136SOL    HW122307   1.948   1.542   0.090
 7136SOL    HW222308   2.030   1.476   6.990
 7137SOL     OW22309   3.942   0.559   4.384
 7137SOL    HW122310   3.912   0.629   4.320
 7137SOL    HW222311   4.035   0.530   4.361
 7138SOL     OW22312   2.434   4.329   0.904
 7138SOL    HW122313   2.422   4.338   0.805
 7138SOL    HW222314   2.525   4.294   0.923
 7139SOL     OW22315   3.836   2.454   1.250
 7139SOL    HW122316   3.811   2.523   1.183
 7139SOL    HW222317   3.760   2.439   1.313
 7140SOL     OW22318   6.426   3.658   5.154
 7140SOL    HW122319   6.381   3.581   5.199
 7140SOL    HW222320   6.470   3.716   5.224
 7141SOL     OW22321   2.741   6.828   0.384
 7141SOL    HW122322   2.802   6.790   0.454
 7141SOL    HW222323   2.685   6.900   0.425
 7142SOL     OW22324   4.109   5.723   4.224
 7142SOL    HW122325   4.173   5.688   4.156
 7142SOL    HW222326   4.157   5.787   4.284
 7143SOL     OW22327   2.072   3.628   4.830
 7143SOL    HW122328   2.088   3.560   4.901
 7143SOL    HW222329   2.052   3.716   4.872
 7144SOL     OW22330   0.831   2.444   3.711
 7144SOL    HW122331   0.760   2.503   3.749
 7144SOL    HW222332   0.790   2.361   3.674
 7145SOL     OW22333   4.423   0.186   0.131
 7145SOL    HW122334   4.424   0.128   0.213
 7145SOL    HW222335   4.330   0.222   0.118
 7146SOL     OW22336   2.998   5.138   0.405
 7146SOL    HW122337   2.906   5.124   0.443
 7146SOL    HW222338   3.047   5.051   0.403
 7147SOL     OW22339   0.401   0.580   3.474
 7147SOL    HW122340   0.416   0.507   3.542
 7147SOL    HW222341   0.366   0.661   3.520
 7148SOL     OW22342   1.209   0.755   1.770
 7148SOL    HW122343   1.130   0.803   1.732
 7148SOL    HW222344   1.186   0.721   1.861
 7149SOL     OW22345   6.226   1.704   3.283
 7149SOL    HW122346   6.237   1.686   3.186
 7149SOL    HW222347   6.316   1.721   3.324
 7150SOL     OW22348   6.266   3.141   0.072
 7150SOL    HW122349   6.183   3.188   0.103
 7150SOL    HW222350   6.340   3.156   0.138
 7151SOL     OW22351   2.554   5.992   1.849
 7151SOL    HW122352   2.615   5.938   1.791
 7151SOL    HW222353   2.564   6.089   1.827
 7152SOL     OW22354   1.225   2.666   3.878
 7152SOL    HW122355   1.295   2.610   3.834
 7152SOL    HW222356   1.187   2.617   3.956
 7153SOL     OW22357   3.605   1.424   3.822
 7153SOL    HW122358   3.621   1.442   3.920
 7153SOL    HW222359   3.669   1.354   3.791
 7154SOL     OW22360   5.112   6.006   4.088
 7154SOL    HW122361   5.097   5.980   4.184
 7154SOL    HW222362   5.099   5.926   4.030
 7155SOL     OW22363   2.880   7.019   1.175
 7155SOL    HW122364   2.977   0.016   1.188
 7155SOL    HW222365   2.825   0.072   1.209
 7156SOL     OW22366   0.176   5.782   4.864
 7156SOL    HW122367   0.089   5.746   4.830
 7156SOL    HW222368   0.177   5.882   4.856
 7157SOL     OW22369   4.493   4.652   1.226
 7157SOL    HW122370   4.548   4.581   1.182
 7157SOL    HW222371   4.481   4.630   1.323
 7158SOL     OW22372   6.310   6.871   3.946
 7158SOL    HW122373   6.221   6.826   3.950
 7158SOL    HW222374   6.315   6.944   4.014
 7159SOL     OW22375   0.934   5.045   6.996
 7159SOL    HW122376   0.970   5.083   0.057
 7159SOL    HW222377   0.917   4.947   7.007
 7160SOL     OW22378   5.523   0.216   1.973
 7160SOL    HW122379   5.447   0.203   1.908
 7160SOL    HW222380   5.511   0.303   2.021
 7161SOL     OW22381   3.326   3.291   3.842
 7161SOL    HW122382   3.322   3.256   3.749
 7161SOL    HW222383   3.244   3.345   3.862
 7162SOL     OW22384   3.305   4.946   3.278
 7162SOL    HW122385   3.374   4.941   3.350
 7162SOL    HW222386   3.214   4.947   3.318
 7163SOL     OW22387   2.734   0.256   2.880
 7163SOL    HW122388   2.703   0.280   2.788
 7163SOL    HW222389   2.785   0.332   2.919
 7164SOL     OW22390   2.353   1.156   3.135
 7164SOL    HW122391   2.366   1.115   3.045
 7164SOL    HW222392   2.284   1.103   3.186
 7165SOL     OW22393   5.035   1.248   1.077
 7165SOL    HW122394   4.973   1.323   1.052
 7165SOL    HW222395   4.984   1.176   1.123
 7166SOL     OW22396   4.910   4.647   1.452
 7166SOL    HW122397   4.843   4.679   1.519
 7166SOL    HW222398   4.914   4.547   1.454
 7167SOL     OW22399   4.770   2.887   5.010
 7167SOL    HW122400   4.850   2.927   5.056
 7167SOL    HW222401   4.690   2.897   5.069
 7168SOL     OW22402   1.232   0.625   3.671
 7168SOL    HW122403   1.243   0.529   3.649
 7168SOL    HW222404   1.158   0.636   3.737
 7169SOL     OW22405   1.693   2.438   5.342
 7169SOL    HW122406   1.660   2.519   5.391
 7169SOL    HW222407   1.648   2.357   5.380
 7170SOL     OW22408   6.445   4.664   4.208
 7170SOL    HW122409   6.381   4.612   4.265
 7170SOL    HW222410   6.451   4.623   4.117
 7171SOL     OW22411   4.077   3.220   5.460
 7171SOL    HW122412   4.059   3.268   5.546
 7171SOL    HW222413   4.066   3.283   5.383
 7172SOL     OW22414   1.561   0.019   0.597
 7172SOL    HW122415   1.553   0.105   0.547
 7172SOL    HW222416   1.485   6.983   0.573
 7173SOL     OW22417   6.686   6.025   6.001
 7173SOL    HW122418   6.663   5.954   5.935
 7173SOL    HW222419   6.708   6.109   5.952
 7174SOL     OW22420   1.458   5.087   0.525
 7174SOL    HW122421   1.402   5.040   0.594
 7174SOL    HW222422   1.535   5.132   0.570
 7175SOL     OW22423   6.817   4.052   6.054
 7175SOL    HW122424   6.834   4.149   6.035
 7175SOL    HW222425   6.885   3.996   6.006
 7176SOL     OW22426   5.916   3.823   1.284
 7176SOL    HW122427   5.825   3.787   1.303
 7176SOL    HW222428   5.927   3.836   1.186
 7177SOL     OW22429   0.542   6.256   1.939
 7177SOL    HW122430   0.511   6.336   1.887
 7177SOL    HW222431   0.564   6.182   1.876
 7178SOL     OW22432   0.944   2.383   6.445
 7178SOL    HW122433   0.911   2.474   6.421
 7178SOL    HW222434   0.956   2.329   6.362
 7179SOL     OW22435   2.844   3.399   6.185
 7179SOL    HW122436   2.784   3.410   6.105
 7179SOL    HW222437   2.794   3.352   6.257
 7180SOL     OW22438   6.956   6.266   2.181
 7180SOL    HW122439   0.029   6.249   2.165
 7180SOL    HW222440   6.903   6.227   2.106
 7181SOL     OW22441   5.419   0.910   1.367
 7181SOL    HW122442   5.380   0.888   1.278
 7181SOL    HW222443   5.356   0.970   1.417
 7182SOL     OW22444   2.970   4.082   5.880
 7182SOL    HW122445   2.993   4.034   5.964
 7182SOL    HW222446   2.877   4.059   5.852
 7183SOL     OW22447   1.137   5.470   2.576
 7183SOL    HW122448   1.046   5.485   2.537
 7183SOL    HW222449   1.204   5.467   2.502
 7184SOL     OW22450   2.393   6.505   3.460
 7184SOL    HW122451   2.410   6.557   3.544
 7184SOL    HW222452   2.423   6.410   3.472
 7185SOL     OW22453   4.807   2.475   6.909
 7185SOL    HW122454   4.739   2.491   6.837
 7185SOL    HW222455   4.898   2.465   6.867
 7186SOL     OW22456   0.528   6.677   4.670
 7186SOL    HW122457   0.458   6.633   4.727
 7186SOL    HW222458   0.610   6.620   4.668
 7187SOL     OW22459   1.990   4.349   1.259
 7187SOL    HW122460   1.963   4.348   1.355
 7187SOL    HW222461   2.089   4.359   1.253
 7188SOL     OW22462   5.421   1.294   1.625
 7188SOL    HW122463   5.424   1.392   1.643
 7188SOL    HW222464   5.486   1.247   1.685
 7189SOL     OW22465   5.961   1.199   4.992
 7189SOL    HW122466   5.921   1.280   5.035
 7189SOL    HW222467   6.008   1.226   4.907
 7190SOL     OW22468   4.737   4.770   3.271
 7190SOL    HW122469   4.804   4.707   3.311
 7190SOL    HW222470   4.734   4.757   3.172
 7191SOL     OW22471   1.812   3.247   2.243
 7191SOL    HW122472   1.842   3.251   2.147
 7191SOL    HW222473   1.739   3.314   2.257
 7192SOL     OW22474   2.924   4.668   5.862
 7192SOL    HW122475   2.927   4.665   5.763
 7192SOL    HW222476   3.007   4.712   5.897
 7193SOL     OW22477   4.328   2.179   3.545
 7193SOL    HW122478   4.292   2.128   3.468
 7193SOL    HW222479   4.256   2.190   3.614
 7194SOL     OW22480   2.677   1.598   2.096
 7194SOL    HW122481   2.729   1.573   2.179
 7194SOL    HW222482   2.645   1.692   2.104
 7195SOL     OW22483   1.073   5.708   1.402
 7195SOL    HW122484   1.018   5.638   1.449
 7195SOL    HW222485   1.031   5.730   1.314
 7196SOL     OW22486   3.400   3.121   2.386
 7196SOL    HW122487   3.414   3.059   2.308
 7196SOL    HW222488   3.391   3.215   2.352
 7197SOL     OW22489   0.222   1.971   6.003
 7197SOL    HW122490   0.173   2.057   6.021
 7197SOL    HW222491   0.156   1.897   5.993
 7198SOL     OW22492   1.446   6.453   6.977
 7198SOL    HW122493   1.519   6.516   7.001
 7198SOL    HW222494   1.471   6.404   6.893
 7199SOL     OW22495   6.622   6.522   3.034
 7199SOL    HW122496   6.706   6.468   3.028
 7199SOL    HW222497   6.546   6.469   2.997
 7200SOL     OW22498   1.998   1.104   1.302
 7200SOL    HW122499   1.917   1.110   1.245
 7200SOL    HW222500   2.080   1.098   1.244
 7201SOL     OW22501   2.309   4.310   3.760
 7201SOL    HW122502   2.222   4.260   3.758
 7201SOL    HW222503   2.333   4.338   3.667
 7202SOL     OW22504   3.711   1.103   6.606
 7202SOL    HW122505   3.737   1.089   6.702
 7202SOL    HW222506   3.730   1.198   6.580
 7203SOL     OW22507   5.355   1.004   6.890
 7203SOL    HW122508   5.428   1.072   6.878
 7203SOL    HW222509   5.267   1.050   6.892
 7204SOL     OW22510   6.293   1.616   3.039
 7204SOL    HW122511   6.282   1.702   2.989
 7204SOL    HW222512   6.373   1.567   3.005
 7205SOL     OW22513   2.071   4.934   2.119
 7205SOL    HW122514   1.985   4.888   2.142
 7205SOL    HW222515   2.051   5.029   2.093
 7206SOL     OW22516   6.272   0.988   1.488
 7206SOL    HW122517   6.228   0.992   1.398
 7206SOL    HW222518   6.324   1.072   1.503
 7207SOL     OW22519   3.337   6.778   1.964
 7207SOL    HW122520   3.335   6.848   1.893
 7207SOL    HW222521   3.429   6.770   2.001
 7208SOL     OW22522   3.261   0.506   5.505
 7208SOL    HW122523   3.252   0.408   5.522
 7208SOL    HW222524   3.181   0.554   5.541
 7209SOL     OW22525   4.145   3.538   4.756
 7209SOL    HW122526   4.135   3.624   4.804
 7209SOL    HW222527   4.241   3.522   4.734
 7210SOL     OW22528   4.194   0.658   3.952
 7210SOL    HW122529   4.120   0.675   4.017
 7210SOL    HW222530   4.273   0.619   4.000
 7211SOL     OW22531   1.335   5.298   3.208
 7211SOL    HW122532   1.422   5.317   3.252
 7211SOL    HW222533   1.344   5.309   3.109
 7212SOL     OW22534   5.548   6.353   4.264
 7212SOL    HW122535   5.553   6.354   4.164
 7212SOL    HW222536   5.461   6.392   4.293
 7213SOL     OW22537   5.416   1.181   5.689
 7213SOL    HW122538   5.390   1.272   5.724
 7213SOL    HW222539   5.374   1.167   5.600
 7214SOL     OW22540   1.881   5.066   4.768
 7214SOL    HW122541   1.909   4.983   4.817
 7214SOL    HW222542   1.825   5.040   4.689
 7215SOL     OW22543   1.315   3.813   3.703
 7215SOL    HW122544   1.413   3.830   3.710
 7215SOL    HW222545   1.270   3.839   3.788
 7216SOL     OW22546   2.311   0.895   1.588
 7216SOL    HW122547   2.257   0.836   1.648
 7216SOL    HW222548   2.327   0.849   1.501
 7217SOL     OW22549   0.881   2.949   2.286
 7217SOL    HW122550   0.878   2.849   2.287
 7217SOL    HW222551   0.798   2.986   2.328
 7218SOL     OW22552   5.272   2.782   5.593
 7218SOL    HW122553   5.281   2.863   5.534
 7218SOL    HW222554   5.356   2.728   5.587
 7219SOL     OW22555   3.552   1.093   2.190
 7219SOL    HW122556   3.511   1.128   2.106
 7219SOL    HW222557   3.643   1.134   2.202
 7220SOL     OW22558   6.744   1.008   2.996
 7220SOL    HW122559   6.742   0.985   3.093
 7220SOL    HW222560   6.689   0.941   2.945
 7221SOL     OW22561   5.815   5.904   6.029
 7221SOL    HW122562   5.904   5.890   6.072
 7221SOL    HW222563   5.808   5.999   5.998
 7222SOL     OW22564   0.182   6.117   2.014
 7222SOL    HW122565   0.240   6.036   2.005
 7222SOL    HW222566   0.154   6.148   1.924
 7223SOL     OW22567   3.363   1.245   5.527
 7223SOL    HW122568   3.313   1.302   5.462
 7223SOL    HW222569   3.350   1.149   5.505
 7224SOL     OW22570   4.782   6.967   4.668
 7224SOL    HW122571   4.813   6.997   4.577
 7224SOL    HW222572   4.718   6.891   4.658
 7225SOL     OW22573   2.621   6.057   0.144
 7225SOL    HW122574   2.635   6.119   0.220
 7225SOL    HW222575   2.522   6.047   0.127
 7226SOL     OW22576   6.678   6.983   1.014
 7226SOL    HW122577   6.601   6.934   0.972
 7226SOL    HW222578   6.760   6.971   0.957
 7227SOL     OW22579   6.404   2.128   6.952
 7227SOL    HW122580   6.479   2.068   6.923
 7227SOL    HW222581   6.440   2.218   6.975
 7228SOL     OW22582   1.329   0.682   3.243
 7228SOL    HW122583   1.285   0.592   3.250
 7228SOL    HW222584   1.281   0.737   3.175
 7229SOL     OW22585   0.796   0.592   3.591
 7229SOL    HW122586   0.747   0.513   3.627
 7229SOL    HW222587   0.732   0.668   3.577
 7230SOL     OW22588   5.511   3.958   2.864
 7230SOL    HW122589   5.418   3.956   2.902
 7230SOL    HW222590   5.512   4.019   2.785
 7231SOL     OW22591   5.080   1.120   6.381
 7231SOL    HW122592   5.085   1.028   6.343
 7231SOL    HW222593   5.157   1.136   6.442
 7232SOL     OW22594   3.667   4.538   1.292
 7232SOL    HW122595   3.598   4.552   1.363
 7232SOL    HW222596   3.758   4.545   1.333
 7233SOL     OW22597   6.622   2.008   6.315
 7233SOL    HW122598   6.604   1.968   6.225
 7233SOL    HW222599   6.536   2.027   6.361
 7234SOL     OW22600   6.160   2.098   2.536
 7234SOL    HW122601   6.247   2.130   2.573
 7234SOL    HW222602   6.166   2.091   2.436
 7235SOL     OW22603   5.920   3.567   5.073
 7235SOL    HW122604   5.978   3.648   5.081
 7235SOL    HW222605   5.825   3.595   5.058
 7236SOL     OW22606   3.088   0.531   3.171
 7236SOL    HW122607   3.039   0.506   3.254
 7236SOL    HW222608   3.112   0.448   3.120
 7237SOL     OW22609   6.265   5.796   5.944
 7237SOL    HW122610   6.205   5.825   6.019
 7237SOL    HW222611   6.231   5.832   5.858
 7238SOL     OW22612   1.507   1.039   1.191
 7238SOL    HW122613   1.511   1.071   1.285
 7238SOL    HW222614   1.457   1.105   1.135
 7239SOL     OW22615   3.830   1.611   1.848
 7239SOL    HW122616   3.857   1.517   1.825
 7239SOL    HW222617   3.802   1.659   1.765
 7240SOL     OW22618   3.003   4.749   0.609
 7240SOL    HW122619   2.994   4.706   0.520
 7240SOL    HW222620   2.912   4.773   0.643
 7241SOL     OW22621   3.433   0.432   4.982
 7241SOL    HW122622   3.415   0.466   5.075
 7241SOL    HW222623   3.346   0.407   4.939
 7242SOL     OW22624   4.727   4.598   6.925
 7242SOL    HW122625   4.690   4.520   6.975
 7242SOL    HW222626   4.654   4.642   6.873
 7243SOL     OW22627   0.363   5.429   6.884
 7243SOL    HW122628   0.330   5.460   6.974
 7243SOL    HW222629   0.432   5.493   6.850
 7244SOL     OW22630   5.886   1.255   0.983
 7244SOL    HW122631   5.795   1.245   1.023
 7244SOL    HW222632   5.889   1.207   0.895
 7245SOL     OW22633   0.263   2.027   3.655
 7245SOL    HW122634   0.232   2.121   3.669
 7245SOL    HW222635   0.335   2.006   3.722
 7246SOL     OW22636   0.391   6.141   5.852
 7246SOL    HW122637   0.371   6.046   5.878
 7246SOL    HW222638   0.307   6.188   5.827
 7247SOL     OW22639   3.626   5.299   2.956
 7247SOL    HW122640   3.606   5.396   2.968
 7247SOL    HW222641   3.542   5.250   2.931
 7248SOL     OW22642   3.029   0.806   4.638
 7248SOL    HW122643   3.068   0.758   4.717
 7248SOL    HW222644   3.088   0.883   4.614
 7249SOL     OW22645   6.225   5.613   6.829
 7249SOL    HW122646   6.226   5.713   6.826
 7249SOL    HW222647   6.188   5.583   6.916
 7250SOL     OW22648   3.145   4.250   6.584
 7250SOL    HW122649   3.213   4.243   6.511
 7250SOL    HW222650   3.059   4.284   6.545
 7251SOL     OW22651   5.743   0.502   5.160
 7251SOL    HW122652   5.722   0.598   5.143
 7251SOL    HW222653   5.820   0.496   5.223
 7252SOL     OW22654   3.905   3.706   5.091
 7252SOL    HW122655   3.830   3.772   5.096
 7252SOL    HW222656   3.970   3.734   5.020
 7253SOL     OW22657   5.280   5.772   1.141
 7253SOL    HW122658   5.214   5.787   1.215
 7253SOL    HW222659   5.235   5.722   1.066
 7254SOL     OW22660   4.832   6.222   5.323
 7254SOL    HW122661   4.740   6.210   5.286
 7254SOL    HW222662   4.897   6.164   5.273
 7255SOL     OW22663   3.690   3.770   2.201
 7255SOL    HW122664   3.696   3.866   2.229
 7255SOL    HW222665   3.766   3.718   2.240
 7256SOL     OW22666   4.901   5.022   4.251
 7256SOL    HW122667   4.915   4.955   4.325
 7256SOL    HW222668   4.889   4.973   4.164
 7257SOL     OW22669   5.836   4.290   3.418
 7257SOL    HW122670   5.817   4.249   3.329
 7257SOL    HW222671   5.867   4.385   3.406
 7258SOL     OW22672   3.637   6.888   4.957
 7258SOL    HW122673   3.610   6.849   5.045
 7258SOL    HW222674   3.562   6.942   4.920
 7259SOL     OW22675   2.237   5.635   5.821
 7259SOL    HW122676   2.234   5.561   5.753
 7259SOL    HW222677   2.214   5.722   5.777
 7260SOL     OW22678   3.645   1.946   1.918
 7260SOL    HW122679   3.707   1.966   1.843
 7260SOL    HW222680   3.630   2.029   1.973
 7261SOL     OW22681   1.243   4.029   1.845
 7261SOL    HW122682   1.180   4.103   1.868
 7261SOL    HW222683   1.298   4.056   1.766
 7262SOL     OW22684   6.133   2.226   5.109
 7262SOL    HW122685   6.150   2.295   5.038
 7262SOL    HW222686   6.214   2.217   5.166
 7263SOL     OW22687   4.265   6.531   1.873
 7263SOL    HW122688   4.204   6.471   1.821
 7263SOL    HW222689   4.280   6.492   1.964
 7264SOL     OW22690   1.164   6.582   5.321
 7264SOL    HW122691   1.239   6.560   5.259
 7264SOL    HW222692   1.181   6.540   5.410
 7265SOL     OW22693   4.249   4.076   5.866
 7265SOL    HW122694   4.174   4.048   5.927
 7265SOL    HW222695   4.231   4.042   5.774
 7266SOL     OW22696   5.776   1.573   1.801
 7266SOL    HW122697   5.729   1.641   1.744
 7266SOL    HW222698   5.735   1.573   1.892
 7267SOL     OW22699   0.061   3.675   4.605
 7267SOL    HW122700   7.020   3.618   4.654
 7267SOL    HW222701   0.047   3.771   4.631
 7268SOL     OW22702   3.203   6.815   1.252
 7268SOL    HW122703   3.238   6.838   1.161
 7268SOL    HW222704   3.246   6.730   1.284
 7269SOL     OW22705   1.668   6.958   1.880
 7269SOL    HW122706   1.709   0.023   1.860
 7269SOL    HW222707   1.575   6.955   1.844
 7270SOL     OW22708   3.154   1.298   2.209
 7270SOL    HW122709   3.122   1.380   2.257
 7270SOL    HW222710   3.253   1.290   2.219
 7271SOL     OW22711   6.265   4.002   4.147
 7271SOL    HW122712   6.248   3.950   4.064
 7271SOL    HW222713   6.205   3.969   4.220
 7272SOL     OW22714   5.493   2.212   1.427
 7272SOL    HW122715   5.498   2.310   1.410
 7272SOL    HW222716   5.500   2.162   1.341
 7273SOL     OW22717   6.012   5.838   6.407
 7273SOL    HW122718   5.921   5.797   6.400
 7273SOL    HW222719   6.046   5.827   6.501
 7274SOL     OW22720   6.975   4.466   5.223
 7274SOL    HW122721   6.989   4.552   5.175
 7274SOL    HW222722   6.879   4.458   5.250
 7275SOL     OW22723   5.771   0.183   1.168
 7275SOL    HW122724   5.743   0.263   1.220
 7275SOL    HW222725   5.866   0.160   1.190
 7276SOL     OW22726   2.675   2.135   3.845
 7276SOL    HW122727   2.585   2.155   3.806
 7276SOL    HW222728   2.731   2.218   3.843
 7277SOL     OW22729   5.530   1.684   4.369
 7277SOL    HW122730   5.548   1.602   4.313
 7277SOL    HW222731   5.523   1.764   4.309
 7278SOL     OW22732   2.634   1.565   3.493
 7278SOL    HW122733   2.630   1.584   3.395
 7278SOL    HW222734   2.624   1.650   3.545
 7279SOL     OW22735   4.324   4.751   0.831
 7279SOL    HW122736   4.283   4.778   0.744
 7279SOL    HW222737   4.313   4.826   0.897
 7280SOL     OW22738   6.272   2.051   5.508
 7280SOL    HW122739   6.280   2.123   5.438
 7280SOL    HW222740   6.323   2.078   5.589
 7281SOL     OW22741   3.786   5.507   1.586
 7281SOL    HW122742   3.827   5.592   1.553
 7281SOL    HW222743   3.820   5.488   1.678
 7282SOL     OW22744   6.537   3.857   2.438
 7282SOL    HW122745   6.478   3.836   2.516
 7282SOL    HW222746   6.512   3.800   2.360
 7283SOL     OW22747   4.529   4.733   2.893
 7283SOL    HW122748   4.542   4.824   2.854
 7283SOL    HW222749   4.609   4.709   2.949
 7284SOL     OW22750   0.245   1.723   2.425
 7284SOL    HW122751   0.287   1.684   2.343
 7284SOL    HW222752   0.159   1.676   2.444
 7285SOL     OW22753   4.845   3.250   1.795
 7285SOL    HW122754   4.860   3.265   1.697
 7285SOL    HW222755   4.797   3.163   1.809
 7286SOL     OW22756   6.788   1.720   3.359
 7286SOL    HW122757   6.719   1.793   3.350
 7286SOL    HW222758   6.752   1.647   3.416
 7287SOL     OW22759   2.792   1.708   3.040
 7287SOL    HW122760   2.830   1.787   3.089
 7287SOL    HW222761   2.761   1.640   3.107
 7288SOL     OW22762   2.532   1.723   2.422
 7288SOL    HW122763   2.617   1.710   2.370
 7288SOL    HW222764   2.544   1.798   2.488
 7289SOL     OW22765   6.787   1.852   1.490
 7289SOL    HW122766   6.887   1.853   1.498
 7289SOL    HW222767   6.761   1.867   1.395
 7290SOL     OW22768   3.877   1.149   4.536
 7290SOL    HW122769   3.896   1.229   4.593
 7290SOL    HW222770   3.949   1.081   4.550
 7291SOL     OW22771   2.662   0.997   0.726
 7291SOL    HW122772   2.686   1.040   0.639
 7291SOL    HW222773   2.745   0.962   0.769
 7292SOL     OW22774   2.655   0.371   2.629
 7292SOL    HW122775   2.722   0.441   2.606
 7292SOL    HW222776   2.583   0.369   2.560
 7293SOL     OW22777   6.941   1.679   3.987
 7293SOL    HW122778   6.893   1.597   4.017
 7293SOL    HW222779   6.975   1.666   3.894
 7294SOL     OW22780   3.491   6.050   2.063
 7294SOL    HW122781   3.536   6.092   2.142
 7294SOL    HW222782   3.545   6.066   1.981
 7295SOL     OW22783   5.942   4.363   0.917
 7295SOL    HW122784   5.916   4.283   0.971
 7295SOL    HW222785   5.976   4.435   0.977
 7296SOL     OW22786   4.762   5.117   1.944
 7296SOL    HW122787   4.847   5.067   1.964
 7296SOL    HW222788   4.697   5.056   1.899
 7297SOL     OW22789   4.223   0.026   1.413
 7297SOL    HW122790   4.191   6.980   1.477
 7297SOL    HW222791   4.272   0.098   1.464
 7298SOL     OW22792   3.928   4.916   0.369
 7298SOL    HW122793   4.018   4.948   0.341
 7298SOL    HW222794   3.901   4.838   0.312
 7299SOL     OW22795   1.213   2.840   6.562
 7299SOL    HW122796   1.246   2.803   6.649
 7299SOL    HW222797   1.130   2.894   6.578
 7300SOL     OW22798   0.271   5.135   2.072
 7300SOL    HW122799   0.316   5.128   1.983
 7300SOL    HW222800   0.276   5.047   2.119
 7301SOL     OW22801   4.178   1.651   6.338
 7301SOL    HW122802   4.192   1.743   6.302
 7301SOL    HW222803   4.266   1.611   6.363
 7302SOL     OW22804   5.702   2.176   6.209
 7302SOL    HW122805   5.745   2.090   6.180
 7302SOL    HW222806   5.702   2.182   6.308
 7303SOL     OW22807   2.635   1.882   2.060
 7303SOL    HW122808   2.707   1.951   2.063
 7303SOL    HW222809   2.546   1.927   2.071
 7304SOL     OW22810   2.546   5.628   0.718
 7304SOL    HW122811   2.559   5.544   0.665
 7304SOL    HW222812   2.635   5.665   0.743
 7305SOL     OW22813   6.232   1.005   0.033
 7305SOL    HW122814   6.308   0.988   0.096
 7305SOL    HW222815   6.261   1.072   6.988
 7306SOL     OW22816   0.839   2.698   1.723
 7306SOL    HW122817   0.776   2.766   1.759
 7306SOL    HW222818   0.933   2.724   1.746
 7307SOL     OW22819   1.896   0.172   0.663
 7307SOL    HW122820   1.846   0.094   0.701
 7307SOL    HW222821   1.978   0.139   0.616
 7308SOL     OW22822   4.213   1.249   2.719
 7308SOL    HW122823   4.219   1.206   2.629
 7308SOL    HW222824   4.129   1.303   2.725
 7309SOL     OW22825   2.547   5.050   3.710
 7309SOL    HW122826   2.576   4.958   3.736
 7309SOL    HW222827   2.473   5.081   3.770
 7310SOL     OW22828   2.555   3.016   5.989
 7310SOL    HW122829   2.557   2.921   5.959
 7310SOL    HW222830   2.615   3.027   6.068
 7311SOL     OW22831   0.342   6.123   6.242
 7311SOL    HW122832   0.283   6.042   6.239
 7311SOL    HW222833   0.433   6.096   6.273
 7312SOL     OW22834   6.700   2.352   3.928
 7312SOL    HW122835   6.758   2.273   3.947
 7312SOL    HW222836   6.636   2.366   4.003
 7313SOL     OW22837   2.599   0.813   2.702
 7313SOL    HW122838   2.588   0.850   2.609
 7313SOL    HW222839   2.666   0.868   2.752
 7314SOL     OW22840   0.820   4.723   5.895
 7314SOL    HW122841   0.842   4.761   5.985
 7314SOL    HW222842   0.725   4.694   5.894
 7315SOL     OW22843   1.866   4.858   2.673
 7315SOL    HW122844   1.861   4.761   2.696
 7315SOL    HW222845   1.774   4.892   2.654
 7316SOL     OW22846   3.654   1.856   1.257
 7316SOL    HW122847   3.753   1.867   1.272
 7316SOL    HW222848   3.640   1.797   1.177
 7317SOL     OW22849   3.996   1.930   0.249
 7317SOL    HW122850   4.060   1.967   0.316
 7317SOL    HW222851   4.033   1.845   0.211
 7318SOL     OW22852   5.535   6.438   0.555
 7318SOL    HW122853   5.514   6.347   0.520
 7318SOL    HW222854   5.469   6.462   0.626
 7319SOL     OW22855   5.569   6.133   6.437
 7319SOL    HW122856   5.522   6.142   6.349
 7319SOL    HW222857   5.595   6.224   6.470
 7320SOL     OW22858   0.757   2.205   1.173
 7320SOL    HW122859   0.699   2.287   1.172
 7320SOL    HW222860   0.700   2.124   1.167
 7321SOL     OW22861   1.114   1.369   6.502
 7321SOL    HW122862   1.145   1.463   6.488
 7321SOL    HW222863   1.047   1.366   6.576
 7322SOL     OW22864   1.195   3.414   3.435
 7322SOL    HW122865   1.183   3.469   3.352
 7322SOL    HW222866   1.285   3.432   3.474
 7323SOL     OW22867   0.699   2.711   0.670
 7323SOL    HW122868   0.782   2.659   0.648
 7323SOL    HW222869   0.695   2.726   0.769
 7324SOL     OW22870   5.557   4.120   3.962
 7324SOL    HW122871   5.618   4.070   3.901
 7324SOL    HW222872   5.545   4.214   3.929
 7325SOL     OW22873   4.219   1.470   5.938
 7325SOL    HW122874   4.224   1.418   6.023
 7325SOL    HW222875   4.202   1.407   5.862
 7326SOL     OW22876   3.694   0.754   0.750
 7326SOL    HW122877   3.715   0.852   0.749
 7326SOL    HW222878   3.595   0.743   0.761
 7327SOL     OW22879   1.527   4.282   3.094
 7327SOL    HW122880   1.606   4.271   3.034
 7327SOL    HW222881   1.520   4.203   3.155
 7328SOL     OW22882   4.581   4.950   4.797
 7328SOL    HW122883   4.663   4.925   4.850
 7328SOL    HW222884   4.505   4.892   4.825
 7329SOL     OW22885   3.010   3.217   1.207
 7329SOL    HW122886   2.994   3.294   1.145
 7329SOL    HW222887   3.099   3.176   1.186
 7330SOL     OW22888   2.749   3.293   1.803
 7330SOL    HW122889   2.706   3.203   1.797
 7330SOL    HW222890   2.705   3.355   1.739
 7331SOL     OW22891   5.217   2.831   2.363
 7331SOL    HW122892   5.191   2.924   2.338
 7331SOL    HW222893   5.317   2.826   2.375
 7332SOL     OW22894   3.070   6.336   6.114
 7332SOL    HW122895   3.034   6.244   6.103
 7332SOL    HW222896   3.007   6.403   6.075
 7333SOL     OW22897   0.529   0.946   1.340
 7333SOL    HW122898   0.627   0.930   1.334
 7333SOL    HW222899   0.485   0.872   1.392
 7334SOL     OW22900   2.855   6.298   4.114
 7334SOL    HW122901   2.831   6.207   4.146
 7334SOL    HW222902   2.812   6.314   4.025
 7335SOL     OW22903   7.024   3.799   2.136
 7335SOL    HW122904   0.094   3.809   2.168
 7335SOL    HW222905   6.984   3.717   2.175
 7336SOL     OW22906   2.270   6.388   2.354
 7336SOL    HW122907   2.340   6.454   2.381
 7336SOL    HW222908   2.192   6.437   2.316
 7337SOL     OW22909   2.688   1.497   3.183
 7337SOL    HW122910   2.660   1.408   3.147
 7337SOL    HW222911   2.609   1.557   3.189
 7338SOL     OW22912   5.233   3.395   1.240
 7338SOL    HW122913   5.151   3.447   1.216
 7338SOL    HW222914   5.210   3.298   1.249
 7339SOL     OW22915   6.917   6.144   4.762
 7339SOL    HW122916   6.981   6.134   4.686
 7339SOL    HW222917   6.868   6.231   4.753
 7340SOL     OW22918   2.817   6.999   0.615
 7340SOL    HW122919   2.791   0.014   0.527
 7340SOL    HW222920   2.900   6.944   0.604
 7341SOL     OW22921   6.715   5.163   4.540
 7341SOL    HW122922   6.634   5.106   4.527
 7341SOL    HW222923   6.737   5.210   4.454
 7342SOL     OW22924   1.546   4.945   0.867
 7342SOL    HW122925   1.456   4.974   0.901
 7342SOL    HW222926   1.606   4.927   0.945
 7343SOL     OW22927   5.180   2.952   2.630
 7343SOL    HW122928   5.175   2.896   2.713
 7343SOL    HW222929   5.178   2.892   2.550
 7344SOL     OW22930   2.509   1.256   7.016
 7344SOL    HW122931   2.478   1.168   0.026
 7344SOL    HW222932   2.571   1.243   6.939
 7345SOL     OW22933   3.629   5.365   0.530
 7345SOL    HW122934   3.600   5.342   0.437
 7345SOL    HW222935   3.557   5.417   0.576
 7346SOL     OW22936   3.805   4.723   1.698
 7346SOL    HW122937   3.717   4.697   1.738
 7346SOL    HW222938   3.852   4.788   1.758
 7347SOL     OW22939   6.648   2.833   2.635
 7347SOL    HW122940   6.701   2.915   2.657
 7347SOL    HW222941   6.552   2.849   2.659
 7348SOL     OW22942   0.900   2.134   5.102
 7348SOL    HW122943   0.917   2.216   5.048
 7348SOL    HW222944   0.883   2.159   5.197
 7349SOL     OW22945   3.795   1.211   0.595
 7349SOL    HW122946   3.700   1.182   0.588
 7349SOL    HW222947   3.850   1.165   0.526
 7350SOL     OW22948   2.304   1.126   2.859
 7350SOL    HW122949   2.211   1.156   2.879
 7350SOL    HW222950   2.334   1.165   2.772
 7351SOL     OW22951   4.411   4.420   6.808
 7351SOL    HW122952   4.331   4.476   6.784
 7351SOL    HW222953   4.386   4.354   6.878
 7352SOL     OW22954   6.764   1.147   3.491
 7352SOL    HW122955   6.671   1.177   3.468
 7352SOL    HW222956   6.765   1.109   3.583
 7353SOL     OW22957   4.780   2.229   4.933
 7353SOL    HW122958   4.858   2.285   4.958
 7353SOL    HW222959   4.753   2.248   4.839
 7354SOL     OW22960   6.330   4.346   5.284
 7354SOL    HW122961   6.378   4.371   5.368
 7354SOL    HW222962   6.323   4.426   5.225
 7355SOL     OW22963   1.173   4.364   2.181
 7355SOL    HW122964   1.245   4.410   2.129
 7355SOL    HW222965   1.196   4.267   2.191
 7356SOL     OW22966   6.155   0.989   5.310
 7356SOL    HW122967   6.113   1.055   5.372
 7356SOL    HW222968   6.167   0.901   5.356
 7357SOL     OW22969   6.772   1.638   0.561
 7357SOL    HW122970   6.800   1.679   0.647
 7357SOL    HW222971   6.739   1.545   0.578
 7358SOL     OW22972   2.902   0.851   3.927
 7358SOL    HW122973   2.897   0.930   3.989
 7358SOL    HW222974   2.863   0.875   3.839
 7359SOL     OW22975   3.429   3.251   3.087
 7359SOL    HW122976   3.396   3.219   2.999
 7359SOL    HW222977   3.490   3.183   3.127
 7360SOL     OW22978   0.248   2.895   5.786
 7360SOL    HW122979   0.230   2.943   5.872
 7360SOL    HW222980   0.329   2.836   5.798
 7361SOL     OW22981   5.271   6.729   2.048
 7361SOL    HW122982   5.207   6.694   1.980
 7361SOL    HW222983   5.282   6.827   2.036
 7362SOL     OW22984   1.933   6.853   5.745
 7362SOL    HW122985   1.970   6.946   5.744
 7362SOL    HW222986   1.894   6.833   5.835
 7363SOL     OW22987   5.072   2.776   6.362
 7363SOL    HW122988   4.985   2.768   6.313
 7363SOL    HW222989   5.088   2.872   6.387
 7364SOL     OW22990   5.492   0.954   1.929
 7364SOL    HW122991   5.462   0.935   2.023
 7364SOL    HW222992   5.557   0.884   1.900
 7365SOL     OW22993   3.451   0.888   2.352
 7365SOL    HW122994   3.402   0.815   2.306
 7365SOL    HW222995   3.495   0.947   2.285
 7366SOL     OW22996   0.894   5.321   0.118
 7366SOL    HW122997   0.823   5.261   0.153
 7366SOL    HW222998   0.984   5.283   0.140
 7367SOL     OW22999   5.100   3.440   6.813
 7367SOL    HW123000   5.188   3.393   6.808
 7367SOL    HW223001   5.098   3.500   6.892
 7368SOL     OW23002   3.149   3.496   3.643
 7368SOL    HW123003   3.151   3.593   3.623
 7368SOL    HW223004   3.243   3.461   3.652
 7369SOL     OW23005   4.557   2.536   7.019
 7369SOL    HW123006   4.553   2.634   0.012
 7369SOL    HW223007   4.642   2.514   6.971
 7370SOL     OW23008   1.809   6.476   1.010
 7370SOL    HW123009   1.899   6.448   1.043
 7370SOL    HW223010   1.739   6.417   1.051
 7371SOL     OW23011   2.205   4.978   4.478
 7371SOL    HW123012   2.305   4.978   4.486
 7371SOL    HW223013   2.167   4.902   4.532
 7372SOL     OW23014   3.341   6.842   6.086
 7372SOL    HW123015   3.284   6.784   6.028
 7372SOL    HW223016   3.341   6.805   6.179
 7373SOL     OW23017   4.004   0.846   1.648
 7373SOL    HW123018   4.095   0.851   1.688
 7373SOL    HW223019   3.944   0.912   1.693
 7374SOL     OW23020   1.901   3.507   6.254
 7374SOL    HW123021   1.894   3.408   6.267
 7374SOL    HW223022   1.993   3.537   6.280
 7375SOL     OW23023   0.856   6.836   3.028
 7375SOL    HW123024   0.800   6.777   3.086
 7375SOL    HW223025   0.862   6.927   3.069
 7376SOL     OW23026   2.692   4.055   5.814
 7376SOL    HW123027   2.705   3.983   5.746
 7376SOL    HW223028   2.648   4.134   5.772
 7377SOL     OW23029   4.706   4.831   1.315
 7377SOL    HW123030   4.780   4.771   1.347
 7377SOL    HW223031   4.649   4.781   1.250
 7378SOL     OW23032   6.675   2.300   5.742
 7378SOL    HW123033   6.708   2.267   5.831
 7378SOL    HW223034   6.753   2.332   5.688
 7379SOL     OW23035   3.880   1.167   1.493
 7379SOL    HW123036   3.880   1.086   1.552
 7379SOL    HW223037   3.960   1.165   1.434
 7380SOL     OW23038   6.925   2.649   4.933
 7380SOL    HW123039   6.975   2.731   4.960
 7380SOL    HW223040   6.860   2.672   4.861
 7381SOL     OW23041   5.640   2.434   0.359
 7381SOL    HW123042   5.654   2.413   0.456
 7381SOL    HW223043   5.630   2.349   0.308
 7382SOL     OW23044   6.876   6.226   3.797
 7382SOL    HW123045   6.956   6.237   3.739
 7382SOL    HW223046   6.892   6.152   3.862
 7383SOL     OW23047   6.610   6.234   3.737
 7383SOL    HW123048   6.598   6.158   3.673
 7383SOL    HW223049   6.704   6.233   3.771
 7384SOL     OW23050   5.912   1.321   2.256
 7384SOL    HW123051   5.957   1.336   2.344
 7384SOL    HW223052   5.813   1.314   2.270
 7385SOL     OW23053   4.691   0.201   1.856
 7385SOL    HW123054   4.686   0.117   1.910
 7385SOL    HW223055   4.783   0.210   1.816
 7386SOL     OW23056   0.143   2.551   6.002
 7386SOL    HW123057   0.181   2.637   6.037
 7386SOL    HW223058   0.046   2.563   5.981
 7387SOL     OW23059   3.884   5.473   3.268
 7387SOL    HW123060   3.850   5.493   3.176
 7387SOL    HW223061   3.975   5.512   3.279
 7388SOL     OW23062   6.440   4.766   4.723
 7388SOL    HW123063   6.451   4.850   4.775
 7388SOL    HW223064   6.413   4.788   4.629
 7389SOL     OW23065   0.961   3.798   5.653
 7389SOL    HW123066   0.867   3.831   5.654
 7389SOL    HW223067   1.014   3.843   5.725
 7390SOL     OW23068   2.179   6.553   5.483
 7390SOL    HW123069   2.093   6.506   5.503
 7390SOL    HW223070   2.171   6.602   5.396
 7391SOL     OW23071   6.662   3.227   0.478
 7391SOL    HW123072   6.607   3.152   0.444
 7391SOL    HW223073   6.747   3.192   0.518
 7392SOL     OW23074   2.615   4.821   3.145
 7392SOL    HW123075   2.630   4.806   3.243
 7392SOL    HW223076   2.517   4.827   3.127
 7393SOL     OW23077   0.716   3.577   1.380
 7393SOL    HW123078   0.625   3.585   1.339
 7393SOL    HW223079   0.715   3.617   1.472
 7394SOL     OW23080   2.757   3.569   6.475
 7394SOL    HW123081   2.698   3.614   6.408
 7394SOL    HW223082   2.802   3.490   6.432
 7395SOL     OW23083   1.353   6.362   0.266
 7395SOL    HW123084   1.380   6.281   0.214
 7395SOL    HW223085   1.433   6.418   0.285
 7396SOL     OW23086   1.142   0.029   0.596
 7396SOL    HW123087   1.097   0.033   0.507
 7396SOL    HW223088   1.087   0.080   0.663
 7397SOL     OW23089   6.544   5.007   4.814
 7397SOL    HW123090   6.630   4.964   4.841
 7397SOL    HW223091   6.557   5.106   4.807
 7398SOL     OW23092   3.918   5.932   3.457
 7398SOL    HW123093   3.831   5.893   3.486
 7398SOL    HW223094   3.924   5.929   3.357
 7399SOL     OW23095   5.028   3.922   5.048
 7399SOL    HW123096   5.094   3.861   5.093
 7399SOL    HW223097   4.987   3.874   4.970
 7400SOL     OW23098   2.286   5.228   6.857
 7400SOL    HW123099   2.352   5.179   6.801
 7400SOL    HW223100   2.287   5.325   6.832
 7401SOL     OW23101   6.189   1.490   4.550
 7401SOL    HW123102   6.191   1.590   4.553
 7401SOL    HW223103   6.265   1.453   4.604
 7402SOL     OW23104   2.003   6.629   3.339
 7402SOL    HW123105   2.101   6.608   3.349
 7402SOL    HW223106   1.984   6.660   3.246
 7403SOL     OW23107   1.876   3.470   1.584
 7403SOL    HW123108   1.895   3.372   1.584
 7403SOL    HW223109   1.787   3.487   1.542
 7404SOL     OW23110   1.227   1.463   2.749
 7404SOL    HW123111   1.192   1.554   2.726
 7404SOL    HW223112   1.168   1.421   2.818
 7405SOL     OW23113   2.703   4.658   6.060
 7405SOL    HW123114   2.769   4.649   5.986
 7405SOL    HW223115   2.751   4.676   6.146
 7406SOL     OW23116   0.459   5.656   1.766
 7406SOL    HW123117   0.538   5.684   1.710
 7406SOL    HW223118   0.380   5.642   1.707
 7407SOL     OW23119   1.768   0.363   6.170
 7407SOL    HW123120   1.737   0.288   6.228
 7407SOL    HW223121   1.720   0.447   6.196
 7408SOL     OW23122   1.064   3.425   5.538
 7408SOL    HW123123   1.134   3.385   5.479
 7408SOL    HW223124   1.013   3.494   5.487
 7409SOL     OW23125   2.905   5.894   5.871
 7409SOL    HW123126   2.884   5.796   5.863
 7409SOL    HW223127   2.847   5.945   5.807
 7410SOL     OW23128   5.815   5.621   0.774
 7410SOL    HW123129   5.724   5.655   0.797
 7410SOL    HW223130   5.807   5.553   0.700
 7411SOL     OW23131   4.642   5.942   5.380
 7411SOL    HW123132   4.568   5.924   5.444
 7411SOL    HW223133   4.625   6.028   5.331
 7412SOL     OW23134   1.308   2.276   0.144
 7412SOL    HW123135   1.260   2.269   0.057
 7412SOL    HW223136   1.370   2.354   0.142
 7413SOL     OW23137   6.902   3.346   4.468
 7413SOL    HW123138   6.915   3.345   4.567
 7413SOL    HW223139   6.827   3.408   4.445
 7414SOL     OW23140   6.871   5.687   3.124
 7414SOL    HW123141   6.900   5.714   3.216
 7414SOL    HW223142   6.894   5.759   3.059
 7415SOL     OW23143   2.500   1.508   2.694
 7415SOL    HW123144   2.594   1.525   2.665
 7415SOL    HW223145   2.445   1.589   2.675
 7416SOL     OW23146   5.134   6.435   4.188
 7416SOL    HW123147   5.180   6.521   4.168
 7416SOL    HW223148   5.133   6.420   4.287
 7417SOL     OW23149   0.512   6.266   0.426
 7417SOL    HW123150   0.427   6.318   0.417
 7417SOL    HW223151   0.528   6.247   0.523
 7418SOL     OW23152   1.631   3.702   0.412
 7418SOL    HW123153   1.577   3.651   0.478
 7418SOL    HW223154   1.571   3.738   0.340
 7419SOL     OW23155   5.866   1.372   4.591
 7419SOL    HW123156   5.920   1.314   4.652
 7419SOL    HW223157   5.822   1.444   4.645
 7420SOL     OW23158   0.039   5.354   2.206
 7420SOL    HW123159   0.047   5.277   2.144
 7420SOL    HW223160   0.078   5.330   2.295
 7421SOL     OW23161   4.169   2.955   1.376
 7421SOL    HW123162   4.265   2.927   1.378
 7421SOL    HW223163   4.128   2.941   1.466
 7422SOL     OW23164   0.636   2.674   0.981
 7422SOL    HW123165   0.587   2.681   1.067
 7422SOL    HW223166   0.576   2.634   0.911
 7423SOL     OW23167   1.922   5.963   6.852
 7423SOL    HW123168   1.982   5.956   6.773
 7423SOL    HW223169   1.912   6.059   6.878
 7424SOL     OW23170   6.369   1.379   4.336
 7424SOL    HW123171   6.290   1.430   4.371
 7424SOL    HW223172   6.452   1.434   4.348
 7425SOL     OW23173   4.368   6.197   5.910
 7425SOL    HW123174   4.269   6.194   5.896
 7425SOL    HW223175   4.390   6.168   6.003
 7426SOL     OW23176   0.862   0.950   6.744
 7426SOL    HW123177   0.865   0.911   6.836
 7426SOL    HW223178   0.792   0.901   6.690
 7427SOL     OW23179   4.360   5.729   4.066
 7427SOL    HW123180   4.361   5.821   4.025
 7427SOL    HW223181   4.392   5.735   4.161
 7428SOL     OW23182   2.709   2.113   6.372
 7428SOL    HW123183   2.725   2.207   6.342
 7428SOL    HW223184   2.741   2.102   6.466
 7429SOL     OW23185   6.065   6.836   3.488
 7429SOL    HW123186   6.083   6.759   3.549
 7429SOL    HW223187   6.151   6.868   3.448
 7430SOL     OW23188   0.397   4.216   4.986
 7430SOL    HW123189   0.417   4.218   5.084
 7430SOL    HW223190   0.298   4.223   4.972
 7431SOL     OW23191   0.921   4.409   2.239
 7431SOL    HW123192   0.895   4.502   2.214
 7431SOL    HW223193   1.011   4.388   2.202
 7432SOL     OW23194   0.772   6.213   4.986
 7432SOL    HW123195   0.801   6.118   4.984
 7432SOL    HW223196   0.689   6.224   4.931
 7433SOL     OW23197   6.545   5.861   0.927
 7433SOL    HW123198   6.633   5.853   0.878
 7433SOL    HW223199   6.561   5.900   1.017
 7434SOL     OW23200   4.760   0.753   6.484
 7434SOL    HW123201   4.830   0.692   6.447
 7434SOL    HW223202   4.670   0.725   6.450
 7435SOL     OW23203   1.643   5.935   0.784
 7435SOL    HW123204   1.709   5.998   0.743
 7435SOL    HW223205   1.662   5.842   0.753
 7436SOL     OW23206   5.272   2.870   6.597
 7436SOL    HW123207   5.243   2.831   6.685
 7436SOL    HW223208   5.267   2.970   6.601
 7437SOL     OW23209   0.189   6.000   5.692
 7437SOL    HW123210   0.185   5.906   5.726
 7437SOL    HW223211   0.160   6.063   5.764
 7438SOL     OW23212   6.221   4.221   2.087
 7438SOL    HW123213   6.277   4.289   2.040
 7438SOL    HW223214   6.215   4.244   2.184
 7439SOL     OW23215   1.334   6.485   3.918
 7439SOL    HW123216   1.423   6.514   3.954
 7439SOL    HW223217   1.316   6.390   3.945
 7440SOL     OW23218   0.660   2.189   4.261
 7440SOL    HW123219   0.744   2.210   4.310
 7440SOL    HW223220   0.610   2.118   4.310
 7441SOL     OW23221   5.048   6.896   4.146
 7441SOL    HW123222   5.061   6.858   4.055
 7441SOL    HW223223   5.130   6.947   4.173
 7442SOL     OW23224   1.766   1.268   6.957
 7442SOL    HW123225   1.746   1.227   6.868
 7442SOL    HW223226   1.751   1.200   0.005
 7443SOL     OW23227   6.796   0.900   1.156
 7443SOL    HW123228   6.811   0.911   1.058
 7443SOL    HW223229   6.819   0.985   1.203
 7444SOL     OW23230   0.127   2.412   6.422
 7444SOL    HW123231   0.142   2.407   6.323
 7444SOL    HW223232   0.070   2.336   6.451
 7445SOL     OW23233   5.440   2.467   2.257
 7445SOL    HW123234   5.500   2.456   2.336
 7445SOL    HW223235   5.351   2.426   2.276
 7446SOL     OW23236   0.020   3.307   1.114
 7446SOL    HW123237   0.014   3.271   1.022
 7446SOL    HW223238   0.117   3.318   1.139
 7447SOL     OW23239   0.648   4.110   5.932
 7447SOL    HW123240   0.691   4.146   6.015
 7447SOL    HW223241   0.635   4.184   5.866
 7448SOL     OW23242   0.004   6.682   5.907
 7448SOL    HW123243   6.998   6.750   5.839
 7448SOL    HW223244   6.951   6.623   5.932
 7449SOL     OW23245   4.771   1.962   2.460
 7449SOL    HW123246   4.688   1.995   2.415
 7449SOL    HW223247   4.748   1.926   2.550
 7450SOL     OW23248   3.081   0.150   2.758
 7450SOL    HW123249   3.169   0.179   2.720
 7450SOL    HW223250   3.015   0.137   2.684
 7451SOL     OW23251   1.726   0.831   3.679
 7451SOL    HW123252   1.718   0.755   3.743
 7451SOL    HW223253   1.637   0.876   3.668
 7452SOL     OW23254   1.356   6.840   5.205
 7452SOL    HW123255   1.370   6.916   5.141
 7452SOL    HW223256   1.351   6.876   5.298
 7453SOL     OW23257   5.686   6.125   5.113
 7453SOL    HW123258   5.726   6.079   5.192
 7453SOL    HW223259   5.605   6.177   5.141
 7454SOL     OW23260   0.402   3.366   0.544
 7454SOL    HW123261   0.452   3.305   0.484
 7454SOL    HW223262   0.306   3.338   0.549
 7455SOL     OW23263   5.324   1.748   0.199
 7455SOL    HW123264   5.392   1.804   0.247
 7455SOL    HW223265   5.272   1.806   0.136
 7456SOL     OW23266   1.956   3.410   5.281
 7456SOL    HW123267   1.938   3.320   5.322
 7456SOL    HW223268   1.978   3.475   5.353
 7457SOL     OW23269   5.934   0.396   5.959
 7457SOL    HW123270   5.884   0.473   6.001
 7457SOL    HW223271   5.926   0.316   6.018
 7458SOL     OW23272   2.435   0.877   0.173
 7458SOL    HW123273   2.448   0.811   0.099
 7458SOL    HW223274   2.523   0.920   0.195
 7459SOL     OW23275   4.812   0.727   4.392
 7459SOL    HW123276   4.862   0.678   4.321
 7459SOL    HW223277   4.834   0.824   4.387
 7460SOL     OW23278   0.569   4.631   7.019
 7460SOL    HW123279   0.476   4.635   0.031
 7460SOL    HW223280   0.570   4.573   6.937
 7461SOL     OW23281   4.750   0.598   3.895
 7461SOL    HW123282   4.822   0.546   3.941
 7461SOL    HW223283   4.725   0.551   3.810
 7462SOL     OW23284   2.025   1.357   2.191
 7462SOL    HW123285   2.114   1.395   2.217
 7462SOL    HW223286   2.032   1.316   2.100
 7463SOL     OW23287   3.617   3.803   2.662
 7463SOL    HW123288   3.597   3.897   2.691
 7463SOL    HW223289   3.715   3.794   2.643
 7464SOL     OW23290   5.499   5.893   6.935
 7464SOL    HW123291   5.516   5.924   6.842
 7464SOL    HW223292   5.576   5.839   6.967
 7465SOL     OW23293   3.148   0.457   1.705
 7465SOL    HW123294   3.107   0.464   1.796
 7465SOL    HW223295   3.164   0.360   1.684
 7466SOL     OW23296   1.063   0.423   6.427
 7466SOL    HW123297   1.093   0.393   6.336
 7466SOL    HW223298   0.988   0.365   6.457
 7467SOL     OW23299   6.877   1.542   1.580
 7467SOL    HW123300   6.860   1.512   1.674
 7467SOL    HW223301   6.859   1.641   1.573
 7468SOL     OW23302   6.669   3.475   3.435
 7468SOL    HW123303   6.749   3.457   3.491
 7468SOL    HW223304   6.597   3.408   3.456
 7469SOL     OW23305   0.453   1.086   1.757
 7469SOL    HW123306   0.545   1.069   1.792
 7469SOL    HW223307   0.394   1.007   1.779
 7470SOL     OW23308   6.986   2.430   2.188
 7470SOL    HW123309   0.003   2.518   2.163
 7470SOL    HW223310   6.893   2.444   2.222
 7471SOL     OW23311   6.405   6.067   6.048
 7471SOL    HW123312   6.351   5.987   6.021
 7471SOL    HW223313   6.501   6.051   6.026
 7472SOL     OW23314   3.122   5.864   3.160
 7472SOL    HW123315   3.076   5.775   3.165
 7472SOL    HW223316   3.082   5.925   3.228
 7473SOL     OW23317   0.098   3.704   4.980
 7473SOL    HW123318   0.103   3.659   5.069
 7473SOL    HW223319   0.079   3.636   4.909
 7474SOL     OW23320   3.844   0.919   2.900
 7474SOL    HW123321   3.935   0.912   2.859
 7474SOL    HW223322   3.819   1.015   2.910
 7475SOL     OW23323   4.116   1.714   0.121
 7475SOL    HW123324   4.023   1.677   0.115
 7475SOL    HW223325   4.150   1.731   0.029
 7476SOL     OW23326   3.357   6.925   4.782
 7476SOL    HW123327   3.275   6.950   4.731
 7476SOL    HW223328   3.359   6.826   4.796
 7477SOL     OW23329   4.817   2.385   3.639
 7477SOL    HW123330   4.901   2.437   3.656
 7477SOL    HW223331   4.761   2.434   3.572
 7478SOL     OW23332   1.693   5.101   1.224
 7478SOL    HW123333   1.746   5.021   1.201
 7478SOL    HW223334   1.754   5.179   1.239
 7479SOL     OW23335   4.690   0.386   6.678
 7479SOL    HW123336   4.735   0.305   6.715
 7479SOL    HW223337   4.707   0.464   6.739
 7480SOL     OW23338   0.075   4.940   0.875
 7480SOL    HW123339   0.050   4.843   0.868
 7480SOL    HW223340   0.157   4.957   0.820
 7481SOL     OW23341   6.234   5.539   0.898
 7481SOL    HW123342   6.249   5.441   0.911
 7481SOL    HW223343   6.143   5.563   0.931
 7482SOL     OW23344   4.930   0.574   4.205
 7482SOL    HW123345   5.017   0.532   4.179
 7482SOL    HW223346   4.907   0.647   4.141
 7483SOL     OW23347   3.285   0.778   6.316
 7483SOL    HW123348   3.359   0.773   6.383
 7483SOL    HW223349   3.218   0.707   6.335
 7484SOL     OW23350   2.294   6.759   2.226
 7484SOL    HW123351   2.268   6.822   2.154
 7484SOL    HW223352   2.273   6.799   2.315
 7485SOL     OW23353   1.816   6.408   6.452
 7485SOL    HW123354   1.859   6.329   6.408
 7485SOL    HW223355   1.717   6.404   6.440
 7486SOL     OW23356   2.224   0.034   5.593
 7486SOL    HW123357   2.225   0.064   5.689
 7486SOL    HW223358   2.251   6.962   5.588
 7487SOL     OW23359   3.954   5.554   3.545
 7487SOL    HW123360   4.007   5.639   3.549
 7487SOL    HW223361   3.910   5.546   3.456
 7488SOL     OW23362   3.551   1.300   5.987
 7488SOL    HW123363   3.482   1.370   5.965
 7488SOL    HW223364   3.632   1.344   6.025
 7489SOL     OW23365   6.095   3.353   3.226
 7489SOL    HW123366   6.060   3.444   3.204
 7489SOL    HW223367   6.187   3.362   3.265
 7490SOL     OW23368   6.017   1.677   1.678
 7490SOL    HW123369   5.933   1.647   1.723
 7490SOL    HW223370   5.997   1.759   1.624
 7491SOL     OW23371   6.634   5.418   6.349
 7491SOL    HW123372   6.582   5.398   6.432
 7491SOL    HW223373   6.591   5.494   6.301
 7492SOL     OW23374   2.369   2.739   4.578
 7492SOL    HW123375   2.396   2.698   4.665
 7492SOL    HW223376   2.350   2.667   4.512
 7493SOL     OW23377   5.304   3.469   0.195
 7493SOL    HW123378   5.249   3.488   0.277
 7493SOL    HW223379   5.373   3.541   0.184
 7494SOL     OW23380   5.651   1.830   1.365
 7494SOL    HW123381   5.686   1.759   1.305
 7494SOL    HW223382   5.606   1.901   1.311
 7495SOL     OW23383   0.748   1.963   2.229
 7495SOL    HW123384   0.685   1.894   2.265
 7495SOL    HW223385   0.696   2.045   2.205
 7496SOL     OW23386   0.909   4.627   5.616
 7496SOL    HW123387   0.896   4.583   5.705
 7496SOL    HW223388   0.979   4.697   5.624
 7497SOL     OW23389   2.409   4.766   1.637
 7497SOL    HW123390   2.359   4.838   1.686
 7497SOL    HW223391   2.444   4.699   1.703
 7498SOL     OW23392   4.274   1.698   4.220
 7498SOL    HW123393   4.350   1.763   4.217
 7498SOL    HW223394   4.276   1.640   4.139
 7499SOL     OW23395   5.234   5.590   4.105
 7499SOL    HW123396   5.189   5.535   4.175
 7499SOL    HW223397   5.315   5.634   4.145
 7500SOL     OW23398   5.031   4.317   1.190
 7500SOL    HW123399   5.001   4.357   1.276
 7500SOL    HW223400   5.063   4.390   1.129
 7501SOL     OW23401   6.963   4.499   3.903
 7501SOL    HW123402   6.898   4.523   3.975
 7501SOL    HW223403   6.984   4.580   3.849
 7502SOL     OW23404   2.211   1.442   4.606
 7502SOL    HW123405   2.209   1.345   4.630
 7502SOL    HW223406   2.157   1.494   4.672
 7503SOL     OW23407   2.190   2.336   6.043
 7503SOL    HW123408   2.238   2.259   6.084
 7503SOL    HW223409   2.214   2.343   5.946
 7504SOL     OW23410   4.093   5.799   3.609
 7504SOL    HW123411   4.029   5.856   3.558
 7504SOL    HW223412   4.087   5.822   3.706
 7505SOL     OW23413   1.585   1.697   4.494
 7505SOL    HW123414   1.550   1.708   4.587
 7505SOL    HW223415   1.513   1.721   4.429
 7506SOL     OW23416   3.548   1.874   3.079
 7506SOL    HW123417   3.588   1.924   3.002
 7506SOL    HW223418   3.622   1.834   3.134
 7507SOL     OW23419   1.247   6.086   6.196
 7507SOL    HW123420   1.155   6.116   6.169
 7507SOL    HW223421   1.298   6.058   6.114
 7508SOL     OW23422   5.162   0.307   3.405
 7508SOL    HW123423   5.161   0.262   3.494
 7508SOL    HW223424   5.149   0.406   3.418
 7509SOL     OW23425   4.621   3.876   5.702
 7509SOL    HW123426   4.673   3.946   5.751
 7509SOL    HW223427   4.620   3.898   5.604
 7510SOL     OW23428   3.646   4.182   5.304
 7510SOL    HW123429   3.694   4.253   5.253
 7510SOL    HW223430   3.564   4.154   5.253
 7511SOL     OW23431   1.269   0.612   2.500
 7511SOL    HW123432   1.367   0.607   2.483
 7511SOL    HW223433   1.220   0.568   2.424
 7512SOL     OW23434   1.685   2.613   1.883
 7512SOL    HW123435   1.688   2.703   1.839
 7512SOL    HW223436   1.592   2.576   1.874
 7513SOL     OW23437   1.210   2.524   6.704
 7513SOL    HW123438   1.141   2.452   6.705
 7513SOL    HW223439   1.168   2.611   6.729
 7514SOL     OW23440   2.727   5.587   3.078
 7514SOL    HW123441   2.826   5.575   3.087
 7514SOL    HW223442   2.690   5.511   3.024
 7515SOL     OW23443   6.285   5.530   2.663
 7515SOL    HW123444   6.187   5.508   2.659
 7515SOL    HW223445   6.296   5.629   2.657
 7516SOL     OW23446   0.338   1.211   2.664
 7516SOL    HW123447   0.267   1.239   2.599
 7516SOL    HW223448   0.387   1.292   2.696
 7517SOL     OW23449   0.376   4.108   1.508
 7517SOL    HW123450   0.354   4.129   1.603
 7517SOL    HW223451   0.431   4.182   1.469
 7518SOL     OW23452   4.986   5.578   3.810
 7518SOL    HW123453   5.073   5.528   3.806
 7518SOL    HW223454   4.914   5.515   3.837
 7519SOL     OW23455   2.578   6.060   3.962
 7519SOL    HW123456   2.577   6.019   4.053
 7519SOL    HW223457   2.588   5.988   3.893
 7520SOL     OW23458   1.914   6.823   4.240
 7520SOL    HW123459   1.977   6.829   4.163
 7520SOL    HW223460   1.896   6.915   4.275
 7521SOL     OW23461   4.713   4.567   5.601
 7521SOL    HW123462   4.806   4.543   5.575
 7521SOL    HW223463   4.662   4.484   5.625
 7522SOL     OW23464   1.744   0.876   1.684
 7522SOL    HW123465   1.655   0.850   1.722
 7522SOL    HW223466   1.805   0.906   1.758
 7523SOL     OW23467   5.872   6.751   6.901
 7523SOL    HW123468   5.792   6.710   6.944
 7523SOL    HW223469   5.886   6.710   6.811
 7524SOL     OW23470   0.214   1.376   4.927
 7524SOL    HW123471   0.160   1.370   4.843
 7524SOL    HW223472   0.188   1.458   4.978
 7525SOL     OW23473   2.009   6.946   0.926
 7525SOL    HW123474   1.982   0.016   0.947
 7525SOL    HW223475   1.949   6.882   0.974
 7526SOL     OW23476   3.546   2.833   5.042
 7526SOL    HW123477   3.611   2.892   4.994
 7526SOL    HW223478   3.479   2.798   4.976
 7527SOL     OW23479   5.276   4.829   3.103
 7527SOL    HW123480   5.215   4.774   3.045
 7527SOL    HW223481   5.256   4.811   3.199
 7528SOL     OW23482   6.783   3.480   6.696
 7528SOL    HW123483   6.757   3.455   6.789
 7528SOL    HW223484   6.866   3.536   6.698
 7529SOL     OW23485   3.229   1.485   5.793
 7529SOL    HW123486   3.184   1.537   5.865
 7529SOL    HW223487   3.197   1.390   5.795
 7530SOL     OW23488   0.393   3.352   2.419
 7530SOL    HW123489   0.349   3.438   2.396
 7530SOL    HW223490   0.334   3.300   2.481
 7531SOL     OW23491   3.835   2.113   3.477
 7531SOL    HW123492   3.756   2.051   3.479
 7531SOL    HW223493   3.829   2.175   3.555
 7532SOL     OW23494   5.212   5.006   2.764
 7532SOL    HW123495   5.263   5.002   2.678
 7532SOL    HW223496   5.114   5.019   2.745
 7533SOL     OW23497   3.670   0.597   4.525
 7533SOL    HW123498   3.647   0.534   4.599
 7533SOL    HW223499   3.766   0.587   4.500
 7534SOL     OW23500   4.997   6.867   4.842
 7534SOL    HW123501   4.922   6.896   4.782
 7534SOL    HW223502   5.083   6.865   4.790
 7535SOL     OW23503   3.140   3.523   6.251
 7535SOL    HW123504   3.044   3.542   6.230
 7535SOL    HW223505   3.148   3.490   6.345
 7536SOL     OW23506   3.491   6.420   4.285
 7536SOL    HW123507   3.472   6.460   4.195
 7536SOL    HW223508   3.421   6.351   4.306
 7537SOL     OW23509   2.271   4.700   5.772
 7537SOL    HW123510   2.205   4.635   5.811
 7537SOL    HW223511   2.337   4.727   5.843
 7538SOL     OW23512   3.095   3.402   2.378
 7538SOL    HW123513   3.191   3.373   2.372
 7538SOL    HW223514   3.061   3.388   2.471
 7539SOL     OW23515   1.776   2.886   4.505
 7539SOL    HW123516   1.854   2.862   4.448
 7539SOL    HW223517   1.803   2.953   4.574
 7540SOL     OW23518   2.253   1.610   0.237
 7540SOL    HW123519   2.233   1.586   0.142
 7540SOL    HW223520   2.344   1.579   0.262
 7541SOL     OW23521   6.497   2.431   5.931
 7541SOL    HW123522   6.504   2.436   5.831
 7541SOL    HW223523   6.426   2.366   5.956
 7542SOL     OW23524   1.561   6.691   6.755
 7542SOL    HW123525   1.580   6.787   6.773
 7542SOL    HW223526   1.508   6.683   6.671
 7543SOL     OW23527   3.605   3.111   0.197
 7543SOL    HW123528   3.682   3.082   0.141
 7543SOL    HW223529   3.591   3.210   0.186
 7544SOL     OW23530   2.339   2.000   2.354
 7544SOL    HW123531   2.308   1.907   2.332
 7544SOL    HW223532   2.259   2.056   2.378
 7545SOL     OW23533   5.254   6.406   4.437
 7545SOL    HW123534   5.244   6.306   4.441
 7545SOL    HW223535   5.300   6.438   4.520
 7546SOL     OW23536   4.773   0.729   6.776
 7546SOL    HW123537   4.784   0.720   6.677
 7546SOL    HW223538   4.818   0.812   6.808
 7547SOL     OW23539   3.397   0.080   0.241
 7547SOL    HW123540   3.450   0.133   0.174
 7547SOL    HW223541   3.323   0.136   0.276
 7548SOL     OW23542   1.656   2.477   1.469
 7548SOL    HW123543   1.576   2.513   1.422
 7548SOL    HW223544   1.719   2.553   1.490
 7549SOL     OW23545   5.931   2.248   2.469
 7549SOL    HW123546   6.002   2.206   2.525
 7549SOL    HW223547   5.872   2.305   2.527
 7550SOL     OW23548   2.078   5.623   1.189
 7550SOL    HW123549   2.052   5.601   1.095
 7550SOL    HW223550   2.021   5.698   1.222
 7551SOL     OW23551   4.975   3.739   6.323
 7551SOL    HW123552   4.889   3.688   6.329
 7551SOL    HW223553   5.031   3.720   6.403
 7552SOL     OW23554   3.769   5.174   3.947
 7552SOL    HW123555   3.679   5.218   3.945
 7552SOL    HW223556   3.827   5.214   3.876
 7553SOL     OW23557   4.296   4.843   5.931
 7553SOL    HW123558   4.391   4.854   5.959
 7553SOL    HW223559   4.292   4.815   5.835
 7554SOL     OW23560   6.436   1.020   1.178
 7554SOL    HW123561   6.521   1.073   1.184
 7554SOL    HW223562   6.447   0.934   1.226
 7555SOL     OW23563   1.034   5.776   5.138
 7555SOL    HW123564   1.096   5.806   5.210
 7555SOL    HW223565   1.016   5.678   5.147
 7556SOL     OW23566   0.180   3.028   4.846
 7556SOL    HW123567   0.248   3.048   4.917
 7556SOL    HW223568   0.210   3.071   4.760
 7557SOL     OW23569   4.573   3.639   6.945
 7557SOL    HW123570   4.634   3.701   6.895
 7557SOL    HW223571   4.616   3.550   6.954
 7558SOL     OW23572   1.465   3.269   3.537
 7558SOL    HW123573   1.539   3.335   3.550
 7558SOL    HW223574   1.498   3.178   3.562
 7559SOL     OW23575   0.745   4.238   1.200
 7559SOL    HW123576   0.686   4.158   1.204
 7559SOL    HW223577   0.840   4.211   1.208
 7560SOL     OW23578   4.424   6.572   6.727
 7560SOL    HW123579   4.439   6.596   6.823
 7560SOL    HW223580   4.412   6.473   6.718
 7561SOL     OW23581   0.428   2.595   0.814
 7561SOL    HW123582   0.391   2.511   0.854
 7561SOL    HW223583   0.419   2.591   0.714
 7562SOL     OW23584   5.199   5.720   5.370
 7562SOL    HW123585   5.201   5.748   5.274
 7562SOL    HW223586   5.142   5.784   5.422
 7563SOL     OW23587   2.078   0.895   2.306
 7563SOL    HW123588   2.148   0.922   2.240
 7563SOL    HW223589   2.107   0.812   2.354
 7564SOL     OW23590   4.924   6.120   3.907
 7564SOL    HW123591   4.878   6.195   3.955
 7564SOL    HW223592   5.005   6.092   3.958
 7565SOL     OW23593   4.785   4.644   0.802
 7565SOL    HW123594   4.858   4.578   0.823
 7565SOL    HW223595   4.807   4.693   0.718
 7566SOL     OW23596   1.487   6.367   4.622
 7566SOL    HW123597   1.529   6.367   4.531
 7566SOL    HW223598   1.417   6.295   4.626
 7567SOL     OW23599   2.930   3.881   0.091
 7567SOL    HW123600   2.859   3.827   0.046
 7567SOL    HW223601   2.974   3.826   0.162
 7568SOL     OW23602   4.933   4.436   3.049
 7568SOL    HW123603   4.865   4.368   3.077
 7568SOL    HW223604   4.987   4.400   2.972
 7569SOL     OW23605   4.243   0.108   0.725
 7569SOL    HW123606   4.155   0.075   0.759
 7569SOL    HW223607   4.291   0.033   0.681
 7570SOL     OW23608   6.508   4.963   4.212
 7570SOL    HW123609   6.463   4.874   4.204
 7570SOL    HW223610   6.506   4.992   4.308
 7571SOL     OW23611   5.296   4.511   2.076
 7571SOL    HW123612   5.302   4.444   2.151
 7571SOL    HW223613   5.387   4.525   2.038
 7572SOL     OW23614   2.477   1.563   4.563
 7572SOL    HW123615   2.397   1.505   4.548
 7572SOL    HW223616   2.473   1.602   4.655
 7573SOL     OW23617   2.340   5.733   4.475
 7573SOL    HW123618   2.253   5.781   4.490
 7573SOL    HW223619   2.366   5.741   4.378
 7574SOL     OW23620   5.352   6.559   2.674
 7574SOL    HW123621   5.355   6.657   2.654
 7574SOL    HW223622   5.266   6.537   2.720
 7575SOL     OW23623   3.962   2.186   4.635
 7575SOL    HW123624   3.934   2.267   4.687
 7575SOL    HW223625   3.882   2.129   4.616
 7576SOL     OW23626   6.029   2.912   0.979
 7576SOL    HW123627   5.984   2.977   1.041
 7576SOL    HW223628   5.961   2.849   0.942
 7577SOL     OW23629   4.843   0.709   5.311
 7577SOL    HW123630   4.866   0.775   5.384
 7577SOL    HW223631   4.763   0.656   5.339
 7578SOL     OW23632   2.522   4.490   4.217
 7578SOL    HW123633   2.477   4.435   4.288
 7578SOL    HW223634   2.466   4.488   4.134
 7579SOL     OW23635   3.658   1.418   2.972
 7579SOL    HW123636   3.589   1.379   2.911
 7579SOL    HW223637   3.613   1.480   3.036
 7580SOL     OW23638   1.744   3.960   3.082
 7580SOL    HW123639   1.646   3.980   3.076
 7580SOL    HW223640   1.757   3.870   3.123
 7581SOL     OW23641   6.285   0.502   1.016
 7581SOL    HW123642   6.335   0.542   0.939
 7581SOL    HW223643   6.274   0.571   1.088
 7582SOL     OW23644   2.831   0.876   0.916
 7582SOL    HW123645   2.764   0.881   0.991
 7582SOL    HW223646   2.916   0.919   0.946
 7583SOL     OW23647   6.994   3.386   2.525
 7583SOL    HW123648   7.005   3.410   2.621
 7583SOL    HW223649   6.982   3.287   2.517
 7584SOL     OW23650   2.598   0.460   1.321
 7584SOL    HW123651   2.674   0.488   1.262
 7584SOL    HW223652   2.513   0.501   1.288
 7585SOL     OW23653   1.774   4.868   6.030
 7585SOL    HW123654   1.734   4.925   5.958
 7585SOL    HW223655   1.701   4.824   6.082
 7586SOL     OW23656   2.610   0.666   2.254
 7586SOL    HW123657   2.597   0.746   2.312
 7586SOL    HW223658   2.548   0.672   2.175
 7587SOL     OW23659   1.524   1.258   5.828
 7587SOL    HW123660   1.598   1.253   5.762
 7587SOL    HW223661   1.476   1.345   5.818
 7588SOL     OW23662   0.052   4.357   1.439
 7588SOL    HW123663   0.137   4.380   1.488
 7588SOL    HW223664   0.075   4.309   1.354
 7589SOL     OW23665   5.732   6.201   0.573
 7589SOL    HW123666   5.743   6.156   0.661
 7589SOL    HW223667   5.649   6.168   0.529
 7590SOL     OW23668   1.588   0.796   6.039
 7590SOL    HW123669   1.547   0.811   6.129
 7590SOL    HW223670   1.653   0.720   6.045
 7591SOL     OW23671   6.695   4.767   0.454
 7591SOL    HW123672   6.743   4.855   0.453
 7591SOL    HW223673   6.750   4.699   0.406
 7592SOL     OW23674   5.687   5.706   0.323
 7592SOL    HW123675   5.588   5.714   0.315
 7592SOL    HW223676   5.721   5.771   0.391
 7593SOL     OW23677   5.963   2.170   6.910
 7593SOL    HW123678   6.046   2.166   6.965
 7593SOL    HW223679   5.986   2.203   6.818
 7594SOL     OW23680   1.531   6.010   4.083
 7594SOL    HW123681   1.591   5.937   4.052
 7594SOL    HW223682   1.510   5.998   4.180
 7595SOL     OW23683   6.075   3.011   0.328
 7595SOL    HW123684   6.153   2.957   0.295
 7595SOL    HW223685   6.001   3.007   0.260
 7596SOL     OW23686   5.497   4.603   1.891
 7596SOL    HW123687   5.450   4.691   1.883
 7596SOL    HW223688   5.581   4.615   1.944
 7597SOL     OW23689   3.376   5.224   1.633
 7597SOL    HW123690   3.352   5.319   1.651
 7597SOL    HW223691   3.329   5.165   1.700
 7598SOL     OW23692   6.508   1.218   3.379
 7598SOL    HW123693   6.428   1.271   3.409
 7598SOL    HW223694   6.477   1.134   3.334
 7599SOL     OW23695   6.058   2.434   2.297
 7599SOL    HW123696   5.961   2.421   2.279
 7599SOL    HW223697   6.078   2.410   2.392
 7600SOL     OW23698   1.884   1.540   1.494
 7600SOL    HW123699   1.857   1.594   1.575
 7600SOL    HW223700   1.959   1.587   1.447
 7601SOL     OW23701   2.067   6.846   4.801
 7601SOL    HW123702   1.974   6.858   4.767
 7601SOL    HW223703   2.109   6.766   4.757
 7602SOL     OW23704   0.935   3.844   5.076
 7602SOL    HW123705   0.983   3.801   5.152
 7602SOL    HW223706   0.996   3.909   5.030
 7603SOL     OW23707   0.868   6.814   1.263
 7603SOL    HW123708   0.854   6.741   1.329
 7603SOL    HW223709   0.869   6.902   1.311
 7604SOL     OW23710   4.919   6.395   6.080
 7604SOL    HW123711   4.916   6.441   5.992
 7604SOL    HW223712   4.828   6.397   6.122
 7605SOL     OW23713   6.104   4.588   6.617
 7605SOL    HW123714   6.024   4.555   6.668
 7605SOL    HW223715   6.102   4.688   6.614
 7606SOL     OW23716   5.990   1.731   2.755
 7606SOL    HW123717   5.960   1.820   2.721
 7606SOL    HW223718   5.975   1.726   2.854
 7607SOL     OW23719   4.678   6.993   6.708
 7607SOL    HW123720   4.677   7.013   6.610
 7607SOL    HW223721   4.634   0.044   6.758
 7608SOL     OW23722   3.270   3.199   3.597
 7608SOL    HW123723   3.179   3.205   3.556
 7608SOL    HW223724   3.338   3.225   3.529
 7609SOL     OW23725   1.231   3.240   4.637
 7609SOL    HW123726   1.308   3.262   4.578
 7609SOL    HW223727   1.261   3.176   4.708
 7610SOL     OW23728   5.486   0.074   1.113
 7610SOL    HW123729   5.545   0.136   1.062
 7610SOL    HW223730   5.512   7.003   1.095
 7611SOL     OW23731   1.728   1.624   0.865
 7611SOL    HW123732   1.716   1.527   0.884
 7611SOL    HW223733   1.821   1.651   0.887
 7612SOL     OW23734   4.245   1.950   2.889
 7612SOL    HW123735   4.326   1.996   2.852
 7612SOL    HW223736   4.165   1.975   2.834
 7613SOL     OW23737   4.655   1.174   2.202
 7613SOL    HW123738   4.696   1.260   2.175
 7613SOL    HW223739   4.679   1.153   2.297
 7614SOL     OW23740   4.108   2.408   0.711
 7614SOL    HW123741   4.126   2.383   0.806
 7614SOL    HW223742   4.190   2.392   0.656
 7615SOL     OW23743   3.703   5.095   5.619
 7615SOL    HW123744   3.752   5.035   5.682
 7615SOL    HW223745   3.745   5.092   5.529
 7616SOL     OW23746   6.200   4.155   3.536
 7616SOL    HW123747   6.214   4.142   3.634
 7616SOL    HW223748   6.217   4.069   3.488
 7617SOL     OW23749   3.067   5.883   2.324
 7617SOL    HW123750   3.121   5.799   2.316
 7617SOL    HW223751   3.124   5.957   2.359
 7618SOL     OW23752   1.788   2.533   0.453
 7618SOL    HW123753   1.810   2.492   0.541
 7618SOL    HW223754   1.809   2.467   0.380
 7619SOL     OW23755   5.483   3.346   5.977
 7619SOL    HW123756   5.425   3.326   6.056
 7619SOL    HW223757   5.568   3.293   5.984
 7620SOL     OW23758   3.144   6.665   1.826
 7620SOL    HW123759   3.214   6.704   1.886
 7620SOL    HW223760   3.087   6.602   1.879
 7621SOL     OW23761   2.199   1.365   1.745
 7621SOL    HW123762   2.291   1.402   1.733
 7621SOL    HW223763   2.177   1.305   1.668
 7622SOL     OW23764   4.480   2.479   0.242
 7622SOL    HW123765   4.393   2.528   0.246
 7622SOL    HW223766   4.529   2.505   0.158
 7623SOL     OW23767   4.424   0.608   5.939
 7623SOL    HW123768   4.478   0.573   5.862
 7623SOL    HW223769   4.460   0.570   6.024
 7624SOL     OW23770   0.631   0.824   3.553
 7624SOL    HW123771   0.550   0.824   3.611
 7624SOL    HW223772   0.669   0.916   3.548
 7625SOL     OW23773   4.383   0.173   1.649
 7625SOL    HW123774   4.478   0.155   1.622
 7625SOL    HW223775   4.364   0.127   1.736
 7626SOL     OW23776   1.676   5.564   5.038
 7626SOL    HW123777   1.687   5.493   5.107
 7626SOL    HW223778   1.695   5.526   4.947
 7627SOL     OW23779   0.063   2.708   0.290
 7627SOL    HW123780   0.154   2.731   0.255
 7627SOL    HW223781   0.046   2.610   0.278
 7628SOL     OW23782   3.184   1.815   1.095
 7628SOL    HW123783   3.122   1.845   1.023
 7628SOL    HW223784   3.231   1.894   1.134
 7629SOL     OW23785   6.626   5.522   3.563
 7629SOL    HW123786   6.573   5.445   3.599
 7629SOL    HW223787   6.564   5.597   3.541
 7630SOL     OW23788   6.172   0.910   2.617
 7630SOL    HW123789   6.245   0.842   2.612
 7630SOL    HW223790   6.157   0.936   2.712
 7631SOL     OW23791   0.670   2.205   3.670
 7631SOL    HW123792   0.652   2.273   3.599
 7631SOL    HW223793   0.648   2.114   3.635
 7632SOL     OW23794   4.588   1.403   0.109
 7632SOL    HW123795   4.542   1.383   0.196
 7632SOL    HW223796   4.535   1.471   0.058
 7633SOL     OW23797   5.522   3.811   6.991
 7633SOL    HW123798   5.453   3.844   0.031
 7633SOL    HW223799   5.562   3.726   0.001
 7634SOL     OW23800   1.275   1.527   2.234
 7634SOL    HW123801   1.303   1.539   2.139
 7634SOL    HW223802   1.283   1.430   2.259
 7635SOL     OW23803   2.990   4.640   5.600
 7635SOL    HW123804   3.067   4.578   5.608
 7635SOL    HW223805   2.943   4.624   5.513
 7636SOL     OW23806   0.943   0.448   3.883
 7636SOL    HW123807   1.015   0.427   3.949
 7636SOL    HW223808   0.970   0.527   3.828
 7637SOL     OW23809   1.771   5.608   4.365
 7637SOL    HW123810   1.863   5.613   4.324
 7637SOL    HW223811   1.764   5.675   4.438
 7638SOL     OW23812   5.144   5.219   2.147
 7638SOL    HW123813   5.157   5.221   2.047
 7638SOL    HW223814   5.055   5.258   2.170
 7639SOL     OW23815   0.812   1.933   4.881
 7639SOL    HW123816   0.870   2.003   4.923
 7639SOL    HW223817   0.861   1.889   4.806
 7640SOL     OW23818   2.149   1.886   6.731
 7640SOL    HW123819   2.205   1.803   6.738
 7640SOL    HW223820   2.065   1.866   6.680
 7641SOL     OW23821   5.874   3.932   2.295
 7641SOL    HW123822   5.936   3.909   2.220
 7641SOL    HW223823   5.908   4.013   2.343
 7642SOL     OW23824   2.500   2.105   2.663
 7642SOL    HW123825   2.484   2.085   2.566
 7642SOL    HW223826   2.420   2.078   2.716
 7643SOL     OW23827   4.927   3.014   3.259
 7643SOL    HW123828   4.920   3.088   3.325
 7643SOL    HW223829   5.000   3.034   3.193
 7644SOL     OW23830   0.112   3.404   3.190
 7644SOL    HW123831   0.064   3.486   3.221
 7644SOL    HW223832   0.123   3.407   3.090
 7645SOL     OW23833   4.618   3.771   6.528
 7645SOL    HW123834   4.582   3.858   6.494
 7645SOL    HW223835   4.638   3.711   6.451
 7646SOL     OW23836   2.337   1.788   1.873
 7646SOL    HW123837   2.390   1.802   1.789
 7646SOL    HW223838   2.262   1.724   1.855
 7647SOL     OW23839   2.541   4.004   1.526
 7647SOL    HW123840   2.617   4.014   1.589
 7647SOL    HW223841   2.474   4.078   1.541
 7648SOL     OW23842   4.280   0.915   3.487
 7648SOL    HW123843   4.274   0.996   3.545
 7648SOL    HW223844   4.342   0.933   3.411
 7649SOL     OW23845   3.047   0.853   1.766
 7649SOL    HW123846   3.015   0.865   1.860
 7649SOL    HW223847   3.130   0.908   1.752
 7650SOL     OW23848   6.262   4.768   2.494
 7650SOL    HW123849   6.249   4.697   2.425
 7650SOL    HW223850   6.184   4.769   2.556
 7651SOL     OW23851   3.738   1.397   6.428
 7651SOL    HW123852   3.644   1.394   6.461
 7651SOL    HW223853   3.763   1.491   6.405
 7652SOL     OW23854   0.986   3.379   2.313
 7652SOL    HW123855   0.938   3.457   2.275
 7652SOL    HW223856   1.012   3.397   2.407
 7653SOL     OW23857   3.015   2.376   1.223
 7653SOL    HW123858   2.999   2.294   1.169
 7653SOL    HW223859   3.099   2.365   1.276
 7654SOL     OW23860   5.267   3.893   3.640
 7654SOL    HW123861   5.298   3.911   3.547
 7654SOL    HW223862   5.257   3.980   3.689
 7655SOL     OW23863   4.303   6.502   5.218
 7655SOL    HW123864   4.380   6.468   5.272
 7655SOL    HW223865   4.223   6.444   5.233
 7656SOL     OW23866   0.912   6.385   4.822
 7656SOL    HW123867   0.866   6.310   4.870
 7656SOL    HW223868   0.935   6.457   4.888
 7657SOL     OW23869   3.842   1.279   3.735
 7657SOL    HW123870   3.820   1.190   3.775
 7657SOL    HW223871   3.922   1.317   3.780
 7658SOL     OW23872   3.902   0.982   6.293
 7658SOL    HW123873   3.969   0.955   6.224
 7658SOL    HW223874   3.836   1.046   6.253
 7659SOL     OW23875   5.998   0.366   1.015
 7659SOL    HW123876   5.977   0.356   1.112
 7659SOL    HW223877   6.090   0.403   1.004
 7660SOL     OW23878   6.173   4.929   4.301
 7660SOL    HW123879   6.207   5.023   4.302
 7660SOL    HW223880   6.144   4.906   4.208
 7661SOL     OW23881   6.307   2.796   3.179
 7661SOL    HW123882   6.378   2.776   3.246
 7661SOL    HW223883   6.340   2.865   3.114
 7662SOL     OW23884   6.961   4.861   2.009
 7662SOL    HW123885   0.022   4.829   1.966
 7662SOL    HW223886   6.897   4.890   1.938
 7663SOL     OW23887   0.126   5.365   0.143
 7663SOL    HW123888   0.170   5.445   0.104
 7663SOL    HW223889   0.029   5.384   0.159
 7664SOL     OW23890   2.423   5.176   3.913
 7664SOL    HW123891   2.343   5.234   3.894
 7664SOL    HW223892   2.489   5.227   3.967
 7665SOL     OW23893   2.918   6.823   5.057
 7665SOL    HW123894   2.846   6.813   5.127
 7665SOL    HW223895   2.879   6.868   4.977
 7666SOL     OW23896   1.153   0.701   1.244
 7666SOL    HW123897   1.230   0.656   1.290
 7666SOL    HW223898   1.089   0.631   1.210
 7667SOL     OW23899   4.611   5.840   6.554
 7667SOL    HW123900   4.568   5.885   6.633
 7667SOL    HW223901   4.588   5.743   6.554
 7668SOL     OW23902   3.574   3.894   0.896
 7668SOL    HW123903   3.517   3.925   0.819
 7668SOL    HW223904   3.521   3.896   0.980
 7669SOL     OW23905   4.745   6.417   4.487
 7669SOL    HW123906   4.780   6.507   4.459
 7669SOL    HW223907   4.761   6.404   4.585
 7670SOL     OW23908   1.778   4.868   0.997
 7670SOL    HW123909   1.757   4.773   0.973
 7670SOL    HW223910   1.820   4.871   1.088
 7671SOL     OW23911   6.128   2.630   4.810
 7671SOL    HW123912   6.030   2.618   4.793
 7671SOL    HW223913   6.167   2.686   4.737
 7672SOL     OW23914   5.583   0.839   2.521
 7672SOL    HW123915   5.485   0.841   2.498
 7672SOL    HW223916   5.630   0.914   2.474
 7673SOL     OW23917   1.089   4.533   1.077
 7673SOL    HW123918   1.147   4.517   0.997
 7673SOL    HW223919   0.995   4.551   1.047
 7674SOL     OW23920   5.783   1.665   4.753
 7674SOL    HW123921   5.757   1.685   4.658
 7674SOL    HW223922   5.701   1.661   4.810
 7675SOL     OW23923   4.464   6.098   3.421
 7675SOL    HW123924   4.517   6.054   3.348
 7675SOL    HW223925   4.526   6.150   3.480
 7676SOL     OW23926   1.945   0.203   0.972
 7676SOL    HW123927   2.008   0.280   0.963
 7676SOL    HW223928   1.876   0.207   0.899
 7677SOL     OW23929   2.140   2.866   2.727
 7677SOL    HW123930   2.127   2.962   2.752
 7677SOL    HW223931   2.150   2.859   2.628
 7678SOL     OW23932   6.031   6.658   0.427
 7678SOL    HW123933   5.997   6.591   0.361
 7678SOL    HW223934   6.077   6.610   0.502
 7679SOL     OW23935   1.047   4.881   5.251
 7679SOL    HW123936   1.060   4.979   5.267
 7679SOL    HW223937   0.966   4.850   5.301
 7680SOL     OW23938   4.042   2.613   7.022
 7680SOL    HW123939   4.059   2.710   0.015
 7680SOL    HW223940   3.959   2.585   0.045
 7681SOL     OW23941   3.021   1.708   6.830
 7681SOL    HW123942   3.092   1.652   6.874
 7681SOL    HW223943   2.932   1.665   6.843
 7682SOL     OW23944   3.206   7.011   1.484
 7682SOL    HW123945   3.161   6.995   1.396
 7682SOL    HW223946   3.220   6.924   1.531
 7683SOL     OW23947   5.670   1.902   3.385
 7683SOL    HW123948   5.626   1.905   3.295
 7683SOL    HW223949   5.651   1.814   3.428
 7684SOL     OW23950   4.183   1.927   6.243
 7684SOL    HW123951   4.153   1.976   6.162
 7684SOL    HW223952   4.209   1.992   6.314
 7685SOL     OW23953   3.378   2.828   0.946
 7685SOL    HW123954   3.384   2.926   0.927
 7685SOL    HW223955   3.467   2.785   0.929
 7686SOL     OW23956   3.725   0.113   3.869
 7686SOL    HW123957   3.776   0.184   3.917
 7686SOL    HW223958   3.644   0.153   3.826
 7687SOL     OW23959   5.099   5.255   5.248
 7687SOL    HW123960   5.130   5.328   5.309
 7687SOL    HW223961   5.011   5.219   5.281
 7688SOL     OW23962   0.067   6.548   4.559
 7688SOL    HW123963   0.031   6.478   4.498
 7688SOL    HW223964   0.105   6.505   4.641
 7689SOL     OW23965   4.109   6.346   4.650
 7689SOL    HW123966   4.157   6.425   4.612
 7689SOL    HW223967   4.099   6.357   4.749
 7690SOL     OW23968   0.542   5.605   3.302
 7690SOL    HW123969   0.512   5.677   3.365
 7690SOL    HW223970   0.462   5.570   3.253
 7691SOL     OW23971   4.997   3.344   4.416
 7691SOL    HW123972   5.068   3.273   4.417
 7691SOL    HW223973   4.957   3.349   4.325
 7692SOL     OW23974   2.071   6.268   2.031
 7692SOL    HW123975   2.116   6.273   2.120
 7692SOL    HW223976   2.130   6.219   1.967
 7693SOL     OW23977   5.114   1.636   6.468
 7693SOL    HW123978   5.082   1.541   6.468
 7693SOL    HW223979   5.081   1.682   6.550
 7694SOL     OW23980   0.261   5.473   4.199
 7694SOL    HW123981   0.193   5.487   4.127
 7694SOL    HW223982   0.329   5.546   4.195
 7695SOL     OW23983   3.698   0.096   0.852
 7695SOL    HW123984   3.699   0.101   0.952
 7695SOL    HW223985   3.639   0.021   0.823
 7696SOL     OW23986   0.177   3.176   6.031
 7696SOL    HW123987   0.272   3.147   6.043
 7696SOL    HW223988   0.120   3.097   6.011
 7697SOL     OW23989   3.899   1.879   2.070
 7697SOL    HW123990   3.917   1.977   2.078
 7697SOL    HW223991   3.819   1.864   2.011
 7698SOL     OW23992   6.762   2.937   6.034
 7698SOL    HW123993   6.693   2.865   6.031
 7698SOL    HW223994   6.717   3.027   6.032
 7699SOL     OW23995   2.453   5.088   6.713
 7699SOL    HW123996   2.544   5.106   6.750
 7699SOL    HW223997   2.435   4.990   6.712
 7700SOL     OW23998   4.806   6.426   4.774
 7700SOL    HW123999   4.881   6.363   4.789
 7700SOL    HW224000   4.727   6.398   4.829
 7701SOL     OW24001   6.297   2.143   4.550
 7701SOL    HW124002   6.351   2.215   4.594
 7701SOL    HW224003   6.266   2.078   4.620
 7702SOL     OW24004   2.815   6.661   5.801
 7702SOL    HW124005   2.860   6.671   5.713
 7702SOL    HW224006   2.822   6.747   5.852
 7703SOL     OW24007   0.354   1.240   5.994
 7703SOL    HW124008   0.453   1.251   5.995
 7703SOL    HW224009   0.311   1.323   6.031
 7704SOL     OW24010   4.344   4.275   0.018
 7704SOL    HW124011   4.389   4.204   0.072
 7704SOL    HW224012   4.246   4.275   0.039
 7705SOL     OW24013   3.504   5.037   4.872
 7705SOL    HW124014   3.436   4.968   4.846
 7705SOL    HW224015   3.589   5.021   4.822
 7706SOL     OW24016   6.874   0.927   4.819
 7706SOL    HW124017   6.784   0.965   4.838
 7706SOL    HW224018   6.884   0.839   4.866
 7707SOL     OW24019   0.223   4.780   5.992
 7707SOL    HW124020   0.270   4.698   5.958
 7707SOL    HW224021   0.232   4.853   5.924
 7708SOL     OW24022   4.530   6.440   4.280
 7708SOL    HW124023   4.476   6.523   4.264
 7708SOL    HW224024   4.602   6.460   4.347
 7709SOL     OW24025   4.311   2.121   2.185
 7709SOL    HW124026   4.371   2.046   2.160
 7709SOL    HW224027   4.311   2.134   2.284
 7710SOL     OW24028   2.038   1.367   6.856
 7710SOL    HW124029   1.949   1.321   6.845
 7710SOL    HW224030   2.095   1.347   6.777
 7711SOL     OW24031   5.504   6.504   5.766
 7711SOL    HW124032   5.502   6.435   5.694
 7711SOL    HW224033   5.546   6.587   5.731
 7712SOL     OW24034   5.447   5.488   0.970
 7712SOL    HW124035   5.505   5.409   0.987
 7712SOL    HW224036   5.354   5.458   0.951
 7713SOL     OW24037   1.263   4.303   6.335
 7713SOL    HW124038   1.186   4.330   6.393
 7713SOL    HW224039   1.284   4.375   6.270
 7714SOL     OW24040   5.468   4.171   4.209
 7714SOL    HW124041   5.494   4.165   4.112
 7714SOL    HW224042   5.532   4.231   4.257
 7715SOL     OW24043   4.886   1.046   1.181
 7715SOL    HW124044   4.864   0.972   1.118
 7715SOL    HW224045   4.840   1.031   1.269
 7716SOL     OW24046   4.708   1.911   2.953
 7716SOL    HW124047   4.645   1.988   2.949
 7716SOL    HW224048   4.658   1.826   2.938
 7717SOL     OW24049   3.305   1.908   5.616
 7717SOL    HW124050   3.345   1.969   5.547
 7717SOL    HW224051   3.351   1.819   5.612
 7718SOL     OW24052   3.108   6.116   3.875
 7718SOL    HW124053   3.130   6.069   3.961
 7718SOL    HW224054   3.091   6.048   3.804
 7719SOL     OW24055   6.760   1.863   4.737
 7719SOL    HW124056   6.853   1.894   4.761
 7719SOL    HW224057   6.731   1.907   4.652
 7720SOL     OW24058   5.959   5.586   2.027
 7720SOL    HW124059   5.962   5.685   2.044
 7720SOL    HW224060   6.022   5.563   1.952
 7721SOL     OW24061   1.852   4.164   2.467
 7721SOL    HW124062   1.908   4.242   2.493
 7721SOL    HW224063   1.904   4.079   2.478
 7722SOL     OW24064   0.114   5.561   3.991
 7722SOL    HW124065   0.143   5.651   3.956
 7722SOL    HW224066   0.151   5.490   3.931
 7723SOL     OW24067   6.448   3.160   0.305
 7723SOL    HW124068   6.414   3.225   0.373
 7723SOL    HW224069   6.420   3.067   0.331
 7724SOL     OW24070   1.484   4.831   1.164
 7724SOL    HW124071   1.478   4.889   1.245
 7724SOL    HW224072   1.512   4.739   1.190
 7725SOL     OW24073   5.118   3.071   4.433
 7725SOL    HW124074   5.142   2.987   4.481
 7725SOL    HW224075   5.148   3.064   4.337
 7726SOL     OW24076   0.603   4.465   3.328
 7726SOL    HW124077   0.666   4.459   3.250
 7726SOL    HW224078   0.616   4.553   3.375
 7727SOL     OW24079   6.436   2.868   1.793
 7727SOL    HW124080   6.348   2.861   1.745
 7727SOL    HW224081   6.493   2.790   1.767
 7728SOL     OW24082   2.778   2.222   2.934
 7728SOL    HW124083   2.752   2.264   2.847
 7728SOL    HW224084   2.696   2.212   2.991
 7729SOL     OW24085   5.222   2.327   0.770
 7729SOL    HW124086   5.219   2.313   0.671
 7729SOL    HW224087   5.176   2.412   0.793
 7730SOL     OW24088   6.078   0.770   2.006
 7730SOL    HW124089   6.076   0.759   2.105
 7730SOL    HW224090   6.155   0.718   1.969
 7731SOL     OW24091   5.633   1.216   6.613
 7731SOL    HW124092   5.693   1.176   6.543
 7731SOL    HW224093   5.552   1.255   6.570
 7732SOL     OW24094   4.507   5.425   0.825
 7732SOL    HW124095   4.537   5.433   0.921
 7732SOL    HW224096   4.582   5.388   0.770
 7733SOL     OW24097   3.513   0.295   2.180
 7733SOL    HW124098   3.544   0.200   2.172
 7733SOL    HW224099   3.465   0.322   2.097
 7734SOL     OW24100   2.026   2.166   3.047
 7734SOL    HW124101   1.956   2.141   2.981
 7734SOL    HW224102   2.091   2.090   3.057
 7735SOL     OW24103   4.578   4.437   0.075
 7735SOL    HW124104   4.485   4.412   0.048
 7735SOL    HW224105   4.591   4.416   0.172
 7736SOL     OW24106   6.447   4.839   6.567
 7736SOL    HW124107   6.490   4.879   6.648
 7736SOL    HW224108   6.409   4.749   6.591
 7737SOL     OW24109   5.081   1.280   0.751
 7737SOL    HW124110   5.153   1.319   0.809
 7737SOL    HW224111   5.086   1.180   0.755
 7738SOL     OW24112   2.712   5.152   6.741
 7738SOL    HW124113   2.735   5.240   6.781
 7738SOL    HW224114   2.775   5.082   6.775
 7739SOL     OW24115   5.903   3.012   1.207
 7739SOL    HW124116   5.965   2.978   1.278
 7739SOL    HW224117   5.814   3.033   1.247
 7740SOL     OW24118   0.321   6.673   3.008
 7740SOL    HW124119   0.232   6.698   3.046
 7740SOL    HW224120   0.392   6.729   3.049
 7741SOL     OW24121   2.311   5.568   4.688
 7741SOL    HW124122   2.345   5.623   4.612
 7741SOL    HW224123   2.298   5.474   4.658
 7742SOL     OW24124   6.486   1.544   4.083
 7742SOL    HW124125   6.505   1.485   4.005
 7742SOL    HW224126   6.388   1.555   4.094
 7743SOL     OW24127   4.388   2.450   3.490
 7743SOL    HW124128   4.354   2.509   3.563
 7743SOL    HW224129   4.360   2.355   3.508
 7744SOL     OW24130   6.568   0.502   4.403
 7744SOL    HW124131   6.627   0.426   4.373
 7744SOL    HW224132   6.625   0.575   4.441
 7745SOL     OW24133   4.540   3.964   6.039
 7745SOL    HW124134   4.616   3.968   6.105
 7745SOL    HW224135   4.514   4.057   6.013
 7746SOL     OW24136   1.480   0.410   0.705
 7746SOL    HW124137   1.422   0.482   0.743
 7746SOL    HW224138   1.565   0.405   0.757
 7747SOL     OW24139   5.411   6.128   1.176
 7747SOL    HW124140   5.460   6.211   1.204
 7747SOL    HW224141   5.453   6.091   1.094
 7748SOL     OW24142   3.377   4.162   6.700
 7748SOL    HW124143   3.434   4.096   6.651
 7748SOL    HW224144   3.287   4.166   6.658
 7749SOL     OW24145   5.682   3.165   5.818
 7749SOL    HW124146   5.702   3.067   5.808
 7749SOL    HW224147   5.702   3.193   5.912
 7750SOL     OW24148   6.163   5.040   2.366
 7750SOL    HW124149   6.177   5.139   2.360
 7750SOL    HW224150   6.139   5.015   2.459
 7751SOL     OW24151   0.801   2.684   2.175
 7751SOL    HW124152   0.713   2.680   2.221
 7751SOL    HW224153   0.794   2.640   2.085
 7752SOL     OW24154   4.823   2.118   3.698
 7752SOL    HW124155   4.817   2.215   3.674
 7752SOL    HW224156   4.819   2.063   3.615
 7753SOL     OW24157   3.065   1.838   4.714
 7753SOL    HW124158   3.105   1.752   4.746
 7753SOL    HW224159   2.968   1.840   4.736
 7754SOL     OW24160   5.064   6.407   2.145
 7754SOL    HW124161   5.108   6.412   2.235
 7754SOL    HW224162   5.133   6.392   2.075
 7755SOL     OW24163   0.250   4.721   5.342
 7755SOL    HW124164   0.243   4.770   5.255
 7755SOL    HW224165   0.336   4.746   5.387
 7756SOL     OW24166   2.580   4.983   2.140
 7756SOL    HW124167   2.639   5.063   2.154
 7756SOL    HW224168   2.622   4.903   2.182
 7757SOL     OW24169   0.081   4.238   2.070
 7757SOL    HW124170   0.080   4.154   2.015
 7757SOL    HW224171   7.012   4.274   2.076
 7758SOL     OW24172   1.237   1.623   4.852
 7758SOL    HW124173   1.160   1.600   4.792
 7758SOL    HW224174   1.293   1.694   4.810
 7759SOL     OW24175   2.599   2.067   0.629
 7759SOL    HW124176   2.623   2.129   0.555
 7759SOL    HW224177   2.499   2.056   0.632
 7760SOL     OW24178   4.547   2.778   0.095
 7760SOL    HW124179   4.467   2.801   0.151
 7760SOL    HW224180   4.627   2.827   0.130
 7761SOL     OW24181   4.912   5.448   4.443
 7761SOL    HW124182   4.814   5.429   4.447
 7761SOL    HW224183   4.928   5.546   4.455
 7762SOL     OW24184   6.390   1.682   2.384
 7762SOL    HW124185   6.314   1.724   2.434
 7762SOL    HW224186   6.418   1.742   2.309
 7763SOL     OW24187   2.292   0.158   4.346
 7763SOL    HW124188   2.363   0.184   4.280
 7763SOL    HW224189   2.321   0.076   4.396
 7764SOL     OW24190   2.531   4.084   6.418
 7764SOL    HW124191   2.621   4.062   6.381
 7764SOL    HW224192   2.462   4.030   6.372
 7765SOL     OW24193   6.017   2.966   5.488
 7765SOL    HW124194   6.047   2.973   5.583
 7765SOL    HW224195   6.092   2.993   5.427
 7766SOL     OW24196   5.848   3.731   6.362
 7766SOL    HW124197   5.915   3.804   6.346
 7766SOL    HW224198   5.766   3.749   6.309
 7767SOL     OW24199   3.357   0.444   3.758
 7767SOL    HW124200   3.271   0.475   3.798
 7767SOL    HW224201   3.389   0.511   3.691
 7768SOL     OW24202   4.493   4.936   3.584
 7768SOL    HW124203   4.418   4.958   3.521
 7768SOL    HW224204   4.555   4.872   3.540
 7769SOL     OW24205   3.460   3.205   5.520
 7769SOL    HW124206   3.372   3.209   5.472
 7769SOL    HW224207   3.495   3.297   5.534
 7770SOL     OW24208   1.893   3.127   4.648
 7770SOL    HW124209   1.985   3.088   4.646
 7770SOL    HW224210   1.876   3.176   4.563
 7771SOL     OW24211   2.498   3.079   6.621
 7771SOL    HW124212   2.512   3.004   6.556
 7771SOL    HW224213   2.431   3.052   6.689
 7772SOL     OW24214   5.333   0.336   1.582
 7772SOL    HW124215   5.329   0.271   1.506
 7772SOL    HW224216   5.325   0.286   1.668
 7773SOL     OW24217   3.114   6.084   6.743
 7773SOL    HW124218   3.108   6.101   6.842
 7773SOL    HW224219   3.203   6.113   6.710
 7774SOL     OW24220   4.939   1.299   2.487
 7774SOL    HW124221   4.930   1.287   2.586
 7774SOL    HW224222   5.027   1.262   2.457
 7775SOL     OW24223   2.513   2.040   1.088
 7775SOL    HW124224   2.419   2.006   1.074
 7775SOL    HW224225   2.573   2.003   1.017
 7776SOL     OW24226   1.513   1.393   4.532
 7776SOL    HW124227   1.496   1.463   4.462
 7776SOL    HW224228   1.606   1.357   4.521
 7777SOL     OW24229   6.060   5.354   4.271
 7777SOL    HW124230   6.091   5.304   4.190
 7777SOL    HW224231   5.981   5.308   4.310
 7778SOL     OW24232   6.801   4.710   2.947
 7778SOL    HW124233   6.889   4.670   2.974
 7778SOL    HW224234   6.747   4.641   2.899
 7779SOL     OW24235   4.769   6.112   1.933
 7779SOL    HW124236   4.806   6.023   1.958
 7779SOL    HW224237   4.682   6.100   1.886
 7780SOL     OW24238   6.178   6.597   4.844
 7780SOL    HW124239   6.205   6.538   4.920
 7780SOL    HW224240   6.133   6.543   4.774
 7781SOL     OW24241   1.438   2.913   0.957
 7781SOL    HW124242   1.506   2.978   0.989
 7781SOL    HW224243   1.453   2.895   0.859
 7782SOL     OW24244   5.534   2.456   4.313
 7782SOL    HW124245   5.581   2.525   4.259
 7782SOL    HW224246   5.504   2.496   4.399
 7783SOL     OW24247   1.712   6.767   4.891
 7783SOL    HW124248   1.631   6.713   4.914
 7783SOL    HW224249   1.766   6.719   4.822
 7784SOL     OW24250   1.570   1.615   1.559
 7784SOL    HW124251   1.613   1.601   1.470
 7784SOL    HW224252   1.634   1.661   1.621
 7785SOL     OW24253   0.117   6.786   3.212
 7785SOL    HW124254   0.129   6.781   3.311
 7785SOL    HW224255   0.053   6.714   3.183
 7786SOL     OW24256   3.982   1.227   5.194
 7786SOL    HW124257   3.899   1.184   5.159
 7786SOL    HW224258   4.059   1.163   5.186
 7787SOL     OW24259   2.645   2.575   1.778
 7787SOL    HW124260   2.581   2.512   1.823
 7787SOL    HW224261   2.723   2.523   1.744
 7788SOL     OW24262   6.932   4.658   1.782
 7788SOL    HW124263   6.838   4.680   1.811
 7788SOL    HW224264   6.935   4.649   1.683
 7789SOL     OW24265   2.901   1.694   5.825
 7789SOL    HW124266   2.849   1.611   5.845
 7789SOL    HW224267   2.922   1.742   5.911
 7790SOL     OW24268   4.273   4.366   1.681
 7790SOL    HW124269   4.186   4.321   1.665
 7790SOL    HW224270   4.332   4.304   1.734
 7791SOL     OW24271   3.016   5.416   2.808
 7791SOL    HW124272   3.001   5.322   2.776
 7791SOL    HW224273   3.023   5.477   2.729
 7792SOL     OW24274   0.736   1.433   2.878
 7792SOL    HW124275   0.746   1.530   2.899
 7792SOL    HW224276   0.660   1.421   2.814
 7793SOL     OW24277   5.097   0.577   0.218
 7793SOL    HW124278   5.016   0.568   0.161
 7793SOL    HW224279   5.092   0.662   0.271
 7794SOL     OW24280   1.042   6.728   3.294
 7794SOL    HW124281   1.113   6.786   3.254
 7794SOL    HW224282   0.997   6.776   3.369
 7795SOL     OW24283   2.552   5.417   0.369
 7795SOL    HW124284   2.638   5.452   0.332
 7795SOL    HW224285   2.502   5.366   0.299
 7796SOL     OW24286   3.179   3.242   0.251
 7796SOL    HW124287   3.080   3.231   0.259
 7796SOL    HW224288   3.201   3.285   0.163
 7797SOL     OW24289   0.676   6.223   3.602
 7797SOL    HW124290   0.689   6.322   3.597
 7797SOL    HW224291   0.735   6.178   3.535
 7798SOL     OW24292   1.403   3.004   0.462
 7798SOL    HW124293   1.366   2.996   0.369
 7798SOL    HW224294   1.444   3.094   0.474
 7799SOL     OW24295   2.432   6.249   3.538
 7799SOL    HW124296   2.528   6.223   3.547
 7799SOL    HW224297   2.381   6.174   3.495
 7800SOL     OW24298   0.307   6.605   2.243
 7800SOL    HW124299   0.339   6.510   2.238
 7800SOL    HW224300   0.208   6.607   2.251
 7801SOL     OW24301   1.406   1.472   1.981
 7801SOL    HW124302   1.440   1.383   1.951
 7801SOL    HW224303   1.483   1.529   2.010
 7802SOL     OW24304   6.857   3.903   4.591
 7802SOL    HW124305   6.839   3.933   4.497
 7802SOL    HW224306   6.950   3.928   4.616
 7803SOL     OW24307   2.935   2.638   5.606
 7803SOL    HW124308   2.951   2.679   5.516
 7803SOL    HW224309   2.983   2.550   5.611
 7804SOL     OW24310   3.536   1.865   5.181
 7804SOL    HW124311   3.525   1.962   5.163
 7804SOL    HW224312   3.525   1.813   5.096
 7805SOL     OW24313   5.020   3.307   0.427
 7805SOL    HW124314   5.106   3.273   0.464
 7805SOL    HW224315   5.032   3.399   0.392
 7806SOL     OW24316   6.848   1.293   5.720
 7806SOL    HW124317   6.861   1.278   5.622
 7806SOL    HW224318   6.867   1.389   5.742
 7807SOL     OW24319   1.542   4.829   6.188
 7807SOL    HW124320   1.477   4.904   6.174
 7807SOL    HW224321   1.536   4.797   6.282
 7808SOL     OW24322   6.588   3.759   3.121
 7808SOL    HW124323   6.607   3.664   3.146
 7808SOL    HW224324   6.623   3.820   3.192
 7809SOL     OW24325   5.142   5.268   2.517
 7809SOL    HW124326   5.054   5.314   2.523
 7809SOL    HW224327   5.129   5.176   2.479
 7810SOL     OW24328   3.097   6.676   6.002
 7810SOL    HW124329   3.022   6.741   5.988
 7810SOL    HW224330   3.110   6.662   6.100
 7811SOL     OW24331   1.675   6.080   3.133
 7811SOL    HW124332   1.604   6.066   3.064
 7811SOL    HW224333   1.760   6.036   3.103
 7812SOL     OW24334   3.074   1.857   6.266
 7812SOL    HW124335   3.033   1.844   6.356
 7812SOL    HW224336   3.106   1.951   6.258
 7813SOL     OW24337   5.151   0.377   0.386
 7813SOL    HW124338   5.111   0.455   0.339
 7813SOL    HW224339   5.202   0.408   0.465
 7814SOL     OW24340   6.552   3.352   2.214
 7814SOL    HW124341   6.528   3.295   2.292
 7814SOL    HW224342   6.531   3.447   2.234
 7815SOL     OW24343   6.084   4.303   5.554
 7815SOL    HW124344   6.109   4.217   5.509
 7815SOL    HW224345   6.143   4.376   5.519
 7816SOL     OW24346   0.748   1.378   5.759
 7816SOL    HW124347   0.761   1.415   5.851
 7816SOL    HW224348   0.657   1.338   5.751
 7817SOL     OW24349   3.713   2.575   6.879
 7817SOL    HW124350   3.646   2.543   6.946
 7817SOL    HW224351   3.756   2.496   6.835
 7818SOL     OW24352   5.496   0.212   4.281
 7818SOL    HW124353   5.539   0.131   4.320
 7818SOL    HW224354   5.513   0.214   4.182
 7819SOL     OW24355   1.050   3.472   4.643
 7819SOL    HW124356   0.994   3.483   4.562
 7819SOL    HW224357   1.102   3.387   4.637
 7820SOL     OW24358   1.104   6.804   5.675
 7820SOL    HW124359   1.055   6.888   5.653
 7820SOL    HW224360   1.049   6.725   5.647
 7821SOL     OW24361   4.209   6.713   0.436
 7821SOL    HW124362   4.152   6.784   0.479
 7821SOL    HW224363   4.293   6.754   0.401
 7822SOL     OW24364   0.437   1.254   5.016
 7822SOL    HW124365   0.420   1.165   5.059
 7822SOL    HW224366   0.349   1.297   4.995
 7823SOL     OW24367   2.481   3.505   5.385
 7823SOL    HW124368   2.400   3.522   5.329
 7823SOL    HW224369   2.509   3.410   5.374
 7824SOL     OW24370   5.802   3.109   3.309
 7824SOL    HW124371   5.846   3.021   3.290
 7824SOL    HW224372   5.789   3.159   3.223
 7825SOL     OW24373   3.843   3.590   2.344
 7825SOL    HW124374   3.912   3.624   2.408
 7825SOL    HW224375   3.865   3.496   2.318
 7826SOL     OW24376   6.385   0.277   1.561
 7826SOL    HW124377   6.462   0.324   1.605
 7826SOL    HW224378   6.419   0.222   1.484
 7827SOL     OW24379   4.716   3.534   0.642
 7827SOL    HW124380   4.639   3.558   0.582
 7827SOL    HW224381   4.771   3.463   0.599
 7828SOL     OW24382   0.600   5.736   0.453
 7828SOL    HW124383   0.671   5.731   0.383
 7828SOL    HW224384   0.520   5.785   0.416
 7829SOL     OW24385   3.977   3.114   2.854
 7829SOL    HW124386   3.918   3.044   2.814
 7829SOL    HW224387   4.046   3.143   2.787
 7830SOL     OW24388   5.930   2.901   0.106
 7830SOL    HW124389   5.851   2.840   0.093
 7830SOL    HW224390   6.010   2.861   0.062
 7831SOL     OW24391   1.862   2.578   6.892
 7831SOL    HW124392   1.930   2.610   6.958
 7831SOL    HW224393   1.900   2.582   6.800
 7832SOL     OW24394   2.596   2.620   5.464
 7832SOL    HW124395   2.695   2.614   5.470
 7832SOL    HW224396   2.554   2.560   5.533
 7833SOL     OW24397   1.665   0.080   0.850
 7833SOL    HW124398   1.617   0.082   0.762
 7833SOL    HW224399   1.618   0.016   0.912
 7834SOL     OW24400   0.339   0.454   1.793
 7834SOL    HW124401   0.253   0.501   1.810
 7834SOL    HW224402   0.322   0.355   1.784
 7835SOL     OW24403   2.463   2.136   4.337
 7835SOL    HW124404   2.436   2.067   4.270
 7835SOL    HW224405   2.484   2.222   4.290
 7836SOL     OW24406   1.650   0.641   6.317
 7836SOL    HW124407   1.585   0.717   6.321
 7836SOL    HW224408   1.743   0.678   6.309
 7837SOL     OW24409   5.401   6.528   3.370
 7837SOL    HW124410   5.313   6.528   3.322
 7837SOL    HW224411   5.458   6.602   3.333
 7838SOL     OW24412   3.450   6.820   4.066
 7838SOL    HW124413   3.489   6.786   4.151
 7838SOL    HW224414   3.358   6.783   4.054
 7839SOL     OW24415   0.336   5.143   4.416
 7839SOL    HW124416   0.363   5.054   4.380
 7839SOL    HW224417   0.237   5.144   4.432
 7840SOL     OW24418   5.390   3.151   6.137
 7840SOL    HW124419   5.411   3.098   6.055
 7840SOL    HW224420   5.459   3.134   6.206
 7841SOL     OW24421   1.160   1.850   6.252
 7841SOL    HW124422   1.174   1.867   6.154
 7841SOL    HW224423   1.131   1.936   6.296
 7842SOL     OW24424   2.759   1.414   2.625
 7842SOL    HW124425   2.778   1.317   2.613
 7842SOL    HW224426   2.775   1.439   2.720
 7843SOL     OW24427   6.514   3.737   1.001
 7843SOL    HW124428   6.485   3.647   1.033
 7843SOL    HW224429   6.595   3.767   1.053
 7844SOL     OW24430   3.892   1.376   4.239
 7844SOL    HW124431   3.914   1.294   4.186
 7844SOL    HW224432   3.897   1.355   4.337
 7845SOL     OW24433   0.645   0.947   3.913
 7845SOL    HW124434   0.604   1.038   3.915
 7845SOL    HW224435   0.573   0.878   3.903
 7846SOL     OW24436   3.605   6.769   2.031
 7846SOL    HW124437   3.667   6.788   2.107
 7846SOL    HW224438   3.654   6.783   1.944
 7847SOL     OW24439   6.766   0.539   0.523
 7847SOL    HW124440   6.731   0.608   0.587
 7847SOL    HW224441   6.851   0.501   0.559
 7848SOL     OW24442   4.591   4.325   0.672
 7848SOL    HW124443   4.684   4.328   0.636
 7848SOL    HW224444   4.581   4.247   0.734
 7849SOL     OW24445   5.704   3.991   5.100
 7849SOL    HW124446   5.738   3.957   5.013
 7849SOL    HW224447   5.714   3.921   5.170
 7850SOL     OW24448   0.766   0.824   4.137
 7850SOL    HW124449   0.727   0.872   4.058
 7850SOL    HW224450   0.801   0.890   4.203
 7851SOL     OW24451   4.699   6.422   6.842
 7851SOL    HW124452   4.665   6.516   6.845
 7851SOL    HW224453   4.690   6.381   6.933
 7852SOL     OW24454   2.247   6.529   6.673
 7852SOL    HW124455   2.344   6.528   6.697
 7852SOL    HW224456   2.211   6.622   6.681
 7853SOL     OW24457   2.258   2.777   0.766
 7853SOL    HW124458   2.333   2.770   0.832
 7853SOL    HW224459   2.266   2.704   0.698
 7854SOL     OW24460   3.549   4.053   2.795
 7854SOL    HW124461   3.462   4.084   2.759
 7854SOL    HW224462   3.567   4.097   2.883
 7855SOL     OW24463   3.532   0.294   5.739
 7855SOL    HW124464   3.580   0.373   5.778
 7855SOL    HW224465   3.474   0.323   5.663
 7856SOL     OW24466   4.561   3.276   5.945
 7856SOL    HW124467   4.614   3.361   5.952
 7856SOL    HW224468   4.615   3.208   5.895
 7857SOL     OW24469   0.602   2.062   4.780
 7857SOL    HW124470   0.556   1.990   4.727
 7857SOL    HW224471   0.675   2.022   4.834
 7858SOL     OW24472   6.088   4.772   3.387
 7858SOL    HW124473   6.032   4.854   3.387
 7858SOL    HW224474   6.159   4.780   3.457
 7859SOL     OW24475   0.835   5.999   6.686
 7859SOL    HW124476   0.829   5.901   6.670
 7859SOL    HW224477   0.930   6.028   6.674
 7860SOL     OW24478   3.296   0.163   1.795
 7860SOL    HW124479   3.267   0.162   1.699
 7860SOL    HW224480   3.393   0.139   1.800
 7861SOL     OW24481   5.590   3.943   0.355
 7861SOL    HW124482   5.578   3.976   0.261
 7861SOL    HW224483   5.518   3.980   0.413
 7862SOL     OW24484   3.297   4.315   1.438
 7862SOL    HW124485   3.359   4.393   1.432
 7862SOL    HW224486   3.217   4.341   1.492
 7863SOL     OW24487   6.371   5.830   2.406
 7863SOL    HW124488   6.325   5.829   2.495
 7863SOL    HW224489   6.443   5.899   2.407
 7864SOL     OW24490   0.969   5.299   4.091
 7864SOL    HW124491   0.929   5.255   4.010
 7864SOL    HW224492   0.971   5.398   4.077
 7865SOL     OW24493   3.115   0.540   1.985
 7865SOL    HW124494   3.022   0.503   1.984
 7865SOL    HW224495   3.111   0.639   1.994
 7866SOL     OW24496   2.434   2.676   4.136
 7866SOL    HW124497   2.382   2.761   4.143
 7866SOL    HW224498   2.370   2.598   4.133
 7867SOL     OW24499   5.687   4.436   2.835
 7867SOL    HW124500   5.641   4.415   2.921
 7867SOL    HW224501   5.647   4.519   2.795
 7868SOL     OW24502   5.358   0.212   0.672
 7868SOL    HW124503   5.343   0.186   0.767
 7868SOL    HW224504   5.307   0.151   0.612
 7869SOL     OW24505   0.238   2.806   3.099
 7869SOL    HW124506   0.330   2.793   3.136
 7869SOL    HW224507   0.191   2.876   3.152
 7870SOL     OW24508   0.123   6.612   3.441
 7870SOL    HW124509   0.218   6.594   3.466
 7870SOL    HW224510   0.077   6.525   3.422
 7871SOL     OW24511   5.552   3.384   3.770
 7871SOL    HW124512   5.579   3.288   3.757
 7871SOL    HW224513   5.453   3.391   3.775
 7872SOL     OW24514   6.581   3.293   3.764
 7872SOL    HW124515   6.655   3.342   3.811
 7872SOL    HW224516   6.556   3.211   3.816
 7873SOL     OW24517   6.892   5.226   5.115
 7873SOL    HW124518   6.835   5.295   5.160
 7873SOL    HW224519   6.835   5.149   5.086
 7874SOL     OW24520   6.186   0.516   0.634
 7874SOL    HW124521   6.269   0.530   0.688
 7874SOL    HW224522   6.210   0.489   0.541
 7875SOL     OW24523   4.676   3.536   6.650
 7875SOL    HW124524   4.602   3.470   6.664
 7875SOL    HW224525   4.639   3.620   6.610
 7876SOL     OW24526   6.793   0.357   4.295
 7876SOL    HW124527   6.799   0.421   4.218
 7876SOL    HW224528   6.859   0.384   4.365
 7877SOL     OW24529   6.545   2.528   2.094
 7877SOL    HW124530   6.466   2.520   2.155
 7877SOL    HW224531   6.530   2.473   2.012
 7878SOL     OW24532   4.631   4.237   1.487
 7878SOL    HW124533   4.621   4.176   1.408
 7878SOL    HW224534   4.636   4.183   1.571
 7879SOL     OW24535   5.032   0.923   5.175
 7879SOL    HW124536   5.029   0.838   5.228
 7879SOL    HW224537   4.941   0.942   5.140
 7880SOL     OW24538   0.945   6.576   5.609
 7880SOL    HW124539   0.987   6.541   5.525
 7880SOL    HW224540   0.943   6.503   5.678
 7881SOL     OW24541   0.781   5.221   3.891
 7881SOL    HW124542   0.685   5.246   3.881
 7881SOL    HW224543   0.826   5.226   3.802
 7882SOL     OW24544   0.340   4.136   2.059
 7882SOL    HW124545   0.261   4.194   2.081
 7882SOL    HW224546   0.414   4.193   2.022
 7883SOL     OW24547   3.524   1.781   4.028
 7883SOL    HW124548   3.550   1.872   4.060
 7883SOL    HW224549   3.584   1.713   4.069
 7884SOL     OW24550   0.568   3.800   4.279
 7884SOL    HW124551   0.511   3.823   4.200
 7884SOL    HW224552   0.654   3.850   4.274
 7885SOL     OW24553   5.874   5.405   3.838
 7885SOL    HW124554   5.897   5.473   3.907
 7885SOL    HW224555   5.900   5.438   3.748
 7886SOL     OW24556   4.998   3.806   3.618
 7886SOL    HW124557   5.085   3.835   3.657
 7886SOL    HW224558   4.966   3.874   3.553
 7887SOL     OW24559   1.879   3.086   0.958
 7887SOL    HW124560   1.958   3.027   0.942
 7887SOL    HW224561   1.903   3.181   0.935
 7888SOL     OW24562   5.955   2.252   4.807
 7888SOL    HW124563   5.970   2.189   4.730
 7888SOL    HW224564   6.042   2.293   4.834
 7889SOL     OW24565   5.846   4.707   0.242
 7889SOL    HW124566   5.906   4.721   0.162
 7889SOL    HW224567   5.751   4.715   0.214
 7890SOL     OW24568   1.915   3.540   4.193
 7890SOL    HW124569   1.898   3.590   4.108
 7890SOL    HW224570   1.834   3.546   4.252
 7891SOL     OW24571   6.874   1.890   4.142
 7891SOL    HW124572   6.779   1.876   4.169
 7891SOL    HW224573   6.904   1.813   4.085
 7892SOL     OW24574   0.415   1.978   5.519
 7892SOL    HW124575   0.456   1.991   5.429
 7892SOL    HW224576   0.484   1.943   5.583
 7893SOL     OW24577   5.664   6.753   0.496
 7893SOL    HW124578   5.705   6.740   0.406
 7893SOL    HW224579   5.710   6.693   0.562
 7894SOL     OW24580   3.616   1.879   6.302
 7894SOL    HW124581   3.615   1.952   6.370
 7894SOL    HW224582   3.565   1.801   6.336
 7895SOL     OW24583   5.185   6.607   3.174
 7895SOL    HW124584   5.123   6.530   3.161
 7895SOL    HW224585   5.132   6.690   3.188
 7896SOL     OW24586   2.653   2.967   1.244
 7896SOL    HW124587   2.563   3.009   1.229
 7896SOL    HW224588   2.643   2.887   1.303
 7897SOL     OW24589   3.415   3.096   0.627
 7897SOL    HW124590   3.379   3.032   0.559
 7897SOL    HW224591   3.514   3.083   0.634
 7898SOL     OW24592   5.583   6.275   3.361
 7898SOL    HW124593   5.544   6.213   3.429
 7898SOL    HW224594   5.550   6.368   3.378
 7899SOL     OW24595   6.409   4.928   3.252
 7899SOL    HW124596   6.348   4.914   3.174
 7899SOL    HW224597   6.386   5.014   3.297
 7900SOL     OW24598   0.970   3.911   1.389
 7900SOL    HW124599   0.967   3.832   1.329
 7900SOL    HW224600   1.056   3.960   1.375
 7901SOL     OW24601   6.981   0.711   6.627
 7901SOL    HW124602   6.901   0.739   6.679
 7901SOL    HW224603   0.020   0.662   6.686
 7902SOL     OW24604   1.038   7.002   2.363
 7902SOL    HW124605   0.996   0.015   2.445
 7902SOL    HW224606   1.066   6.908   2.380
 7903SOL     OW24607   3.065   2.169   4.774
 7903SOL    HW124608   3.101   2.198   4.863
 7903SOL    HW224609   3.106   2.082   4.748
 7904SOL     OW24610   5.199   1.092   2.344
 7904SOL    HW124611   5.111   1.055   2.314
 7904SOL    HW224612   5.225   1.168   2.285
 7905SOL     OW24613   5.474   1.221   1.333
 7905SOL    HW124614   5.453   1.244   1.428
 7905SOL    HW224615   5.393   1.183   1.289
 7906SOL     OW24616   1.514   5.465   0.824
 7906SOL    HW124617   1.421   5.494   0.801
 7906SOL    HW224618   1.510   5.397   0.898
 7907SOL     OW24619   6.121   7.004   3.111
 7907SOL    HW124620   6.065   0.039   3.169
 7907SOL    HW224621   6.198   0.032   3.075
 7908SOL     OW24622   0.767   0.481   6.193
 7908SOL    HW124623   0.706   0.515   6.122
 7908SOL    HW224624   0.820   0.403   6.158
 7909SOL     OW24625   5.862   4.429   1.986
 7909SOL    HW124626   5.766   4.414   1.961
 7909SOL    HW224627   5.903   4.342   2.012
 7910SOL     OW24628   0.967   3.916   6.814
 7910SOL    HW124629   0.988   3.820   6.794
 7910SOL    HW224630   0.975   3.970   6.731
 7911SOL     OW24631   0.344   4.014   6.941
 7911SOL    HW124632   0.366   3.949   6.869
 7911SOL    HW224633   0.394   4.099   6.927
 7912SOL     OW24634   6.066   4.925   0.868
 7912SOL    HW124635   6.047   4.994   0.798
 7912SOL    HW224636   6.162   4.929   0.894
 7913SOL     OW24637   1.243   4.705   1.848
 7913SOL    HW124638   1.284   4.796   1.846
 7913SOL    HW224639   1.209   4.682   1.757
 7914SOL     OW24640   6.501   6.407   4.830
 7914SOL    HW124641   6.461   6.332   4.883
 7914SOL    HW224642   6.473   6.494   4.871
 7915SOL     OW24643   4.072   5.887   2.550
 7915SOL    HW124644   4.071   5.795   2.589
 7915SOL    HW224645   3.987   5.934   2.572
 7916SOL     OW24646   1.347   0.356   4.440
 7916SOL    HW124647   1.369   0.435   4.382
 7916SOL    HW224648   1.290   0.386   4.516
 7917SOL     OW24649   4.159   3.451   0.879
 7917SOL    HW124650   4.238   3.499   0.840
 7917SOL    HW224651   4.175   3.434   0.976
 7918SOL     OW24652   2.048   2.093   3.770
 7918SOL    HW124653   2.108   2.172   3.784
 7918SOL    HW224654   2.082   2.016   3.824
 7919SOL     OW24655   2.244   6.381   4.355
 7919SOL    HW124656   2.192   6.421   4.279
 7919SOL    HW224657   2.240   6.443   4.433
 7920SOL     OW24658   5.019   0.240   1.034
 7920SOL    HW124659   5.042   0.168   0.969
 7920SOL    HW224660   4.945   0.297   0.997
 7921SOL     OW24661   5.665   1.955   0.937
 7921SOL    HW124662   5.604   1.880   0.909
 7921SOL    HW224663   5.756   1.940   0.899
 7922SOL     OW24664   1.362   5.743   1.148
 7922SOL    HW124665   1.280   5.690   1.169
 7922SOL    HW224666   1.406   5.772   1.232
 7923SOL     OW24667   5.439   0.840   0.083
 7923SOL    HW124668   5.474   0.910   0.146
 7923SOL    HW224669   5.379   0.883   0.015
 7924SOL     OW24670   6.407   6.077   0.713
 7924SOL    HW124671   6.505   6.061   0.720
 7924SOL    HW224672   6.358   5.998   0.747
 7925SOL     OW24673   1.542   6.094   6.395
 7925SOL    HW124674   1.574   6.055   6.481
 7925SOL    HW224675   1.458   6.047   6.367
 7926SOL     OW24676   4.854   5.357   0.475
 7926SOL    HW124677   4.825   5.307   0.394
 7926SOL    HW224678   4.951   5.341   0.492
 7927SOL     OW24679   4.341   6.775   2.795
 7927SOL    HW124680   4.267   6.841   2.808
 7927SOL    HW224681   4.339   6.707   2.868
 7928SOL     OW24682   6.142   2.424   3.479
 7928SOL    HW124683   6.239   2.425   3.455
 7928SOL    HW224684   6.092   2.487   3.420
 7929SOL     OW24685   4.166   4.475   6.157
 7929SOL    HW124686   4.254   4.514   6.130
 7929SOL    HW224687   4.178   4.379   6.180
 7930SOL     OW24688   4.522   6.397   5.845
 7930SOL    HW124689   4.494   6.302   5.854
 7930SOL    HW224690   4.611   6.402   5.801
 7931SOL     OW24691   3.972   2.036   1.054
 7931SOL    HW124692   3.965   1.936   1.047
 7931SOL    HW224693   4.024   2.059   1.137
 7932SOL     OW24694   1.701   3.914   2.272
 7932SOL    HW124695   1.637   3.991   2.270
 7932SOL    HW224696   1.740   3.906   2.364
 7933SOL     OW24697   0.768   0.870   0.012
 7933SOL    HW124698   0.786   0.776   7.007
 7933SOL    HW224699   0.717   0.870   0.097
 7934SOL     OW24700   0.847   5.116   1.063
 7934SOL    HW124701   0.903   5.195   1.087
 7934SOL    HW224702   0.906   5.043   1.028
 7935SOL     OW24703   4.910   3.211   3.457
 7935SOL    HW124704   4.899   3.297   3.506
 7935SOL    HW224705   4.925   3.137   3.522
 7936SOL     OW24706   3.468   5.976   3.993
 7936SOL    HW124707   3.485   6.062   3.944
 7936SOL    HW224708   3.384   5.985   4.046
 7937SOL     OW24709   3.450   1.287   0.125
 7937SOL    HW124710   3.477   1.365   0.069
 7937SOL    HW224711   3.490   1.203   0.087
 7938SOL     OW24712   3.146   6.779   4.388
 7938SOL    HW124713   3.115   6.858   4.440
 7938SOL    HW224714   3.104   6.696   4.424
 7939SOL     OW24715   0.558   1.660   4.256
 7939SOL    HW124716   0.621   1.707   4.194
 7939SOL    HW224717   0.467   1.701   4.249
 7940SOL     OW24718   5.628   1.168   3.384
 7940SOL    HW124719   5.558   1.228   3.424
 7940SOL    HW224720   5.620   1.171   3.284
 7941SOL     OW24721   3.521   6.693   1.210
 7941SOL    HW124722   3.498   6.603   1.247
 7941SOL    HW224723   3.476   6.764   1.264
 7942SOL     OW24724   1.259   4.899   0.714
 7942SOL    HW124725   1.226   4.805   0.705
 7942SOL    HW224726   1.274   4.921   0.810
 7943SOL     OW24727   1.695   6.079   5.725
 7943SOL    HW124728   1.627   6.006   5.724
 7943SOL    HW224729   1.652   6.164   5.695
 7944SOL     OW24730   1.316   2.455   1.373
 7944SOL    HW124731   1.222   2.441   1.404
 7944SOL    HW224732   1.319   2.451   1.274
 7945SOL     OW24733   6.188   4.430   3.524
 7945SOL    HW124734   6.146   4.477   3.602
 7945SOL    HW224735   6.157   4.335   3.523
 7946SOL     OW24736   3.429   1.685   6.338
 7946SOL    HW124737   3.450   1.592   6.369
 7946SOL    HW224738   3.375   1.682   6.254
 7947SOL     OW24739   0.789   3.629   6.425
 7947SOL    HW124740   0.871   3.574   6.410
 7947SOL    HW224741   0.816   3.725   6.439
 7948SOL     OW24742   1.608   4.819   2.552
 7948SOL    HW124743   1.664   4.759   2.495
 7948SOL    HW224744   1.634   4.914   2.537
 7949SOL     OW24745   3.815   6.210   6.444
 7949SOL    HW124746   3.849   6.304   6.451
 7949SOL    HW224747   3.859   6.164   6.367
 7950SOL     OW24748   5.840   4.328   5.429
 7950SOL    HW124749   5.880   4.361   5.344
 7950SOL    HW224750   5.906   4.271   5.478
 7951SOL     OW24751   4.039   5.638   2.704
 7951SOL    HW124752   4.025   5.540   2.685
 7951SOL    HW224753   3.964   5.672   2.761
 7952SOL     OW24754   6.070   3.773   6.589
 7952SOL    HW124755   6.065   3.841   6.516
 7952SOL    HW224756   5.978   3.755   6.625
 7953SOL     OW24757   2.957   0.544   0.484
 7953SOL    HW124758   2.934   0.491   0.565
 7953SOL    HW224759   2.875   0.584   0.445
 7954SOL     OW24760   4.036   3.728   6.530
 7954SOL    HW124761   4.130   3.740   6.560
 7954SOL    HW224762   3.994   3.818   6.515
 7955SOL     OW24763   1.510   1.675   6.510
 7955SOL    HW124764   1.571   1.641   6.582
 7955SOL    HW224765   1.432   1.721   6.552
 7956SOL     OW24766   6.442   6.025   0.331
 7956SOL    HW124767   6.508   5.994   0.400
 7956SOL    HW224768   6.373   6.082   0.375
 7957SOL     OW24769   4.540   0.861   5.977
 7957SOL    HW124770   4.503   0.947   5.942
 7957SOL    HW224771   4.479   0.786   5.953
 7958SOL     OW24772   6.148   2.519   0.402
 7958SOL    HW124773   6.120   2.525   0.306
 7958SOL    HW224774   6.088   2.577   0.458
 7959SOL     OW24775   6.046   1.251   6.561
 7959SOL    HW124776   6.067   1.339   6.518
 7959SOL    HW224777   6.014   1.267   6.655
 7960SOL     OW24778   0.196   0.949   5.347
 7960SOL    HW124779   0.255   0.983   5.420
 7960SOL    HW224780   0.184   1.020   5.278
 7961SOL     OW24781   6.241   6.374   0.267
 7961SOL    HW124782   6.246   6.306   0.341
 7961SOL    HW224783   6.286   6.459   0.298
 7962SOL     OW24784   5.633   6.985   5.766
 7962SOL    HW124785   5.574   0.010   5.830
 7962SOL    HW224786   5.722   0.006   5.762
 7963SOL     OW24787   6.854   6.886   4.336
 7963SOL    HW124788   6.951   6.893   4.313
 7963SOL    HW224789   6.798   6.913   4.257
 7964SOL     OW24790   6.669   4.507   1.819
 7964SOL    HW124791   6.635   4.507   1.725
 7964SOL    HW224792   6.604   4.554   1.879
 7965SOL     OW24793   3.738   3.021   6.377
 7965SOL    HW124794   3.733   3.010   6.278
 7965SOL    HW224795   3.826   2.987   6.411
 7966SOL     OW24796   4.942   3.543   4.848
 7966SOL    HW124797   5.021   3.494   4.883
 7966SOL    HW224798   4.874   3.555   4.921
 7967SOL     OW24799   1.462   4.686   1.636
 7967SOL    HW124800   1.524   4.682   1.715
 7967SOL    HW224801   1.465   4.598   1.588
 7968SOL     OW24802   0.029   2.862   5.060
 7968SOL    HW124803   6.998   2.936   5.098
 7968SOL    HW224804   0.080   2.896   4.981
 7969SOL     OW24805   4.868   5.057   0.042
 7969SOL    HW124806   4.828   4.988   0.102
 7969SOL    HW224807   4.884   5.019   6.976
 7970SOL     OW24808   5.965   2.813   2.953
 7970SOL    HW124809   6.057   2.844   2.978
 7970SOL    HW224810   5.973   2.742   2.883
 7971SOL     OW24811   2.873   1.186   0.274
 7971SOL    HW124812   2.970   1.205   0.288
 7971SOL    HW224813   2.830   1.264   0.229
 7972SOL     OW24814   3.944   3.955   3.372
 7972SOL    HW124815   3.990   3.967   3.460
 7972SOL    HW224816   3.972   3.867   3.332
 7973SOL     OW24817   6.455   4.345   2.385
 7973SOL    HW124818   6.520   4.397   2.439
 7973SOL    HW224819   6.492   4.254   2.365
 7974SOL     OW24820   6.452   2.610   6.623
 7974SOL    HW124821   6.547   2.634   6.605
 7974SOL    HW224822   6.446   2.567   6.713
 7975SOL     OW24823   5.877   0.698   1.255
 7975SOL    HW124824   5.899   0.687   1.159
 7975SOL    HW224825   5.811   0.773   1.266
 7976SOL     OW24826   0.765   6.926   0.874
 7976SOL    HW124827   0.839   6.980   0.913
 7976SOL    HW224828   0.717   6.877   0.946
 7977SOL     OW24829   5.475   5.451   3.906
 7977SOL    HW124830   5.554   5.472   3.964
 7977SOL    HW224831   5.393   5.443   3.962
 7978SOL     OW24832   0.115   4.566   1.923
 7978SOL    HW124833   0.041   4.587   1.860
 7978SOL    HW224834   0.100   4.477   1.965
 7979SOL     OW24835   1.637   2.288   4.015
 7979SOL    HW124836   1.732   2.314   3.994
 7979SOL    HW224837   1.617   2.311   4.110
 7980SOL     OW24838   3.980   5.328   0.128
 7980SOL    HW124839   3.954   5.423   0.147
 7980SOL    HW224840   3.963   5.272   0.209
 7981SOL     OW24841   1.829   4.348   3.209
 7981SOL    HW124842   1.873   4.416   3.151
 7981SOL    HW224843   1.842   4.257   3.169
 7982SOL     OW24844   6.305   1.728   5.461
 7982SOL    HW124845   6.374   1.798   5.443
 7982SOL    HW224846   6.347   1.637   5.458
 7983SOL     OW24847   4.892   0.993   1.857
 7983SOL    HW124848   4.857   0.959   1.944
 7983SOL    HW224849   4.992   1.000   1.862
 7984SOL     OW24850   0.866   2.234   3.041
 7984SOL    HW124851   0.781   2.190   3.067
 7984SOL    HW224852   0.847   2.323   2.999
 7985SOL     OW24853   2.685   2.865   5.376
 7985SOL    HW124854   2.630   2.782   5.383
 7985SOL    HW224855   2.649   2.923   5.304
 7986SOL     OW24856   3.426   1.089   3.951
 7986SOL    HW124857   3.440   1.172   4.004
 7986SOL    HW224858   3.454   1.105   3.856
 7987SOL     OW24859   1.124   3.972   0.002
 7987SOL    HW124860   1.082   3.943   6.940
 7987SOL    HW224861   1.095   4.065   0.023
 7988SOL     OW24862   6.716   1.695   1.801
 7988SOL    HW124863   6.702   1.791   1.776
 7988SOL    HW224864   6.776   1.690   1.881
 7989SOL     OW24865   0.295   4.590   0.426
 7989SOL    HW124866   0.238   4.534   0.366
 7989SOL    HW224867   0.391   4.580   0.399
 7990SOL     OW24868   3.905   5.563   5.122
 7990SOL    HW124869   3.888   5.565   5.024
 7990SOL    HW224870   3.867   5.644   5.165
 7991SOL     OW24871   5.747   1.368   5.345
 7991SOL    HW124872   5.776   1.393   5.437
 7991SOL    HW224873   5.664   1.312   5.350
 7992SOL     OW24874   2.895   6.712   6.736
 7992SOL    HW124875   2.828   6.754   6.797
 7992SOL    HW224876   2.862   6.716   6.642
 7993SOL     OW24877   6.386   6.025   1.417
 7993SOL    HW124878   6.404   6.104   1.476
 7993SOL    HW224879   6.390   5.941   1.471
 7994SOL     OW24880   5.557   0.196   4.006
 7994SOL    HW124881   5.643   0.145   4.005
 7994SOL    HW224882   5.516   0.192   3.915
 7995SOL     OW24883   0.568   4.806   1.420
 7995SOL    HW124884   0.588   4.812   1.323
 7995SOL    HW224885   0.622   4.874   1.470
 7996SOL     OW24886   3.137   0.751   2.770
 7996SOL    HW124887   3.163   0.672   2.714
 7996SOL    HW224888   3.136   0.833   2.713
 7997SOL     OW24889   1.658   1.874   6.392
 7997SOL    HW124890   1.612   1.802   6.443
 7997SOL    HW224891   1.597   1.953   6.382
 7998SOL     OW24892   2.094   0.654   0.808
 7998SOL    HW124893   2.033   0.614   0.739
 7998SOL    HW224894   2.188   0.624   0.790
 7999SOL     OW24895   0.719   0.651   4.489
 7999SOL    HW124896   0.740   0.589   4.414
 7999SOL    HW224897   0.652   0.607   4.550
 8000SOL     OW24898   4.434   5.122   0.068
 8000SOL    HW124899   4.472   5.186   0.135
 8000SOL    HW224900   4.345   5.154   0.037
 8001SOL     OW24901   4.499   5.981   1.584
 8001SOL    HW124902   4.472   5.885   1.574
 8001SOL    HW224903   4.599   5.988   1.587
 8002SOL     OW24904   0.778   0.280   5.277
 8002SOL    HW124905   0.853   0.333   5.317
 8002SOL    HW224906   0.798   0.259   5.182
 8003SOL     OW24907   2.209   5.324   2.186
 8003SOL    HW124908   2.298   5.301   2.225
 8003SOL    HW224909   2.218   5.337   2.087
 8004SOL     OW24910   1.493   2.832   3.947
 8004SOL    HW124911   1.414   2.779   3.917
 8004SOL    HW224912   1.563   2.770   3.982
 8005SOL     OW24913   2.169   0.078   3.455
 8005SOL    HW124914   2.262   0.049   3.433
 8005SOL    HW224915   2.104   0.011   3.419
 8006SOL     OW24916   3.851   4.793   5.286
 8006SOL    HW124917   3.841   4.719   5.354
 8006SOL    HW224918   3.763   4.810   5.242
 8007SOL     OW24919   5.923   0.014   6.591
 8007SOL    HW124920   5.990   0.006   6.665
 8007SOL    HW224921   5.832   7.021   6.628
 8008SOL     OW24922   5.366   6.302   7.002
 8008SOL    HW124923   5.434   6.365   0.015
 8008SOL    HW224924   5.342   6.330   6.909
 8009SOL     OW24925   5.060   1.776   6.699
 8009SOL    HW124926   4.988   1.756   6.765
 8009SOL    HW224927   5.096   1.868   6.716
 8010SOL     OW24928   3.065   1.736   5.588
 8010SOL    HW124929   2.996   1.731   5.661
 8010SOL    HW224930   3.122   1.817   5.602
 8011SOL     OW24931   3.996   1.729   2.674
 8011SOL    HW124932   3.995   1.697   2.579
 8011SOL    HW224933   4.019   1.653   2.734
 8012SOL     OW24934   6.915   1.347   4.880
 8012SOL    HW124935   6.941   1.438   4.851
 8012SOL    HW224936   6.868   1.352   4.969
 8013SOL     OW24937   3.580   2.077   2.457
 8013SOL    HW124938   3.634   2.029   2.389
 8013SOL    HW224939   3.483   2.059   2.442
 8014SOL     OW24940   1.979   1.775   2.464
 8014SOL    HW124941   2.076   1.782   2.444
 8014SOL    HW224942   1.927   1.832   2.400
 8015SOL     OW24943   3.248   0.224   5.568
 8015SOL    HW124944   3.193   0.182   5.641
 8015SOL    HW224945   3.280   0.153   5.505
 8016SOL     OW24946   3.314   1.635   4.740
 8016SOL    HW124947   3.327   1.658   4.643
 8016SOL    HW224948   3.225   1.591   4.751
 8017SOL     OW24949   6.621   6.195   1.263
 8017SOL    HW124950   6.602   6.273   1.203
 8017SOL    HW224951   6.587   6.111   1.221
 8018SOL     OW24952   4.366   2.025   0.110
 8018SOL    HW124953   4.310   2.041   0.028
 8018SOL    HW224954   4.325   1.953   0.165
 8019SOL     OW24955   2.612   3.709   0.993
 8019SOL    HW124956   2.651   3.711   0.901
 8019SOL    HW224957   2.566   3.621   1.008
 8020SOL     OW24958   6.547   0.856   5.396
 8020SOL    HW124959   6.632   0.805   5.390
 8020SOL    HW224960   6.532   0.905   5.309
 8021SOL     OW24961   1.569   2.111   1.331
 8021SOL    HW124962   1.504   2.095   1.257
 8021SOL    HW224963   1.662   2.094   1.299
 8022SOL     OW24964   5.185   1.468   2.520
 8022SOL    HW124965   5.113   1.535   2.504
 8022SOL    HW224966   5.274   1.510   2.503
 8023SOL     OW24967   5.503   6.042   2.159
 8023SOL    HW124968   5.556   6.065   2.240
 8023SOL    HW224969   5.529   6.103   2.084
 8024SOL     OW24970   2.522   0.755   6.495
 8024SOL    HW124971   2.560   0.692   6.428
 8024SOL    HW224972   2.422   0.759   6.485
 8025SOL     OW24973   1.430   5.773   2.051
 8025SOL    HW124974   1.398   5.768   1.957
 8025SOL    HW224975   1.351   5.779   2.113
 8026SOL     OW24976   0.477   5.697   6.817
 8026SOL    HW124977   0.476   5.796   6.808
 8026SOL    HW224978   0.537   5.658   6.747
 8027SOL     OW24979   3.272   0.802   6.715
 8027SOL    HW124980   3.307   0.886   6.674
 8027SOL    HW224981   3.329   0.725   6.686
 8028SOL     OW24982   3.184   5.434   5.021
 8028SOL    HW124983   3.160   5.429   5.118
 8028SOL    HW224984   3.192   5.342   4.984
 8029SOL     OW24985   0.243   6.803   7.020
 8029SOL    HW124986   0.206   6.895   7.002
 8029SOL    HW224987   0.304   6.776   6.945
 8030SOL     OW24988   0.742   3.898   0.717
 8030SOL    HW124989   0.838   3.908   0.688
 8030SOL    HW224990   0.690   3.978   0.689
 8031SOL     OW24991   0.240   0.670   3.264
 8031SOL    HW124992   0.313   0.632   3.321
 8031SOL    HW224993   0.228   0.767   3.286
 8032SOL     OW24994   6.439   2.977   1.114
 8032SOL    HW124995   6.452   2.944   1.021
 8032SOL    HW224996   6.394   3.066   1.112
 8033SOL     OW24997   4.766   3.826   1.141
 8033SOL    HW124998   4.699   3.753   1.151
 8033SOL    HW224999   4.858   3.786   1.132
 8034SOL     OW25000   5.906   0.735   6.017
 8034SOL    HW125001   5.977   0.795   6.054
 8034SOL    HW225002   5.886   0.662   6.082
 8035SOL     OW25003   5.981   1.763   3.037
 8035SOL    HW125004   6.070   1.806   3.056
 8035SOL    HW225005   5.953   1.710   3.117
 8036SOL     OW25006   5.711   2.337   3.660
 8036SOL    HW125007   5.790   2.301   3.708
 8036SOL    HW225008   5.713   2.308   3.564
 8037SOL     OW25009   1.405   1.758   5.553
 8037SOL    HW125010   1.472   1.730   5.483
 8037SOL    HW225011   1.443   1.741   5.644
 8038SOL     OW25012   0.201   4.844   2.285
 8038SOL    HW125013   0.231   4.793   2.204
 8038SOL    HW225014   0.113   4.807   2.317
 8039SOL     OW25015   1.315   2.562   5.628
 8039SOL    HW125016   1.316   2.555   5.728
 8039SOL    HW225017   1.238   2.619   5.599
 8040SOL     OW25018   1.805   5.402   6.517
 8040SOL    HW125019   1.802   5.329   6.450
 8040SOL    HW225020   1.898   5.410   6.553
 8041SOL     OW25021   3.399   1.653   3.078
 8041SOL    HW125022   3.425   1.588   3.150
 8041SOL    HW225023   3.437   1.743   3.099
 8042SOL     OW25024   4.158   4.089   5.579
 8042SOL    HW125025   4.161   4.188   5.595
 8042SOL    HW225026   4.115   4.071   5.491
 8043SOL     OW25027   4.882   5.516   6.835
 8043SOL    HW125028   4.913   5.447   6.770
 8043SOL    HW225029   4.878   5.605   6.789
 8044SOL     OW25030   2.578   3.445   1.676
 8044SOL    HW125031   2.499   3.437   1.737
 8044SOL    HW225032   2.588   3.540   1.648
 8045SOL     OW25033   6.640   2.224   3.321
 8045SOL    HW125034   6.733   2.190   3.332
 8045SOL    HW225035   6.631   2.268   3.232
 8046SOL     OW25036   6.963   4.670   2.362
 8046SOL    HW125037   6.909   4.726   2.298
 8046SOL    HW225038   6.987   4.584   2.318
 8047SOL     OW25039   3.629   6.431   6.685
 8047SOL    HW125040   3.619   6.376   6.768
 8047SOL    HW225041   3.552   6.412   6.623
 8048SOL     OW25042   3.800   2.542   6.018
 8048SOL    HW125043   3.712   2.581   5.991
 8048SOL    HW225044   3.852   2.518   5.937
 8049SOL     OW25045   1.317   1.692   0.326
 8049SOL    HW125046   1.406   1.735   0.342
 8049SOL    HW225047   1.328   1.593   0.320
 8050SOL     OW25048   0.505   4.790   5.555
 8050SOL    HW125049   0.472   4.883   5.570
 8050SOL    HW225050   0.530   4.779   5.459
 8051SOL     OW25051   4.230   5.971   3.242
 8051SOL    HW125052   4.269   5.915   3.169
 8051SOL    HW225053   4.132   5.985   3.225
 8052SOL     OW25054   2.592   2.170   2.288
 8052SOL    HW125055   2.636   2.082   2.307
 8052SOL    HW225056   2.493   2.156   2.277
 8053SOL     OW25057   2.209   2.815   6.585
 8053SOL    HW125058   2.129   2.778   6.538
 8053SOL    HW225059   2.275   2.849   6.518
 8054SOL     OW25060   4.642   3.382   5.408
 8054SOL    HW125061   4.609   3.444   5.336
 8054SOL    HW225062   4.740   3.397   5.422
 8055SOL     OW25063   5.891   0.353   6.740
 8055SOL    HW125064   5.900   0.270   6.795
 8055SOL    HW225065   5.794   0.371   6.722
 8056SOL     OW25066   2.154   1.171   4.732
 8056SOL    HW125067   2.204   1.086   4.714
 8056SOL    HW225068   2.103   1.162   4.818
 8057SOL     OW25069   2.878   2.048   2.014
 8057SOL    HW125070   2.946   2.010   1.951
 8057SOL    HW225071   2.889   2.147   2.020
 8058SOL     OW25072   3.473   6.747   2.372
 8058SOL    HW125073   3.462   6.692   2.289
 8058SOL    HW225074   3.556   6.802   2.364
 8059SOL     OW25075   2.641   2.722   6.121
 8059SOL    HW125076   2.722   2.712   6.063
 8059SOL    HW225077   2.573   2.654   6.094
 8060SOL     OW25078   6.009   0.891   6.237
 8060SOL    HW125079   5.984   0.986   6.218
 8060SOL    HW225080   6.055   0.886   6.325
 8061SOL     OW25081   0.184   0.663   2.750
 8061SOL    HW125082   0.175   0.666   2.651
 8061SOL    HW225083   0.271   0.705   2.777
 8062SOL     OW25084   3.991   5.465   5.357
 8062SOL    HW125085   3.970   5.541   5.419
 8062SOL    HW225086   3.998   5.500   5.264
 8063SOL     OW25087   3.589   5.378   3.538
 8063SOL    HW125088   3.521   5.334   3.480
 8063SOL    HW225089   3.611   5.469   3.502
 8064SOL     OW25090   6.514   1.788   0.722
 8064SOL    HW125091   6.576   1.739   0.660
 8064SOL    HW225092   6.451   1.724   0.765
 8065SOL     OW25093   4.040   5.591   6.655
 8065SOL    HW125094   4.070   5.650   6.730
 8065SOL    HW225095   3.964   5.635   6.606
 8066SOL     OW25096   0.004   0.025   5.563
 8066SOL    HW125097   7.021   6.969   5.623
 8066SOL    HW225098   6.961   0.016   5.489
 8067SOL     OW25099   5.227   2.550   3.909
 8067SOL    HW125100   5.289   2.628   3.912
 8067SOL    HW225101   5.259   2.480   3.974
 8068SOL     OW25102   5.869   4.131   1.050
 8068SOL    HW125103   5.961   4.095   1.066
 8068SOL    HW225104   5.835   4.173   1.134
 8069SOL     OW25105   2.658   5.275   3.266
 8069SOL    HW125106   2.755   5.282   3.292
 8069SOL    HW225107   2.601   5.292   3.346
 8070SOL     OW25108   4.173   4.677   0.477
 8070SOL    HW125109   4.074   4.686   0.477
 8070SOL    HW225110   4.198   4.582   0.498
 8071SOL     OW25111   2.528   0.031   6.252
 8071SOL    HW125112   2.496   7.004   6.172
 8071SOL    HW225113   2.456   0.033   6.321
 8072SOL     OW25114   1.162   1.834   5.733
 8072SOL    HW125115   1.255   1.829   5.697
 8072SOL    HW225116   1.134   1.744   5.766
 8073SOL     OW25117   3.687   0.832   6.779
 8073SOL    HW125118   3.696   0.790   6.869
 8073SOL    HW225119   3.751   0.788   6.716
 8074SOL     OW25120   1.180   0.672   5.995
 8074SOL    HW125121   1.141   0.585   5.965
 8074SOL    HW225122   1.249   0.701   5.930
 8075SOL     OW25123   0.050   0.149   0.515
 8075SOL    HW125124   0.148   0.142   0.532
 8075SOL    HW225125   7.024   0.125   0.598
 8076SOL     OW25126   6.932   6.207   0.979
 8076SOL    HW125127   6.876   6.230   0.900
 8076SOL    HW225128   6.896   6.253   1.060
 8077SOL     OW25129   4.817   4.774   0.563
 8077SOL    HW125130   4.823   4.859   0.510
 8077SOL    HW225131   4.732   4.727   0.541
 8078SOL     OW25132   0.898   0.633   2.332
 8078SOL    HW125133   0.863   0.542   2.352
 8078SOL    HW225134   0.884   0.692   2.411
 8079SOL     OW25135   1.012   1.629   6.147
 8079SOL    HW125136   1.092   1.646   6.205
 8079SOL    HW225137   0.953   1.710   6.148
 8080SOL     OW25138   1.455   3.294   3.197
 8080SOL    HW125139   1.472   3.389   3.171
 8080SOL    HW225140   1.402   3.249   3.125
 8081SOL     OW25141   6.128   6.052   4.839
 8081SOL    HW125142   6.177   6.096   4.764
 8081SOL    HW225143   6.034   6.086   4.841
 8082SOL     OW25144   3.953   1.702   2.388
 8082SOL    HW125145   4.052   1.687   2.390
 8082SOL    HW225146   3.935   1.797   2.363
 8083SOL     OW25147   5.899   2.372   4.533
 8083SOL    HW125148   5.849   2.359   4.618
 8083SOL    HW225149   5.867   2.305   4.465
 8084SOL     OW25150   3.870   2.071   5.781
 8084SOL    HW125151   3.777   2.078   5.746
 8084SOL    HW225152   3.925   2.012   5.721
 8085SOL     OW25153   1.612   6.390   4.350
 8085SOL    HW125154   1.536   6.341   4.306
 8085SOL    HW225155   1.644   6.463   4.290
 8086SOL     OW25156   6.737   0.531   2.453
 8086SOL    HW125157   6.750   0.527   2.552
 8086SOL    HW225158   6.739   0.439   2.415
 8087SOL     OW25159   0.471   0.795   0.202
 8087SOL    HW125160   0.436   0.876   0.249
 8087SOL    HW225161   0.522   0.738   0.267
 8088SOL     OW25162   6.236   0.150   4.654
 8088SOL    HW125163   6.293   0.184   4.579
 8088SOL    HW225164   6.198   0.227   4.704
 8089SOL     OW25165   6.162   2.084   6.082
 8089SOL    HW125166   6.091   2.059   6.148
 8089SOL    HW225167   6.178   2.008   6.020
 8090SOL     OW25168   4.311   1.937   5.358
 8090SOL    HW125169   4.370   1.857   5.347
 8090SOL    HW225170   4.217   1.912   5.339
 8091SOL     OW25171   1.660   4.978   4.221
 8091SOL    HW125172   1.691   5.066   4.257
 8091SOL    HW225173   1.710   4.904   4.268
 8092SOL     OW25174   4.777   1.888   5.657
 8092SOL    HW125175   4.840   1.814   5.634
 8092SOL    HW225176   4.683   1.861   5.636
 8093SOL     OW25177   3.639   6.245   2.227
 8093SOL    HW125178   3.611   6.334   2.193
 8093SOL    HW225179   3.739   6.236   2.220
 8094SOL     OW25180   1.893   4.305   3.878
 8094SOL    HW125181   1.900   4.233   3.947
 8094SOL    HW225182   1.863   4.390   3.922
 8095SOL     OW25183   1.105   4.820   5.853
 8095SOL    HW125184   1.167   4.784   5.784
 8095SOL    HW225185   1.039   4.749   5.880
 8096SOL     OW25186   1.075   6.043   1.822
 8096SOL    HW125187   1.110   5.971   1.762
 8096SOL    HW225188   1.056   6.004   1.913
 8097SOL     OW25189   3.805   5.816   5.247
 8097SOL    HW125190   3.902   5.835   5.260
 8097SOL    HW225191   3.757   5.831   5.334
 8098SOL     OW25192   1.753   5.836   4.997
 8098SOL    HW125193   1.736   5.738   5.009
 8098SOL    HW225194   1.807   5.870   5.075
 8099SOL     OW25195   2.318   5.168   3.015
 8099SOL    HW125196   2.283   5.118   2.935
 8099SOL    HW225197   2.324   5.105   3.093
 8100SOL     OW25198   0.141   0.607   6.817
 8100SOL    HW125199   0.076   0.561   6.878
 8100SOL    HW225200   0.210   0.654   6.871
 8101SOL     OW25201   2.242   6.373   1.644
 8101SOL    HW125202   2.292   6.447   1.689
 8101SOL    HW225203   2.270   6.367   1.548
 8102SOL     OW25204   2.093   3.421   5.029
 8102SOL    HW125205   2.031   3.368   4.971
 8102SOL    HW225206   2.063   3.414   5.125
 8103SOL     OW25207   3.403   1.205   1.522
 8103SOL    HW125208   3.350   1.124   1.496
 8103SOL    HW225209   3.445   1.245   1.441
 8104SOL     OW25210   1.995   6.175   0.210
 8104SOL    HW125211   2.044   6.088   0.202
 8104SOL    HW225212   2.036   6.230   0.282
 8105SOL     OW25213   0.048   0.304   3.298
 8105SOL    HW125214   0.003   0.383   3.339
 8105SOL    HW225215   0.145   0.305   3.322
 8106SOL     OW25216   2.190   6.732   5.707
 8106SOL    HW125217   2.189   6.647   5.654
 8106SOL    HW225218   2.097   6.755   5.735
 8107SOL     OW25219   2.019   6.186   5.998
 8107SOL    HW125220   1.950   6.117   5.973
 8107SOL    HW225221   1.972   6.271   6.023
 8108SOL     OW25222   0.613   1.112   6.988
 8108SOL    HW125223   0.672   1.031   6.995
 8108SOL    HW225224   0.645   1.169   6.912
 8109SOL     OW25225   6.252   2.920   0.805
 8109SOL    HW125226   6.232   2.919   0.707
 8109SOL    HW225227   6.168   2.938   0.856
 8110SOL     OW25228   4.181   5.011   1.257
 8110SOL    HW125229   4.128   4.969   1.184
 8110SOL    HW225230   4.198   4.943   1.329
 8111SOL     OW25231   6.446   1.285   2.785
 8111SOL    HW125232   6.488   1.368   2.748
 8111SOL    HW225233   6.375   1.253   2.722
 8112SOL     OW25234   1.375   3.473   5.578
 8112SOL    HW125235   1.414   3.557   5.615
 8112SOL    HW225236   1.372   3.478   5.479
 8113SOL     OW25237   5.630   2.918   6.562
 8113SOL    HW125238   5.581   2.865   6.631
 8113SOL    HW225239   5.637   3.013   6.593
 8114SOL     OW25240   2.096   4.101   1.087
 8114SOL    HW125241   2.182   4.124   1.040
 8114SOL    HW225242   2.055   4.184   1.123
 8115SOL     OW25243   2.118   1.476   6.324
 8115SOL    HW125244   2.032   1.434   6.296
 8115SOL    HW225245   2.182   1.477   6.248
 8116SOL     OW25246   3.830   3.803   0.982
 8116SOL    HW125247   3.840   3.722   0.924
 8116SOL    HW225248   3.735   3.834   0.979
 8117SOL     OW25249   2.889   6.613   2.983
 8117SOL    HW125250   2.841   6.590   2.898
 8117SOL    HW225251   2.934   6.702   2.973
 8118SOL     OW25252   6.679   2.785   0.547
 8118SOL    HW125253   6.775   2.814   0.550
 8118SOL    HW225254   6.644   2.777   0.640
 8119SOL     OW25255   6.463   5.877   6.985
 8119SOL    HW125256   6.533   5.818   0.002
 8119SOL    HW225257   6.403   5.912   0.033
 8120SOL     OW25258   2.647   6.247   1.255
 8120SOL    HW125259   2.572   6.182   1.268
 8120SOL    HW225260   2.621   6.336   1.293
 8121SOL     OW25261   1.122   3.192   3.108
 8121SOL    HW125262   1.102   3.119   3.173
 8121SOL    HW225263   1.121   3.280   3.155
 8122SOL     OW25264   0.982   4.679   2.261
 8122SOL    HW125265   0.907   4.717   2.207
 8122SOL    HW225266   1.069   4.714   2.226
 8123SOL     OW25267   0.574   1.921   6.305
 8123SOL    HW125268   0.560   1.955   6.212
 8123SOL    HW225269   0.532   1.831   6.315
 8124SOL     OW25270   5.316   4.789   4.779
 8124SOL    HW125271   5.354   4.698   4.797
 8124SOL    HW225272   5.350   4.822   4.691
 8125SOL     OW25273   1.446   6.493   3.306
 8125SOL    HW125274   1.530   6.449   3.338
 8125SOL    HW225275   1.368   6.432   3.322
 8126SOL     OW25276   4.060   5.066   4.248
 8126SOL    HW125277   4.124   4.998   4.213
 8126SOL    HW225278   3.979   5.019   4.284
 8127SOL     OW25279   3.399   2.793   6.822
 8127SOL    HW125280   3.336   2.716   6.815
 8127SOL    HW225281   3.435   2.799   6.915
 8128SOL     OW25282   3.713   2.973   1.543
 8128SOL    HW125283   3.724   2.874   1.540
 8128SOL    HW225284   3.621   2.996   1.575
 8129SOL     OW25285   1.100   2.746   1.648
 8129SOL    HW125286   1.165   2.725   1.575
 8129SOL    HW225287   1.126   2.833   1.690
 8130SOL     OW25288   1.410   5.527   6.825
 8130SOL    HW125289   1.377   5.487   6.910
 8130SOL    HW225290   1.378   5.622   6.818
 8131SOL     OW25291   1.688   3.411   0.029
 8131SOL    HW125292   1.739   3.474   0.088
 8131SOL    HW225293   1.741   3.328   0.015
 8132SOL     OW25294   6.713   6.763   4.990
 8132SOL    HW125295   6.811   6.765   5.008
 8132SOL    HW225296   6.668   6.837   5.040
 8133SOL     OW25297   3.401   4.775   0.889
 8133SOL    HW125298   3.409   4.676   0.879
 8133SOL    HW225299   3.343   4.812   0.816
 8134SOL     OW25300   5.261   1.073   5.465
 8134SOL    HW125301   5.166   1.063   5.497
 8134SOL    HW225302   5.308   0.986   5.473
 8135SOL     OW25303   1.892   6.818   1.843
 8135SOL    HW125304   1.895   6.754   1.919
 8135SOL    HW225305   1.813   6.878   1.853
 8136SOL     OW25306   4.619   4.700   2.111
 8136SOL    HW125307   4.543   4.634   2.116
 8136SOL    HW225308   4.666   4.690   2.023
 8137SOL     OW25309   4.048   1.351   4.638
 8137SOL    HW125310   4.079   1.336   4.731
 8137SOL    HW225311   4.125   1.383   4.582
 8138SOL     OW25312   4.715   1.089   1.417
 8138SOL    HW125313   4.659   1.171   1.409
 8138SOL    HW225314   4.664   1.009   1.384
 8139SOL     OW25315   1.091   2.362   3.781
 8139SOL    HW125316   1.169   2.348   3.719
 8139SOL    HW225317   1.013   2.397   3.729
 8140SOL     OW25318   3.868   1.004   3.334
 8140SOL    HW125319   3.937   0.939   3.367
 8140SOL    HW225320   3.903   1.097   3.341
 8141SOL     OW25321   4.568   4.832   4.519
 8141SOL    HW125322   4.645   4.772   4.497
 8141SOL    HW225323   4.566   4.850   4.617
 8142SOL     OW25324   6.257   5.630   0.393
 8142SOL    HW125325   6.203   5.580   0.325
 8142SOL    HW225326   6.297   5.565   0.458
 8143SOL     OW25327   6.058   4.083   4.740
 8143SOL    HW125328   5.982   4.102   4.677
 8143SOL    HW225329   6.144   4.108   4.697
 8144SOL     OW25330   5.952   6.135   6.546
 8144SOL    HW125331   5.903   6.139   6.459
 8144SOL    HW225332   5.891   6.162   6.621
 8145SOL     OW25333   6.263   5.812   2.670
 8145SOL    HW125334   6.171   5.852   2.667
 8145SOL    HW225335   6.293   5.807   2.765
 8146SOL     OW25336   3.041   1.290   4.357
 8146SOL    HW125337   3.000   1.377   4.329
 8146SOL    HW225338   2.969   1.226   4.384
 8147SOL     OW25339   4.895   1.179   3.895
 8147SOL    HW125340   4.942   1.112   3.838
 8147SOL    HW225341   4.941   1.268   3.887
 8148SOL     OW25342   5.637   3.938   3.545
 8148SOL    HW125343   5.712   3.959   3.608
 8148SOL    HW225344   5.669   3.873   3.476
 8149SOL     OW25345   4.421   4.568   3.506
 8149SOL    HW125346   4.487   4.529   3.442
 8149SOL    HW225347   4.434   4.526   3.597
 8150SOL     OW25348   0.504   5.498   0.233
 8150SOL    HW125349   0.573   5.542   0.290
 8150SOL    HW225350   0.419   5.489   0.285
 8151SOL     OW25351   1.081   1.868   5.239
 8151SOL    HW125352   1.094   1.959   5.276
 8151SOL    HW225353   1.121   1.862   5.147
 8152SOL     OW25354   1.313   1.044   3.198
 8152SOL    HW125355   1.361   1.007   3.278
 8152SOL    HW225356   1.331   0.985   3.119
 8153SOL     OW25357   1.999   6.794   0.415
 8153SOL    HW125358   2.004   6.723   0.345
 8153SOL    HW225359   1.943   6.762   0.491
 8154SOL     OW25360   1.986   6.422   3.728
 8154SOL    HW125361   2.024   6.397   3.639
 8154SOL    HW225362   2.035   6.372   3.800
 8155SOL     OW25363   2.928   3.355   3.598
 8155SOL    HW125364   2.875   3.421   3.544
 8155SOL    HW225365   3.006   3.402   3.640
 8156SOL     OW25366   6.276   0.792   6.204
 8156SOL    HW125367   6.226   0.879   6.207
 8156SOL    HW225368   6.253   0.738   6.285
 8157SOL     OW25369   6.539   3.458   6.568
 8157SOL    HW125370   6.545   3.462   6.468
 8157SOL    HW225371   6.625   3.491   6.607
 8158SOL     OW25372   1.783   5.084   2.274
 8158SOL    HW125373   1.824   4.993   2.280
 8158SOL    HW225374   1.712   5.094   2.344
 8159SOL     OW25375   1.849   6.077   2.042
 8159SOL    HW125376   1.766   6.132   2.026
 8159SOL    HW225377   1.930   6.132   2.022
 8160SOL     OW25378   4.432   2.162   1.855
 8160SOL    HW125379   4.478   2.110   1.927
 8160SOL    HW225380   4.397   2.099   1.786
 8161SOL     OW25381   5.254   1.363   0.941
 8161SOL    HW125382   5.320   1.401   1.006
 8161SOL    HW225383   5.178   1.321   0.992
 8162SOL     OW25384   5.892   0.508   2.022
 8162SOL    HW125385   5.946   0.592   2.013
 8162SOL    HW225386   5.947   0.430   1.990
 8163SOL     OW25387   2.089   3.859   5.021
 8163SOL    HW125388   2.157   3.931   5.010
 8163SOL    HW225389   2.123   3.789   5.084
 8164SOL     OW25390   4.137   2.217   1.955
 8164SOL    HW125391   4.197   2.173   2.023
 8164SOL    HW225392   4.180   2.301   1.922
 8165SOL     OW25393   2.396   5.207   1.618
 8165SOL    HW125394   2.482   5.251   1.643
 8165SOL    HW225395   2.383   5.212   1.519
 8166SOL     OW25396   2.827   6.939   2.292
 8166SOL    HW125397   2.840   6.991   2.208
 8166SOL    HW225398   2.757   6.982   2.348
 8167SOL     OW25399   5.567   2.565   3.712
 8167SOL    HW125400   5.536   2.605   3.626
 8167SOL    HW225401   5.634   2.493   3.694
 8168SOL     OW25402   3.363   1.145   3.256
 8168SOL    HW125403   3.344   1.167   3.160
 8168SOL    HW225404   3.376   1.047   3.266
 8169SOL     OW25405   4.863   3.780   6.033
 8169SOL    HW125406   4.769   3.777   6.000
 8169SOL    HW225407   4.865   3.816   6.126
 8170SOL     OW25408   0.871   5.709   3.852
 8170SOL    HW125409   0.876   5.802   3.890
 8170SOL    HW225410   0.941   5.652   3.896
 8171SOL     OW25411   0.803   1.698   5.776
 8171SOL    HW125412   0.832   1.634   5.704
 8171SOL    HW225413   0.848   1.786   5.763
 8172SOL     OW25414   6.726   6.646   1.035
 8172SOL    HW125415   6.709   6.676   0.941
 8172SOL    HW225416   6.821   6.665   1.059
 8173SOL     OW25417   4.628   2.518   6.710
 8173SOL    HW125418   4.685   2.567   6.645
 8173SOL    HW225419   4.533   2.550   6.701
 8174SOL     OW25420   6.050   0.367   2.244
 8174SOL    HW125421   6.056   0.285   2.187
 8174SOL    HW225422   6.020   0.444   2.188
 8175SOL     OW25423   1.116   3.395   6.348
 8175SOL    HW125424   1.160   3.311   6.380
 8175SOL    HW225425   1.186   3.465   6.333
 8176SOL     OW25426   2.562   6.023   2.220
 8176SOL    HW125427   2.625   5.973   2.280
 8176SOL    HW225428   2.612   6.092   2.169
 8177SOL     OW25429   0.502   6.736   5.723
 8177SOL    HW125430   0.497   6.636   5.727
 8177SOL    HW225431   0.410   6.774   5.735
 8178SOL     OW25432   2.285   6.559   6.361
 8178SOL    HW125433   2.323   6.478   6.405
 8178SOL    HW225434   2.255   6.536   6.268
 8179SOL     OW25435   3.092   1.335   0.357
 8179SOL    HW125436   3.054   1.407   0.415
 8179SOL    HW225437   3.188   1.322   0.379
 8180SOL     OW25438   5.705   5.726   5.366
 8180SOL    HW125439   5.743   5.639   5.335
 8180SOL    HW225440   5.624   5.710   5.422
 8181SOL     OW25441   2.369   2.440   2.522
 8181SOL    HW125442   2.276   2.444   2.556
 8181SOL    HW225443   2.434   2.455   2.597
 8182SOL     OW25444   3.654   3.018   5.415
 8182SOL    HW125445   3.611   2.929   5.396
 8182SOL    HW225446   3.583   3.083   5.442
 8183SOL     OW25447   1.455   3.788   4.745
 8183SOL    HW125448   1.393   3.729   4.796
 8183SOL    HW225449   1.538   3.804   4.798
 8184SOL     OW25450   5.660   6.184   5.591
 8184SOL    HW125451   5.695   6.100   5.632
 8184SOL    HW225452   5.716   6.209   5.512
 8185SOL     OW25453   2.120   1.430   3.080
 8185SOL    HW125454   2.033   1.396   3.115
 8185SOL    HW225455   2.194   1.400   3.139
 8186SOL     OW25456   3.645   4.992   6.122
 8186SOL    HW125457   3.616   5.087   6.109
 8186SOL    HW225458   3.564   4.936   6.139
 8187SOL     OW25459   0.883   2.105   5.619
 8187SOL    HW125460   0.872   2.015   5.576
 8187SOL    HW225461   0.803   2.124   5.676
 8188SOL     OW25462   5.827   3.997   2.694
 8188SOL    HW125463   5.846   4.034   2.785
 8188SOL    HW225464   5.858   4.062   2.625
 8189SOL     OW25465   6.093   4.454   2.507
 8189SOL    HW125466   6.119   4.374   2.452
 8189SOL    HW225467   6.041   4.518   2.450
 8190SOL     OW25468   5.157   3.394   3.025
 8190SOL    HW125469   5.185   3.329   2.955
 8190SOL    HW225470   5.181   3.486   2.997
 8191SOL     OW25471   0.800   5.317   2.711
 8191SOL    HW125472   0.869   5.349   2.776
 8191SOL    HW225473   0.812   5.219   2.695
 8192SOL     OW25474   1.377   4.074   1.575
 8192SOL    HW125475   1.420   3.994   1.617
 8192SOL    HW225476   1.447   4.134   1.539
 8193SOL     OW25477   3.335   1.039   5.983
 8193SOL    HW125478   3.400   1.115   5.973
 8193SOL    HW225479   3.285   1.049   6.069
 8194SOL     OW25480   1.320   0.193   0.744
 8194SOL    HW125481   1.296   0.176   0.648
 8194SOL    HW225482   1.357   0.286   0.753
 8195SOL     OW25483   6.119   6.974   0.788
 8195SOL    HW125484   6.068   7.017   0.714
 8195SOL    HW225485   6.187   0.014   0.823
 8196SOL     OW25486   2.400   0.293   6.161
 8196SOL    HW125487   2.312   0.245   6.165
 8196SOL    HW225488   2.458   0.262   6.237
 8197SOL     OW25489   0.879   6.677   6.918
 8197SOL    HW125490   0.831   6.612   6.859
 8197SOL    HW225491   0.912   6.754   6.864
 8198SOL     OW25492   4.089   6.651   2.644
 8198SOL    HW125493   4.172   6.664   2.590
 8198SOL    HW225494   4.111   6.604   2.730
 8199SOL     OW25495   5.829   3.791   0.326
 8199SOL    HW125496   5.741   3.814   0.368
 8199SOL    HW225497   5.815   3.722   0.255
 8200SOL     OW25498   5.045   3.629   1.334
 8200SOL    HW125499   5.113   3.702   1.331
 8200SOL    HW225500   4.962   3.662   1.379
 8201SOL     OW25501   6.447   1.138   4.460
 8201SOL    HW125502   6.401   1.213   4.413
 8201SOL    HW225503   6.420   1.051   4.420
 8202SOL     OW25504   1.691   4.193   3.695
 8202SOL    HW125505   1.673   4.268   3.631
 8202SOL    HW225506   1.759   4.223   3.762
 8203SOL     OW25507   6.223   3.562   1.111
 8203SOL    HW125508   6.228   3.661   1.120
 8203SOL    HW225509   6.299   3.520   1.162
 8204SOL     OW25510   3.563   6.901   0.768
 8204SOL    HW125511   3.520   6.868   0.852
 8204SOL    HW225512   3.622   6.830   0.730
 8205SOL     OW25513   5.967   5.285   2.951
 8205SOL    HW125514   5.889   5.236   2.989
 8205SOL    HW225515   5.939   5.378   2.925
 8206SOL     OW25516   4.361   2.057   3.947
 8206SOL    HW125517   4.455   2.081   3.974
 8206SOL    HW225518   4.297   2.117   3.994
 8207SOL     OW25519   2.757   6.349   0.008
 8207SOL    HW125520   2.780   6.262   6.988
 8207SOL    HW225521   2.759   6.422   6.964
 8208SOL     OW25522   1.357   5.017   6.104
 8208SOL    HW125523   1.267   5.044   6.140
 8208SOL    HW225524   1.373   5.063   6.017
 8209SOL     OW25525   0.498   6.394   5.407
 8209SOL    HW125526   0.587   6.392   5.453
 8209SOL    HW225527   0.510   6.373   5.310
 8210SOL     OW25528   3.011   2.182   0.187
 8210SOL    HW125529   2.958   2.262   0.213
 8210SOL    HW225530   2.964   2.099   0.218
 8211SOL     OW25531   2.969   3.463   4.978
 8211SOL    HW125532   3.057   3.456   4.930
 8211SOL    HW225533   2.933   3.372   4.995
 8212SOL     OW25534   3.765   6.604   1.074
 8212SOL    HW125535   3.847   6.552   1.099
 8212SOL    HW225536   3.701   6.605   1.151
 8213SOL     OW25537   4.230   4.000   1.716
 8213SOL    HW125538   4.186   3.950   1.790
 8213SOL    HW225539   4.293   4.067   1.754
 8214SOL     OW25540   3.588   5.493   4.206
 8214SOL    HW125541   3.672   5.523   4.160
 8214SOL    HW225542   3.544   5.421   4.152
 8215SOL     OW25543   3.365   5.989   6.078
 8215SOL    HW125544   3.290   5.931   6.044
 8215SOL    HW225545   3.356   6.081   6.040
 8216SOL     OW25546   6.130   4.724   1.858
 8216SOL    HW125547   6.085   4.770   1.782
 8216SOL    HW225548   6.228   4.745   1.856
 8217SOL     OW25549   2.725   6.303   3.873
 8217SOL    HW125550   2.657   6.375   3.856
 8217SOL    HW225551   2.679   6.215   3.884
 8218SOL     OW25552   2.679   6.806   5.252
 8218SOL    HW125553   2.656   6.821   5.156
 8218SOL    HW225554   2.617   6.738   5.292
 8219SOL     OW25555   4.101   2.975   1.758
 8219SOL    HW125556   4.197   2.970   1.784
 8219SOL    HW225557   4.077   2.895   1.702
 8220SOL     OW25558   3.270   4.031   4.330
 8220SOL    HW125559   3.265   4.085   4.247
 8220SOL    HW225560   3.357   4.049   4.377
 8221SOL     OW25561   5.767   4.134   3.212
 8221SOL    HW125562   5.791   4.045   3.251
 8221SOL    HW225563   5.672   4.133   3.181
 8222SOL     OW25564   6.424   2.961   0.554
 8222SOL    HW125565   6.449   2.889   0.488
 8222SOL    HW225566   6.498   2.970   0.621
 8223SOL     OW25567   2.004   6.277   5.706
 8223SOL    HW125568   2.012   6.294   5.804
 8223SOL    HW225569   1.985   6.180   5.690
 8224SOL     OW25570   4.919   1.312   0.387
 8224SOL    HW125571   4.945   1.379   0.457
 8224SOL    HW225572   4.879   1.232   0.431
 8225SOL     OW25573   5.733   2.073   0.302
 8225SOL    HW125574   5.768   2.010   0.372
 8225SOL    HW225575   5.801   2.143   0.283
 8226SOL     OW25576   4.164   1.059   0.680
 8226SOL    HW125577   4.244   0.998   0.681
 8226SOL    HW225578   4.149   1.093   0.588
 8227SOL     OW25579   4.045   2.087   2.784
 8227SOL    HW125580   4.096   2.163   2.743
 8227SOL    HW225581   3.958   2.075   2.735
 8228SOL     OW25582   2.176   0.382   4.462
 8228SOL    HW125583   2.203   0.478   4.459
 8228SOL    HW225584   2.248   0.325   4.423
 8229SOL     OW25585   4.535   4.289   0.319
 8229SOL    HW125586   4.440   4.303   0.346
 8229SOL    HW225587   4.557   4.191   0.328
 8230SOL     OW25588   5.573   0.506   5.910
 8230SOL    HW125589   5.571   0.545   6.003
 8230SOL    HW225590   5.574   0.407   5.916
 8231SOL     OW25591   2.932   1.770   2.487
 8231SOL    HW125592   2.985   1.827   2.424
 8231SOL    HW225593   2.966   1.784   2.580
 8232SOL     OW25594   3.657   5.751   3.138
 8232SOL    HW125595   3.668   5.704   3.226
 8232SOL    HW225596   3.562   5.780   3.127
 8233SOL     OW25597   1.203   1.180   5.946
 8233SOL    HW125598   1.266   1.102   5.950
 8233SOL    HW225599   1.215   1.235   6.029
 8234SOL     OW25600   0.759   2.136   0.708
 8234SOL    HW125601   0.733   2.041   0.724
 8234SOL    HW225602   0.830   2.163   0.774
 8235SOL     OW25603   0.845   0.078   1.340
 8235SOL    HW125604   0.787   0.146   1.295
 8235SOL    HW225605   0.817   0.068   1.436
 8236SOL     OW25606   1.180   6.726   1.585
 8236SOL    HW125607   1.082   6.746   1.590
 8236SOL    HW225608   1.206   6.667   1.661
 8237SOL     OW25609   4.058   4.913   6.066
 8237SOL    HW125610   4.141   4.893   6.013
 8237SOL    HW225611   4.083   4.935   6.160
 8238SOL     OW25612   0.748   4.628   0.763
 8238SOL    HW125613   0.748   4.556   0.832
 8238SOL    HW225614   0.739   4.717   0.807
 8239SOL     OW25615   1.908   1.697   5.424
 8239SOL    HW125616   1.856   1.780   5.446
 8239SOL    HW225617   1.859   1.645   5.354
 8240SOL     OW25618   3.778   3.699   4.701
 8240SOL    HW125619   3.808   3.605   4.709
 8240SOL    HW225620   3.854   3.756   4.668
 8241SOL     OW25621   1.861   3.957   5.114
 8241SOL    HW125622   1.953   3.931   5.085
 8241SOL    HW225623   1.854   3.947   5.213
 8242SOL     OW25624   0.613   3.645   2.777
 8242SOL    HW125625   0.517   3.657   2.753
 8242SOL    HW225626   0.666   3.625   2.694
 8243SOL     OW25627   1.784   5.303   4.114
 8243SOL    HW125628   1.789   5.253   4.200
 8243SOL    HW225629   1.751   5.396   4.131
 8244SOL     OW25630   6.587   1.411   3.837
 8244SOL    HW125631   6.506   1.353   3.844
 8244SOL    HW225632   6.589   1.454   3.747
 8245SOL     OW25633   5.756   1.926   2.444
 8245SOL    HW125634   5.746   1.854   2.375
 8245SOL    HW225635   5.667   1.947   2.483
 8246SOL     OW25636   1.513   5.194   6.281
 8246SOL    HW125637   1.489   5.109   6.234
 8246SOL    HW225638   1.470   5.272   6.235
 8247SOL     OW25639   2.986   5.505   3.071
 8247SOL    HW125640   2.965   5.443   2.995
 8247SOL    HW225641   3.083   5.496   3.096
 8248SOL     OW25642   6.653   5.328   3.854
 8248SOL    HW125643   6.554   5.319   3.863
 8248SOL    HW225644   6.698   5.266   3.919
 8249SOL     OW25645   3.247   1.501   6.615
 8249SOL    HW125646   3.243   1.508   6.715
 8249SOL    HW225647   3.242   1.593   6.576
 8250SOL     OW25648   0.983   2.058   6.853
 8250SOL    HW125649   0.966   2.044   6.755
 8250SOL    HW225650   0.897   2.080   6.899
 8251SOL     OW25651   0.712   2.470   5.000
 8251SOL    HW125652   0.655   2.482   5.081
 8251SOL    HW225653   0.703   2.551   4.941
 8252SOL     OW25654   0.897   1.965   6.588
 8252SOL    HW125655   0.810   2.009   6.568
 8252SOL    HW225656   0.882   1.867   6.604
 8253SOL     OW25657   4.140   6.009   0.187
 8253SOL    HW125658   4.111   5.974   0.098
 8253SOL    HW225659   4.189   5.938   0.237
 8254SOL     OW25660   5.911   5.433   0.052
 8254SOL    HW125661   5.885   5.528   0.071
 8254SOL    HW225662   5.829   5.375   0.053
 8255SOL     OW25663   2.477   0.510   5.761
 8255SOL    HW125664   2.384   0.538   5.782
 8255SOL    HW225665   2.486   0.494   5.662
 8256SOL     OW25666   1.513   4.859   5.120
 8256SOL    HW125667   1.495   4.924   5.046
 8256SOL    HW225668   1.455   4.779   5.108
 8257SOL     OW25669   4.984   3.895   3.232
 8257SOL    HW125670   5.036   3.817   3.266
 8257SOL    HW225671   5.005   3.909   3.135
 8258SOL     OW25672   0.696   3.069   2.434
 8258SOL    HW125673   0.672   3.166   2.431
 8258SOL    HW225674   0.616   3.015   2.460
 8259SOL     OW25675   5.388   1.962   4.067
 8259SOL    HW125676   5.312   1.902   4.040
 8259SOL    HW225677   5.422   2.010   3.987
 8260SOL     OW25678   4.474   2.392   1.264
 8260SOL    HW125679   4.564   2.428   1.239
 8260SOL    HW225680   4.482   2.340   1.350
 8261SOL     OW25681   5.551   1.255   2.551
 8261SOL    HW125682   5.471   1.204   2.583
 8261SOL    HW225683   5.624   1.191   2.528
 8262SOL     OW25684   5.628   3.604   1.763
 8262SOL    HW125685   5.531   3.613   1.739
 8262SOL    HW225686   5.665   3.695   1.786
 8263SOL     OW25687   6.201   1.690   5.198
 8263SOL    HW125688   6.200   1.778   5.150
 8263SOL    HW225689   6.268   1.693   5.272
 8264SOL     OW25690   3.495   0.444   2.570
 8264SOL    HW125691   3.551   0.415   2.493
 8264SOL    HW225692   3.553   0.484   2.640
 8265SOL     OW25693   5.007   6.279   0.729
 8265SOL    HW125694   5.009   6.349   0.658
 8265SOL    HW225695   4.948   6.309   0.804
 8266SOL     OW25696   3.172   1.176   3.815
 8266SOL    HW125697   3.239   1.111   3.850
 8266SOL    HW225698   3.159   1.250   3.881
 8267SOL     OW25699   2.101   3.622   2.432
 8267SOL    HW125700   2.115   3.667   2.344
 8267SOL    HW225701   2.094   3.523   2.417
 8268SOL     OW25702   3.328   4.262   6.365
 8268SOL    HW125703   3.350   4.357   6.341
 8268SOL    HW225704   3.412   4.207   6.362
 8269SOL     OW25705   6.320   3.102   4.574
 8269SOL    HW125706   6.331   3.108   4.475
 8269SOL    HW225707   6.406   3.125   4.619
 8270SOL     OW25708   4.132   5.951   6.415
 8270SOL    HW125709   4.174   5.863   6.392
 8270SOL    HW225710   4.203   6.022   6.415
 8271SOL     OW25711   3.634   6.562   6.344
 8271SOL    HW125712   3.710   6.543   6.282
 8271SOL    HW225713   3.584   6.478   6.362
 8272SOL     OW25714   1.343   0.620   2.088
 8272SOL    HW125715   1.270   0.626   2.157
 8272SOL    HW225716   1.324   0.544   2.026
 8273SOL     OW25717   3.973   0.641   0.277
 8273SOL    HW125718   3.959   0.709   0.205
 8273SOL    HW225719   3.885   0.609   0.311
 8274SOL     OW25720   5.211   6.318   5.570
 8274SOL    HW125721   5.195   6.300   5.473
 8274SOL    HW225722   5.283   6.258   5.603
 8275SOL     OW25723   5.598   0.503   4.109
 8275SOL    HW125724   5.543   0.420   4.105
 8275SOL    HW225725   5.548   0.575   4.157
 8276SOL     OW25726   6.688   2.280   6.668
 8276SOL    HW125727   6.590   2.280   6.652
 8276SOL    HW225728   6.706   2.300   6.765
 8277SOL     OW25729   1.309   0.077   0.078
 8277SOL    HW125730   1.264   7.014   0.056
 8277SOL    HW225731   1.374   0.062   0.152
 8278SOL     OW25732   2.965   1.243   0.945
 8278SOL    HW125733   2.967   1.153   0.902
 8278SOL    HW225734   2.871   1.267   0.967
 8279SOL     OW25735   3.684   5.877   5.483
 8279SOL    HW125736   3.601   5.835   5.520
 8279SOL    HW225737   3.717   5.946   5.547
 8280SOL     OW25738   5.221   4.249   6.890
 8280SOL    HW125739   5.229   4.191   6.809
 8280SOL    HW225740   5.277   4.211   6.964
 8281SOL     OW25741   2.711   5.578   6.858
 8281SOL    HW125742   2.743   5.649   6.921
 8281SOL    HW225743   2.706   5.490   6.906
 8282SOL     OW25744   2.954   3.106   1.666
 8282SOL    HW125745   2.895   3.028   1.687
 8282SOL    HW225746   2.920   3.187   1.713
 8283SOL     OW25747   0.559   6.908   4.036
 8283SOL    HW125748   0.565   6.961   3.952
 8283SOL    HW225749   0.528   6.967   4.111
 8284SOL     OW25750   3.870   1.445   2.361
 8284SOL    HW125751   3.785   1.450   2.414
 8284SOL    HW225752   3.908   1.537   2.350
 8285SOL     OW25753   1.998   4.654   0.067
 8285SOL    HW125754   1.989   4.657   6.991
 8285SOL    HW225755   1.934   4.587   0.105
 8286SOL     OW25756   5.701   2.555   5.613
 8286SOL    HW125757   5.670   2.603   5.695
 8286SOL    HW225758   5.668   2.604   5.532
 8287SOL     OW25759   1.808   0.391   3.571
 8287SOL    HW125760   1.750   0.314   3.600
 8287SOL    HW225761   1.801   0.403   3.472
 8288SOL     OW25762   2.176   0.162   3.001
 8288SOL    HW125763   2.158   0.089   3.068
 8288SOL    HW225764   2.221   0.123   2.921
 8289SOL     OW25765   6.409   0.871   6.649
 8289SOL    HW125766   6.327   0.901   6.601
 8289SOL    HW225767   6.486   0.868   6.585
 8290SOL     OW25768   4.497   2.664   1.681
 8290SOL    HW125769   4.577   2.721   1.698
 8290SOL    HW225770   4.461   2.682   1.589
 8291SOL     OW25771   4.622   5.750   6.859
 8291SOL    HW125772   4.618   5.773   6.956
 8291SOL    HW225773   4.544   5.693   6.834
 8292SOL     OW25774   0.513   2.706   5.054
 8292SOL    HW125775   0.426   2.689   5.100
 8292SOL    HW225776   0.496   2.733   4.959
 8293SOL     OW25777   2.842   5.620   3.811
 8293SOL    HW125778   2.884   5.534   3.782
 8293SOL    HW225779   2.906   5.670   3.870
 8294SOL     OW25780   5.343   3.960   5.448
 8294SOL    HW125781   5.335   3.927   5.542
 8294SOL    HW225782   5.385   3.890   5.391
 8295SOL     OW25783   5.123   4.783   2.424
 8295SOL    HW125784   5.098   4.870   2.466
 8295SOL    HW225785   5.090   4.781   2.329
 8296SOL     OW25786   3.819   6.844   1.891
 8296SOL    HW125787   3.892   6.894   1.939
 8296SOL    HW225788   3.858   6.795   1.813
 8297SOL     OW25789   5.350   4.386   3.458
 8297SOL    HW125790   5.381   4.293   3.477
 8297SOL    HW225791   5.319   4.392   3.363
 8298SOL     OW25792   6.995   6.695   6.917
 8298SOL    HW125793   6.943   6.715   7.000
 8298SOL    HW225794   0.067   6.681   6.940
 8299SOL     OW25795   0.847   3.348   0.614
 8299SOL    HW125796   0.807   3.353   0.523
 8299SOL    HW225797   0.847   3.440   0.655
 8300SOL     OW25798   6.340   5.253   3.813
 8300SOL    HW125799   6.318   5.322   3.745
 8300SOL    HW225800   6.330   5.162   3.772
 8301SOL     OW25801   5.720   6.573   0.694
 8301SOL    HW125802   5.656   6.507   0.653
 8301SOL    HW225803   5.807   6.528   0.711
 8302SOL     OW25804   3.625   0.275   5.455
 8302SOL    HW125805   3.614   0.269   5.356
 8302SOL    HW225806   3.668   0.361   5.479
 8303SOL     OW25807   0.390   5.266   2.451
 8303SOL    HW125808   0.416   5.327   2.376
 8303SOL    HW225809   0.305   5.299   2.493
 8304SOL     OW25810   5.998   4.520   3.329
 8304SOL    HW125811   6.069   4.467   3.375
 8304SOL    HW225812   6.024   4.616   3.326
 8305SOL     OW25813   5.371   6.760   5.447
 8305SOL    HW125814   5.351   6.784   5.352
 8305SOL    HW225815   5.447   6.816   5.480
 8306SOL     OW25816   6.894   1.629   3.131
 8306SOL    HW125817   6.863   1.657   3.222
 8306SOL    HW225818   6.817   1.592   3.079
 8307SOL     OW25819   1.602   2.938   2.773
 8307SOL    HW125820   1.599   2.969   2.678
 8307SOL    HW225821   1.601   3.018   2.834
 8308SOL     OW25822   0.953   5.619   0.984
 8308SOL    HW125823   0.923   5.540   0.931
 8308SOL    HW225824   0.993   5.687   0.922
 8309SOL     OW25825   6.083   4.959   4.675
 8309SOL    HW125826   6.077   4.979   4.773
 8309SOL    HW225827   6.112   4.864   4.662
 8310SOL     OW25828   2.089   0.451   1.003
 8310SOL    HW125829   2.064   0.460   1.100
 8310SOL    HW225830   2.091   0.542   0.961
 8311SOL     OW25831   5.180   5.750   3.494
 8311SOL    HW125832   5.276   5.776   3.484
 8311SOL    HW225833   5.175   5.656   3.528
 8312SOL     OW25834   6.012   1.321   0.357
 8312SOL    HW125835   6.017   1.222   0.363
 8312SOL    HW225836   6.045   1.351   0.268
 8313SOL     OW25837   5.830   2.326   5.863
 8313SOL    HW125838   5.786   2.236   5.864
 8313SOL    HW225839   5.767   2.395   5.899
 8314SOL     OW25840   4.730   6.063   4.154
 8314SOL    HW125841   4.742   6.004   4.074
 8314SOL    HW225842   4.777   6.150   4.138
 8315SOL     OW25843   3.517   3.235   4.817
 8315SOL    HW125844   3.579   3.249   4.740
 8315SOL    HW225845   3.454   3.160   4.797
 8316SOL     OW25846   2.419   2.197   5.371
 8316SOL    HW125847   2.363   2.211   5.289
 8316SOL    HW225848   2.516   2.198   5.346
 8317SOL     OW25849   1.460   1.867   4.277
 8317SOL    HW125850   1.546   1.821   4.254
 8317SOL    HW225851   1.477   1.965   4.290
 8318SOL     OW25852   4.250   6.622   6.315
 8318SOL    HW125853   4.260   6.715   6.352
 8318SOL    HW225854   4.267   6.623   6.217
 8319SOL     OW25855   2.346   5.739   6.054
 8319SOL    HW125856   2.309   5.720   5.963
 8319SOL    HW225857   2.427   5.796   6.046
 8320SOL     OW25858   3.564   3.317   5.212
 8320SOL    HW125859   3.547   3.352   5.304
 8320SOL    HW225860   3.484   3.336   5.154
 8321SOL     OW25861   6.922   0.100   0.283
 8321SOL    HW125862   6.923   0.178   0.220
 8321SOL    HW225863   6.990   0.115   0.355
 8322SOL     OW25864   0.694   6.542   0.120
 8322SOL    HW125865   0.726   6.608   0.052
 8322SOL    HW225866   0.602   6.567   0.150
 8323SOL     OW25867   5.575   4.460   0.211
 8323SOL    HW125868   5.506   4.407   0.260
 8323SOL    HW225869   5.574   4.555   0.243
 8324SOL     OW25870   5.269   6.148   0.331
 8324SOL    HW125871   5.217   6.214   0.277
 8324SOL    HW225872   5.329   6.094   0.271
 8325SOL     OW25873   1.464   6.521   5.341
 8325SOL    HW125874   1.563   6.526   5.349
 8325SOL    HW225875   1.437   6.427   5.320
 8326SOL     OW25876   1.417   3.286   6.935
 8326SOL    HW125877   1.497   3.300   6.993
 8326SOL    HW225878   1.441   3.303   6.839
 8327SOL     OW25879   1.105   5.825   4.668
 8327SOL    HW125880   1.190   5.772   4.669
 8327SOL    HW225881   1.093   5.867   4.578
 8328SOL     OW25882   0.504   6.451   6.839
 8328SOL    HW125883   0.503   6.548   6.818
 8328SOL    HW225884   0.594   6.424   6.873
 8329SOL     OW25885   1.032   2.775   4.588
 8329SOL    HW125886   1.053   2.862   4.543
 8329SOL    HW225887   1.007   2.707   4.519
 8330SOL     OW25888   3.070   1.190   6.898
 8330SOL    HW125889   3.079   1.234   6.987
 8330SOL    HW225890   3.149   1.212   6.841
 8331SOL     OW25891   1.758   2.280   6.284
 8331SOL    HW125892   1.697   2.220   6.335
 8331SOL    HW225893   1.756   2.256   6.187
 8332SOL     OW25894   6.286   4.188   1.635
 8332SOL    HW125895   6.300   4.093   1.607
 8332SOL    HW225896   6.205   4.193   1.694
 8333SOL     OW25897   1.882   3.887   0.127
 8333SOL    HW125898   1.958   3.885   0.061
 8333SOL    HW225899   1.916   3.918   0.215
 8334SOL     OW25900   2.678   1.862   5.343
 8334SOL    HW125901   2.655   1.960   5.341
 8334SOL    HW225902   2.776   1.851   5.326
 8335SOL     OW25903   5.466   4.508   6.013
 8335SOL    HW125904   5.552   4.538   5.972
 8335SOL    HW225905   5.392   4.566   5.980
 8336SOL     OW25906   0.991   4.401   3.762
 8336SOL    HW125907   1.020   4.329   3.825
 8336SOL    HW225908   1.063   4.471   3.755
 8337SOL     OW25909   0.133   1.444   4.161
 8337SOL    HW125910   0.209   1.479   4.107
 8337SOL    HW225911   0.057   1.509   4.159
 8338SOL     OW25912   3.164   5.377   1.156
 8338SOL    HW125913   3.178   5.328   1.242
 8338SOL    HW225914   3.203   5.324   1.080
 8339SOL     OW25915   6.131   0.642   1.401
 8339SOL    HW125916   6.037   0.665   1.377
 8339SOL    HW225917   6.136   0.547   1.433
 8340SOL     OW25918   6.077   1.741   6.804
 8340SOL    HW125919   6.132   1.820   6.830
 8340SOL    HW225920   6.074   1.733   6.704
 8341SOL     OW25921   3.696   1.380   0.798
 8341SOL    HW125922   3.602   1.362   0.828
 8341SOL    HW225923   3.722   1.314   0.728
 8342SOL     OW25924   4.300   0.335   0.423
 8342SOL    HW125925   4.274   0.396   0.498
 8342SOL    HW225926   4.374   0.377   0.371
 8343SOL     OW25927   5.957   4.479   4.045
 8343SOL    HW125928   5.857   4.483   4.052
 8343SOL    HW225929   5.985   4.385   4.029
 8344SOL     OW25930   1.119   5.133   6.198
 8344SOL    HW125931   1.071   5.077   6.266
 8344SOL    HW225932   1.053   5.188   6.147
 8345SOL     OW25933   4.895   7.008   3.753
 8345SOL    HW125934   4.968   6.974   3.813
 8345SOL    HW225935   4.823   6.939   3.747
 8346SOL     OW25936   6.038   2.841   4.317
 8346SOL    HW125937   6.002   2.927   4.354
 8346SOL    HW225938   5.983   2.765   4.351
 8347SOL     OW25939   2.353   1.636   6.470
 8347SOL    HW125940   2.357   1.721   6.523
 8347SOL    HW225941   2.307   1.653   6.383
 8348SOL     OW25942   3.010   6.217   2.104
 8348SOL    HW125943   2.913   6.201   2.086
 8348SOL    HW225944   3.020   6.291   2.170
 8349SOL     OW25945   6.153   6.175   2.213
 8349SOL    HW125946   6.224   6.104   2.212
 8349SOL    HW225947   6.161   6.231   2.130
 8350SOL     OW25948   2.058   1.026   6.451
 8350SOL    HW125949   1.970   1.073   6.455
 8350SOL    HW225950   2.044   0.929   6.430
 8351SOL     OW25951   0.234   3.213   2.591
 8351SOL    HW125952   0.172   3.134   2.590
 8351SOL    HW225953   0.277   3.221   2.681
 8352SOL     OW25954   3.016   5.433   0.768
 8352SOL    HW125955   2.978   5.408   0.679
 8352SOL    HW225956   2.955   5.402   0.840
 8353SOL     OW25957   1.012   4.938   1.755
 8353SOL    HW125958   1.011   5.018   1.695
 8353SOL    HW225959   1.012   4.968   1.850
 8354SOL     OW25960   3.488   0.975   3.508
 8354SOL    HW125961   3.430   0.920   3.569
 8354SOL    HW225962   3.494   0.930   3.419
 8355SOL     OW25963   3.038   6.410   6.836
 8355SOL    HW125964   3.070   6.501   6.808
 8355SOL    HW225965   2.957   6.386   6.783
 8356SOL     OW25966   2.027   5.241   0.522
 8356SOL    HW125967   1.943   5.187   0.517
 8356SOL    HW225968   2.075   5.235   0.435
 8357SOL     OW25969   4.599   6.862   5.765
 8357SOL    HW125970   4.567   6.951   5.799
 8357SOL    HW225971   4.596   6.795   5.839
 8358SOL     OW25972   1.366   1.120   4.974
 8358SOL    HW125973   1.291   1.185   4.991
 8358SOL    HW225974   1.408   1.140   4.885
 8359SOL     OW25975   3.504   1.906   6.034
 8359SOL    HW125976   3.586   1.961   6.018
 8359SOL    HW225977   3.498   1.884   6.132
 8360SOL     OW25978   4.614   0.198   0.994
 8360SOL    HW125979   4.674   0.277   0.982
 8360SOL    HW225980   4.652   0.120   0.945
 8361SOL     OW25981   4.072   1.230   6.774
 8361SOL    HW125982   4.142   1.221   6.703
 8361SOL    HW225983   4.001   1.161   6.760
 8362SOL     OW25984   0.547   4.282   1.392
 8362SOL    HW125985   0.631   4.279   1.337
 8362SOL    HW225986   0.526   4.378   1.413
 8363SOL     OW25987   1.633   3.132   1.062
 8363SOL    HW125988   1.632   3.181   1.150
 8363SOL    HW225989   1.727   3.111   1.036
 8364SOL     OW25990   6.998   3.283   4.226
 8364SOL    HW125991   6.966   3.189   4.218
 8364SOL    HW225992   6.973   3.319   4.316
 8365SOL     OW25993   1.363   2.483   2.062
 8365SOL    HW125994   1.301   2.474   2.140
 8365SOL    HW225995   1.382   2.392   2.025
 8366SOL     OW25996   5.393   4.978   2.583
 8366SOL    HW125997   5.478   5.028   2.596
 8366SOL    HW225998   5.409   4.880   2.598
 8367SOL     OW25999   2.082   5.329   4.151
 8367SOL    HW126000   2.084   5.386   4.233
 8367SOL    HW226001   1.988   5.297   4.135
 8368SOL     OW26002   6.154   6.436   5.848
 8368SOL    HW126003   6.144   6.475   5.757
 8368SOL    HW226004   6.073   6.456   5.903
 8369SOL     OW26005   2.494   6.310   0.653
 8369SOL    HW126006   2.528   6.220   0.681
 8369SOL    HW226007   2.443   6.301   0.567
 8370SOL     OW26008   3.105   4.266   6.861
 8370SOL    HW126009   3.144   4.262   6.769
 8370SOL    HW226010   3.064   4.355   6.877
 8371SOL     OW26011   1.998   4.467   5.156
 8371SOL    HW126012   2.047   4.446   5.072
 8371SOL    HW226013   1.997   4.387   5.215
 8372SOL     OW26014   2.394   6.386   1.124
 8372SOL    HW126015   2.389   6.421   1.031
 8372SOL    HW226016   2.472   6.427   1.171
 8373SOL     OW26017   6.745   2.143   4.085
 8373SOL    HW126018   6.741   2.186   4.175
 8373SOL    HW226019   6.815   2.072   4.085
 8374SOL     OW26020   6.787   1.205   4.189
 8374SOL    HW126021   6.786   1.125   4.128
 8374SOL    HW226022   6.767   1.175   4.283
 8375SOL     OW26023   2.834   1.397   4.610
 8375SOL    HW126024   2.739   1.387   4.638
 8375SOL    HW226025   2.866   1.311   4.569
 8376SOL     OW26026   1.267   2.036   3.568
 8376SOL    HW126027   1.169   2.056   3.565
 8376SOL    HW226028   1.290   1.972   3.495
 8377SOL     OW26029   5.124   5.287   0.507
 8377SOL    HW126030   5.165   5.373   0.478
 8377SOL    HW226031   5.159   5.213   0.449
 8378SOL     OW26032   5.045   5.986   4.351
 8378SOL    HW126033   5.021   5.891   4.372
 8378SOL    HW226034   4.971   6.046   4.379
 8379SOL     OW26035   5.786   2.135   1.238
 8379SOL    HW126036   5.694   2.114   1.205
 8379SOL    HW226037   5.780   2.193   1.319
 8380SOL     OW26038   6.967   5.927   1.068
 8380SOL    HW126039   0.018   5.910   1.132
 8380SOL    HW226040   6.966   6.024   1.044
 8381SOL     OW26041   0.201   1.464   2.878
 8381SOL    HW126042   0.145   1.543   2.903
 8381SOL    HW226043   0.286   1.466   2.930
 8382SOL     OW26044   1.779   0.776   1.020
 8382SOL    HW126045   1.833   0.707   1.067
 8382SOL    HW226046   1.693   0.791   1.070
 8383SOL     OW26047   2.920   0.020   6.765
 8383SOL    HW126048   2.958   7.015   6.677
 8383SOL    HW226049   2.820   0.019   6.761
 8384SOL     OW26050   0.599   3.399   2.900
 8384SOL    HW126051   0.638   3.322   2.849
 8384SOL    HW226052   0.644   3.484   2.871
 8385SOL     OW26053   4.432   2.879   1.097
 8385SOL    HW126054   4.458   2.958   1.042
 8385SOL    HW226055   4.471   2.888   1.189
 8386SOL     OW26056   2.203   5.763   1.914
 8386SOL    HW126057   2.294   5.787   1.949
 8386SOL    HW226058   2.197   5.786   1.817
 8387SOL     OW26059   1.156   1.248   3.173
 8387SOL    HW126060   1.207   1.167   3.202
 8387SOL    HW226061   1.220   1.317   3.137
 8388SOL     OW26062   4.538   5.979   0.783
 8388SOL    HW126063   4.487   5.898   0.755
 8388SOL    HW226064   4.610   5.952   0.848
 8389SOL     OW26065   0.366   3.083   4.147
 8389SOL    HW126066   0.334   2.988   4.149
 8389SOL    HW226067   0.464   3.085   4.129
 8390SOL     OW26068   2.633   0.207   5.446
 8390SOL    HW126069   2.636   0.160   5.535
 8390SOL    HW226070   2.706   0.170   5.388
 8391SOL     OW26071   5.810   6.108   0.818
 8391SOL    HW126072   5.821   6.164   0.900
 8391SOL    HW226073   5.890   6.049   0.807
 8392SOL     OW26074   5.790   6.461   5.508
 8392SOL    HW126075   5.721   6.529   5.485
 8392SOL    HW226076   5.788   6.387   5.441
 8393SOL     OW26077   0.187   5.389   3.064
 8393SOL    HW126078   0.198   5.361   2.969
 8393SOL    HW226079   0.172   5.488   3.069
 8394SOL     OW26080   0.781   1.704   2.968
 8394SOL    HW126081   0.848   1.760   2.920
 8394SOL    HW226082   0.789   1.719   3.067
 8395SOL     OW26083   0.762   6.011   5.459
 8395SOL    HW126084   0.715   6.038   5.543
 8395SOL    HW226085   0.730   6.068   5.383
 8396SOL     OW26086   4.635   3.555   0.973
 8396SOL    HW126087   4.688   3.473   0.994
 8396SOL    HW226088   4.698   3.627   0.942
 8397SOL     OW26089   1.774   5.177   3.326
 8397SOL    HW126090   1.804   5.178   3.422
 8397SOL    HW226091   1.753   5.083   3.299
 8398SOL     OW26092   5.133   1.702   0.501
 8398SOL    HW126093   5.102   1.638   0.571
 8398SOL    HW226094   5.111   1.666   0.411
 8399SOL     OW26095   5.880   5.690   0.133
 8399SOL    HW126096   5.819   5.688   0.212
 8399SOL    HW226097   5.853   5.765   0.072
 8400SOL     OW26098   5.943   0.720   4.550
 8400SOL    HW126099   6.005   0.722   4.629
 8400SOL    HW226100   5.877   0.646   4.561
 8401SOL     OW26101   3.181   4.914   6.326
 8401SOL    HW126102   3.269   4.888   6.287
 8401SOL    HW226103   3.184   4.904   6.425
 8402SOL     OW26104   4.537   1.779   0.300
 8402SOL    HW126105   4.449   1.735   0.320
 8402SOL    HW226106   4.550   1.784   0.201
 8403SOL     OW26107   1.173   2.038   4.508
 8403SOL    HW126108   1.272   2.056   4.505
 8403SOL    HW226109   1.147   1.987   4.426
 8404SOL     OW26110   4.274   5.383   5.296
 8404SOL    HW126111   4.182   5.419   5.310
 8404SOL    HW226112   4.268   5.290   5.258
 8405SOL     OW26113   1.232   2.506   5.065
 8405SOL    HW126114   1.151   2.562   5.079
 8405SOL    HW226115   1.303   2.534   5.129
 8406SOL     OW26116   4.659   3.361   1.388
 8406SOL    HW126117   4.578   3.370   1.445
 8406SOL    HW226118   4.721   3.294   1.429
 8407SOL     OW26119   5.112   3.775   2.508
 8407SOL    HW126120   5.054   3.847   2.470
 8407SOL    HW226121   5.208   3.798   2.491
 8408SOL     OW26122   4.888   2.735   3.631
 8408SOL    HW126123   4.979   2.695   3.641
 8408SOL    HW226124   4.896   2.831   3.606
 8409SOL     OW26125   1.117   2.280   4.294
 8409SOL    HW126126   1.166   2.218   4.233
 8409SOL    HW226127   1.171   2.294   4.378
 8410SOL     OW26128   3.290   6.421   2.014
 8410SOL    HW126129   3.199   6.460   2.032
 8410SOL    HW226130   3.280   6.330   1.975
 8411SOL     OW26131   1.951   3.001   3.510
 8411SOL    HW126132   1.965   3.054   3.426
 8411SOL    HW226133   1.981   2.906   3.494
 8412SOL     OW26134   6.169   3.205   2.557
 8412SOL    HW126135   6.234   3.130   2.543
 8412SOL    HW226136   6.084   3.186   2.509
 8413SOL     OW26137   2.282   4.260   1.291
 8413SOL    HW126138   2.364   4.291   1.340
 8413SOL    HW226139   2.309   4.213   1.207
 8414SOL     OW26140   5.325   6.664   2.287
 8414SOL    HW126141   5.423   6.667   2.305
 8414SOL    HW226142   5.307   6.690   2.192
 8415SOL     OW26143   6.477   3.277   1.947
 8415SOL    HW126144   6.494   3.297   2.043
 8415SOL    HW226145   6.527   3.195   1.921
 8416SOL     OW26146   5.325   3.612   2.299
 8416SOL    HW126147   5.240   3.635   2.252
 8416SOL    HW226148   5.308   3.602   2.397
 8417SOL     OW26149   2.564   5.882   5.950
 8417SOL    HW126150   2.561   5.878   5.850
 8417SOL    HW226151   2.574   5.977   5.980
 8418SOL     OW26152   6.070   5.474   2.287
 8418SOL    HW126153   6.089   5.570   2.271
 8418SOL    HW226154   5.983   5.449   2.243
 8419SOL     OW26155   3.955   6.846   3.736
 8419SOL    HW126156   3.944   6.763   3.681
 8419SOL    HW226157   3.868   6.894   3.741
 8420SOL     OW26158   3.668   2.094   5.974
 8420SOL    HW126159   3.644   2.190   5.989
 8420SOL    HW226160   3.753   2.089   5.921
 8421SOL     OW26161   2.010   6.571   1.648
 8421SOL    HW126162   1.936   6.636   1.664
 8421SOL    HW226163   2.034   6.572   1.551
 8422SOL     OW26164   3.967   6.817   1.494
 8422SOL    HW126165   3.996   6.894   1.551
 8422SOL    HW226166   3.945   6.739   1.552
 8423SOL     OW26167   2.596   3.975   1.261
 8423SOL    HW126168   2.670   4.040   1.243
 8423SOL    HW226169   2.576   3.974   1.359
 8424SOL     OW26170   3.015   2.204   2.711
 8424SOL    HW126171   3.058   2.171   2.795
 8424SOL    HW226172   2.946   2.272   2.733
 8425SOL     OW26173   5.960   5.096   0.288
 8425SOL    HW126174   5.948   5.018   0.350
 8425SOL    HW226175   5.932   5.070   0.196
 8426SOL     OW26176   4.098   3.306   2.357
 8426SOL    HW126177   3.999   3.311   2.342
 8426SOL    HW226178   4.145   3.302   2.269
 8427SOL     OW26179   2.394   3.537   6.342
 8427SOL    HW126180   2.437   3.621   6.375
 8427SOL    HW226181   2.377   3.476   6.419
 8428SOL     OW26182   6.075   4.643   2.300
 8428SOL    HW126183   6.046   4.735   2.324
 8428SOL    HW226184   6.041   4.619   2.209
 8429SOL     OW26185   1.985   6.397   2.603
 8429SOL    HW126186   1.906   6.419   2.660
 8429SOL    HW226187   2.036   6.322   2.644
 8430SOL     OW26188   4.659   4.308   2.979
 8430SOL    HW126189   4.636   4.299   2.882
 8430SOL    HW226190   4.584   4.352   3.027
 8431SOL     OW26191   2.903   3.981   0.771
 8431SOL    HW126192   2.886   3.924   0.852
 8431SOL    HW226193   2.997   4.015   0.774
 8432SOL     OW26194   4.687   6.204   6.698
 8432SOL    HW126195   4.604   6.152   6.716
 8432SOL    HW226196   4.693   6.280   6.762
 8433SOL     OW26197   1.187   1.333   5.016
 8433SOL    HW126198   1.216   1.423   5.049
 8433SOL    HW226199   1.164   1.340   4.919
 8434SOL     OW26200   5.669   6.272   5.868
 8434SOL    HW126201   5.708   6.266   5.776
 8434SOL    HW226202   5.616   6.356   5.876
 8435SOL     OW26203   4.807   2.196   1.466
 8435SOL    HW126204   4.794   2.217   1.563
 8435SOL    HW226205   4.816   2.281   1.414
 8436SOL     OW26206   3.906   4.594   1.380
 8436SOL    HW126207   3.964   4.551   1.311
 8436SOL    HW226208   3.906   4.693   1.368
 8437SOL     OW26209   0.165   1.494   1.249
 8437SOL    HW126210   0.185   1.565   1.317
 8437SOL    HW226211   0.085   1.442   1.278
 8438SOL     OW26212   1.865   6.414   1.846
 8438SOL    HW126213   1.925   6.388   1.921
 8438SOL    HW226214   1.919   6.445   1.768
 8439SOL     OW26215   6.514   6.394   2.281
 8439SOL    HW126216   6.614   6.399   2.282
 8439SOL    HW226217   6.479   6.398   2.374
 8440SOL     OW26218   0.112   1.820   3.556
 8440SOL    HW126219   0.151   1.734   3.523
 8440SOL    HW226220   0.181   1.869   3.610
 8441SOL     OW26221   4.384   4.900   1.096
 8441SOL    HW126222   4.300   4.944   1.128
 8441SOL    HW226223   4.420   4.841   1.168
 8442SOL     OW26224   2.130   3.640   7.012
 8442SOL    HW126225   2.049   3.617   0.042
 8442SOL    HW226226   2.114   3.726   6.964
 8443SOL     OW26227   1.686   1.319   2.408
 8443SOL    HW126228   1.643   1.394   2.457
 8443SOL    HW226229   1.783   1.316   2.430
 8444SOL     OW26230   4.264   6.819   3.441
 8444SOL    HW126231   4.273   6.724   3.409
 8444SOL    HW226232   4.181   6.859   3.402
 8445SOL     OW26233   3.958   5.173   1.948
 8445SOL    HW126234   3.993   5.081   1.931
 8445SOL    HW226235   3.881   5.169   2.011
 8446SOL     OW26236   6.839   4.784   3.348
 8446SOL    HW126237   6.777   4.837   3.405
 8446SOL    HW226238   6.795   4.698   3.321
 8447SOL     OW26239   4.821   2.944   1.226
 8447SOL    HW126240   4.792   2.917   1.318
 8447SOL    HW226241   4.918   2.922   1.215
 8448SOL     OW26242   0.874   2.964   6.367
 8448SOL    HW126243   0.813   2.928   6.296
 8448SOL    HW226244   0.871   3.064   6.366
 8449SOL     OW26245   1.463   1.984   4.987
 8449SOL    HW126246   1.548   2.036   4.974
 8449SOL    HW226247   1.456   1.958   5.083
 8450SOL     OW26248   2.311   4.992   2.448
 8450SOL    HW126249   2.354   5.027   2.531
 8450SOL    HW226250   2.246   5.059   2.413
 8451SOL     OW26251   3.755   2.980   0.780
 8451SOL    HW126252   3.800   3.018   0.861
 8451SOL    HW226253   3.807   2.902   0.746
 8452SOL     OW26254   6.529   5.920   1.191
 8452SOL    HW126255   6.477   5.952   1.269
 8452SOL    HW226256   6.612   5.873   1.223
 8453SOL     OW26257   0.714   5.097   5.461
 8453SOL    HW126258   0.672   5.103   5.552
 8453SOL    HW226259   0.751   5.186   5.435
 8454SOL     OW26260   1.782   0.058   4.643
 8454SOL    HW126261   1.733   0.036   4.558
 8454SOL    HW226262   1.858   0.119   4.622
 8455SOL     OW26263   6.206   2.304   1.202
 8455SOL    HW126264   6.265   2.225   1.185
 8455SOL    HW226265   6.135   2.308   1.133
 8456SOL     OW26266   5.177   5.381   3.153
 8456SOL    HW126267   5.215   5.298   3.113
 8456SOL    HW226268   5.172   5.452   3.083
 8457SOL     OW26269   6.981   6.476   6.677
 8457SOL    HW126270   6.936   6.560   6.706
 8457SOL    HW226271   6.915   6.418   6.629
 8458SOL     OW26272   1.048   1.312   1.396
 8458SOL    HW126273   1.085   1.287   1.486
 8458SOL    HW226274   1.069   1.408   1.377
 8459SOL     OW26275   2.719   5.282   2.581
 8459SOL    HW126276   2.778   5.203   2.565
 8459SOL    HW226277   2.757   5.362   2.535
 8460SOL     OW26278   4.220   1.018   0.365
 8460SOL    HW126279   4.285   0.944   0.383
 8460SOL    HW226280   4.251   1.070   0.285
 8461SOL     OW26281   5.231   4.034   2.655
 8461SOL    HW126282   5.304   3.978   2.615
 8461SOL    HW226283   5.251   4.131   2.638
 8462SOL     OW26284   2.842   4.861   0.236
 8462SOL    HW126285   2.806   4.768   0.244
 8462SOL    HW226286   2.790   4.923   0.295
 8463SOL     OW26287   6.517   0.604   0.129
 8463SOL    HW126288   6.533   0.560   0.041
 8463SOL    HW226289   6.419   0.618   0.142
 8464SOL     OW26290   0.381   3.524   6.256
 8464SOL    HW126291   0.297   3.577   6.268
 8464SOL    HW226292   0.378   3.476   6.168
 8465SOL     OW26293   4.767   2.983   0.950
 8465SOL    HW126294   4.769   3.082   0.960
 8465SOL    HW226295   4.776   2.940   1.041
 8466SOL     OW26296   5.660   1.199   5.578
 8466SOL    HW126297   5.590   1.193   5.507
 8466SOL    HW226298   5.620   1.176   5.667
 8467SOL     OW26299   3.484   1.234   0.947
 8467SOL    HW126300   3.403   1.260   1.000
 8467SOL    HW226301   3.455   1.193   0.861
 8468SOL     OW26302   5.855   3.163   0.573
 8468SOL    HW126303   5.882   3.067   0.578
 8468SOL    HW226304   5.899   3.206   0.494
 8469SOL     OW26305   4.729   3.032   6.321
 8469SOL    HW126306   4.667   3.108   6.301
 8469SOL    HW226307   4.764   3.040   6.414
 8470SOL     OW26308   1.500   4.966   1.657
 8470SOL    HW126309   1.479   4.877   1.615
 8470SOL    HW226310   1.511   4.954   1.756
 8471SOL     OW26311   3.453   1.942   4.410
 8471SOL    HW126312   3.511   1.974   4.334
 8471SOL    HW226313   3.505   1.948   4.495
 8472SOL     OW26314   5.853   1.449   5.847
 8472SOL    HW126315   5.868   1.548   5.857
 8472SOL    HW226316   5.764   1.433   5.805
 8473SOL     OW26317   4.542   4.237   6.623
 8473SOL    HW126318   4.508   4.315   6.675
 8473SOL    HW226319   4.637   4.218   6.648
 8474SOL     OW26320   3.778   4.065   3.130
 8474SOL    HW126321   3.809   4.030   3.041
 8474SOL    HW226322   3.841   4.034   3.201
 8475SOL     OW26323   0.321   2.879   2.424
 8475SOL    HW126324   0.334   2.931   2.339
 8475SOL    HW226325   0.404   2.887   2.480
 8476SOL     OW26326   6.123   0.341   1.943
 8476SOL    HW126327   6.198   0.361   2.006
 8476SOL    HW226328   6.157   0.288   1.866
 8477SOL     OW26329   5.292   0.170   1.810
 8477SOL    HW126330   5.241   0.156   1.895
 8477SOL    HW226331   5.284   0.089   1.752
 8478SOL     OW26332   6.081   1.219   5.756
 8478SOL    HW126333   6.143   1.256   5.687
 8478SOL    HW226334   6.045   1.294   5.812
 8479SOL     OW26335   0.916   2.541   0.608
 8479SOL    HW126336   0.910   2.448   0.571
 8479SOL    HW226337   0.954   2.536   0.701
 8480SOL     OW26338   4.166   3.715   0.188
 8480SOL    HW126339   4.105   3.637   0.176
 8480SOL    HW226340   4.181   3.760   0.100
 8481SOL     OW26341   4.455   1.758   3.297
 8481SOL    HW126342   4.453   1.686   3.227
 8481SOL    HW226343   4.363   1.776   3.330
 8482SOL     OW26344   4.703   0.615   0.933
 8482SOL    HW126345   4.717   0.693   0.993
 8482SOL    HW226346   4.617   0.625   0.883
 8483SOL     OW26347   3.462   4.979   3.055
 8483SOL    HW126348   3.542   4.924   3.034
 8483SOL    HW226349   3.418   4.944   3.137
 8484SOL     OW26350   5.668   5.517   4.702
 8484SOL    HW126351   5.633   5.550   4.790
 8484SOL    HW226352   5.600   5.534   4.631
 8485SOL     OW26353   3.441   2.466   0.391
 8485SOL    HW126354   3.487   2.554   0.379
 8485SOL    HW226355   3.510   2.393   0.393
 8486SOL     OW26356   0.645   2.049   3.092
 8486SOL    HW126357   0.632   1.966   3.146
 8486SOL    HW226358   0.565   2.064   3.034
 8487SOL     OW26359   6.392   1.545   5.721
 8487SOL    HW126360   6.482   1.547   5.764
 8487SOL    HW226361   6.339   1.624   5.750
 8488SOL     OW26362   4.709   4.817   1.704
 8488SOL    HW126363   4.651   4.867   1.769
 8488SOL    HW226364   4.656   4.743   1.663
 8489SOL     OW26365   5.441   2.344   1.833
 8489SOL    HW126366   5.472   2.296   1.915
 8489SOL    HW226367   5.352   2.386   1.850
 8490SOL     OW26368   3.134   0.212   6.501
 8490SOL    HW126369   3.100   0.128   6.543
 8490SOL    HW226370   3.127   0.204   6.402
 8491SOL     OW26371   2.959   5.747   1.802
 8491SOL    HW126372   2.973   5.802   1.885
 8491SOL    HW226373   3.015   5.665   1.808
 8492SOL     OW26374   6.594   6.429   4.029
 8492SOL    HW126375   6.647   6.355   4.070
 8492SOL    HW226376   6.499   6.400   4.016
 8493SOL     OW26377   4.712   1.283   6.918
 8493SOL    HW126378   4.663   1.313   7.000
 8493SOL    HW226379   4.684   1.340   6.840
 8494SOL     OW26380   6.576   4.725   2.444
 8494SOL    HW126381   6.541   4.778   2.521
 8494SOL    HW226382   6.609   4.636   2.477
 8495SOL     OW26383   6.439   5.412   6.545
 8495SOL    HW126384   6.484   5.476   6.608
 8495SOL    HW226385   6.457   5.318   6.576
 8496SOL     OW26386   5.752   3.179   2.230
 8496SOL    HW126387   5.672   3.224   2.271
 8496SOL    HW226388   5.747   3.186   2.131
 8497SOL     OW26389   6.741   0.982   3.720
 8497SOL    HW126390   6.800   0.908   3.690
 8497SOL    HW226391   6.650   0.946   3.742
 8498SOL     OW26392   4.461   6.834   3.693
 8498SOL    HW126393   4.448   6.928   3.661
 8498SOL    HW226394   4.378   6.802   3.737
 8499SOL     OW26395   6.097   6.526   5.576
 8499SOL    HW126396   6.000   6.545   5.558
 8499SOL    HW226397   6.148   6.612   5.573
 8500SOL     OW26398   0.795   0.766   5.252
 8500SOL    HW126399   0.841   0.854   5.238
 8500SOL    HW226400   0.773   0.754   5.349
 8501SOL     OW26401   0.905   1.677   6.612
 8501SOL    HW126402   0.982   1.665   6.549
 8501SOL    HW226403   0.822   1.640   6.570
 8502SOL     OW26404   0.704   4.251   6.945
 8502SOL    HW126405   0.750   4.163   6.958
 8502SOL    HW226406   0.621   4.236   6.890
 8503SOL     OW26407   5.553   1.105   4.634
 8503SOL    HW126408   5.636   1.050   4.635
 8503SOL    HW226409   5.498   1.080   4.554
 8504SOL     OW26410   1.217   6.666   1.877
 8504SOL    HW126411   1.191   6.581   1.924
 8504SOL    HW226412   1.178   6.744   1.926
 8505SOL     OW26413   5.228   3.284   2.776
 8505SOL    HW126414   5.323   3.254   2.775
 8505SOL    HW226415   5.194   3.291   2.682
 8506SOL     OW26416   1.441   0.412   5.912
 8506SOL    HW126417   1.423   0.510   5.901
 8506SOL    HW226418   1.427   0.366   5.824
 8507SOL     OW26419   3.574   6.508   5.253
 8507SOL    HW126420   3.630   6.502   5.171
 8507SOL    HW226421   3.575   6.420   5.301
 8508SOL     OW26422   3.209   2.007   6.520
 8508SOL    HW126423   3.256   2.058   6.449
 8508SOL    HW226424   3.158   2.070   6.579
 8509SOL     OW26425   5.681   1.434   2.842
 8509SOL    HW126426   5.620   1.363   2.807
 8509SOL    HW226427   5.724   1.403   2.927
 8510SOL     OW26428   6.748   2.419   4.410
 8510SOL    HW126429   6.803   2.336   4.422
 8510SOL    HW226430   6.651   2.396   4.408
 8511SOL     OW26431   5.485   2.799   2.416
 8511SOL    HW126432   5.566   2.777   2.362
 8511SOL    HW226433   5.499   2.771   2.511
 8512SOL     OW26434   1.757   6.634   5.895
 8512SOL    HW126435   1.781   6.580   5.814
 8512SOL    HW226436   1.795   6.590   5.976
 8513SOL     OW26437   4.843   0.036   6.334
 8513SOL    HW126438   4.859   7.009   6.250
 8513SOL    HW226439   4.754   0.011   6.372
 8514SOL     OW26440   3.018   5.801   4.193
 8514SOL    HW126441   2.994   5.705   4.174
 8514SOL    HW226442   2.977   5.859   4.123
 8515SOL     OW26443   5.991   1.613   0.717
 8515SOL    HW126444   5.956   1.520   0.729
 8515SOL    HW226445   5.975   1.642   0.622
 8516SOL     OW26446   0.137   1.982   2.555
 8516SOL    HW126447   0.168   1.908   2.495
 8516SOL    HW226448   0.052   2.020   2.521
 8517SOL     OW26449   0.999   3.864   0.625
 8517SOL    HW126450   1.065   3.848   0.552
 8517SOL    HW226451   1.048   3.892   0.708
 8518SOL     OW26452   3.336   5.231   0.623
 8518SOL    HW126453   3.298   5.261   0.536
 8518SOL    HW226454   3.427   5.190   0.608
 8519SOL     OW26455   1.450   5.065   2.888
 8519SOL    HW126456   1.374   5.129   2.897
 8519SOL    HW226457   1.419   4.972   2.910
 8520SOL     OW26458   2.795   0.382   6.974
 8520SOL    HW126459   2.857   0.459   6.958
 8520SOL    HW226460   2.847   0.301   6.998
 8521SOL     OW26461   1.001   6.894   6.713
 8521SOL    HW126462   1.095   6.881   6.682
 8521SOL    HW226463   0.974   6.989   6.703
 8522SOL     OW26464   1.967   6.016   4.735
 8522SOL    HW126465   1.976   6.081   4.659
 8522SOL    HW226466   1.960   6.066   4.821
 8523SOL     OW26467   1.271   6.880   6.713
 8523SOL    HW126468   1.283   6.881   6.813
 8523SOL    HW226469   1.300   6.968   6.675
 8524SOL     OW26470   1.572   2.539   6.087
 8524SOL    HW126471   1.553   2.555   6.184
 8524SOL    HW226472   1.657   2.585   6.062
 8525SOL     OW26473   5.357   3.165   3.251
 8525SOL    HW126474   5.376   3.137   3.345
 8525SOL    HW226475   5.437   3.214   3.214
 8526SOL     OW26476   2.120   3.138   1.800
 8526SOL    HW126477   2.101   3.209   1.868
 8526SOL    HW226478   2.211   3.152   1.761
 8527SOL     OW26479   4.186   7.022   4.239
 8527SOL    HW126480   4.194   7.016   4.140
 8527SOL    HW226481   4.157   0.089   4.265
 8528SOL     OW26482   5.157   2.641   6.832
 8528SOL    HW126483   5.152   2.616   6.929
 8528SOL    HW226484   5.110   2.572   6.777
 8529SOL     OW26485   0.330   4.834   0.130
 8529SOL    HW126486   0.291   4.757   0.081
 8529SOL    HW226487   0.365   4.804   0.219
 8530SOL     OW26488   1.736   3.470   5.802
 8530SOL    HW126489   1.742   3.504   5.709
 8530SOL    HW226490   1.729   3.370   5.801
 8531SOL     OW26491   3.926   4.837   2.077
 8531SOL    HW126492   3.988   4.828   2.155
 8531SOL    HW226493   3.835   4.864   2.109
 8532SOL     OW26494   1.671   4.459   6.171
 8532SOL    HW126495   1.595   4.424   6.226
 8532SOL    HW226496   1.640   4.535   6.115
 8533SOL     OW26497   3.527   0.544   5.897
 8533SOL    HW126498   3.493   0.460   5.939
 8533SOL    HW226499   3.508   0.621   5.958
 8534SOL     OW26500   2.032   3.044   3.005
 8534SOL    HW126501   2.084   3.050   2.920
 8534SOL    HW226502   2.058   3.120   3.065
 8535SOL     OW26503   6.419   3.372   4.099
 8535SOL    HW126504   6.379   3.464   4.102
 8535SOL    HW226505   6.354   3.309   4.057
 8536SOL     OW26506   0.330   1.048   4.217
 8536SOL    HW126507   0.319   0.975   4.284
 8536SOL    HW226508   0.257   1.115   4.229
 8537SOL     OW26509   6.120   6.842   2.568
 8537SOL    HW126510   6.131   6.744   2.580
 8537SOL    HW226511   6.037   6.861   2.516
 8538SOL     OW26512   5.365   0.942   4.839
 8538SOL    HW126513   5.279   0.993   4.831
 8538SOL    HW226514   5.441   1.007   4.845
 8539SOL     OW26515   6.810   3.054   2.699
 8539SOL    HW126516   6.795   3.077   2.795
 8539SOL    HW226517   6.900   3.086   2.670
 8540SOL     OW26518   3.760   0.399   0.372
 8540SOL    HW126519   3.683   0.340   0.398
 8540SOL    HW226520   3.845   0.347   0.378
 8541SOL     OW26521   3.339   0.102   5.032
 8541SOL    HW126522   3.240   0.107   5.044
 8541SOL    HW226523   3.361   0.043   4.955
 8542SOL     OW26524   1.133   5.476   6.023
 8542SOL    HW126525   1.177   5.424   5.951
 8542SOL    HW226526   1.186   5.468   6.108
 8543SOL     OW26527   2.294   2.710   5.858
 8543SOL    HW126528   2.267   2.787   5.800
 8543SOL    HW226529   2.250   2.719   5.948
 8544SOL     OW26530   5.734   4.829   5.964
 8544SOL    HW126531   5.715   4.731   5.971
 8544SOL    HW226532   5.788   4.858   6.043
 8545SOL     OW26533   2.739   0.035   6.419
 8545SOL    HW126534   2.726   0.109   6.484
 8545SOL    HW226535   2.669   0.041   6.347
 8546SOL     OW26536   5.020   0.981   2.767
 8546SOL    HW126537   5.006   1.080   2.763
 8546SOL    HW226538   5.113   0.960   2.736
 8547SOL     OW26539   5.593   6.214   6.117
 8547SOL    HW126540   5.604   6.215   6.018
 8547SOL    HW226541   5.506   6.171   6.141
 8548SOL     OW26542   0.618   3.380   5.502
 8548SOL    HW126543   0.607   3.465   5.450
 8548SOL    HW226544   0.622   3.401   5.599
 8549SOL     OW26545   2.083   0.187   4.161
 8549SOL    HW126546   2.136   0.208   4.079
 8549SOL    HW226547   2.144   0.180   4.239
 8550SOL     OW26548   6.735   4.497   6.103
 8550SOL    HW126549   6.832   4.492   6.128
 8550SOL    HW226550   6.725   4.543   6.015
 8551SOL     OW26551   2.053   0.399   5.921
 8551SOL    HW126552   2.051   0.412   6.020
 8551SOL    HW226553   2.131   0.447   5.882
 8552SOL     OW26554   3.116   2.095   2.467
 8552SOL    HW126555   3.080   2.115   2.558
 8552SOL    HW226556   3.060   2.141   2.398
 8553SOL     OW26557   5.277   4.060   6.667
 8553SOL    HW126558   5.342   4.092   6.597
 8553SOL    HW226559   5.279   3.960   6.671
 8554SOL     OW26560   2.448   1.311   0.516
 8554SOL    HW126561   2.351   1.318   0.492
 8554SOL    HW226562   2.456   1.280   0.610
 8555SOL     OW26563   3.668   1.533   4.064
 8555SOL    HW126564   3.617   1.544   4.149
 8555SOL    HW226565   3.766   1.525   4.085
 8556SOL     OW26566   1.302   5.478   0.040
 8556SOL    HW126567   1.378   5.455   0.100
 8556SOL    HW226568   1.223   5.505   0.094
 8557SOL     OW26569   6.718   0.585   6.455
 8557SOL    HW126570   6.620   0.597   6.464
 8557SOL    HW226571   6.764   0.674   6.459
 8558SOL     OW26572   2.978   6.278   4.386
 8558SOL    HW126573   2.989   6.179   4.370
 8558SOL    HW226574   2.960   6.323   4.299
 8559SOL     OW26575   1.953   4.485   2.997
 8559SOL    HW126576   2.035   4.474   2.941
 8559SOL    HW226577   1.935   4.582   3.011
 8560SOL     OW26578   2.150   4.596   0.439
 8560SOL    HW126579   2.080   4.654   0.480
 8560SOL    HW226580   2.105   4.524   0.385
 8561SOL     OW26581   4.153   0.989   2.810
 8561SOL    HW126582   4.105   1.052   2.750
 8561SOL    HW226583   4.140   1.016   2.905
 8562SOL     OW26584   5.486   2.051   0.200
 8562SOL    HW126585   5.429   2.039   0.281
 8562SOL    HW226586   5.582   2.046   0.227
 8563SOL     OW26587   2.832   5.053   2.540
 8563SOL    HW126588   2.928   5.074   2.559
 8563SOL    HW226589   2.827   4.985   2.467
 8564SOL     OW26590   3.927   7.008   0.296
 8564SOL    HW126591   3.856   6.995   0.227
 8564SOL    HW226592   3.886   0.024   0.378
 8565SOL     OW26593   1.878   4.859   1.257
 8565SOL    HW126594   1.964   4.872   1.305
 8565SOL    HW226595   1.814   4.810   1.317
 8566SOL     OW26596   3.097   1.080   2.358
 8566SOL    HW126597   3.179   1.074   2.416
 8566SOL    HW226598   3.107   1.156   2.294
 8567SOL     OW26599   1.816   3.122   2.485
 8567SOL    HW126600   1.909   3.137   2.517
 8567SOL    HW226601   1.800   3.176   2.402
 8568SOL     OW26602   5.928   0.523   6.248
 8568SOL    HW126603   5.933   0.537   6.347
 8568SOL    HW226604   6.011   0.476   6.217
 8569SOL     OW26605   4.353   2.370   0.579
 8569SOL    HW126606   4.368   2.282   0.535
 8569SOL    HW226607   4.416   2.438   0.542
 8570SOL     OW26608   2.222   2.597   1.825
 8570SOL    HW126609   2.162   2.571   1.900
 8570SOL    HW226610   2.301   2.536   1.822
 8571SOL     OW26611   1.578   0.942   2.990
 8571SOL    HW126612   1.643   0.948   3.066
 8571SOL    HW226613   1.522   0.860   3.000
 8572SOL     OW26614   2.291   4.327   5.585
 8572SOL    HW126615   2.341   4.410   5.559
 8572SOL    HW226616   2.267   4.275   5.504
 8573SOL     OW26617   3.209   6.632   0.400
 8573SOL    HW126618   3.157   6.583   0.329
 8573SOL    HW226619   3.307   6.620   0.384
 8574SOL     OW26620   4.673   0.667   5.017
 8574SOL    HW126621   4.624   0.619   5.089
 8574SOL    HW226622   4.771   0.669   5.038
 8575SOL     OW26623   3.241   5.902   3.456
 8575SOL    HW126624   3.194   5.991   3.451
 8575SOL    HW226625   3.204   5.849   3.532
 8576SOL     OW26626   1.817   4.588   3.946
 8576SOL    HW126627   1.747   4.618   4.010
 8576SOL    HW226628   1.828   4.657   3.874
 8577SOL     OW26629   1.787   1.158   0.631
 8577SOL    HW126630   1.769   1.253   0.606
 8577SOL    HW226631   1.873   1.128   0.591
 8578SOL     OW26632   0.352   0.021   6.211
 8578SOL    HW126633   0.299   0.007   6.127
 8578SOL    HW226634   0.338   0.115   6.244
 8579SOL     OW26635   2.893   6.526   2.444
 8579SOL    HW126636   2.821   6.493   2.382
 8579SOL    HW226637   2.935   6.608   2.405
 8580SOL     OW26638   1.715   0.640   1.425
 8580SOL    HW126639   1.662   0.596   1.498
 8580SOL    HW226640   1.701   0.739   1.429
 8581SOL     OW26641   3.243   4.818   1.333
 8581SOL    HW126642   3.290   4.887   1.388
 8581SOL    HW226643   3.172   4.775   1.388
 8582SOL     OW26644   3.643   5.335   5.729
 8582SOL    HW126645   3.666   5.247   5.688
 8582SOL    HW226646   3.559   5.370   5.688
 8583SOL     OW26647   4.279   0.175   2.376
 8583SOL    HW126648   4.296   0.241   2.449
 8583SOL    HW226649   4.181   0.170   2.358
 8584SOL     OW26650   6.577   1.358   4.853
 8584SOL    HW126651   6.629   1.386   4.772
 8584SOL    HW226652   6.572   1.435   4.918
 8585SOL     OW26653   5.702   2.746   2.893
 8585SOL    HW126654   5.733   2.653   2.913
 8585SOL    HW226655   5.773   2.811   2.920
 8586SOL     OW26656   6.767   6.498   0.146
 8586SOL    HW126657   6.749   6.459   0.237
 8586SOL    HW226658   6.805   6.590   0.157
 8587SOL     OW26659   0.301   1.555   0.060
 8587SOL    HW126660   0.263   1.568   6.993
 8587SOL    HW226661   0.269   1.628   0.121
 8588SOL     OW26662   2.736   1.517   6.128
 8588SOL    HW126663   2.652   1.549   6.171
 8588SOL    HW226664   2.774   1.440   6.180
 8589SOL     OW26665   6.695   3.304   6.900
 8589SOL    HW126666   6.657   3.244   6.829
 8589SOL    HW226667   6.655   3.281   6.988
 8590SOL     OW26668   0.647   0.505   3.959
 8590SOL    HW126669   0.729   0.501   3.902
 8590SOL    HW226670   0.663   0.455   4.044
 8591SOL     OW26671   6.740   4.479   6.488
 8591SOL    HW126672   6.659   4.485   6.546
 8591SOL    HW226673   6.786   4.568   6.485
 8592SOL     OW26674   0.221   1.544   4.599
 8592SOL    HW126675   0.309   1.565   4.642
 8592SOL    HW226676   0.189   1.455   4.630
 8593SOL     OW26677   4.852   1.742   6.968
 8593SOL    HW126678   4.812   1.722   0.034
 8593SOL    HW226679   4.799   1.813   6.923
 8594SOL     OW26680   6.501   3.030   6.431
 8594SOL    HW126681   6.483   2.998   6.524
 8594SOL    HW226682   6.414   3.043   6.383
 8595SOL     OW26683   6.179   6.481   3.095
 8595SOL    HW126684   6.145   6.475   3.189
 8595SOL    HW226685   6.130   6.553   3.046
 8596SOL     OW26686   0.915   1.792   3.861
 8596SOL    HW126687   0.942   1.799   3.765
 8596SOL    HW226688   0.979   1.845   3.917
 8597SOL     OW26689   6.050   3.305   6.129
 8597SOL    HW126690   6.045   3.402   6.107
 8597SOL    HW226691   6.100   3.257   6.057
 8598SOL     OW26692   5.986   6.838   4.857
 8598SOL    HW126693   6.018   6.753   4.898
 8598SOL    HW226694   6.035   6.915   4.896
 8599SOL     OW26695   6.929   3.658   4.290
 8599SOL    HW126696   6.837   3.631   4.321
 8599SOL    HW226697   6.996   3.634   4.360
 8600SOL     OW26698   4.950   2.006   0.948
 8600SOL    HW126699   4.954   1.913   0.912
 8600SOL    HW226700   4.875   2.014   1.013
 8601SOL     OW26701   0.185   6.131   3.831
 8601SOL    HW126702   0.141   6.212   3.792
 8601SOL    HW226703   0.276   6.155   3.864
 8602SOL     OW26704   2.161   6.022   5.081
 8602SOL    HW126705   2.167   5.940   5.024
 8602SOL    HW226706   2.080   6.074   5.056
 8603SOL     OW26707   0.317   0.106   0.181
 8603SOL    HW126708   0.313   0.027   0.241
 8603SOL    HW226709   0.233   0.110   0.126
 8604SOL     OW26710   0.412   4.512   6.426
 8604SOL    HW126711   0.437   4.605   6.450
 8604SOL    HW226712   0.318   4.493   6.458
 8605SOL     OW26713   6.978   4.647   4.877
 8605SOL    HW126714   0.013   4.621   4.801
 8605SOL    HW226715   6.886   4.668   4.843
 8606SOL     OW26716   1.660   2.199   0.315
 8606SOL    HW126717   1.654   2.179   0.412
 8606SOL    HW226718   1.745   2.246   0.295
 8607SOL     OW26719   2.286   3.849   1.429
 8607SOL    HW126720   2.328   3.759   1.422
 8607SOL    HW226721   2.352   3.914   1.467
 8608SOL     OW26722   1.728   5.150   2.897
 8608SOL    HW126723   1.714   5.246   2.920
 8608SOL    HW226724   1.642   5.110   2.866
 8609SOL     OW26725   4.204   1.583   3.983
 8609SOL    HW126726   4.304   1.595   3.985
 8609SOL    HW226727   4.169   1.607   3.893
 8610SOL     OW26728   7.007   6.153   3.248
 8610SOL    HW126729   6.963   6.078   3.199
 8610SOL    HW226730   0.077   6.163   3.216
 8611SOL     OW26731   2.872   1.359   4.951
 8611SOL    HW126732   2.861   1.261   4.968
 8611SOL    HW226733   2.934   1.398   5.018
 8612SOL     OW26734   2.953   3.287   4.149
 8612SOL    HW126735   2.926   3.368   4.202
 8612SOL    HW226736   2.939   3.306   4.051
 8613SOL     OW26737   3.878   3.024   2.248
 8613SOL    HW126738   3.937   3.036   2.168
 8613SOL    HW226739   3.813   2.950   2.231
 8614SOL     OW26740   1.522   1.955   3.252
 8614SOL    HW126741   1.484   2.026   3.193
 8614SOL    HW226742   1.622   1.959   3.249
 8615SOL     OW26743   3.715   1.659   4.363
 8615SOL    HW126744   3.626   1.614   4.356
 8615SOL    HW226745   3.784   1.604   4.315
 8616SOL     OW26746   5.667   4.504   4.020
 8616SOL    HW126747   5.604   4.456   3.959
 8616SOL    HW226748   5.616   4.571   4.075
 8617SOL     OW26749   2.331   0.447   3.679
 8617SOL    HW126750   2.239   0.408   3.686
 8617SOL    HW226751   2.325   0.544   3.657
 8618SOL     OW26752   5.411   4.168   1.140
 8618SOL    HW126753   5.407   4.266   1.159
 8618SOL    HW226754   5.438   4.119   1.223
 8619SOL     OW26755   5.227   5.074   0.373
 8619SOL    HW126756   5.190   4.984   0.397
 8619SOL    HW226757   5.327   5.068   0.366
 8620SOL     OW26758   2.349   0.573   4.413
 8620SOL    HW126759   2.422   0.577   4.345
 8620SOL    HW226760   2.388   0.589   4.504
 8621SOL     OW26761   5.695   2.881   1.862
 8621SOL    HW126762   5.711   2.810   1.931
 8621SOL    HW226763   5.617   2.855   1.805
 8622SOL     OW26764   7.014   4.758   2.638
 8622SOL    HW126765   0.048   4.679   2.655
 8622SOL    HW226766   7.002   4.769   2.539
 8623SOL     OW26767   1.242   3.603   4.431
 8623SOL    HW126768   1.170   3.585   4.364
 8623SOL    HW226769   1.256   3.702   4.439
 8624SOL     OW26770   3.178   4.133   4.819
 8624SOL    HW126771   3.131   4.099   4.737
 8624SOL    HW226772   3.128   4.102   4.900
 8625SOL     OW26773   4.098   2.838   5.645
 8625SOL    HW126774   4.037   2.885   5.581
 8625SOL    HW226775   4.169   2.902   5.676
 8626SOL     OW26776   3.530   3.536   0.501
 8626SOL    HW126777   3.471   3.457   0.484
 8626SOL    HW226778   3.552   3.542   0.598
 8627SOL     OW26779   1.916   1.059   2.145
 8627SOL    HW126780   1.943   1.030   2.237
 8627SOL    HW226781   1.993   1.105   2.101
 8628SOL     OW26782   0.056   6.734   0.919
 8628SOL    HW126783   0.000   6.750   1.001
 8628SOL    HW226784   0.152   6.746   0.942
 8629SOL     OW26785   6.951   6.282   5.636
 8629SOL    HW126786   6.907   6.199   5.601
 8629SOL    HW226787   6.899   6.362   5.605
 8630SOL     OW26788   4.815   2.987   2.344
 8630SOL    HW126789   4.775   3.077   2.365
 8630SOL    HW226790   4.807   2.969   2.246
 8631SOL     OW26791   3.093   6.697   6.299
 8631SOL    HW126792   3.048   6.618   6.339
 8631SOL    HW226793   3.187   6.702   6.332
 8632SOL     OW26794   5.571   5.215   4.771
 8632SOL    HW126795   5.509   5.276   4.820
 8632SOL    HW226796   5.636   5.175   4.835
 8633SOL     OW26797   5.847   4.141   5.643
 8633SOL    HW126798   5.935   4.183   5.663
 8633SOL    HW226799   5.861   4.057   5.591
 8634SOL     OW26800   4.348   2.874   0.276
 8634SOL    HW126801   4.391   2.907   0.360
 8634SOL    HW226802   4.327   2.952   0.216
 8635SOL     OW26803   5.075   2.515   5.864
 8635SOL    HW126804   5.014   2.589   5.892
 8635SOL    HW226805   5.148   2.504   5.932
 8636SOL     OW26806   4.555   6.882   1.735
 8636SOL    HW126807   4.599   6.861   1.648
 8636SOL    HW226808   4.624   6.883   1.808
 8637SOL     OW26809   2.135   2.401   6.737
 8637SOL    HW126810   2.133   2.410   6.836
 8637SOL    HW226811   2.111   2.308   6.711
 8638SOL     OW26812   4.791   2.568   3.400
 8638SOL    HW126813   4.851   2.614   3.335
 8638SOL    HW226814   4.786   2.621   3.484
 8639SOL     OW26815   3.693   3.910   0.200
 8639SOL    HW126816   3.696   3.826   0.254
 8639SOL    HW226817   3.757   3.904   0.124
 8640SOL     OW26818   2.863   2.740   0.835
 8640SOL    HW126819   2.911   2.683   0.901
 8640SOL    HW226820   2.905   2.831   0.832
 8641SOL     OW26821   4.536   5.002   1.826
 8641SOL    HW126822   4.473   5.017   1.903
 8641SOL    HW226823   4.529   5.077   1.761
 8642SOL     OW26824   1.413   5.904   3.652
 8642SOL    HW126825   1.476   5.982   3.651
 8642SOL    HW226826   1.388   5.881   3.558
 8643SOL     OW26827   3.637   6.441   0.895
 8643SOL    HW126828   3.700   6.502   0.942
 8643SOL    HW226829   3.560   6.419   0.955
 8644SOL     OW26830   5.970   1.950   6.226
 8644SOL    HW126831   5.888   1.955   6.169
 8644SOL    HW226832   5.952   1.891   6.305
 8645SOL     OW26833   6.021   4.748   3.037
 8645SOL    HW126834   6.005   4.651   3.053
 8645SOL    HW226835   5.938   4.789   3.000
 8646SOL     OW26836   6.331   2.651   4.995
 8646SOL    HW126837   6.413   2.642   4.938
 8646SOL    HW226838   6.250   2.641   4.938
 8647SOL     OW26839   1.994   5.646   2.021
 8647SOL    HW126840   2.064   5.712   1.996
 8647SOL    HW226841   2.008   5.616   2.116
 8648SOL     OW26842   5.099   4.823   0.475
 8648SOL    HW126843   5.009   4.795   0.510
 8648SOL    HW226844   5.118   4.775   0.390
 8649SOL     OW26845   4.988   0.078   0.803
 8649SOL    HW126846   4.892   0.103   0.787
 8649SOL    HW226847   5.043   0.106   0.725
 8650SOL     OW26848   2.388   6.725   5.115
 8650SOL    HW126849   2.373   6.653   5.183
 8650SOL    HW226850   2.321   6.798   5.127
 8651SOL     OW26851   4.035   2.315   1.429
 8651SOL    HW126852   3.964   2.359   1.374
 8651SOL    HW226853   4.056   2.225   1.390
 8652SOL     OW26854   1.146   3.140   3.815
 8652SOL    HW126855   1.182   3.129   3.722
 8652SOL    HW226856   1.144   3.051   3.861
 8653SOL     OW26857   6.385   1.388   6.506
 8653SOL    HW126858   6.418   1.425   6.593
 8653SOL    HW226859   6.462   1.351   6.454
 8654SOL     OW26860   0.473   4.527   2.129
 8654SOL    HW126861   0.504   4.614   2.091
 8654SOL    HW226862   0.379   4.537   2.164
 8655SOL     OW26863   0.085   0.947   4.562
 8655SOL    HW126864   0.139   0.988   4.635
 8655SOL    HW226865   0.145   0.909   4.492
 8656SOL     OW26866   5.090   0.062   1.262
 8656SOL    HW126867   5.029   7.007   1.250
 8656SOL    HW226868   5.087   0.119   1.180
 8657SOL     OW26869   4.576   0.877   3.016
 8657SOL    HW126870   4.525   0.931   2.949
 8657SOL    HW226871   4.673   0.874   2.989
 8658SOL     OW26872   5.891   4.502   0.678
 8658SOL    HW126873   5.922   4.466   0.765
 8658SOL    HW226874   5.815   4.446   0.643
 8659SOL     OW26875   3.182   0.983   2.657
 8659SOL    HW126876   3.088   1.017   2.650
 8659SOL    HW226877   3.244   1.045   2.610
 8660SOL     OW26878   0.339   4.268   1.753
 8660SOL    HW126879   0.415   4.292   1.814
 8660SOL    HW226880   0.326   4.341   1.687
 8661SOL     OW26881   6.545   4.101   2.359
 8661SOL    HW126882   6.611   4.087   2.286
 8661SOL    HW226883   6.520   4.013   2.399
 8662SOL     OW26884   1.887   4.048   3.361
 8662SOL    HW126885   1.982   4.033   3.332
 8662SOL    HW226886   1.883   4.124   3.426
 8663SOL     OW26887   4.399   5.324   2.429
 8663SOL    HW126888   4.420   5.351   2.335
 8663SOL    HW226889   4.317   5.372   2.459
 8664SOL     OW26890   3.891   5.875   3.186
 8664SOL    HW126891   3.844   5.957   3.153
 8664SOL    HW226892   3.830   5.796   3.180
 8665SOL     OW26893   5.641   3.419   6.928
 8665SOL    HW126894   5.725   3.394   6.880
 8665SOL    HW226895   5.596   3.336   6.962
 8666SOL     OW26896   4.743   0.004   2.397
 8666SOL    HW126897   4.654   0.016   2.440
 8666SOL    HW226898   4.736   6.962   2.322
 8667SOL     OW26899   5.009   2.035   3.031
 8667SOL    HW126900   5.044   2.013   3.122
 8667SOL    HW226901   4.940   1.967   3.005
 8668SOL     OW26902   5.246   2.235   5.218
 8668SOL    HW126903   5.191   2.153   5.235
 8668SOL    HW226904   5.325   2.211   5.162
 8669SOL     OW26905   6.201   6.076   6.605
 8669SOL    HW126906   6.102   6.086   6.609
 8669SOL    HW226907   6.231   6.084   6.510
 8670SOL     OW26908   6.492   4.396   6.171
 8670SOL    HW126909   6.510   4.357   6.262
 8670SOL    HW226910   6.572   4.446   6.139
 8671SOL     OW26911   0.740   2.979   3.215
 8671SOL    HW126912   0.660   3.037   3.230
 8671SOL    HW226913   0.775   2.949   3.304
 8672SOL     OW26914   0.342   0.987   2.817
 8672SOL    HW126915   0.276   0.990   2.892
 8672SOL    HW226916   0.335   1.071   2.763
 8673SOL     OW26917   0.428   2.153   1.388
 8673SOL    HW126918   0.472   2.064   1.384
 8673SOL    HW226919   0.481   2.214   1.447
 8674SOL     OW26920   6.753   3.934   3.742
 8674SOL    HW126921   6.714   3.862   3.686
 8674SOL    HW226922   6.695   4.016   3.737
 8675SOL     OW26923   3.414   2.134   5.130
 8675SOL    HW126924   3.413   2.124   5.030
 8675SOL    HW226925   3.344   2.200   5.157
 8676SOL     OW26926   5.429   1.191   0.845
 8676SOL    HW126927   5.369   1.270   0.863
 8676SOL    HW226928   5.477   1.166   0.929
 8677SOL     OW26929   2.222   6.854   6.332
 8677SOL    HW126930   2.235   6.829   6.236
 8677SOL    HW226931   2.219   6.771   6.387
 8678SOL     OW26932   1.557   1.872   0.354
 8678SOL    HW126933   1.567   1.957   0.302
 8678SOL    HW226934   1.626   1.807   0.323
 8679SOL     OW26935   1.828   2.636   6.048
 8679SOL    HW126936   1.870   2.721   6.014
 8679SOL    HW226937   1.870   2.558   6.001
 8680SOL     OW26938   6.454   0.797   0.405
 8680SOL    HW126939   6.431   0.832   0.496
 8680SOL    HW226940   6.524   0.726   0.414
 8681SOL     OW26941   5.605   6.582   1.325
 8681SOL    HW126942   5.539   6.657   1.324
 8681SOL    HW226943   5.692   6.613   1.286
 8682SOL     OW26944   1.952   0.646   1.618
 8682SOL    HW126945   1.885   0.719   1.606
 8682SOL    HW226946   1.915   0.575   1.679
 8683SOL     OW26947   1.901   4.498   4.263
 8683SOL    HW126948   1.851   4.463   4.184
 8683SOL    HW226949   1.932   4.591   4.243
 8684SOL     OW26950   2.144   4.385   4.150
 8684SOL    HW126951   2.142   4.285   4.149
 8684SOL    HW226952   2.069   4.420   4.205
 8685SOL     OW26953   5.003   2.485   4.557
 8685SOL    HW126954   4.979   2.538   4.638
 8685SOL    HW226955   4.922   2.441   4.520
 8686SOL     OW26956   1.200   5.058   3.114
 8686SOL    HW126957   1.236   5.148   3.138
 8686SOL    HW226958   1.161   5.015   3.195
 8687SOL     OW26959   5.017   4.180   5.989
 8687SOL    HW126960   5.088   4.195   5.921
 8687SOL    HW226961   5.057   4.182   6.081
 8688SOL     OW26962   0.655   3.766   4.947
 8688SOL    HW126963   0.746   3.796   4.978
 8688SOL    HW226964   0.611   3.841   4.897
 8689SOL     OW26965   3.932   3.542   0.112
 8689SOL    HW126966   3.898   3.545   0.018
 8689SOL    HW226967   3.885   3.612   0.166
 8690SOL     OW26968   2.006   2.234   2.697
 8690SOL    HW126969   1.932   2.188   2.747
 8690SOL    HW226970   1.973   2.261   2.606
 8691SOL     OW26971   3.428   2.366   5.386
 8691SOL    HW126972   3.374   2.402   5.309
 8691SOL    HW226973   3.374   2.300   5.437
 8692SOL     OW26974   4.361   1.637   5.262
 8692SOL    HW126975   4.274   1.597   5.291
 8692SOL    HW226976   4.383   1.605   5.170
 8693SOL     OW26977   6.358   6.703   5.874
 8693SOL    HW126978   6.355   6.689   5.973
 8693SOL    HW226979   6.306   6.785   5.850
 8694SOL     OW26980   5.204   3.392   5.296
 8694SOL    HW126981   5.109   3.422   5.298
 8694SOL    HW226982   5.264   3.469   5.318
 8695SOL     OW26983   3.693   4.573   6.570
 8695SOL    HW126984   3.675   4.623   6.485
 8695SOL    HW226985   3.611   4.523   6.597
 8696SOL     OW26986   3.135   5.579   5.541
 8696SOL    HW126987   3.132   5.676   5.562
 8696SOL    HW226988   3.075   5.529   5.603
 8697SOL     OW26989   1.911   3.681   5.409
 8697SOL    HW126990   1.895   3.779   5.397
 8697SOL    HW226991   1.991   3.668   5.468
 8698SOL     OW26992   4.993   5.654   5.951
 8698SOL    HW126993   5.029   5.705   6.030
 8698SOL    HW226994   5.018   5.702   5.867
 8699SOL     OW26995   1.632   2.679   6.747
 8699SOL    HW126996   1.541   2.661   6.785
 8699SOL    HW226997   1.701   2.668   6.819
 8700SOL     OW26998   1.180   0.299   3.633
 8700SOL    HW126999   1.249   0.287   3.704
 8700SOL    HW227000   1.100   0.242   3.654
 8701SOL     OW27001   0.920   2.270   0.151
 8701SOL    HW127002   0.993   2.321   0.105
 8701SOL    HW227003   0.866   2.332   0.208
 8702SOL     OW27004   5.510   4.660   1.205
 8702SOL    HW127005   5.426   4.668   1.152
 8702SOL    HW227006   5.527   4.744   1.256
 8703SOL     OW27007   2.386   5.802   0.583
 8703SOL    HW127008   2.441   5.750   0.648
 8703SOL    HW227009   2.443   5.870   0.538
 8704SOL     OW27010   0.783   0.589   5.017
 8704SOL    HW127011   0.794   0.652   5.094
 8704SOL    HW227012   0.687   0.563   5.008
 8705SOL     OW27013   4.331   2.505   6.765
 8705SOL    HW127014   4.323   2.406   6.777
 8705SOL    HW227015   4.241   2.547   6.768
 8706SOL     OW27016   5.101   3.559   6.118
 8706SOL    HW127017   5.068   3.633   6.177
 8706SOL    HW227018   5.052   3.474   6.140
 8707SOL     OW27019   1.941   1.853   4.925
 8707SOL    HW127020   1.912   1.944   4.895
 8707SOL    HW227021   1.896   1.783   4.870
 8708SOL     OW27022   5.746   2.858   0.724
 8708SOL    HW127023   5.749   2.765   0.761
 8708SOL    HW227024   5.831   2.877   0.676
 8709SOL     OW27025   5.935   6.956   5.525
 8709SOL    HW127026   5.949   6.923   5.432
 8709SOL    HW227027   5.940   0.032   5.527
 8710SOL     OW27028   2.232   1.443   3.352
 8710SOL    HW127029   2.283   1.478   3.430
 8710SOL    HW227030   2.163   1.378   3.384
 8711SOL     OW27031   1.419   1.395   1.550
 8711SOL    HW127032   1.320   1.394   1.538
 8711SOL    HW227033   1.449   1.487   1.576
 8712SOL     OW27034   1.379   4.217   5.657
 8712SOL    HW127035   1.446   4.260   5.597
 8712SOL    HW227036   1.294   4.269   5.655
 8713SOL     OW27037   0.430   3.635   1.372
 8713SOL    HW127038   0.367   3.587   1.432
 8713SOL    HW227039   0.388   3.647   1.282
 8714SOL     OW27040   0.035   5.629   6.305
 8714SOL    HW127041   6.983   5.693   6.311
 8714SOL    HW227042   0.021   5.555   6.371
 8715SOL     OW27043   1.903   3.512   1.831
 8715SOL    HW127044   1.998   3.544   1.830
 8715SOL    HW227045   1.875   3.492   1.737
 8716SOL     OW27046   6.484   0.211   1.968
 8716SOL    HW127047   6.445   0.120   1.976
 8716SOL    HW227048   6.559   0.221   2.033
 8717SOL     OW27049   2.439   3.569   0.280
 8717SOL    HW127050   2.399   3.533   0.196
 8717SOL    HW227051   2.538   3.552   0.279
 8718SOL     OW27052   2.562   4.926   6.336
 8718SOL    HW127053   2.598   5.001   6.391
 8718SOL    HW227054   2.535   4.961   6.246
 8719SOL     OW27055   3.241   0.934   4.945
 8719SOL    HW127056   3.231   0.858   4.880
 8719SOL    HW227057   3.200   1.016   4.906
 8720SOL     OW27058   6.893   4.939   4.644
 8720SOL    HW127059   6.859   4.892   4.725
 8720SOL    HW227060   6.820   4.994   4.603
 8721SOL     OW27061   0.326   6.905   6.696
 8721SOL    HW127062   0.292   6.928   6.604
 8721SOL    HW227063   0.258   6.850   6.744
 8722SOL     OW27064   3.649   1.043   1.077
 8722SOL    HW127065   3.584   1.116   1.056
 8722SOL    HW227066   3.600   0.961   1.105
 8723SOL     OW27067   4.111   6.860   2.323
 8723SOL    HW127068   4.094   6.910   2.408
 8723SOL    HW227069   4.186   6.795   2.337
 8724SOL     OW27070   3.987   1.169   4.090
 8724SOL    HW127071   4.073   1.141   4.047
 8724SOL    HW227072   3.962   1.103   4.161
 8725SOL     OW27073   6.625   0.002   3.743
 8725SOL    HW127074   6.608   6.928   3.731
 8725SOL    HW227075   6.541   0.047   3.773
 8726SOL     OW27076   0.119   1.047   1.131
 8726SOL    HW127077   0.065   0.997   1.064
 8726SOL    HW227078   0.213   1.011   1.132
 8727SOL     OW27079   4.680   6.706   6.173
 8727SOL    HW127080   4.635   6.667   6.093
 8727SOL    HW227081   4.680   6.640   6.248
 8728SOL     OW27082   6.151   0.130   4.293
 8728SOL    HW127083   6.097   0.123   4.377
 8728SOL    HW227084   6.199   0.044   4.277
 8729SOL     OW27085   4.796   6.208   6.268
 8729SOL    HW127086   4.746   6.273   6.211
 8729SOL    HW227087   4.772   6.115   6.240
 8730SOL     OW27088   4.452   5.436   1.255
 8730SOL    HW127089   4.443   5.522   1.305
 8730SOL    HW227090   4.530   5.441   1.193
 8731SOL     OW27091   6.820   2.118   3.674
 8731SOL    HW127092   6.835   2.055   3.598
 8731SOL    HW227093   6.851   2.075   3.759
 8732SOL     OW27094   5.938   6.472   0.249
 8732SOL    HW127095   5.893   6.496   0.164
 8732SOL    HW227096   6.019   6.416   0.229
 8733SOL     OW27097   6.312   4.744   2.835
 8733SOL    HW127098   6.363   4.705   2.911
 8733SOL    HW227099   6.277   4.671   2.776
 8734SOL     OW27100   0.279   3.898   2.202
 8734SOL    HW127101   0.300   3.981   2.151
 8734SOL    HW227102   0.339   3.824   2.172
 8735SOL     OW27103   6.839   3.094   5.202
 8735SOL    HW127104   6.938   3.101   5.184
 8735SOL    HW227105   6.817   3.140   5.288
 8736SOL     OW27106   1.108   6.067   3.874
 8736SOL    HW127107   1.031   6.025   3.923
 8736SOL    HW227108   1.099   6.047   3.776
 8737SOL     OW27109   1.612   5.855   0.187
 8737SOL    HW127110   1.678   5.923   0.221
 8737SOL    HW227111   1.658   5.796   0.121
 8738SOL     OW27112   1.509   3.011   3.670
 8738SOL    HW127113   1.460   2.938   3.718
 8738SOL    HW227114   1.603   2.982   3.652
 8739SOL     OW27115   5.547   4.262   5.372
 8739SOL    HW127116   5.546   4.162   5.376
 8739SOL    HW227117   5.640   4.294   5.353
 8740SOL     OW27118   2.784   0.611   4.925
 8740SOL    HW127119   2.783   0.671   4.845
 8740SOL    HW227120   2.856   0.640   4.988
 8741SOL     OW27121   1.283   0.826   3.010
 8741SOL    HW127122   1.301   0.758   2.939
 8741SOL    HW227123   1.214   0.890   2.977
 8742SOL     OW27124   2.886   1.673   1.865
 8742SOL    HW127125   2.815   1.658   1.935
 8742SOL    HW227126   2.962   1.610   1.882
 8743SOL     OW27127   0.430   2.397   1.578
 8743SOL    HW127128   0.508   2.454   1.553
 8743SOL    HW227129   0.346   2.439   1.545
 8744SOL     OW27130   3.353   4.250   5.723
 8744SOL    HW127131   3.294   4.172   5.706
 8744SOL    HW227132   3.419   4.259   5.649
 8745SOL     OW27133   5.991   1.183   6.200
 8745SOL    HW127134   6.006   1.238   6.118
 8745SOL    HW227135   6.017   1.236   6.281
 8746SOL     OW27136   4.733   5.379   5.749
 8746SOL    HW127137   4.797   5.406   5.678
 8746SOL    HW227138   4.639   5.397   5.719
 8747SOL     OW27139   0.554   0.479   2.435
 8747SOL    HW127140   0.478   0.531   2.475
 8747SOL    HW227141   0.627   0.470   2.502
 8748SOL     OW27142   6.257   1.814   3.755
 8748SOL    HW127143   6.205   1.868   3.689
 8748SOL    HW227144   6.354   1.835   3.748
 8749SOL     OW27145   2.624   1.059   3.815
 8749SOL    HW127146   2.688   1.004   3.761
 8749SOL    HW227147   2.610   1.147   3.772
 8750SOL     OW27148   3.707   3.665   0.314
 8750SOL    HW127149   3.801   3.638   0.334
 8750SOL    HW227150   3.644   3.595   0.346
 8751SOL     OW27151   2.068   6.307   0.463
 8751SOL    HW127152   2.089   6.400   0.431
 8751SOL    HW227153   1.979   6.307   0.510
 8752SOL     OW27154   6.334   3.094   5.581
 8752SOL    HW127155   6.257   3.144   5.619
 8752SOL    HW227156   6.376   3.038   5.652
 8753SOL     OW27157   2.692   2.525   0.793
 8753SOL    HW127158   2.604   2.544   0.750
 8753SOL    HW227159   2.745   2.609   0.798
 8754SOL     OW27160   1.630   5.241   0.089
 8754SOL    HW127161   1.641   5.334   0.054
 8754SOL    HW227162   1.663   5.236   0.183
 8755SOL     OW27163   0.325   3.015   1.477
 8755SOL    HW127164   0.272   3.089   1.519
 8755SOL    HW227165   0.269   2.970   1.407
 8756SOL     OW27166   1.619   1.635   2.129
 8756SOL    HW127167   1.630   1.588   2.217
 8756SOL    HW227168   1.584   1.727   2.144
 8757SOL     OW27169   5.050   5.938   5.448
 8757SOL    HW127170   5.016   6.007   5.512
 8757SOL    HW227171   5.057   5.978   5.357
 8758SOL     OW27172   3.594   5.694   5.101
 8758SOL    HW127173   3.650   5.721   5.179
 8758SOL    HW227174   3.585   5.594   5.099
 8759SOL     OW27175   5.935   0.449   0.758
 8759SOL    HW127176   5.949   0.423   0.853
 8759SOL    HW227177   6.023   0.453   0.711
 8760SOL     OW27178   2.476   2.571   4.382
 8760SOL    HW127179   2.550   2.514   4.420
 8760SOL    HW227180   2.515   2.639   4.320
 8761SOL     OW27181   5.248   1.484   3.003
 8761SOL    HW127182   5.279   1.559   3.062
 8761SOL    HW227183   5.326   1.425   2.981
 8762SOL     OW27184   3.044   4.988   3.363
 8762SOL    HW127185   2.997   4.942   3.288
 8762SOL    HW227186   2.983   4.994   3.442
 8763SOL     OW27187   0.679   0.362   6.684
 8763SOL    HW127188   0.612   0.299   6.722
 8763SOL    HW227189   0.644   0.402   6.599
 8764SOL     OW27190   3.016   5.099   5.110
 8764SOL    HW127191   3.095   5.130   5.056
 8764SOL    HW227192   3.013   4.999   5.111
 8765SOL     OW27193   4.223   6.595   4.586
 8765SOL    HW127194   4.127   6.606   4.559
 8765SOL    HW227195   4.263   6.684   4.607
 8766SOL     OW27196   4.647   6.374   6.110
 8766SOL    HW127197   4.569   6.312   6.117
 8766SOL    HW227198   4.650   6.415   6.019
 8767SOL     OW27199   1.971   0.894   3.817
 8767SOL    HW127200   1.888   0.876   3.764
 8767SOL    HW227201   2.046   0.915   3.755
 8768SOL     OW27202   6.663   1.640   6.688
 8768SOL    HW127203   6.573   1.665   6.723
 8768SOL    HW227204   6.724   1.619   6.764
 8769SOL     OW27205   6.052   0.038   0.100
 8769SOL    HW127206   6.105   6.988   0.140
 8769SOL    HW227207   5.994   0.079   0.170
 8770SOL     OW27208   5.148   2.591   0.076
 8770SOL    HW127209   5.203   2.511   0.100
 8770SOL    HW227210   5.059   2.585   0.121
 8771SOL     OW27211   0.231   2.896   0.075
 8771SOL    HW127212   0.246   2.854   7.010
 8771SOL    HW227213   0.296   2.860   0.141
 8772SOL     OW27214   0.016   0.182   4.107
 8772SOL    HW127215   0.075   0.102   4.112
 8772SOL    HW227216   7.020   0.215   4.200
 8773SOL     OW27217   0.310   0.842   4.416
 8773SOL    HW127218   0.348   0.846   4.508
 8773SOL    HW227219   0.374   0.795   4.355
 8774SOL     OW27220   0.816   1.314   0.495
 8774SOL    HW127221   0.747   1.345   0.429
 8774SOL    HW227222   0.907   1.324   0.454
 8775SOL     OW27223   5.686   2.910   3.945
 8775SOL    HW127224   5.764   2.867   3.990
 8775SOL    HW227225   5.678   3.005   3.977
 8776SOL     OW27226   4.410   2.985   0.512
 8776SOL    HW127227   4.481   2.975   0.582
 8776SOL    HW227228   4.330   3.029   0.552
 8777SOL     OW27229   6.682   2.346   2.748
 8777SOL    HW127230   6.632   2.411   2.690
 8777SOL    HW227231   6.767   2.389   2.779
 8778SOL     OW27232   3.196   5.094   0.048
 8778SOL    HW127233   3.247   5.166   7.023
 8778SOL    HW227234   3.260   5.039   0.101
 8779SOL     OW27235   4.361   4.793   3.367
 8779SOL    HW127236   4.263   4.814   3.376
 8779SOL    HW227237   4.382   4.710   3.420
 8780SOL     OW27238   0.082   4.714   3.855
 8780SOL    HW127239   0.099   4.785   3.924
 8780SOL    HW227240   0.166   4.664   3.838
 8781SOL     OW27241   3.286   0.896   2.010
 8781SOL    HW127242   3.350   0.850   1.947
 8781SOL    HW227243   3.262   0.985   1.972
 8782SOL     OW27244   5.399   2.283   0.995
 8782SOL    HW127245   5.445   2.372   0.995
 8782SOL    HW227246   5.334   2.278   0.920
 8783SOL     OW27247   5.168   3.453   4.970
 8783SOL    HW127248   5.098   3.434   5.039
 8783SOL    HW227249   5.255   3.415   5.001
 8784SOL     OW27250   5.304   0.953   1.057
 8784SOL    HW127251   5.402   0.950   1.037
 8784SOL    HW227252   5.253   0.974   0.974
 8785SOL     OW27253   0.213   5.566   5.024
 8785SOL    HW127254   0.173   5.646   4.980
 8785SOL    HW227255   0.155   5.486   5.007
 8786SOL     OW27256   4.911   1.560   2.409
 8786SOL    HW127257   4.814   1.583   2.412
 8786SOL    HW227258   4.923   1.463   2.428
 8787SOL     OW27259   3.999   5.880   0.626
 8787SOL    HW127260   4.045   5.853   0.710
 8787SOL    HW227261   4.041   5.833   0.548
 8788SOL     OW27262   0.577   0.117   3.862
 8788SOL    HW127263   0.482   0.110   3.830
 8788SOL    HW227264   0.578   0.160   3.952
 8789SOL     OW27265   0.412   2.581   6.276
 8789SOL    HW127266   0.360   2.497   6.262
 8789SOL    HW227267   0.352   2.654   6.308
 8790SOL     OW27268   4.799   3.137   5.452
 8790SOL    HW127269   4.840   3.222   5.486
 8790SOL    HW227270   4.700   3.151   5.440
 8791SOL     OW27271   3.375   6.287   4.625
 8791SOL    HW127272   3.397   6.335   4.710
 8791SOL    HW227273   3.454   6.232   4.596
 8792SOL     OW27274   5.342   4.535   1.646
 8792SOL    HW127275   5.403   4.584   1.583
 8792SOL    HW227276   5.283   4.600   1.694
 8793SOL     OW27277   0.141   6.049   4.845
 8793SOL    HW127278   0.217   6.097   4.801
 8793SOL    HW227279   0.058   6.106   4.839
 8794SOL     OW27280   6.891   1.170   2.617
 8794SOL    HW127281   6.968   1.181   2.681
 8794SOL    HW227282   6.864   1.074   2.614
 8795SOL     OW27283   1.753   6.241   6.691
 8795SOL    HW127284   1.708   6.295   6.762
 8795SOL    HW227285   1.776   6.301   6.614
 8796SOL     OW27286   6.205   3.522   4.088
 8796SOL    HW127287   6.197   3.516   3.989
 8796SOL    HW227288   6.139   3.588   4.123
 8797SOL     OW27289   4.656   6.229   3.569
 8797SOL    HW127290   4.702   6.276   3.644
 8797SOL    HW227291   4.695   6.259   3.482
 8798SOL     OW27292   3.112   0.111   5.784
 8798SOL    HW127293   3.042   0.181   5.779
 8798SOL    HW227294   3.156   0.112   5.874
 8799SOL     OW27295   1.176   5.470   1.854
 8799SOL    HW127296   1.199   5.459   1.758
 8799SOL    HW227297   1.100   5.408   1.877
 8800SOL     OW27298   6.921   5.563   4.981
 8800SOL    HW127299   6.951   5.494   4.915
 8800SOL    HW227300   6.822   5.557   4.993
 8801SOL     OW27301   6.073   3.262   5.626
 8801SOL    HW127302   6.010   3.213   5.567
 8801SOL    HW227303   6.021   3.307   5.700
 8802SOL     OW27304   1.439   6.421   6.700
 8802SOL    HW127305   1.488   6.404   6.615
 8802SOL    HW227306   1.453   6.516   6.728
 8803SOL     OW27307   6.814   6.533   5.924
 8803SOL    HW127308   6.743   6.510   5.857
 8803SOL    HW227309   6.853   6.448   5.961
 8804SOL     OW27310   1.847   6.051   2.845
 8804SOL    HW127311   1.757   6.042   2.804
 8804SOL    HW227312   1.898   5.965   2.835
 8805SOL     OW27313   5.413   4.642   3.524
 8805SOL    HW127314   5.503   4.669   3.490
 8805SOL    HW227315   5.393   4.548   3.495
 8806SOL     OW27316   1.994   0.813   1.311
 8806SOL    HW127317   1.895   0.815   1.327
 8806SOL    HW227318   2.040   0.863   1.384
 8807SOL     OW27319   5.382   3.077   1.624
 8807SOL    HW127320   5.432   3.135   1.560
 8807SOL    HW227321   5.445   3.014   1.670
 8808SOL     OW27322   1.677   2.110   6.689
 8808SOL    HW127323   1.645   2.190   6.739
 8808SOL    HW227324   1.708   2.040   6.754
 8809SOL     OW27325   0.494   3.681   3.314
 8809SOL    HW127326   0.480   3.600   3.257
 8809SOL    HW227327   0.551   3.747   3.266
 8810SOL     OW27328   0.718   1.016   5.433
 8810SOL    HW127329   0.727   1.068   5.518
 8810SOL    HW227330   0.745   1.075   5.356
 8811SOL     OW27331   4.174   5.287   2.666
 8811SOL    HW127332   4.258   5.303   2.718
 8811SOL    HW227333   4.178   5.198   2.621
 8812SOL     OW27334   4.803   1.131   6.247
 8812SOL    HW127335   4.765   1.218   6.217
 8812SOL    HW227336   4.877   1.104   6.185
 8813SOL     OW27337   2.169   3.966   3.343
 8813SOL    HW127338   2.208   3.965   3.435
 8813SOL    HW227339   2.198   4.049   3.295
 8814SOL     OW27340   4.889   0.421   5.551
 8814SOL    HW127341   4.912   0.502   5.496
 8814SOL    HW227342   4.863   0.346   5.490
 8815SOL     OW27343   5.556   0.778   0.657
 8815SOL    HW127344   5.528   0.786   0.561
 8815SOL    HW227345   5.486   0.819   0.715
 8816SOL     OW27346   0.788   6.094   4.557
 8816SOL    HW127347   0.756   6.040   4.635
 8816SOL    HW227348   0.875   6.056   4.524
 8817SOL     OW27349   1.488   2.710   3.675
 8817SOL    HW127350   1.577   2.753   3.692
 8817SOL    HW227351   1.483   2.623   3.724
 8818SOL     OW27352   0.675   0.139   5.733
 8818SOL    HW127353   0.651   0.064   5.672
 8818SOL    HW227354   0.653   0.113   5.827
 8819SOL     OW27355   5.390   4.710   6.691
 8819SOL    HW127356   5.455   4.777   6.653
 8819SOL    HW227357   5.297   4.735   6.665
 8820SOL     OW27358   3.363   0.460   5.257
 8820SOL    HW127359   3.306   0.458   5.339
 8820SOL    HW227360   3.420   0.542   5.257
 8821SOL     OW27361   6.940   4.295   6.369
 8821SOL    HW127362   6.865   4.355   6.393
 8821SOL    HW227363   6.978   4.323   6.280
 8822SOL     OW27364   6.500   0.384   4.772
 8822SOL    HW127365   6.533   0.337   4.691
 8822SOL    HW227366   6.538   0.340   4.854
 8823SOL     OW27367   3.813   1.178   2.983
 8823SOL    HW127368   3.757   1.260   2.988
 8823SOL    HW227369   3.890   1.186   3.047
 8824SOL     OW27370   1.715   0.740   2.413
 8824SOL    HW127371   1.720   0.781   2.504
 8824SOL    HW227372   1.691   0.811   2.346
 8825SOL     OW27373   0.441   6.630   0.213
 8825SOL    HW127374   0.399   6.586   0.133
 8825SOL    HW227375   0.422   6.575   0.294
 8826SOL     OW27376   1.159   3.992   0.819
 8826SOL    HW127377   1.191   3.931   0.892
 8826SOL    HW227378   1.237   4.030   0.771
 8827SOL     OW27379   4.611   6.898   2.954
 8827SOL    HW127380   4.559   6.965   2.900
 8827SOL    HW227381   4.613   6.927   3.049
 8828SOL     OW27382   4.677   2.241   6.111
 8828SOL    HW127383   4.704   2.336   6.094
 8828SOL    HW227384   4.730   2.180   6.053
 8829SOL     OW27385   6.912   1.384   1.816
 8829SOL    HW127386   6.824   1.340   1.797
 8829SOL    HW227387   6.985   1.316   1.810
 8830SOL     OW27388   2.786   0.601   3.034
 8830SOL    HW127389   2.857   0.616   3.103
 8830SOL    HW227390   2.806   0.657   2.953
 8831SOL     OW27391   0.539   2.560   2.012
 8831SOL    HW127392   0.524   2.658   2.020
 8831SOL    HW227393   0.621   2.543   1.958
 8832SOL     OW27394   5.346   0.815   5.082
 8832SOL    HW127395   5.284   0.866   5.141
 8832SOL    HW227396   5.357   0.863   4.995
 8833SOL     OW27397   5.184   2.835   1.734
 8833SOL    HW127398   5.277   2.868   1.752
 8833SOL    HW227399   5.119   2.910   1.750
 8834SOL     OW27400   5.894   3.845   5.468
 8834SOL    HW127401   5.980   3.881   5.506
 8834SOL    HW227402   5.890   3.747   5.484
 8835SOL     OW27403   0.031   0.385   5.808
 8835SOL    HW127404   6.966   0.381   5.855
 8835SOL    HW227405   0.075   0.472   5.829
 8836SOL     OW27406   4.873   1.304   1.804
 8836SOL    HW127407   4.873   1.321   1.706
 8836SOL    HW227408   4.859   1.206   1.821
 8837SOL     OW27409   3.408   6.301   0.377
 8837SOL    HW127410   3.365   6.320   0.465
 8837SOL    HW227411   3.503   6.273   0.392
 8838SOL     OW27412   1.583   3.814   3.752
 8838SOL    HW127413   1.600   3.732   3.806
 8838SOL    HW227414   1.669   3.866   3.744
 8839SOL     OW27415   5.614   5.639   2.598
 8839SOL    HW127416   5.654   5.728   2.621
 8839SOL    HW227417   5.515   5.651   2.583
 8840SOL     OW27418   0.049   0.207   1.585
 8840SOL    HW127419   7.008   0.196   1.510
 8840SOL    HW227420   0.037   0.297   1.626
 8841SOL     OW27421   3.534   0.613   0.901
 8841SOL    HW127422   3.516   0.542   0.833
 8841SOL    HW227423   3.450   0.632   0.952
 8842SOL     OW27424   4.044   3.916   4.394
 8842SOL    HW127425   4.086   3.993   4.345
 8842SOL    HW227426   3.947   3.910   4.370
 8843SOL     OW27427   2.845   6.317   6.613
 8843SOL    HW127428   2.753   6.282   6.633
 8843SOL    HW227429   2.896   6.249   6.561
 8844SOL     OW27430   3.654   2.631   6.375
 8844SOL    HW127431   3.705   2.676   6.302
 8844SOL    HW227432   3.698   2.649   6.463
 8845SOL     OW27433   6.678   4.285   2.136
 8845SOL    HW127434   6.608   4.223   2.101
 8845SOL    HW227435   6.741   4.310   2.063
 8846SOL     OW27436   5.433   4.514   4.772
 8846SOL    HW127437   5.464   4.426   4.807
 8846SOL    HW227438   5.378   4.499   4.689
 8847SOL     OW27439   1.685   1.914   3.681
 8847SOL    HW127440   1.724   1.837   3.632
 8847SOL    HW227441   1.673   1.991   3.618
 8848SOL     OW27442   5.393   1.284   0.139
 8848SOL    HW127443   5.318   1.337   0.099
 8848SOL    HW227444   5.447   1.343   0.199
 8849SOL     OW27445   2.800   4.839   4.340
 8849SOL    HW127446   2.896   4.832   4.367
 8849SOL    HW227447   2.745   4.858   4.422
 8850SOL     OW27448   3.356   1.090   1.215
 8850SOL    HW127449   3.406   1.003   1.223
 8850SOL    HW227450   3.261   1.071   1.187
 8851SOL     OW27451   6.614   4.547   2.147
 8851SOL    HW127452   6.589   4.451   2.132
 8851SOL    HW227453   6.712   4.558   2.130
 8852SOL     OW27454   4.548   2.483   4.834
 8852SOL    HW127455   4.498   2.402   4.865
 8852SOL    HW227456   4.629   2.455   4.782
 8853SOL     OW27457   4.148   1.293   5.716
 8853SOL    HW127458   4.222   1.287   5.649
 8853SOL    HW227459   4.081   1.360   5.687
 8854SOL     OW27460   1.130   1.818   6.913
 8854SOL    HW127461   1.047   1.765   6.930
 8854SOL    HW227462   1.109   1.916   6.919
 8855SOL     OW27463   6.235   5.130   0.238
 8855SOL    HW127464   6.284   5.043   0.242
 8855SOL    HW227465   6.140   5.115   0.267
 8856SOL     OW27466   5.673   1.170   4.215
 8856SOL    HW127467   5.614   1.093   4.192
 8856SOL    HW227468   5.723   1.150   4.299
 8857SOL     OW27469   6.985   2.580   4.596
 8857SOL    HW127470   0.037   2.591   4.532
 8857SOL    HW227471   6.987   2.655   4.663
 8858SOL     OW27472   0.157   4.288   6.723
 8858SOL    HW127473   0.192   4.362   6.780
 8858SOL    HW227474   0.231   4.224   6.702
 8859SOL     OW27475   2.921   5.340   5.050
 8859SOL    HW127476   2.979   5.379   4.979
 8859SOL    HW227477   2.947   5.245   5.066
 8860SOL     OW27478   1.316   2.690   1.496
 8860SOL    HW127479   1.322   2.766   1.432
 8860SOL    HW227480   1.321   2.604   1.447
 8861SOL     OW27481   2.874   2.792   0.564
 8861SOL    HW127482   2.827   2.878   0.545
 8861SOL    HW227483   2.862   2.768   0.660
 8862SOL     OW27484   6.848   2.144   4.442
 8862SOL    HW127485   6.907   2.198   4.502
 8862SOL    HW227486   6.895   2.060   4.416
 8863SOL     OW27487   1.441   5.388   5.060
 8863SOL    HW127488   1.493   5.472   5.043
 8863SOL    HW227489   1.382   5.368   4.982
 8864SOL     OW27490   0.743   2.867   6.169
 8864SOL    HW127491   0.757   2.816   6.084
 8864SOL    HW227492   0.685   2.947   6.150
 8865SOL     OW27493   2.327   2.059   6.085
 8865SOL    HW127494   2.421   2.027   6.075
 8865SOL    HW227495   2.313   2.093   6.178
 8866SOL     OW27496   3.944   6.877   5.449
 8866SOL    HW127497   3.995   6.860   5.533
 8866SOL    HW227498   3.932   6.792   5.399
 8867SOL     OW27499   0.031   2.656   3.713
 8867SOL    HW127500   0.015   2.630   3.618
 8867SOL    HW227501   0.123   2.693   3.722
 8868SOL     OW27502   4.319   3.816   1.025
 8868SOL    HW127503   4.383   3.863   0.965
 8868SOL    HW227504   4.225   3.839   0.998
 8869SOL     OW27505   5.364   2.686   4.252
 8869SOL    HW127506   5.270   2.659   4.273
 8869SOL    HW227507   5.363   2.771   4.199
 8870SOL     OW27508   4.033   1.462   0.824
 8870SOL    HW127509   3.992   1.375   0.795
 8870SOL    HW227510   3.960   1.529   0.840
 8871SOL     OW27511   1.678   1.936   4.414
 8871SOL    HW127512   1.656   1.849   4.460
 8871SOL    HW227513   1.778   1.944   4.405
 8872SOL     OW27514   1.924   3.239   3.654
 8872SOL    HW127515   1.921   3.139   3.647
 8872SOL    HW227516   1.835   3.272   3.686
 8873SOL     OW27517   6.796   6.378   4.716
 8873SOL    HW127518   6.699   6.379   4.741
 8873SOL    HW227519   6.843   6.454   4.762
 8874SOL     OW27520   1.890   1.253   0.339
 8874SOL    HW127521   1.987   1.234   0.323
 8874SOL    HW227522   1.879   1.312   0.418
 8875SOL     OW27523   1.817   1.834   4.051
 8875SOL    HW127524   1.744   1.893   4.018
 8875SOL    HW227525   1.789   1.738   4.042
 8876SOL     OW27526   1.645   6.955   4.104
 8876SOL    HW127527   1.708   6.888   4.143
 8876SOL    HW227528   1.688   7.000   4.026
 8877SOL     OW27529   2.531   6.283   5.029
 8877SOL    HW127530   2.473   6.236   4.962
 8877SOL    HW227531   2.627   6.273   5.003
 8878SOL     OW27532   5.948   4.679   7.001
 8878SOL    HW127533   6.044   4.704   6.989
 8878SOL    HW227534   5.930   4.595   6.949
 8879SOL     OW27535   4.746   5.673   4.575
 8879SOL    HW127536   4.666   5.687   4.634
 8879SOL    HW227537   4.747   5.744   4.504
 8880SOL     OW27538   0.194   5.546   5.356
 8880SOL    HW127539   0.273   5.603   5.380
 8880SOL    HW227540   0.162   5.572   5.265
 8881SOL     OW27541   0.073   0.543   2.124
 8881SOL    HW127542   7.021   0.574   2.182
 8881SOL    HW227543   0.153   0.602   2.139
 8882SOL     OW27544   5.641   1.768   6.696
 8882SOL    HW127545   5.700   1.773   6.776
 8882SOL    HW227546   5.585   1.685   6.700
 8883SOL     OW27547   6.319   1.224   5.289
 8883SOL    HW127548   6.264   1.307   5.282
 8883SOL    HW227549   6.260   1.145   5.303
 8884SOL     OW27550   6.431   0.890   5.768
 8884SOL    HW127551   6.512   0.832   5.782
 8884SOL    HW227552   6.349   0.838   5.791
 8885SOL     OW27553   4.885   3.705   1.552
 8885SOL    HW127554   4.796   3.662   1.565
 8885SOL    HW227555   4.945   3.681   1.628
 8886SOL     OW27556   3.222   6.996   6.806
 8886SOL    HW127557   3.124   7.015   6.810
 8886SOL    HW227558   3.268   0.044   6.755
 8887SOL     OW27559   2.355   0.523   1.211
 8887SOL    HW127560   2.349   0.560   1.118
 8887SOL    HW227561   2.264   0.497   1.242
 8888SOL     OW27562   2.877   1.259   3.042
 8888SOL    HW127563   2.929   1.173   3.039
 8888SOL    HW227564   2.791   1.245   3.091
 8889SOL     OW27565   3.860   0.151   5.271
 8889SOL    HW127566   3.940   0.210   5.255
 8889SOL    HW227567   3.813   0.135   5.184
 8890SOL     OW27568   0.989   4.920   4.383
 8890SOL    HW127569   0.923   4.987   4.417
 8890SOL    HW227570   0.949   4.869   4.307
 8891SOL     OW27571   3.577   1.812   6.969
 8891SOL    HW127572   3.597   1.851   0.035
 8891SOL    HW227573   3.547   1.885   6.908
 8892SOL     OW27574   0.873   6.360   2.710
 8892SOL    HW127575   0.879   6.382   2.613
 8892SOL    HW227576   0.809   6.423   2.755
 8893SOL     OW27577   0.775   1.445   1.667
 8893SOL    HW127578   0.865   1.480   1.693
 8893SOL    HW227579   0.775   1.422   1.570
 8894SOL     OW27580   3.940   3.458   6.615
 8894SOL    HW127581   3.955   3.557   6.619
 8894SOL    HW227582   3.860   3.438   6.559
 8895SOL     OW27583   0.605   6.670   1.905
 8895SOL    HW127584   0.698   6.708   1.903
 8895SOL    HW227585   0.541   6.738   1.870
 8896SOL     OW27586   1.842   4.214   5.000
 8896SOL    HW127587   1.822   4.131   5.053
 8896SOL    HW227588   1.890   4.189   4.916
 8897SOL     OW27589   1.353   2.204   1.469
 8897SOL    HW127590   1.431   2.147   1.493
 8897SOL    HW227591   1.377   2.264   1.393
 8898SOL     OW27592   6.261   3.561   4.920
 8898SOL    HW127593   6.231   3.564   5.016
 8898SOL    HW227594   6.358   3.539   4.917
 8899SOL     OW27595   2.340   4.234   0.265
 8899SOL    HW127596   2.305   4.141   0.269
 8899SOL    HW227597   2.265   4.299   0.275
 8900SOL     OW27598   5.758   1.944   2.988
 8900SOL    HW127599   5.678   1.916   3.041
 8900SOL    HW227600   5.833   1.878   3.002
 8901SOL     OW27601   1.915   6.921   2.936
 8901SOL    HW127602   1.911   6.821   2.936
 8901SOL    HW227603   1.988   6.951   2.874
 8902SOL     OW27604   1.961   5.294   6.142
 8902SOL    HW127605   1.911   5.370   6.099
 8902SOL    HW227606   1.904   5.253   6.213
 8903SOL     OW27607   1.761   1.773   3.454
 8903SOL    HW127608   1.761   1.855   3.396
 8903SOL    HW227609   1.803   1.697   3.404
 8904SOL     OW27610   1.384   5.861   3.368
 8904SOL    HW127611   1.410   5.839   3.274
 8904SOL    HW227612   1.424   5.949   3.394
 8905SOL     OW27613   2.447   4.163   5.360
 8905SOL    HW127614   2.403   4.095   5.301
 8905SOL    HW227615   2.544   4.141   5.370
 8906SOL     OW27616   1.597   5.019   5.327
 8906SOL    HW127617   1.560   4.976   5.409
 8906SOL    HW227618   1.572   4.964   5.247
 8907SOL     OW27619   3.422   2.703   5.511
 8907SOL    HW127620   3.357   2.724   5.438
 8907SOL    HW227621   3.514   2.733   5.483
 8908SOL     OW27622   0.171   2.544   1.525
 8908SOL    HW127623   0.093   2.524   1.465
 8908SOL    HW227624   0.168   2.641   1.551
 8909SOL     OW27625   2.963   0.343   5.871
 8909SOL    HW127626   2.908   0.364   5.791
 8909SOL    HW227627   2.942   0.408   5.944
 8910SOL     OW27628   3.800   4.206   6.811
 8910SOL    HW127629   3.812   4.272   6.737
 8910SOL    HW227630   3.875   4.140   6.809
 8911SOL     OW27631   3.561   2.022   4.166
 8911SOL    HW127632   3.482   2.080   4.144
 8911SOL    HW227633   3.632   2.077   4.210
 8912SOL     OW27634   4.897   2.745   5.906
 8912SOL    HW127635   4.800   2.722   5.892
 8912SOL    HW227636   4.910   2.777   6.000
 8913SOL     OW27637   4.891   3.652   0.852
 8913SOL    HW127638   4.825   3.647   0.776
 8913SOL    HW227639   4.969   3.707   0.824
 8914SOL     OW27640   4.078   1.755   4.397
 8914SOL    HW127641   4.144   1.732   4.326
 8914SOL    HW227642   3.989   1.775   4.354
 8915SOL     OW27643   1.337   5.208   1.732
 8915SOL    HW127644   1.399   5.143   1.689
 8915SOL    HW227645   1.390   5.270   1.791
 8916SOL     OW27646   6.659   4.016   1.675
 8916SOL    HW127647   6.748   4.061   1.665
 8916SOL    HW227648   6.605   4.030   1.592
 8917SOL     OW27649   6.031   5.781   6.124
 8917SOL    HW127650   6.063   5.818   6.211
 8917SOL    HW227651   6.059   5.685   6.116
 8918SOL     OW27652   4.462   4.632   6.389
 8918SOL    HW127653   4.551   4.678   6.386
 8918SOL    HW227654   4.392   4.696   6.419
 8919SOL     OW27655   2.385   4.129   1.103
 8919SOL    HW127656   2.428   4.150   1.015
 8919SOL    HW227657   2.445   4.068   1.155
 8920SOL     OW27658   6.560   5.801   5.863
 8920SOL    HW127659   6.477   5.769   5.909
 8920SOL    HW227660   6.565   5.759   5.772
 8921SOL     OW27661   1.546   6.800   3.300
 8921SOL    HW127662   1.496   6.727   3.347
 8921SOL    HW227663   1.601   6.851   3.366
 8922SOL     OW27664   6.167   4.124   0.058
 8922SOL    HW127665   6.225   4.048   0.031
 8922SOL    HW227666   6.077   4.089   0.086
 8923SOL     OW27667   1.484   4.439   5.382
 8923SOL    HW127668   1.541   4.361   5.358
 8923SOL    HW227669   1.530   4.524   5.357
 8924SOL     OW27670   2.689   5.897   5.362
 8924SOL    HW127671   2.630   5.976   5.382
 8924SOL    HW227672   2.746   5.918   5.283
 8925SOL     OW27673   6.133   6.778   2.196
 8925SOL    HW127674   6.106   6.747   2.105
 8925SOL    HW227675   6.077   6.857   2.221
 8926SOL     OW27676   5.910   1.604   0.435
 8926SOL    HW127677   5.818   1.616   0.474
 8926SOL    HW227678   5.926   1.507   0.417
 8927SOL     OW27679   2.469   1.713   5.398
 8927SOL    HW127680   2.484   1.674   5.489
 8927SOL    HW227681   2.547   1.771   5.374
 8928SOL     OW27682   0.145   0.225   5.213
 8928SOL    HW127683   0.086   0.258   5.288
 8928SOL    HW227684   0.239   0.217   5.246
 8929SOL     OW27685   5.747   3.781   4.426
 8929SOL    HW127686   5.677   3.844   4.393
 8929SOL    HW227687   5.763   3.796   4.523
 8930SOL     OW27688   0.836   4.715   4.863
 8930SOL    HW127689   0.777   4.635   4.861
 8930SOL    HW227690   0.900   4.708   4.940
 8931SOL     OW27691   5.582   0.951   0.987
 8931SOL    HW127692   5.661   0.991   0.940
 8931SOL    HW227693   5.588   0.851   0.984
 8932SOL     OW27694   6.681   0.305   6.897
 8932SOL    HW127695   6.640   0.290   6.986
 8932SOL    HW227696   6.642   0.387   6.855
 8933SOL     OW27697   1.907   6.665   5.521
 8933SOL    HW127698   1.967   6.701   5.449
 8933SOL    HW227699   1.898   6.733   5.593
 8934SOL     OW27700   4.523   6.664   3.056
 8934SOL    HW127701   4.535   6.697   3.150
 8934SOL    HW227702   4.568   6.726   2.993
 8935SOL     OW27703   5.495   2.660   3.427
 8935SOL    HW127704   5.560   2.628   3.358
 8935SOL    HW227705   5.403   2.658   3.389
 8936SOL     OW27706   1.851   4.785   2.138
 8936SOL    HW127707   1.894   4.737   2.215
 8936SOL    HW227708   1.753   4.767   2.138
 8937SOL     OW27709   5.017   6.837   5.405
 8937SOL    HW127710   4.988   6.927   5.438
 8937SOL    HW227711   5.063   6.788   5.479
 8938SOL     OW27712   5.508   6.980   1.614
 8938SOL    HW127713   5.409   6.971   1.627
 8938SOL    HW227714   5.527   7.001   1.518
 8939SOL     OW27715   0.063   3.047   3.674
 8939SOL    HW127716   0.089   2.982   3.603
 8939SOL    HW227717   0.085   3.009   3.764
 8940SOL     OW27718   6.458   2.801   0.899
 8940SOL    HW127719   6.442   2.712   0.943
 8940SOL    HW227720   6.371   2.839   0.870
 8941SOL     OW27721   4.326   2.408   1.848
 8941SOL    HW127722   4.390   2.463   1.902
 8941SOL    HW227723   4.368   2.320   1.826
 8942SOL     OW27724   5.797   4.059   4.570
 8942SOL    HW127725   5.699   4.065   4.593
 8942SOL    HW227726   5.811   4.092   4.477
 8943SOL     OW27727   4.764   3.906   0.648
 8943SOL    HW127728   4.771   3.929   0.745
 8943SOL    HW227729   4.668   3.901   0.621
 8944SOL     OW27730   5.743   5.548   5.113
 8944SOL    HW127731   5.753   5.448   5.114
 8944SOL    HW227732   5.691   5.575   5.032
 8945SOL     OW27733   5.314   3.959   3.356
 8945SOL    HW127734   5.269   3.873   3.335
 8945SOL    HW227735   5.283   4.030   3.292
 8946SOL     OW27736   4.644   0.937   5.424
 8946SOL    HW127737   4.685   1.016   5.379
 8946SOL    HW227738   4.683   0.927   5.515
 8947SOL     OW27739   2.439   5.249   6.181
 8947SOL    HW127740   2.385   5.267   6.264
 8947SOL    HW227741   2.457   5.336   6.135
 8948SOL     OW27742   5.341   1.116   2.806
 8948SOL    HW127743   5.358   1.022   2.778
 8948SOL    HW227744   5.297   1.166   2.732
 8949SOL     OW27745   3.872   6.226   0.925
 8949SOL    HW127746   3.787   6.277   0.911
 8949SOL    HW227747   3.853   6.143   0.977
 8950SOL     OW27748   3.698   3.373   0.827
 8950SOL    HW127749   3.767   3.445   0.834
 8950SOL    HW227750   3.741   3.289   0.793
 8951SOL     OW27751   1.827   0.953   4.319
 8951SOL    HW127752   1.743   1.007   4.323
 8951SOL    HW227753   1.848   0.918   4.411
 8952SOL     OW27754   2.051   4.731   4.125
 8952SOL    HW127755   2.103   4.800   4.074
 8952SOL    HW227756   2.019   4.661   4.062
 8953SOL     OW27757   1.291   4.941   0.993
 8953SOL    HW127758   1.358   4.900   1.055
 8953SOL    HW227759   1.225   4.995   1.045
 8954SOL     OW27760   2.717   4.321   5.986
 8954SOL    HW127761   2.665   4.244   5.949
 8954SOL    HW227762   2.726   4.392   5.916
 8955SOL     OW27763   5.197   2.318   4.692
 8955SOL    HW127764   5.230   2.382   4.762
 8955SOL    HW227765   5.131   2.363   4.633
 8956SOL     OW27766   0.778   6.030   0.266
 8956SOL    HW127767   0.685   6.057   0.242
 8956SOL    HW227768   0.842   6.062   0.197
 8957SOL     OW27769   0.055   6.324   2.890
 8957SOL    HW127770   7.009   6.296   2.955
 8957SOL    HW227771   0.020   6.396   2.831
 8958SOL     OW27772   2.002   3.051   5.013
 8958SOL    HW127773   1.928   2.988   4.991
 8958SOL    HW227774   1.976   3.144   4.986
 8959SOL     OW27775   6.494   2.655   2.867
 8959SOL    HW127776   6.494   2.742   2.916
 8959SOL    HW227777   6.401   2.633   2.838
 8960SOL     OW27778   5.353   4.501   3.141
 8960SOL    HW127779   5.263   4.535   3.166
 8960SOL    HW227780   5.423   4.553   3.191
 8961SOL     OW27781   2.080   1.480   4.887
 8961SOL    HW127782   2.047   1.453   4.978
 8961SOL    HW227783   2.168   1.527   4.896
 8962SOL     OW27784   6.608   5.564   2.039
 8962SOL    HW127785   6.534   5.616   2.081
 8962SOL    HW227786   6.579   5.530   1.950
 8963SOL     OW27787   4.791   6.695   5.623
 8963SOL    HW127788   4.710   6.727   5.672
 8963SOL    HW227789   4.873   6.737   5.662
 8964SOL     OW27790   1.565   2.911   4.755
 8964SOL    HW127791   1.553   3.009   4.774
 8964SOL    HW227792   1.633   2.873   4.817
 8965SOL     OW27793   3.988   5.596   6.268
 8965SOL    HW127794   3.958   5.669   6.208
 8965SOL    HW227795   3.908   5.549   6.306
 8966SOL     OW27796   4.283   6.138   4.649
 8966SOL    HW127797   4.205   6.200   4.655
 8966SOL    HW227798   4.336   6.159   4.567
 8967SOL     OW27799   3.103   6.870   3.490
 8967SOL    HW127800   3.140   6.898   3.578
 8967SOL    HW227801   3.052   6.784   3.501
 8968SOL     OW27802   3.462   5.018   2.346
 8968SOL    HW127803   3.394   5.065   2.289
 8968SOL    HW227804   3.526   4.968   2.286
 8969SOL     OW27805   1.163   1.040   2.847
 8969SOL    HW127806   1.146   0.968   2.779
 8969SOL    HW227807   1.251   1.084   2.827
 8970SOL     OW27808   1.875   6.954   3.861
 8970SOL    HW127809   1.845   6.862   3.886
 8970SOL    HW227810   1.967   6.950   3.822
 8971SOL     OW27811   3.225   4.956   0.406
 8971SOL    HW127812   3.321   4.978   0.391
 8971SOL    HW227813   3.207   4.947   0.504
 8972SOL     OW27814   6.120   3.526   6.828
 8972SOL    HW127815   6.219   3.521   6.814
 8972SOL    HW227816   6.079   3.583   6.756
 8973SOL     OW27817   1.676   2.554   3.415
 8973SOL    HW127818   1.773   2.534   3.431
 8973SOL    HW227819   1.664   2.653   3.406
 8974SOL     OW27820   2.455   4.467   4.799
 8974SOL    HW127821   2.518   4.390   4.808
 8974SOL    HW227822   2.494   4.548   4.842
 8975SOL     OW27823   0.399   5.489   5.934
 8975SOL    HW127824   0.325   5.467   5.998
 8975SOL    HW227825   0.442   5.404   5.904
 8976SOL     OW27826   6.042   0.299   2.690
 8976SOL    HW127827   6.019   0.264   2.781
 8976SOL    HW227828   6.142   0.303   2.681
 8977SOL     OW27829   6.245   4.634   6.255
 8977SOL    HW127830   6.186   4.602   6.181
 8977SOL    HW227831   6.340   4.611   6.235
 8978SOL     OW27832   6.251   5.896   6.812
 8978SOL    HW127833   6.334   5.898   6.868
 8978SOL    HW227834   6.262   5.958   6.734
 8979SOL     OW27835   1.518   5.042   4.923
 8979SOL    HW127836   1.479   5.007   4.838
 8979SOL    HW227837   1.617   5.056   4.912
 8980SOL     OW27838   3.499   0.484   6.786
 8980SOL    HW127839   3.409   0.442   6.795
 8980SOL    HW227840   3.569   0.413   6.788
 8981SOL     OW27841   4.706   3.578   6.324
 8981SOL    HW127842   4.665   3.586   6.233
 8981SOL    HW227843   4.727   3.482   6.344
 8982SOL     OW27844   0.441   1.815   2.038
 8982SOL    HW127845   0.469   1.796   1.944
 8982SOL    HW227846   0.345   1.840   2.040
 8983SOL     OW27847   1.837   6.245   2.314
 8983SOL    HW127848   1.791   6.162   2.346
 8983SOL    HW227849   1.782   6.287   2.242
 8984SOL     OW27850   0.121   0.767   3.975
 8984SOL    HW127851   0.179   0.842   3.946
 8984SOL    HW227852   0.054   0.800   4.041
 8985SOL     OW27853   4.913   1.680   1.612
 8985SOL    HW127854   4.851   1.759   1.607
 8985SOL    HW227855   4.991   1.702   1.670
 8986SOL     OW27856   6.859   4.627   0.283
 8986SOL    HW127857   6.785   4.588   0.229
 8986SOL    HW227858   6.943   4.627   0.229
 8987SOL     OW27859   2.253   6.175   1.848
 8987SOL    HW127860   2.265   6.238   1.772
 8987SOL    HW227861   2.225   6.086   1.813
 8988SOL     OW27862   2.441   6.545   1.678
 8988SOL    HW127863   2.401   6.598   1.752
 8988SOL    HW227864   2.443   6.600   1.595
 8989SOL     OW27865   5.327   1.736   3.072
 8989SOL    HW127866   5.246   1.786   3.102
 8989SOL    HW227867   5.335   1.740   2.973
 8990SOL     OW27868   3.094   0.797   2.283
 8990SOL    HW127869   3.137   0.789   2.193
 8990SOL    HW227870   3.061   0.890   2.296
 8991SOL     OW27871   1.174   1.490   0.778
 8991SOL    HW127872   1.084   1.513   0.742
 8991SOL    HW227873   1.232   1.459   0.702
 8992SOL     OW27874   0.920   3.850   6.418
 8992SOL    HW127875   0.946   3.931   6.471
 8992SOL    HW227876   0.878   3.879   6.331
 8993SOL     OW27877   5.650   3.601   5.071
 8993SOL    HW127878   5.599   3.643   4.996
 8993SOL    HW227879   5.591   3.537   5.121
 8994SOL     OW27880   1.096   5.789   2.775
 8994SOL    HW127881   1.051   5.745   2.853
 8994SOL    HW227882   1.030   5.844   2.724
 8995SOL     OW27883   2.156   3.978   4.732
 8995SOL    HW127884   2.228   3.988   4.801
 8995SOL    HW227885   2.084   4.044   4.750
 8996SOL     OW27886   1.154   4.053   2.133
 8996SOL    HW127887   1.070   4.052   2.187
 8996SOL    HW227888   1.179   3.959   2.109
 8997SOL     OW27889   4.461   1.809   5.640
 8997SOL    HW127890   4.382   1.747   5.647
 8997SOL    HW227891   4.430   1.904   5.648
 8998SOL     OW27892   0.632   1.229   6.071
 8998SOL    HW127893   0.648   1.146   6.017
 8998SOL    HW227894   0.720   1.272   6.094
 8999SOL     OW27895   5.166   1.134   4.838
 8999SOL    HW127896   5.086   1.110   4.782
 8999SOL    HW227897   5.139   1.140   4.934
 9000SOL     OW27898   2.544   4.385   0.406
 9000SOL    HW127899   2.528   4.476   0.366
 9000SOL    HW227900   2.505   4.315   0.347
 9001SOL     OW27901   1.588   4.575   3.635
 9001SOL    HW127902   1.644   4.646   3.676
 9001SOL    HW227903   1.646   4.506   3.593
 9002SOL     OW27904   5.244   4.513   5.742
 9002SOL    HW127905   5.342   4.524   5.724
 9002SOL    HW227906   5.219   4.564   5.824
 9003SOL     OW27907   5.738   3.197   6.098
 9003SOL    HW127908   5.825   3.155   6.122
 9003SOL    HW227909   5.666   3.161   6.157
 9004SOL     OW27910   4.729   5.329   0.723
 9004SOL    HW127911   4.743   5.346   0.625
 9004SOL    HW227912   4.812   5.291   0.762
 9005SOL     OW27913   4.459   2.122   2.827
 9005SOL    HW127914   4.429   2.215   2.848
 9005SOL    HW227915   4.530   2.125   2.757
 9006SOL     OW27916   1.643   6.535   0.664
 9006SOL    HW127917   1.575   6.609   0.664
 9006SOL    HW227918   1.614   6.462   0.725
 9007SOL     OW27919   2.581   6.554   4.175
 9007SOL    HW127920   2.612   6.572   4.082
 9007SOL    HW227921   2.611   6.464   4.204
 9008SOL     OW27922   6.423   4.355   3.041
 9008SOL    HW127923   6.393   4.337   3.135
 9008SOL    HW227924   6.453   4.450   3.033
 9009SOL     OW27925   4.010   6.279   1.337
 9009SOL    HW127926   3.921   6.295   1.294
 9009SOL    HW227927   4.053   6.366   1.360
 9010SOL     OW27928   0.893   5.953   4.980
 9010SOL    HW127929   0.929   5.888   5.046
 9010SOL    HW227930   0.968   6.010   4.945
 9011SOL     OW27931   4.168   1.766   1.581
 9011SOL    HW127932   4.182   1.727   1.672
 9011SOL    HW227933   4.213   1.709   1.513
 9012SOL     OW27934   6.259   5.651   1.802
 9012SOL    HW127935   6.264   5.552   1.786
 9012SOL    HW227936   6.306   5.673   1.888
 9013SOL     OW27937   5.039   5.965   2.958
 9013SOL    HW127938   4.963   5.933   3.015
 9013SOL    HW227939   5.121   5.973   3.014
 9014SOL     OW27940   2.848   0.624   0.747
 9014SOL    HW127941   2.761   0.624   0.698
 9014SOL    HW227942   2.857   0.709   0.799
 9015SOL     OW27943   6.547   1.649   5.158
 9015SOL    HW127944   6.489   1.595   5.219
 9015SOL    HW227945   6.493   1.684   5.082
 9016SOL     OW27946   6.758   6.047   6.288
 9016SOL    HW127947   6.676   6.050   6.346
 9016SOL    HW227948   6.732   6.068   6.193
 9017SOL     OW27949   0.317   4.345   3.923
 9017SOL    HW127950   0.344   4.263   3.974
 9017SOL    HW227951   0.303   4.322   3.827
 9018SOL     OW27952   3.719   2.353   5.682
 9018SOL    HW127953   3.816   2.369   5.697
 9018SOL    HW227954   3.697   2.372   5.586
 9019SOL     OW27955   1.775   6.480   6.916
 9019SOL    HW127956   1.730   6.541   6.982
 9019SOL    HW227957   1.870   6.508   6.905
 9020SOL     OW27958   0.247   4.659   2.724
 9020SOL    HW127959   0.235   4.719   2.803
 9020SOL    HW227960   0.238   4.564   2.753
 9021SOL     OW27961   6.851   5.801   5.081
 9021SOL    HW127962   6.794   5.817   5.001
 9021SOL    HW227963   6.893   5.710   5.075
 9022SOL     OW27964   3.123   1.176   6.443
 9022SOL    HW127965   3.105   1.272   6.466
 9022SOL    HW227966   3.169   1.171   6.354
 9023SOL     OW27967   3.256   2.962   2.976
 9023SOL    HW127968   3.344   2.957   3.023
 9023SOL    HW227969   3.269   2.940   2.879
 9024SOL     OW27970   1.819   0.204   6.422
 9024SOL    HW127971   1.749   0.276   6.418
 9024SOL    HW227972   1.854   0.198   6.516
 9025SOL     OW27973   0.118   4.213   1.177
 9025SOL    HW127974   0.155   4.123   1.156
 9025SOL    HW227975   0.174   4.283   1.134
 9026SOL     OW27976   3.096   3.592   5.484
 9026SOL    HW127977   3.080   3.594   5.582
 9026SOL    HW227978   3.049   3.513   5.444
 9027SOL     OW27979   2.435   2.519   2.783
 9027SOL    HW127980   2.438   2.608   2.829
 9027SOL    HW227981   2.344   2.478   2.795
 9028SOL     OW27982   2.312   4.652   5.186
 9028SOL    HW127983   2.310   4.552   5.181
 9028SOL    HW227984   2.227   4.689   5.149
 9029SOL     OW27985   4.845   5.149   3.254
 9029SOL    HW127986   4.815   5.228   3.201
 9029SOL    HW227987   4.783   5.137   3.332
 9030SOL     OW27988   3.278   1.498   1.662
 9030SOL    HW127989   3.271   1.597   1.676
 9030SOL    HW227990   3.287   1.479   1.564
 9031SOL     OW27991   1.964   0.918   0.366
 9031SOL    HW127992   2.041   0.972   0.334
 9031SOL    HW227993   1.900   0.903   0.291
 9032SOL     OW27994   1.446   1.849   2.570
 9032SOL    HW127995   1.427   1.779   2.501
 9032SOL    HW227996   1.367   1.910   2.578
 9033SOL     OW27997   1.529   3.451   2.930
 9033SOL    HW127998   1.628   3.455   2.945
 9033SOL    HW227999   1.502   3.525   2.869
 9034SOL     OW28000   1.648   0.350   5.524
 9034SOL    HW128001   1.717   0.333   5.595
 9034SOL    HW228002   1.600   0.266   5.503
 9035SOL     OW28003   6.951   0.875   4.153
 9035SOL    HW128004   6.894   0.925   4.087
 9035SOL    HW228005   6.909   0.879   4.244
 9036SOL     OW28006   1.004   1.592   5.181
 9036SOL    HW128007   0.996   1.691   5.192
 9036SOL    HW228008   0.946   1.562   5.106
 9037SOL     OW28009   2.414   4.117   5.918
 9037SOL    HW128010   2.392   4.215   5.919
 9037SOL    HW228011   2.502   4.102   5.962
 9038SOL     OW28012   5.592   6.599   5.376
 9038SOL    HW128013   5.493   6.608   5.379
 9038SOL    HW228014   5.625   6.623   5.284
 9039SOL     OW28015   2.385   5.000   6.092
 9039SOL    HW128016   2.297   5.014   6.046
 9039SOL    HW228017   2.423   5.088   6.119
 9040SOL     OW28018   2.463   1.511   1.756
 9040SOL    HW128019   2.466   1.611   1.756
 9040SOL    HW228020   2.474   1.478   1.850
 9041SOL     OW28021   1.522   3.293   0.379
 9041SOL    HW128022   1.476   3.335   0.301
 9041SOL    HW228023   1.621   3.298   0.366
 9042SOL     OW28024   2.605   5.280   3.545
 9042SOL    HW128025   2.656   5.346   3.600
 9042SOL    HW228026   2.563   5.212   3.605
 9043SOL     OW28027   6.867   2.378   0.509
 9043SOL    HW128028   6.865   2.425   0.597
 9043SOL    HW228029   6.787   2.319   0.500
 9044SOL     OW28030   6.434   4.876   0.403
 9044SOL    HW128031   6.532   4.865   0.421
 9044SOL    HW228032   6.394   4.787   0.382
 9045SOL     OW28033   3.682   6.276   4.166
 9045SOL    HW128034   3.660   6.283   4.068
 9045SOL    HW228035   3.638   6.351   4.215
 9046SOL     OW28036   3.550   4.358   6.051
 9046SOL    HW128037   3.499   4.436   6.013
 9046SOL    HW228038   3.639   4.352   6.005
 9047SOL     OW28039   1.535   4.509   4.898
 9047SOL    HW128040   1.624   4.489   4.939
 9047SOL    HW228041   1.476   4.552   4.966
 9048SOL     OW28042   1.727   2.722   5.236
 9048SOL    HW128043   1.678   2.642   5.270
 9048SOL    HW228044   1.824   2.699   5.222
 9049SOL     OW28045   5.125   5.963   6.391
 9049SOL    HW128046   5.151   6.027   6.464
 9049SOL    HW228047   5.034   5.925   6.411
 9050SOL     OW28048   0.527   6.055   5.294
 9050SOL    HW128049   0.463   6.031   5.366
 9050SOL    HW228050   0.547   6.153   5.298
 9051SOL     OW28051   5.116   6.233   6.107
 9051SOL    HW128052   5.039   6.296   6.095
 9051SOL    HW228053   5.161   6.218   6.019
 9052SOL     OW28054   2.222   5.350   5.018
 9052SOL    HW128055   2.224   5.252   5.038
 9052SOL    HW228056   2.310   5.390   5.043
 9053SOL     OW28057   2.783   1.511   3.741
 9053SOL    HW128058   2.739   1.425   3.767
 9053SOL    HW228059   2.751   1.539   3.650
 9054SOL     OW28060   3.736   0.378   1.154
 9054SOL    HW128061   3.724   0.407   1.249
 9054SOL    HW228062   3.832   0.382   1.130
 9055SOL     OW28063   0.926   1.354   4.224
 9055SOL    HW128064   0.963   1.441   4.190
 9055SOL    HW228065   0.893   1.365   4.317
 9056SOL     OW28066   5.950   1.267   2.770
 9056SOL    HW128067   5.934   1.355   2.726
 9056SOL    HW228068   6.035   1.227   2.735
 9057SOL     OW28069   4.355   6.307   6.790
 9057SOL    HW128070   4.364   6.219   6.744
 9057SOL    HW228071   4.265   6.312   6.834
 9058SOL     OW28072   2.037   2.669   4.940
 9058SOL    HW128073   2.053   2.684   5.038
 9058SOL    HW228074   2.073   2.747   4.888
 9059SOL     OW28075   6.566   0.778   3.418
 9059SOL    HW128076   6.578   0.680   3.436
 9059SOL    HW228077   6.484   0.811   3.465
 9060SOL     OW28078   0.798   5.527   1.966
 9060SOL    HW128079   0.866   5.573   2.023
 9060SOL    HW228080   0.736   5.595   1.928
 9061SOL     OW28081   5.810   4.123   2.933
 9061SOL    HW128082   5.790   4.219   2.912
 9061SOL    HW228083   5.787   4.105   3.029
 9062SOL     OW28084   0.729   5.879   3.000
 9062SOL    HW128085   0.754   5.799   2.945
 9062SOL    HW228086   0.804   5.945   3.001
 9063SOL     OW28087   4.571   1.813   1.812
 9063SOL    HW128088   4.565   1.733   1.872
 9063SOL    HW228089   4.656   1.862   1.831
 9064SOL     OW28090   0.774   5.600   3.132
 9064SOL    HW128091   0.679   5.604   3.161
 9064SOL    HW228092   0.809   5.507   3.145
 9065SOL     OW28093   2.707   4.505   5.782
 9065SOL    HW128094   2.661   4.536   5.698
 9065SOL    HW228095   2.798   4.546   5.786
 9066SOL     OW28096   4.934   4.905   4.571
 9066SOL    HW128097   4.907   4.997   4.542
 9066SOL    HW228098   4.887   4.837   4.515
 9067SOL     OW28099   1.031   5.999   4.472
 9067SOL    HW128100   1.032   6.012   4.373
 9067SOL    HW228101   1.093   6.065   4.515
 9068SOL     OW28102   4.548   0.088   5.840
 9068SOL    HW128103   4.528   0.090   5.742
 9068SOL    HW228104   4.499   0.163   5.885
 9069SOL     OW28105   5.234   2.028   1.061
 9069SOL    HW128106   5.233   1.931   1.086
 9069SOL    HW228107   5.217   2.037   0.963
 9070SOL     OW28108   1.364   1.492   5.788
 9070SOL    HW128109   1.427   1.565   5.815
 9070SOL    HW228110   1.280   1.499   5.842
 9071SOL     OW28111   4.773   2.123   6.366
 9071SOL    HW128112   4.830   2.136   6.447
 9071SOL    HW228113   4.754   2.212   6.324
 9072SOL     OW28114   4.804   0.647   3.053
 9072SOL    HW128115   4.825   0.571   3.114
 9072SOL    HW228116   4.884   0.708   3.047
 9073SOL     OW28117   4.634   1.868   5.370
 9073SOL    HW128118   4.623   1.931   5.293
 9073SOL    HW228119   4.573   1.895   5.445
 9074SOL     OW28120   1.594   0.716   2.006
 9074SOL    HW128121   1.511   0.670   2.038
 9074SOL    HW228122   1.655   0.649   1.962
 9075SOL     OW28123   6.156   6.247   1.120
 9075SOL    HW128124   6.179   6.157   1.083
 9075SOL    HW228125   6.239   6.293   1.149
 9076SOL     OW28126   6.343   0.352   2.669
 9076SOL    HW128127   6.322   0.387   2.578
 9076SOL    HW228128   6.422   0.290   2.664
 9077SOL     OW28129   6.464   1.723   6.307
 9077SOL    HW128130   6.415   1.684   6.229
 9077SOL    HW228131   6.559   1.690   6.307
 9078SOL     OW28132   5.076   6.114   6.995
 9078SOL    HW128133   5.087   6.184   0.042
 9078SOL    HW228134   5.061   6.159   6.906
 9079SOL     OW28135   1.435   1.465   6.917
 9079SOL    HW128136   1.375   1.531   6.962
 9079SOL    HW228137   1.488   1.415   6.986
 9080SOL     OW28138   5.991   3.317   1.853
 9080SOL    HW128139   6.086   3.285   1.858
 9080SOL    HW228140   5.961   3.319   1.758
 9081SOL     OW28141   5.185   1.473   0.092
 9081SOL    HW128142   5.099   1.452   0.045
 9081SOL    HW228143   5.167   1.538   0.166
 9082SOL     OW28144   3.699   5.648   6.105
 9082SOL    HW128145   3.661   5.669   6.015
 9082SOL    HW228146   3.624   5.629   6.169
 9083SOL     OW28147   4.281   5.278   6.449
 9083SOL    HW128148   4.206   5.282   6.383
 9083SOL    HW228149   4.260   5.210   6.519
 9084SOL     OW28150   6.860   2.614   5.910
 9084SOL    HW128151   6.808   2.552   5.968
 9084SOL    HW228152   6.820   2.706   5.915
 9085SOL     OW28153   2.389   4.795   6.856
 9085SOL    HW128154   2.344   4.734   6.790
 9085SOL    HW228155   2.329   4.873   6.875
 9086SOL     OW28156   0.148   4.591   1.079
 9086SOL    HW128157   0.065   4.593   1.134
 9086SOL    HW228158   0.123   4.594   0.982
 9087SOL     OW28159   5.852   0.932   1.576
 9087SOL    HW128160   5.877   1.016   1.528
 9087SOL    HW228161   5.935   0.890   1.612
 9088SOL     OW28162   6.417   6.616   0.638
 9088SOL    HW128163   6.327   6.629   0.678
 9088SOL    HW228164   6.414   6.638   0.540
 9089SOL     OW28165   5.323   5.286   4.055
 9089SOL    HW128166   5.280   5.264   4.142
 9089SOL    HW228167   5.389   5.214   4.031
 9090SOL     OW28168   5.231   6.287   5.306
 9090SOL    HW128169   5.174   6.206   5.294
 9090SOL    HW228170   5.184   6.367   5.269
 9091SOL     OW28171   2.414   1.262   1.248
 9091SOL    HW128172   2.420   1.232   1.343
 9091SOL    HW228173   2.439   1.358   1.242
 9092SOL     OW28174   1.526   1.211   5.441
 9092SOL    HW128175   1.593   1.240   5.510
 9092SOL    HW228176   1.500   1.116   5.459
 9093SOL     OW28177   2.064   3.856   0.671
 9093SOL    HW128178   2.071   3.804   0.586
 9093SOL    HW228179   1.985   3.825   0.723
 9094SOL     OW28180   6.544   4.506   1.579
 9094SOL    HW128181   6.466   4.443   1.576
 9094SOL    HW228182   6.539   4.567   1.500
 9095SOL     OW28183   3.033   2.784   0.104
 9095SOL    HW128184   3.046   2.836   0.019
 9095SOL    HW228185   3.051   2.688   0.086
 9096SOL     OW28186   4.995   2.731   3.263
 9096SOL    HW128187   4.962   2.822   3.290
 9096SOL    HW228188   4.992   2.723   3.164
 9097SOL     OW28189   0.912   5.384   6.585
 9097SOL    HW128190   0.853   5.377   6.665
 9097SOL    HW228191   0.858   5.417   6.507
 9098SOL     OW28192   4.087   3.477   2.718
 9098SOL    HW128193   4.132   3.556   2.759
 9098SOL    HW228194   4.074   3.493   2.620
 9099SOL     OW28195   2.168   3.098   0.653
 9099SOL    HW128196   2.170   3.003   0.682
 9099SOL    HW228197   2.133   3.103   0.559
 9100SOL     OW28198   0.357   2.912   1.094
 9100SOL    HW128199   0.437   2.896   1.153
 9100SOL    HW228200   0.380   2.887   1.000
 9101SOL     OW28201   1.898   2.695   1.300
 9101SOL    HW128202   1.978   2.645   1.266
 9101SOL    HW228203   1.901   2.698   1.400
 9102SOL     OW28204   3.611   5.248   2.320
 9102SOL    HW128205   3.549   5.306   2.371
 9102SOL    HW228206   3.561   5.169   2.283
 9103SOL     OW28207   0.510   3.977   0.532
 9103SOL    HW128208   0.565   3.922   0.470
 9103SOL    HW228209   0.415   3.946   0.529
 9104SOL     OW28210   4.703   6.814   1.517
 9104SOL    HW128211   4.656   6.850   1.437
 9104SOL    HW228212   4.791   6.860   1.528
 9105SOL     OW28213   1.743   1.999   5.477
 9105SOL    HW128214   1.828   2.018   5.527
 9105SOL    HW228215   1.695   2.085   5.459
 9106SOL     OW28216   6.265   5.266   1.006
 9106SOL    HW128217   6.189   5.200   1.002
 9106SOL    HW228218   6.342   5.231   0.953
 9107SOL     OW28219   4.264   0.448   1.639
 9107SOL    HW128220   4.215   0.426   1.724
 9107SOL    HW228221   4.331   0.377   1.620
 9108SOL     OW28222   4.700   5.664   5.765
 9108SOL    HW128223   4.640   5.648   5.686
 9108SOL    HW228224   4.676   5.600   5.838
 9109SOL     OW28225   3.206   2.021   3.838
 9109SOL    HW128226   3.233   1.972   3.920
 9109SOL    HW228227   3.133   2.085   3.860
 9110SOL     OW28228   1.804   3.944   3.719
 9110SOL    HW128229   1.880   3.936   3.654
 9110SOL    HW228230   1.765   4.036   3.713
 9111SOL     OW28231   3.879   4.131   1.785
 9111SOL    HW128232   3.888   4.063   1.858
 9111SOL    HW228233   3.788   4.172   1.788
 9112SOL     OW28234   0.201   4.587   2.192
 9112SOL    HW128235   0.166   4.575   2.100
 9112SOL    HW228236   0.155   4.523   2.254
 9113SOL     OW28237   4.351   6.905   0.672
 9113SOL    HW128238   4.362   6.816   0.628
 9113SOL    HW228239   4.342   6.892   0.771
 9114SOL     OW28240   3.067   4.712   1.500
 9114SOL    HW128241   3.117   4.695   1.585
 9114SOL    HW228242   2.974   4.675   1.507
 9115SOL     OW28243   1.286   4.760   5.305
 9115SOL    HW128244   1.304   4.682   5.245
 9115SOL    HW228245   1.204   4.808   5.272
 9116SOL     OW28246   0.138   1.142   5.842
 9116SOL    HW128247   0.136   1.209   5.767
 9116SOL    HW228248   0.216   1.162   5.902
 9117SOL     OW28249   6.746   2.314   6.949
 9117SOL    HW128250   6.694   2.358   7.021
 9117SOL    HW228251   6.835   2.357   6.940
 9118SOL     OW28252   6.642   6.639   1.937
 9118SOL    HW128253   6.740   6.660   1.943
 9118SOL    HW228254   6.590   6.709   1.985
 9119SOL     OW28255   6.587   0.355   1.725
 9119SOL    HW128256   6.566   0.319   1.816
 9119SOL    HW228257   6.639   0.286   1.673
 9120SOL     OW28258   5.598   0.994   5.974
 9120SOL    HW128259   5.615   0.910   6.027
 9120SOL    HW228260   5.684   1.044   5.963
 9121SOL     OW28261   0.361   1.122   6.462
 9121SOL    HW128262   0.292   1.092   6.396
 9121SOL    HW228263   0.448   1.078   6.440
 9122SOL     OW28264   1.739   3.017   3.082
 9122SOL    HW128265   1.817   2.982   3.030
 9122SOL    HW228266   1.670   3.052   3.020
 9123SOL     OW28267   2.561   6.132   6.554
 9123SOL    HW128268   2.474   6.095   6.523
 9123SOL    HW228269   2.549   6.177   6.643
 9124SOL     OW28270   6.613   5.844   5.299
 9124SOL    HW128271   6.624   5.812   5.205
 9124SOL    HW228272   6.615   5.944   5.300
 9125SOL     OW28273   4.837   4.094   3.715
 9125SOL    HW128274   4.808   4.035   3.640
 9125SOL    HW228275   4.906   4.158   3.683
 9126SOL     OW28276   6.260   0.513   1.671
 9126SOL    HW128277   6.160   0.515   1.665
 9126SOL    HW228278   6.294   0.429   1.630
 9127SOL     OW28279   4.867   0.543   0.067
 9127SOL    HW128280   4.920   0.531   7.007
 9127SOL    HW228281   4.813   0.460   0.084
 9128SOL     OW28282   3.804   2.074   4.904
 9128SOL    HW128283   3.893   2.093   4.944
 9128SOL    HW228284   3.800   1.979   4.874
 9129SOL     OW28285   1.980   1.645   6.506
 9129SOL    HW128286   2.026   1.654   6.418
 9129SOL    HW228287   1.947   1.552   6.517
 9130SOL     OW28288   5.915   4.779   0.650
 9130SOL    HW128289   5.905   4.681   0.630
 9130SOL    HW228290   5.968   4.790   0.734
 9131SOL     OW28291   0.782   3.968   4.314
 9131SOL    HW128292   0.788   4.062   4.346
 9131SOL    HW228293   0.860   3.948   4.254
 9132SOL     OW28294   6.540   3.711   4.569
 9132SOL    HW128295   6.506   3.694   4.476
 9132SOL    HW228296   6.464   3.733   4.629
 9133SOL     OW28297   2.714   4.398   0.971
 9133SOL    HW128298   2.689   4.487   0.934
 9133SOL    HW228299   2.735   4.407   1.068
 9134SOL     OW28300   2.961   6.208   6.385
 9134SOL    HW128301   2.907   6.229   6.303
 9134SOL    HW228302   3.040   6.269   6.389
 9135SOL     OW28303   6.437   5.597   3.781
 9135SOL    HW128304   6.523   5.648   3.787
 9135SOL    HW228305   6.415   5.558   3.870
 9136SOL     OW28306   5.044   5.429   5.729
 9136SOL    HW128307   5.003   5.499   5.787
 9136SOL    HW228308   5.048   5.462   5.635
 9137SOL     OW28309   4.375   1.132   1.779
 9137SOL    HW128310   4.370   1.232   1.777
 9137SOL    HW228311   4.465   1.103   1.745
 9138SOL     OW28312   4.995   5.102   6.311
 9138SOL    HW128313   4.967   5.018   6.358
 9138SOL    HW228314   4.916   5.144   6.267
 9139SOL     OW28315   3.626   1.492   5.317
 9139SOL    HW128316   3.692   1.565   5.330
 9139SOL    HW228317   3.593   1.460   5.405
 9140SOL     OW28318   6.715   2.409   2.279
 9140SOL    HW128319   6.647   2.442   2.214
 9140SOL    HW228320   6.702   2.454   2.367
 9141SOL     OW28321   5.340   0.161   5.606
 9141SOL    HW128322   5.244   0.187   5.620
 9141SOL    HW228323   5.400   0.237   5.630
 9142SOL     OW28324   0.464   2.847   6.024
 9142SOL    HW128325   0.484   2.810   5.933
 9142SOL    HW228326   0.521   2.801   6.092
 9143SOL     OW28327   4.601   3.247   0.340
 9143SOL    HW128328   4.562   3.244   0.432
 9143SOL    HW228329   4.583   3.161   0.293
 9144SOL     OW28330   2.507   5.644   5.489
 9144SOL    HW128331   2.576   5.576   5.512
 9144SOL    HW228332   2.418   5.598   5.479
 9145SOL     OW28333   0.303   4.567   0.047
 9145SOL    HW128334   0.260   4.511   0.118
 9145SOL    HW228335   0.317   4.511   6.989
 9146SOL     OW28336   6.167   2.765   1.193
 9146SOL    HW128337   6.174   2.813   1.281
 9146SOL    HW228338   6.134   2.828   1.123
 9147SOL     OW28339   4.496   5.513   4.149
 9147SOL    HW128340   4.434   5.571   4.096
 9147SOL    HW228341   4.465   5.418   4.146
 9148SOL     OW28342   4.978   5.535   3.303
 9148SOL    HW128343   5.025   5.529   3.390
 9148SOL    HW228344   5.016   5.468   3.239
 9149SOL     OW28345   4.665   2.734   4.798
 9149SOL    HW128346   4.644   2.802   4.869
 9149SOL    HW228347   4.602   2.657   4.807
 9150SOL     OW28348   4.909   0.034   3.422
 9150SOL    HW128349   4.952   0.064   3.507
 9150SOL    HW228350   4.949   0.083   3.345
 9151SOL     OW28351   1.524   4.114   2.242
 9151SOL    HW128352   1.437   4.079   2.206
 9151SOL    HW228353   1.567   4.171   2.172
 9152SOL     OW28354   2.511   6.340   3.163
 9152SOL    HW128355   2.595   6.369   3.208
 9152SOL    HW228356   2.468   6.420   3.120
 9153SOL     OW28357   1.905   2.668   6.638
 9153SOL    HW128358   1.850   2.712   6.568
 9153SOL    HW228359   1.951   2.588   6.600
 9154SOL     OW28360   2.668   5.883   6.541
 9154SOL    HW128361   2.630   5.974   6.557
 9154SOL    HW228362   2.643   5.852   6.449
 9155SOL     OW28363   2.232   4.075   6.185
 9155SOL    HW128364   2.210   4.038   6.095
 9155SOL    HW228365   2.271   4.166   6.175
 9156SOL     OW28366   4.130   2.112   1.267
 9156SOL    HW128367   4.189   2.046   1.314
 9156SOL    HW228368   4.186   2.170   1.209
 9157SOL     OW28369   5.414   3.776   5.280
 9157SOL    HW128370   5.513   3.782   5.272
 9157SOL    HW228371   5.376   3.736   5.196
 9158SOL     OW28372   0.315   3.479   4.558
 9158SOL    HW128373   0.372   3.552   4.520
 9158SOL    HW228374   0.262   3.515   4.635
 9159SOL     OW28375   6.818   5.383   2.076
 9159SOL    HW128376   6.889   5.407   2.142
 9159SOL    HW228377   6.739   5.443   2.089
 9160SOL     OW28378   0.920   6.564   6.076
 9160SOL    HW128379   0.999   6.585   6.134
 9160SOL    HW228380   0.837   6.597   6.121
 9161SOL     OW28381   4.968   3.444   5.163
 9161SOL    HW128382   4.939   3.357   5.124
 9161SOL    HW228383   4.897   3.513   5.150
 9162SOL     OW28384   4.802   2.954   2.637
 9162SOL    HW128385   4.742   2.894   2.585
 9162SOL    HW228386   4.860   3.006   2.575
 9163SOL     OW28387   3.003   2.215   3.978
 9163SOL    HW128388   3.084   2.248   4.026
 9163SOL    HW228389   2.921   2.259   4.017
 9164SOL     OW28390   2.656   0.773   6.732
 9164SOL    HW128391   2.744   0.725   6.744
 9164SOL    HW228392   2.635   0.778   6.634
 9165SOL     OW28393   5.570   0.765   6.417
 9165SOL    HW128394   5.591   0.675   6.454
 9165SOL    HW228395   5.481   0.795   6.453
 9166SOL     OW28396   3.934   5.604   0.775
 9166SOL    HW128397   3.944   5.535   0.704
 9166SOL    HW228398   3.998   5.585   0.850
 9167SOL     OW28399   1.556   3.706   5.580
 9167SOL    HW128400   1.537   3.769   5.504
 9167SOL    HW228401   1.517   3.743   5.664
 9168SOL     OW28402   2.029   0.087   5.798
 9168SOL    HW128403   2.103   0.106   5.863
 9168SOL    HW228404   1.981   0.171   5.776
 9169SOL     OW28405   0.499   0.970   4.634
 9169SOL    HW128406   0.494   1.039   4.561
 9169SOL    HW228407   0.593   0.966   4.668
 9170SOL     OW28408   6.911   5.333   0.461
 9170SOL    HW128409   6.927   5.247   0.411
 9170SOL    HW228410   6.914   5.410   0.397
 9171SOL     OW28411   2.892   5.941   6.770
 9171SOL    HW128412   2.890   5.853   6.724
 9171SOL    HW228413   2.976   5.990   6.745
 9172SOL     OW28414   3.522   1.221   4.204
 9172SOL    HW128415   3.441   1.216   4.262
 9172SOL    HW228416   3.598   1.175   4.250
 9173SOL     OW28417   6.254   5.055   5.186
 9173SOL    HW128418   6.211   4.995   5.118
 9173SOL    HW228419   6.332   5.102   5.144
 9174SOL     OW28420   6.723   4.460   0.066
 9174SOL    HW128421   6.775   4.380   0.097
 9174SOL    HW228422   6.629   4.453   0.097
 9175SOL     OW28423   2.259   5.914   5.785
 9175SOL    HW128424   2.178   5.963   5.754
 9175SOL    HW228425   2.267   5.923   5.885
 9176SOL     OW28426   2.170   0.795   5.570
 9176SOL    HW128427   2.262   0.829   5.587
 9176SOL    HW228428   2.123   0.858   5.507
 9177SOL     OW28429   1.353   4.348   4.170
 9177SOL    HW128430   1.284   4.282   4.199
 9177SOL    HW228431   1.309   4.422   4.118
 9178SOL     OW28432   2.178   5.352   0.986
 9178SOL    HW128433   2.183   5.354   0.886
 9178SOL    HW228434   2.269   5.368   1.024
 9179SOL     OW28435   2.799   5.353   3.949
 9179SOL    HW128436   2.820   5.352   4.047
 9179SOL    HW228437   2.705   5.383   3.935
 9180SOL     OW28438   6.072   2.063   3.968
 9180SOL    HW128439   6.047   2.141   4.025
 9180SOL    HW228440   6.055   2.085   3.872
 9181SOL     OW28441   4.219   1.645   2.446
 9181SOL    HW128442   4.260   1.718   2.501
 9181SOL    HW228443   4.257   1.556   2.475
 9182SOL     OW28444   1.373   5.896   2.309
 9182SOL    HW128445   1.469   5.914   2.289
 9182SOL    HW228446   1.363   5.866   2.404
 9183SOL     OW28447   4.963   6.347   1.146
 9183SOL    HW128448   4.935   6.313   1.057
 9183SOL    HW228449   4.918   6.435   1.164
 9184SOL     OW28450   5.281   6.947   0.784
 9184SOL    HW128451   5.269   0.009   0.833
 9184SOL    HW228452   5.368   6.948   0.735
 9185SOL     OW28453   3.946   0.827   5.524
 9185SOL    HW128454   3.952   0.828   5.624
 9185SOL    HW228455   3.856   0.860   5.496
 9186SOL     OW28456   6.227   0.769   4.998
 9186SOL    HW128457   6.323   0.752   5.016
 9186SOL    HW228458   6.204   0.864   5.020
 9187SOL     OW28459   2.008   6.494   2.346
 9187SOL    HW128460   2.011   6.456   2.439
 9187SOL    HW228461   1.920   6.472   2.304
 9188SOL     OW28462   2.807   6.523   0.922
 9188SOL    HW128463   2.746   6.537   0.845
 9188SOL    HW228464   2.858   6.607   0.940
 9189SOL     OW28465   5.450   5.376   2.772
 9189SOL    HW128466   5.488   5.441   2.838
 9189SOL    HW228467   5.353   5.394   2.759
 9190SOL     OW28468   2.024   5.563   0.309
 9190SOL    HW128469   2.119   5.559   0.340
 9190SOL    HW228470   1.987   5.654   0.329
 9191SOL     OW28471   6.476   0.580   5.620
 9191SOL    HW128472   6.511   0.606   5.711
 9191SOL    HW228473   6.376   0.585   5.620
 9192SOL     OW28474   0.534   4.143   4.772
 9192SOL    HW128475   0.487   4.064   4.733
 9192SOL    HW228476   0.475   4.187   4.840
 9193SOL     OW28477   3.354   3.167   6.892
 9193SOL    HW128478   3.421   3.141   6.823
 9193SOL    HW228479   3.384   3.135   6.982
 9194SOL     OW28480   3.171   0.805   3.853
 9194SOL    HW128481   3.180   0.808   3.754
 9194SOL    HW228482   3.075   0.817   3.878
 9195SOL     OW28483   2.493   2.334   4.656
 9195SOL    HW128484   2.484   2.422   4.701
 9195SOL    HW228485   2.579   2.290   4.685
 9196SOL     OW28486   4.445   1.484   5.049
 9196SOL    HW128487   4.437   1.384   5.045
 9196SOL    HW228488   4.371   1.526   4.997
 9197SOL     OW28489   2.393   3.603   1.356
 9197SOL    HW128490   2.411   3.642   1.266
 9197SOL    HW228491   2.449   3.521   1.369
 9198SOL     OW28492   6.565   5.465   5.433
 9198SOL    HW128493   6.608   5.375   5.432
 9198SOL    HW228494   6.476   5.460   5.388
 9199SOL     OW28495   0.184   3.897   6.064
 9199SOL    HW128496   0.089   3.904   6.032
 9199SOL    HW228497   0.233   3.830   6.008
 9200SOL     OW28498   2.767   0.600   1.163
 9200SOL    HW128499   2.822   0.601   1.079
 9200SOL    HW228500   2.695   0.668   1.156
 9201SOL     OW28501   1.532   3.572   6.883
 9201SOL    HW128502   1.600   3.512   6.924
 9201SOL    HW228503   1.514   3.542   6.789
 9202SOL     OW28504   1.737   6.752   3.101
 9202SOL    HW128505   1.677   6.767   3.180
 9202SOL    HW228506   1.768   6.657   3.101
 9203SOL     OW28507   6.857   5.250   0.885
 9203SOL    HW128508   6.936   5.262   0.825
 9203SOL    HW228509   6.888   5.223   0.976
 9204SOL     OW28510   5.161   1.289   6.128
 9204SOL    HW128511   5.132   1.263   6.221
 9204SOL    HW228512   5.173   1.389   6.124
 9205SOL     OW28513   6.855   3.816   2.666
 9205SOL    HW128514   6.945   3.829   2.707
 9205SOL    HW228515   6.788   3.875   2.712
 9206SOL     OW28516   3.999   5.534   0.364
 9206SOL    HW128517   3.944   5.590   0.302
 9206SOL    HW228518   3.943   5.503   0.440
 9207SOL     OW28519   4.816   5.643   0.445
 9207SOL    HW128520   4.802   5.654   0.544
 9207SOL    HW228521   4.806   5.547   0.421
 9208SOL     OW28522   6.691   3.921   4.813
 9208SOL    HW128523   6.605   3.878   4.840
 9208SOL    HW228524   6.714   3.895   4.719
 9209SOL     OW28525   3.036   1.429   6.479
 9209SOL    HW128526   3.116   1.459   6.531
 9209SOL    HW228527   2.981   1.508   6.454
 9210SOL     OW28528   6.703   1.277   2.904
 9210SOL    HW128529   6.708   1.193   2.957
 9210SOL    HW228530   6.659   1.259   2.816
 9211SOL     OW28531   0.228   2.418   3.771
 9211SOL    HW128532   0.234   2.517   3.779
 9211SOL    HW228533   0.315   2.377   3.800
 9212SOL     OW28534   3.031   5.497   4.708
 9212SOL    HW128535   3.123   5.528   4.730
 9212SOL    HW228536   3.010   5.521   4.613
 9213SOL     OW28537   5.716   3.616   5.874
 9213SOL    HW128538   5.778   3.694   5.873
 9213SOL    HW228539   5.723   3.568   5.961
 9214SOL     OW28540   0.318   5.516   0.458
 9214SOL    HW128541   0.356   5.435   0.504
 9214SOL    HW228542   0.316   5.592   0.522
 9215SOL     OW28543   1.185   0.530   0.140
 9215SOL    HW128544   1.097   0.482   0.146
 9215SOL    HW228545   1.183   0.610   0.200
 9216SOL     OW28546   2.454   0.117   2.623
 9216SOL    HW128547   2.422   0.200   2.669
 9216SOL    HW228548   2.540   0.137   2.575
 9217SOL     OW28549   0.279   2.086   6.599
 9217SOL    HW128550   0.320   2.174   6.620
 9217SOL    HW228551   0.239   2.047   6.682
 9218SOL     OW28552   3.390   7.020   0.626
 9218SOL    HW128553   3.457   6.954   0.659
 9218SOL    HW228554   3.338   6.980   0.551
 9219SOL     OW28555   1.297   2.440   1.091
 9219SOL    HW128556   1.340   2.520   1.051
 9219SOL    HW228557   1.201   2.461   1.113
 9220SOL     OW28558   3.448   6.383   1.260
 9220SOL    HW128559   3.416   6.296   1.299
 9220SOL    HW228560   3.449   6.377   1.160
 9221SOL     OW28561   3.352   6.327   3.561
 9221SOL    HW128562   3.310   6.355   3.647
 9221SOL    HW228563   3.447   6.359   3.557
 9222SOL     OW28564   2.310   1.140   6.603
 9222SOL    HW128565   2.240   1.087   6.556
 9222SOL    HW228566   2.279   1.234   6.615
 9223SOL     OW28567   1.911   3.142   5.413
 9223SOL    HW128568   1.888   3.173   5.505
 9223SOL    HW228569   2.007   3.115   5.410
 9224SOL     OW28570   1.983   5.148   4.523
 9224SOL    HW128571   1.970   5.152   4.622
 9224SOL    HW228572   2.049   5.076   4.501
 9225SOL     OW28573   3.350   6.211   6.697
 9225SOL    HW128574   3.408   6.194   6.776
 9225SOL    HW228575   3.342   6.310   6.682
 9226SOL     OW28576   5.145   6.135   1.315
 9226SOL    HW128577   5.133   6.201   1.389
 9226SOL    HW228578   5.238   6.141   1.280
 9227SOL     OW28579   1.146   5.218   2.707
 9227SOL    HW128580   1.137   5.307   2.662
 9227SOL    HW228581   1.073   5.157   2.676
 9228SOL     OW28582   1.406   1.014   5.897
 9228SOL    HW128583   1.464   0.953   5.951
 9228SOL    HW228584   1.454   1.099   5.877
 9229SOL     OW28585   1.318   5.704   3.803
 9229SOL    HW128586   1.413   5.674   3.811
 9229SOL    HW228587   1.315   5.795   3.762
 9230SOL     OW28588   5.168   0.462   3.871
 9230SOL    HW128589   5.166   0.466   3.971
 9230SOL    HW228590   5.232   0.391   3.842
 9231SOL     OW28591   1.285   2.535   4.573
 9231SOL    HW128592   1.244   2.495   4.655
 9231SOL    HW228593   1.380   2.560   4.593
 9232SOL     OW28594   3.223   5.398   0.437
 9232SOL    HW128595   3.158   5.473   0.430
 9232SOL    HW228596   3.240   5.360   0.345
 9233SOL     OW28597   5.694   4.884   1.223
 9233SOL    HW128598   5.630   4.928   1.160
 9233SOL    HW228599   5.786   4.885   1.184
 9234SOL     OW28600   3.034   5.462   3.661
 9234SOL    HW128601   3.001   5.411   3.582
 9234SOL    HW228602   3.119   5.421   3.694
 9235SOL     OW28603   1.335   2.090   3.119
 9235SOL    HW128604   1.368   2.184   3.109
 9235SOL    HW228605   1.260   2.088   3.186
 9236SOL     OW28606   3.323   3.717   5.390
 9236SOL    HW128607   3.345   3.794   5.450
 9236SOL    HW228608   3.229   3.688   5.406
 9237SOL     OW28609   1.276   3.875   4.383
 9237SOL    HW128610   1.316   3.963   4.405
 9237SOL    HW228611   1.277   3.861   4.284
 9238SOL     OW28612   5.015   2.883   6.838
 9238SOL    HW128613   5.077   2.805   6.847
 9238SOL    HW228614   5.064   2.960   6.798
 9239SOL     OW28615   0.587   3.830   0.968
 9239SOL    HW128616   0.662   3.821   0.903
 9239SOL    HW228617   0.572   3.743   1.014
 9240SOL     OW28618   5.346   1.614   1.644
 9240SOL    HW128619   5.427   1.670   1.660
 9240SOL    HW228620   5.297   1.649   1.564
 9241SOL     OW28621   6.838   5.248   0.031
 9241SOL    HW128622   6.824   5.342   0.001
 9241SOL    HW228623   6.836   5.243   0.131
 9242SOL     OW28624   0.058   6.082   1.760
 9242SOL    HW128625   0.091   6.172   1.734
 9242SOL    HW228626   6.983   6.085   1.772
 9243SOL     OW28627   6.908   6.340   4.452
 9243SOL    HW128628   6.972   6.266   4.474
 9243SOL    HW228629   6.841   6.349   4.526
 9244SOL     OW28630   4.536   5.406   6.706
 9244SOL    HW128631   4.511   5.310   6.719
 9244SOL    HW228632   4.580   5.441   6.788
 9245SOL     OW28633   0.434   5.549   2.345
 9245SOL    HW128634   0.367   5.575   2.275
 9245SOL    HW228635   0.524   5.585   2.320
 9246SOL     OW28636   6.567   5.218   3.601
 9246SOL    HW128637   6.474   5.256   3.591
 9246SOL    HW228638   6.614   5.264   3.675
 9247SOL     OW28639   0.581   6.752   2.813
 9247SOL    HW128640   0.542   6.794   2.895
 9247SOL    HW228641   0.520   6.679   2.781
 9248SOL     OW28642   2.557   2.438   6.056
 9248SOL    HW128643   2.572   2.398   6.146
 9248SOL    HW228644   2.610   2.388   5.988
 9249SOL     OW28645   5.211   1.350   4.119
 9249SOL    HW128646   5.151   1.402   4.181
 9249SOL    HW228647   5.184   1.253   4.121
 9250SOL     OW28648   4.837   3.918   4.027
 9250SOL    HW128649   4.888   3.988   3.977
 9250SOL    HW228650   4.740   3.921   4.001
 9251SOL     OW28651   3.474   1.638   2.813
 9251SOL    HW128652   3.570   1.666   2.819
 9251SOL    HW228653   3.430   1.652   2.901
 9252SOL     OW28654   7.015   6.813   5.024
 9252SOL    HW128655   0.080   6.784   5.060
 9252SOL    HW228656   7.016   6.911   5.007
 9253SOL     OW28657   2.414   6.885   5.794
 9253SOL    HW128658   2.372   6.976   5.797
 9253SOL    HW228659   2.342   6.816   5.780
 9254SOL     OW28660   5.665   3.732   1.404
 9254SOL    HW128661   5.721   3.652   1.424
 9254SOL    HW228662   5.585   3.732   1.464
 9255SOL     OW28663   5.239   3.803   0.655
 9255SOL    HW128664   5.176   3.849   0.718
 9255SOL    HW228665   5.254   3.709   0.685
 9256SOL     OW28666   4.431   4.513   2.196
 9256SOL    HW128667   4.352   4.525   2.135
 9256SOL    HW228668   4.400   4.515   2.291
 9257SOL     OW28669   0.943   3.976   2.277
 9257SOL    HW128670   0.940   3.879   2.302
 9257SOL    HW228671   0.850   4.007   2.257
 9258SOL     OW28672   3.486   2.909   3.817
 9258SOL    HW128673   3.458   2.901   3.721
 9258SOL    HW228674   3.448   2.833   3.869
 9259SOL     OW28675   1.131   1.871   1.609
 9259SOL    HW128676   1.141   1.933   1.531
 9259SOL    HW228677   1.222   1.851   1.647
 9260SOL     OW28678   4.824   3.042   6.559
 9260SOL    HW128679   4.817   3.040   6.659
 9260SOL    HW228680   4.919   3.029   6.532
 9261SOL     OW28681   3.578   0.335   6.525
 9261SOL    HW128682   3.633   0.418   6.519
 9261SOL    HW228683   3.527   0.323   6.439
 9262SOL     OW28684   5.590   1.389   4.897
 9262SOL    HW128685   5.534   1.336   4.834
 9262SOL    HW228686   5.573   1.487   4.884
 9263SOL     OW28687   5.231   3.848   1.340
 9263SOL    HW128688   5.168   3.923   1.322
 9263SOL    HW228689   5.249   3.798   1.256
 9264SOL     OW28690   6.337   3.742   6.646
 9264SOL    HW128691   6.339   3.736   6.746
 9264SOL    HW228692   6.242   3.743   6.615
 9265SOL     OW28693   2.515   1.855   0.273
 9265SOL    HW128694   2.507   1.788   0.200
 9265SOL    HW228695   2.606   1.897   0.269
 9266SOL     OW28696   2.518   6.096   2.651
 9266SOL    HW128697   2.484   6.122   2.561
 9266SOL    HW228698   2.579   6.168   2.685
 9267SOL     OW28699   0.564   4.299   4.554
 9267SOL    HW128700   0.562   4.236   4.632
 9267SOL    HW228701   0.622   4.261   4.482
 9268SOL     OW28702   0.415   6.758   2.495
 9268SOL    HW128703   0.369   6.694   2.433
 9268SOL    HW228704   0.401   6.729   2.589
 9269SOL     OW28705   2.938   2.112   6.931
 9269SOL    HW128706   3.019   2.058   6.912
 9269SOL    HW228707   2.933   2.132   0.005
 9270SOL     OW28708   6.786   6.505   5.543
 9270SOL    HW128709   6.866   6.565   5.535
 9270SOL    HW228710   6.716   6.551   5.599
 9271SOL     OW28711   1.448   6.717   0.713
 9271SOL    HW128712   1.430   6.767   0.629
 9271SOL    HW228713   1.370   6.726   0.775
 9272SOL     OW28714   2.796   4.260   6.765
 9272SOL    HW128715   2.879   4.315   6.779
 9272SOL    HW228716   2.790   4.191   6.837
 9273SOL     OW28717   4.458   5.246   4.181
 9273SOL    HW128718   4.386   5.272   4.246
 9273SOL    HW228719   4.490   5.154   4.201
 9274SOL     OW28720   5.283   2.222   6.495
 9274SOL    HW128721   5.302   2.140   6.548
 9274SOL    HW228722   5.269   2.300   6.557
 9275SOL     OW28723   0.700   0.917   6.196
 9275SOL    HW128724   0.705   0.854   6.118
 9275SOL    HW228725   0.787   0.967   6.204
 9276SOL     OW28726   3.698   5.741   4.659
 9276SOL    HW128727   3.670   5.718   4.566
 9276SOL    HW228728   3.772   5.808   4.656
 9277SOL     OW28729   3.579   3.340   6.735
 9277SOL    HW128730   3.666   3.368   6.775
 9277SOL    HW228731   3.505   3.399   6.769
 9278SOL     OW28732   1.327   2.043   3.858
 9278SOL    HW128733   1.295   2.052   3.764
 9278SOL    HW228734   1.426   2.026   3.858
 9279SOL     OW28735   3.570   0.580   2.022
 9279SOL    HW128736   3.649   0.574   2.083
 9279SOL    HW228737   3.489   0.546   2.071
 9280SOL     OW28738   1.719   6.885   3.510
 9280SOL    HW128739   1.817   6.880   3.527
 9280SOL    HW228740   1.670   6.838   3.584
 9281SOL     OW28741   1.843   2.802   1.061
 9281SOL    HW128742   1.861   2.900   1.065
 9281SOL    HW228743   1.874   2.759   1.146
 9282SOL     OW28744   4.480   1.543   3.970
 9282SOL    HW128745   4.552   1.599   3.929
 9282SOL    HW228746   4.522   1.467   4.021
 9283SOL     OW28747   6.200   2.431   2.547
 9283SOL    HW128748   6.158   2.427   2.638
 9283SOL    HW228749   6.277   2.495   2.550
 9284SOL     OW28750   3.925   3.706   1.213
 9284SOL    HW128751   3.914   3.781   1.148
 9284SOL    HW228752   3.897   3.620   1.170
 9285SOL     OW28753   6.526   2.777   6.927
 9285SOL    HW128754   6.563   2.786   7.020
 9285SOL    HW228755   6.580   2.831   6.864
 9286SOL     OW28756   5.628   0.138   5.296
 9286SOL    HW128757   5.542   0.151   5.345
 9286SOL    HW228758   5.637   0.207   5.225
 9287SOL     OW28759   2.707   5.916   1.447
 9287SOL    HW128760   2.718   5.905   1.546
 9287SOL    HW228761   2.730   5.830   1.402
 9288SOL     OW28762   4.085   2.061   5.982
 9288SOL    HW128763   4.015   2.062   5.910
 9288SOL    HW228764   4.145   2.140   5.971
 9289SOL     OW28765   5.212   2.333   2.358
 9289SOL    HW128766   5.151   2.263   2.396
 9289SOL    HW228767   5.164   2.385   2.288
 9290SOL     OW28768   4.243   2.076   4.930
 9290SOL    HW128769   4.158   2.107   4.974
 9290SOL    HW228770   4.232   2.080   4.831
 9291SOL     OW28771   1.415   0.493   4.953
 9291SOL    HW128772   1.453   0.489   4.860
 9291SOL    HW228773   1.346   0.421   4.964
 9292SOL     OW28774   7.009   3.347   6.099
 9292SOL    HW128775   0.023   3.354   6.192
 9292SOL    HW228776   0.048   3.295   6.041
 9293SOL     OW28777   5.170   4.468   0.291
 9293SOL    HW128778   5.195   4.559   0.257
 9293SOL    HW228779   5.088   4.474   0.348
 9294SOL     OW28780   4.934   6.028   0.345
 9294SOL    HW128781   5.031   6.048   0.360
 9294SOL    HW228782   4.892   6.001   0.431
 9295SOL     OW28783   4.393   1.424   2.887
 9295SOL    HW128784   4.325   1.434   2.959
 9295SOL    HW228785   4.347   1.397   2.802
 9296SOL     OW28786   6.368   6.284   5.843
 9296SOL    HW128787   6.347   6.221   5.918
 9296SOL    HW228788   6.295   6.352   5.834
 9297SOL     OW28789   0.432   0.636   1.615
 9297SOL    HW128790   0.382   0.570   1.670
 9297SOL    HW228791   0.522   0.653   1.656
 9298SOL     OW28792   1.828   6.032   5.484
 9298SOL    HW128793   1.925   6.021   5.462
 9298SOL    HW228794   1.817   6.041   5.583
 9299SOL     OW28795   1.599   3.516   3.849
 9299SOL    HW128796   1.552   3.521   3.938
 9299SOL    HW228797   1.625   3.421   3.831
 9300SOL     OW28798   5.975   4.702   5.338
 9300SOL    HW128799   5.980   4.795   5.375
 9300SOL    HW228800   5.897   4.654   5.378
 9301SOL     OW28801   5.036   4.381   2.798
 9301SOL    HW128802   5.092   4.379   2.715
 9301SOL    HW228803   4.939   4.375   2.774
 9302SOL     OW28804   2.564   2.575   3.341
 9302SOL    HW128805   2.531   2.549   3.431
 9302SOL    HW228806   2.487   2.585   3.278
 9303SOL     OW28807   3.925   6.109   0.319
 9303SOL    HW128808   3.940   6.204   0.293
 9303SOL    HW228809   3.979   6.048   0.261
 9304SOL     OW28810   3.164   4.095   0.860
 9304SOL    HW128811   3.231   4.022   0.874
 9304SOL    HW228812   3.161   4.120   0.764
 9305SOL     OW28813   5.785   2.479   2.227
 9305SOL    HW128814   5.740   2.547   2.169
 9305SOL    HW228815   5.767   2.388   2.190
 9306SOL     OW28816   0.112   4.948   4.009
 9306SOL    HW128817   0.204   4.988   4.006
 9306SOL    HW228818   0.066   4.977   4.092
 9307SOL     OW28819   1.092   2.041   0.762
 9307SOL    HW128820   1.039   2.096   0.825
 9307SOL    HW228821   1.086   1.944   0.789
 9308SOL     OW28822   0.499   3.316   1.062
 9308SOL    HW128823   0.498   3.320   0.962
 9308SOL    HW228824   0.413   3.276   1.095
 9309SOL     OW28825   4.189   3.810   5.627
 9309SOL    HW128826   4.158   3.905   5.617
 9309SOL    HW228827   4.176   3.782   5.722
 9310SOL     OW28828   4.123   6.279   6.220
 9310SOL    HW128829   4.058   6.205   6.236
 9310SOL    HW228830   4.079   6.367   6.239
 9311SOL     OW28831   5.398   4.030   0.601
 9311SOL    HW128832   5.342   3.949   0.618
 9311SOL    HW228833   5.407   4.083   0.685
 9312SOL     OW28834   1.278   4.094   6.559
 9312SOL    HW128835   1.353   4.032   6.584
 9312SOL    HW228836   1.300   4.139   6.473
 9313SOL     OW28837   0.050   0.131   2.641
 9313SOL    HW128838   7.002   0.185   2.597
 9313SOL    HW228839   0.011   0.075   2.713
 9314SOL     OW28840   4.306   5.653   0.033
 9314SOL    HW128841   4.342   5.662   6.964
 9314SOL    HW228842   4.361   5.586   0.083
 9315SOL     OW28843   0.404   0.709   5.633
 9315SOL    HW128844   0.359   0.699   5.544
 9315SOL    HW228845   0.339   0.685   5.705
 9316SOL     OW28846   3.675   5.656   3.805
 9316SOL    HW128847   3.714   5.569   3.834
 9316SOL    HW228848   3.716   5.730   3.858
 9317SOL     OW28849   6.141   5.158   3.133
 9317SOL    HW128850   6.172   5.072   3.092
 9317SOL    HW228851   6.106   5.218   3.061
 9318SOL     OW28852   0.162   0.397   6.639
 9318SOL    HW128853   0.168   0.459   6.717
 9318SOL    HW228854   0.096   0.433   6.572
 9319SOL     OW28855   0.822   3.095   6.820
 9319SOL    HW128856   0.817   3.188   6.784
 9319SOL    HW228857   0.874   3.096   6.906
 9320SOL     OW28858   4.339   2.546   6.237
 9320SOL    HW128859   4.385   2.480   6.296
 9320SOL    HW228860   4.277   2.603   6.292
 9321SOL     OW28861   6.384   6.370   2.972
 9321SOL    HW128862   6.317   6.401   3.039
 9321SOL    HW228863   6.337   6.345   2.887
 9322SOL     OW28864   0.601   6.139   5.635
 9322SOL    HW128865   0.524   6.143   5.572
 9322SOL    HW228866   0.567   6.118   5.727
 9323SOL     OW28867   0.278   1.359   6.708
 9323SOL    HW128868   0.192   1.309   6.721
 9323SOL    HW228869   0.330   1.316   6.634
 9324SOL     OW28870   1.114   5.387   0.592
 9324SOL    HW128871   1.117   5.423   0.498
 9324SOL    HW228872   1.120   5.287   0.589
 9325SOL     OW28873   5.677   1.550   1.073
 9325SOL    HW128874   5.751   1.530   1.138
 9325SOL    HW228875   5.645   1.464   1.033
 9326SOL     OW28876   2.138   0.031   1.291
 9326SOL    HW128877   2.059   0.064   1.238
 9326SOL    HW228878   2.123   0.049   1.388
 9327SOL     OW28879   4.467   0.077   2.842
 9327SOL    HW128880   4.474   0.055   2.745
 9327SOL    HW228881   4.394   0.144   2.856
 9328SOL     OW28882   3.433   1.499   0.611
 9328SOL    HW128883   3.391   1.490   0.520
 9328SOL    HW228884   3.528   1.528   0.600
 9329SOL     OW28885   0.028   3.896   2.832
 9329SOL    HW128886   0.112   3.922   2.785
 9329SOL    HW228887   0.046   3.887   2.930
 9330SOL     OW28888   6.331   6.999   0.476
 9330SOL    HW128889   6.333   6.903   0.502
 9330SOL    HW228890   6.236   0.005   0.469
 9331SOL     OW28891   0.357   0.715   6.975
 9331SOL    HW128892   0.432   0.730   6.910
 9331SOL    HW228893   0.390   0.732   0.044
 9332SOL     OW28894   2.955   3.779   4.543
 9332SOL    HW128895   2.955   3.877   4.561
 9332SOL    HW228896   2.932   3.730   4.627
 9333SOL     OW28897   6.260   4.355   1.030
 9333SOL    HW128898   6.270   4.448   0.996
 9333SOL    HW228899   6.346   4.305   1.016
 9334SOL     OW28900   2.906   0.227   3.614
 9334SOL    HW128901   2.815   0.234   3.653
 9334SOL    HW228902   2.909   0.152   3.548
 9335SOL     OW28903   1.828   1.171   6.426
 9335SOL    HW128904   1.879   1.222   6.356
 9335SOL    HW228905   1.731   1.167   6.400
 9336SOL     OW28906   2.841   6.437   5.972
 9336SOL    HW128907   2.876   6.357   5.923
 9336SOL    HW228908   2.837   6.515   5.910
 9337SOL     OW28909   5.456   0.465   2.230
 9337SOL    HW128910   5.455   0.558   2.194
 9337SOL    HW228911   5.550   0.433   2.239
 9338SOL     OW28912   3.580   0.485   2.849
 9338SOL    HW128913   3.574   0.396   2.892
 9338SOL    HW228914   3.669   0.525   2.867
 9339SOL     OW28915   4.759   6.031   1.609
 9339SOL    HW128916   4.844   5.981   1.592
 9339SOL    HW228917   4.767   6.123   1.571
 9340SOL     OW28918   5.778   3.458   6.118
 9340SOL    HW128919   5.781   3.358   6.120
 9340SOL    HW228920   5.865   3.494   6.152
 9341SOL     OW28921   0.612   5.580   6.613
 9341SOL    HW128922   0.602   5.617   6.521
 9341SOL    HW228923   0.590   5.483   6.613
 9342SOL     OW28924   1.397   0.246   5.695
 9342SOL    HW128925   1.404   0.148   5.711
 9342SOL    HW228926   1.377   0.263   5.598
 9343SOL     OW28927   6.357   5.411   4.863
 9343SOL    HW128928   6.333   5.493   4.916
 9343SOL    HW228929   6.428   5.435   4.796
 9344SOL     OW28930   5.597   6.319   1.269
 9344SOL    HW128931   5.599   6.419   1.276
 9344SOL    HW228932   5.587   6.279   1.360
 9345SOL     OW28933   6.865   2.806   1.066
 9345SOL    HW128934   6.919   2.729   1.099
 9345SOL    HW228935   6.859   2.876   1.138
 9346SOL     OW28936   6.385   0.756   1.278
 9346SOL    HW128937   6.451   0.740   1.351
 9346SOL    HW228938   6.293   0.736   1.311
 9347SOL     OW28939   1.626   6.326   1.576
 9347SOL    HW128940   1.599   6.235   1.607
 9347SOL    HW228941   1.702   6.359   1.633
 9348SOL     OW28942   2.780   5.522   0.235
 9348SOL    HW128943   2.872   5.484   0.222
 9348SOL    HW228944   2.785   5.621   0.241
 9349SOL     OW28945   0.824   6.872   2.758
 9349SOL    HW128946   0.727   6.848   2.748
 9349SOL    HW228947   0.853   6.854   2.852
 9350SOL     OW28948   0.801   2.444   5.867
 9350SOL    HW128949   0.862   2.437   5.789
 9350SOL    HW228950   0.706   2.447   5.835
 9351SOL     OW28951   3.824   2.152   0.002
 9351SOL    HW128952   3.911   2.200   0.007
 9351SOL    HW228953   3.765   2.183   0.077
 9352SOL     OW28954   2.959   4.523   6.856
 9352SOL    HW128955   2.861   4.531   6.843
 9352SOL    HW228956   2.994   4.605   6.903
 9353SOL     OW28957   0.331   6.116   1.523
 9353SOL    HW128958   0.328   6.025   1.563
 9353SOL    HW228959   0.291   6.182   1.587
 9354SOL     OW28960   6.055   2.459   0.110
 9354SOL    HW128961   6.028   2.519   0.035
 9354SOL    HW228962   6.117   2.388   0.075
 9355SOL     OW28963   0.715   1.865   5.175
 9355SOL    HW128964   0.780   1.817   5.233
 9355SOL    HW228965   0.764   1.918   5.105
 9356SOL     OW28966   4.724   6.814   2.212
 9356SOL    HW128967   4.626   6.796   2.218
 9356SOL    HW228968   4.771   6.731   2.180
 9357SOL     OW28969   0.704   2.141   7.017
 9357SOL    HW128970   0.762   2.200   0.048
 9357SOL    HW228971   0.647   2.085   0.052
 9358SOL     OW28972   1.393   3.528   2.436
 9358SOL    HW128973   1.369   3.457   2.502
 9358SOL    HW228974   1.446   3.600   2.481
 9359SOL     OW28975   1.864   6.812   6.391
 9359SOL    HW128976   1.849   6.758   6.474
 9359SOL    HW228977   1.776   6.846   6.357
 9360SOL     OW28978   0.649   0.543   5.951
 9360SOL    HW128979   0.647   0.508   5.857
 9360SOL    HW228980   0.644   0.643   5.949
 9361SOL     OW28981   2.023   5.752   4.366
 9361SOL    HW128982   2.049   5.822   4.433
 9361SOL    HW228983   2.051   5.782   4.275
 9362SOL     OW28984   1.814   0.381   2.409
 9362SOL    HW128985   1.852   0.438   2.337
 9362SOL    HW228986   1.732   0.424   2.447
 9363SOL     OW28987   3.094   5.087   2.554
 9363SOL    HW128988   3.136   5.037   2.478
 9363SOL    HW228989   3.137   5.059   2.640
 9364SOL     OW28990   1.439   2.056   1.099
 9364SOL    HW128991   1.379   1.976   1.090
 9364SOL    HW228992   1.414   2.124   1.031
 9365SOL     OW28993   3.251   2.010   4.584
 9365SOL    HW128994   3.321   1.978   4.521
 9365SOL    HW228995   3.195   1.933   4.614
 9366SOL     OW28996   3.729   5.695   0.464
 9366SOL    HW128997   3.738   5.746   0.550
 9366SOL    HW228998   3.660   5.623   0.475
 9367SOL     OW28999   6.394   0.757   1.610
 9367SOL    HW129000   6.395   0.663   1.642
 9367SOL    HW229001   6.312   0.774   1.556
 9368SOL     OW29002   3.416   0.860   2.876
 9368SOL    HW129003   3.319   0.881   2.867
 9368SOL    HW229004   3.448   0.814   2.793
 9369SOL     OW29005   2.069   5.392   6.475
 9369SOL    HW129006   2.107   5.471   6.428
 9369SOL    HW229007   2.118   5.310   6.448
 9370SOL     OW29008   4.681   1.775   3.906
 9370SOL    HW129009   4.621   1.804   3.832
 9370SOL    HW229010   4.775   1.766   3.872
 9371SOL     OW29011   4.306   5.626   1.457
 9371SOL    HW129012   4.289   5.723   1.441
 9371SOL    HW229013   4.359   5.614   1.541
 9372SOL     OW29014   5.043   6.267   1.558
 9372SOL    HW129015   5.012   6.331   1.629
 9372SOL    HW229016   4.979   6.270   1.481
 9373SOL     OW29017   6.899   1.428   0.320
 9373SOL    HW129018   6.862   1.469   0.404
 9373SOL    HW229019   6.997   1.410   0.333
 9374SOL     OW29020   0.516   5.379   5.537
 9374SOL    HW129021   0.608   5.373   5.500
 9374SOL    HW229022   0.485   5.474   5.533
 9375SOL     OW29023   0.062   0.739   0.242
 9375SOL    HW129024   0.046   0.783   0.331
 9375SOL    HW229025   0.087   0.809   0.175
 9376SOL     OW29026   2.451   4.257   1.845
 9376SOL    HW129027   2.409   4.192   1.782
 9376SOL    HW229028   2.536   4.219   1.882
 9377SOL     OW29029   2.360   6.676   3.064
 9377SOL    HW129030   2.451   6.713   3.082
 9377SOL    HW229031   2.334   6.615   3.138
 9378SOL     OW29032   2.709   0.585   3.587
 9378SOL    HW129033   2.673   0.543   3.504
 9378SOL    HW229034   2.795   0.632   3.566
 9379SOL     OW29035   4.043   6.317   4.950
 9379SOL    HW129036   3.978   6.280   5.016
 9379SOL    HW229037   4.010   6.405   4.916
 9380SOL     OW29038   5.197   5.461   0.254
 9380SOL    HW129039   5.155   5.547   0.284
 9380SOL    HW229040   5.137   5.416   0.189
 9381SOL     OW29041   5.244   1.822   4.436
 9381SOL    HW129042   5.314   1.751   4.429
 9381SOL    HW229043   5.225   1.858   4.344
 9382SOL     OW29044   2.987   0.163   4.754
 9382SOL    HW129045   2.944   0.102   4.820
 9382SOL    HW229046   2.960   0.257   4.773
 9383SOL     OW29047   5.236   4.158   3.206
 9383SOL    HW129048   5.190   4.130   3.121
 9383SOL    HW229049   5.210   4.251   3.229
 9384SOL     OW29050   2.323   0.387   2.117
 9384SOL    HW129051   2.320   0.454   2.190
 9384SOL    HW229052   2.304   0.296   2.154
 9385SOL     OW29053   3.740   1.781   3.243
 9385SOL    HW129054   3.743   1.712   3.316
 9385SOL    HW229055   3.823   1.836   3.246
 9386SOL     OW29056   4.602   6.315   6.469
 9386SOL    HW129057   4.654   6.270   6.396
 9386SOL    HW229058   4.619   6.270   6.556
 9387SOL     OW29059   2.678   2.333   0.140
 9387SOL    HW129060   2.776   2.354   0.143
 9387SOL    HW229061   2.626   2.416   0.158
 9388SOL     OW29062   2.420   6.951   4.500
 9388SOL    HW129063   2.501   6.965   4.442
 9388SOL    HW229064   2.404   6.853   4.511
 9389SOL     OW29065   2.704   4.432   1.665
 9389SOL    HW129066   2.629   4.490   1.697
 9389SOL    HW229067   2.780   4.439   1.729
 9390SOL     OW29068   5.347   5.315   4.933
 9390SOL    HW129069   5.355   5.403   4.979
 9390SOL    HW229070   5.266   5.315   4.874
 9391SOL     OW29071   1.548   5.666   4.674
 9391SOL    HW129072   1.538   5.580   4.625
 9391SOL    HW229073   1.637   5.707   4.655
 9392SOL     OW29074   5.466   4.286   2.587
 9392SOL    HW129075   5.548   4.300   2.532
 9392SOL    HW229076   5.464   4.352   2.662
 9393SOL     OW29077   2.672   0.271   6.239
 9393SOL    HW129078   2.709   0.283   6.331
 9393SOL    HW229079   2.633   0.180   6.230
 9394SOL     OW29080   4.028   0.446   0.669
 9394SOL    HW129081   3.965   0.522   0.656
 9394SOL    HW229082   3.991   0.384   0.738
 9395SOL     OW29083   1.685   1.365   0.934
 9395SOL    HW129084   1.735   1.399   1.013
 9395SOL    HW229085   1.716   1.272   0.912
 9396SOL     OW29086   0.468   6.497   6.492
 9396SOL    HW129087   0.511   6.451   6.570
 9396SOL    HW229088   0.371   6.511   6.510
 9397SOL     OW29089   3.764   1.362   5.748
 9397SOL    HW129090   3.706   1.347   5.828
 9397SOL    HW229091   3.818   1.445   5.761
 9398SOL     OW29092   0.281   1.609   6.804
 9398SOL    HW129093   0.371   1.631   6.841
 9398SOL    HW229094   0.282   1.516   6.767
 9399SOL     OW29095   1.748   2.910   4.147
 9399SOL    HW129096   1.769   2.962   4.065
 9399SOL    HW229097   1.827   2.910   4.209
 9400SOL     OW29098   5.891   1.283   0.652
 9400SOL    HW129099   5.884   1.273   0.553
 9400SOL    HW229100   5.801   1.299   0.691
 9401SOL     OW29101   0.298   2.208   3.251
 9401SOL    HW129102   0.282   2.249   3.161
 9401SOL    HW229103   0.248   2.122   3.258
 9402SOL     OW29104   1.706   6.269   4.079
 9402SOL    HW129105   1.719   6.273   3.980
 9402SOL    HW229106   1.621   6.221   4.099
 9403SOL     OW29107   6.397   2.787   2.233
 9403SOL    HW129108   6.303   2.765   2.207
 9403SOL    HW229109   6.444   2.827   2.155
 9404SOL     OW29110   2.034   2.652   0.913
 9404SOL    HW129111   2.080   2.705   0.842
 9404SOL    HW229112   1.955   2.703   0.947
 9405SOL     OW29113   0.489   5.846   5.156
 9405SOL    HW129114   0.390   5.836   5.151
 9405SOL    HW229115   0.512   5.924   5.214
 9406SOL     OW29116   0.114   3.073   0.437
 9406SOL    HW129117   0.017   3.094   0.432
 9406SOL    HW229118   0.162   3.147   0.485
 9407SOL     OW29119   1.013   5.520   5.182
 9407SOL    HW129120   0.958   5.448   5.141
 9407SOL    HW229121   1.103   5.484   5.205
 9408SOL     OW29122   0.407   3.916   4.678
 9408SOL    HW129123   0.451   3.837   4.635
 9408SOL    HW229124   0.373   3.891   4.768
 9409SOL     OW29125   6.775   5.220   2.799
 9409SOL    HW129126   6.855   5.161   2.788
 9409SOL    HW229127   6.695   5.177   2.757
 9410SOL     OW29128   3.763   1.027   0.825
 9410SOL    HW129129   3.717   1.058   0.909
 9410SOL    HW229130   3.848   1.078   0.813
 9411SOL     OW29131   3.098   3.402   3.198
 9411SOL    HW129132   3.090   3.302   3.198
 9411SOL    HW229133   3.188   3.428   3.233
 9412SOL     OW29134   6.142   6.338   0.850
 9412SOL    HW129135   6.159   6.372   0.943
 9412SOL    HW229136   6.154   6.239   0.848
 9413SOL     OW29137   4.790   4.275   2.716
 9413SOL    HW129138   4.814   4.179   2.698
 9413SOL    HW229139   4.702   4.296   2.671
 9414SOL     OW29140   1.916   2.108   3.518
 9414SOL    HW129141   1.823   2.130   3.547
 9414SOL    HW229142   1.974   2.093   3.598
 9415SOL     OW29143   3.759   0.892   2.328
 9415SOL    HW129144   3.742   0.896   2.426
 9415SOL    HW229145   3.671   0.885   2.279
 9416SOL     OW29146   5.579   5.110   6.104
 9416SOL    HW129147   5.508   5.103   6.033
 9416SOL    HW229148   5.645   5.036   6.091
 9417SOL     OW29149   3.621   5.556   2.122
 9417SOL    HW129150   3.615   5.631   2.056
 9417SOL    HW229151   3.666   5.478   2.079
 9418SOL     OW29152   3.224   1.788   5.218
 9418SOL    HW129153   3.273   1.722   5.275
 9418SOL    HW229154   3.285   1.823   5.147
 9419SOL     OW29155   1.890   3.212   6.288
 9419SOL    HW129156   1.793   3.222   6.268
 9419SOL    HW229157   1.904   3.132   6.347
 9420SOL     OW29158   6.725   4.114   6.553
 9420SOL    HW129159   6.684   4.036   6.600
 9420SOL    HW229160   6.824   4.102   6.548
 9421SOL     OW29161   3.760   6.521   6.080
 9421SOL    HW129162   3.715   6.432   6.064
 9421SOL    HW229163   3.814   6.545   5.999
 9422SOL     OW29164   2.321   6.176   4.854
 9422SOL    HW129165   2.278   6.147   4.940
 9422SOL    HW229166   2.258   6.237   4.805
 9423SOL     OW29167   4.774   4.683   2.999
 9423SOL    HW129168   4.821   4.601   3.031
 9423SOL    HW229169   4.835   4.762   3.005
 9424SOL     OW29170   6.023   0.064   4.520
 9424SOL    HW129171   6.080   0.106   4.591
 9424SOL    HW229172   5.929   0.098   4.529
 9425SOL     OW29173   6.747   4.677   1.120
 9425SOL    HW129174   6.709   4.767   1.144
 9425SOL    HW229175   6.846   4.678   1.136
 9426SOL     OW29176   6.995   2.201   6.511
 9426SOL    HW129177   6.954   2.177   6.599
 9426SOL    HW229178   7.013   2.118   6.458
 9427SOL     OW29179   5.042   5.027   2.478
 9427SOL    HW129180   5.003   5.047   2.568
 9427SOL    HW229181   4.971   5.039   2.408
 9428SOL     OW29182   0.016   6.191   5.253
 9428SOL    HW129183   6.998   6.100   5.252
 9428SOL    HW229184   0.057   6.208   5.342
 9429SOL     OW29185   2.497   2.372   4.177
 9429SOL    HW129186   2.556   2.425   4.116
 9429SOL    HW229187   2.482   2.424   4.262
 9430SOL     OW29188   1.360   2.208   4.746
 9430SOL    HW129189   1.362   2.167   4.837
 9430SOL    HW229190   1.397   2.142   4.680
 9431SOL     OW29191   0.888   4.921   5.697
 9431SOL    HW129192   0.979   4.951   5.725
 9431SOL    HW229193   0.860   4.843   5.753
 9432SOL     OW29194   6.731   1.607   3.665
 9432SOL    HW129195   6.796   1.643   3.732
 9432SOL    HW229196   6.779   1.548   3.601
 9433SOL     OW29197   4.675   5.404   2.043
 9433SOL    HW129198   4.693   5.307   2.025
 9433SOL    HW229199   4.761   5.455   2.036
 9434SOL     OW29200   4.786   5.409   3.935
 9434SOL    HW129201   4.827   5.361   4.013
 9434SOL    HW229202   4.773   5.505   3.957
 9435SOL     OW29203   0.280   3.050   1.824
 9435SOL    HW129204   0.353   3.118   1.812
 9435SOL    HW229205   0.192   3.097   1.834
 9436SOL     OW29206   2.024   0.387   2.674
 9436SOL    HW129207   2.001   0.307   2.619
 9436SOL    HW229208   2.003   0.368   2.770
 9437SOL     OW29209   5.683   6.665   4.839
 9437SOL    HW129210   5.748   6.599   4.877
 9437SOL    HW229211   5.656   6.730   4.910
 9438SOL     OW29212   4.897   6.828   2.512
 9438SOL    HW129213   4.838   6.873   2.445
 9438SOL    HW229214   4.939   6.748   2.471
 9439SOL     OW29215   1.594   3.157   0.745
 9439SOL    HW129216   1.620   3.134   0.839
 9439SOL    HW229217   1.505   3.203   0.745
 9440SOL     OW29218   2.237   5.114   3.544
 9440SOL    HW129219   2.242   5.093   3.446
 9440SOL    HW229220   2.256   5.031   3.597
 9441SOL     OW29221   0.466   6.378   4.278
 9441SOL    HW129222   0.526   6.458   4.272
 9441SOL    HW229223   0.520   6.298   4.307
 9442SOL     OW29224   5.137   3.024   0.627
 9442SOL    HW129225   5.106   3.018   0.722
 9442SOL    HW229226   5.177   2.936   0.599
 9443SOL     OW29227   2.132   4.550   2.773
 9443SOL    HW129228   2.208   4.504   2.728
 9443SOL    HW229229   2.154   4.647   2.786
 9444SOL     OW29230   0.918   4.385   5.788
 9444SOL    HW129231   0.986   4.426   5.849
 9444SOL    HW229232   0.871   4.311   5.836
 9445SOL     OW29233   0.935   1.256   3.832
 9445SOL    HW129234   0.957   1.329   3.767
 9445SOL    HW229235   0.841   1.267   3.864
 9446SOL     OW29236   6.473   4.765   3.480
 9446SOL    HW129237   6.461   4.671   3.448
 9446SOL    HW229238   6.452   4.829   3.406
 9447SOL     OW29239   4.889   4.443   1.796
 9447SOL    HW129240   4.877   4.354   1.751
 9447SOL    HW229241   4.983   4.453   1.826
 9448SOL     OW29242   6.174   1.038   5.039
 9448SOL    HW129243   6.172   1.038   5.139
 9448SOL    HW229244   6.098   1.093   5.004
 9449SOL     OW29245   5.122   0.581   1.546
 9449SOL    HW129246   5.221   0.568   1.554
 9449SOL    HW229247   5.102   0.644   1.470
 9450SOL     OW29248   1.051   5.659   3.010
 9450SOL    HW129249   1.095   5.733   3.059
 9450SOL    HW229250   0.956   5.649   3.042
 9451SOL     OW29251   3.178   5.395   6.227
 9451SOL    HW129252   3.133   5.312   6.258
 9451SOL    HW229253   3.185   5.460   6.303
 9452SOL     OW29254   6.076   3.939   6.890
 9452SOL    HW129255   6.107   3.882   6.814
 9452SOL    HW229256   6.011   3.888   6.946
 9453SOL     OW29257   5.041   5.194   1.625
 9453SOL    HW129258   5.019   5.103   1.660
 9453SOL    HW229259   5.114   5.187   1.558
 9454SOL     OW29260   5.806   4.311   0.260
 9454SOL    HW129261   5.849   4.282   0.175
 9454SOL    HW229262   5.737   4.381   0.240
 9455SOL     OW29263   3.676   1.334   1.950
 9455SOL    HW129264   3.740   1.335   1.874
 9455SOL    HW229265   3.595   1.387   1.926
 9456SOL     OW29266   0.385   3.065   2.228
 9456SOL    HW129267   0.299   3.115   2.223
 9456SOL    HW229268   0.458   3.121   2.189
 9457SOL     OW29269   6.467   6.341   4.534
 9457SOL    HW129270   6.506   6.419   4.484
 9457SOL    HW229271   6.473   6.359   4.632
 9458SOL     OW29272   6.327   3.909   0.164
 9458SOL    HW129273   6.402   3.911   0.230
 9458SOL    HW229274   6.240   3.915   0.212
 9459SOL     OW29275   4.902   5.072   5.310
 9459SOL    HW129276   4.929   5.060   5.405
 9459SOL    HW229277   4.929   4.991   5.257
 9460SOL     OW29278   1.507   2.525   2.711
 9460SOL    HW129279   1.445   2.550   2.637
 9460SOL    HW229280   1.559   2.444   2.685
 9461SOL     OW29281   1.499   1.858   2.155
 9461SOL    HW129282   1.464   1.885   2.245
 9461SOL    HW229283   1.534   1.939   2.108
 9462SOL     OW29284   0.622   1.033   4.264
 9462SOL    HW129285   0.537   1.049   4.215
 9462SOL    HW229286   0.625   1.090   4.346
 9463SOL     OW29287   5.838   5.021   1.462
 9463SOL    HW129288   5.802   4.948   1.404
 9463SOL    HW229289   5.926   5.053   1.425
 9464SOL     OW29290   0.937   1.340   2.150
 9464SOL    HW129291   0.995   1.304   2.077
 9464SOL    HW229292   0.982   1.326   2.239
 9465SOL     OW29293   6.891   4.138   1.222
 9465SOL    HW129294   6.985   4.161   1.199
 9465SOL    HW229295   6.857   4.203   1.291
 9466SOL     OW29296   3.982   4.569   5.754
 9466SOL    HW129297   3.941   4.655   5.725
 9466SOL    HW229298   3.996   4.570   5.853
 9467SOL     OW29299   2.102   3.734   0.426
 9467SOL    HW129300   2.185   3.679   0.419
 9467SOL    HW229301   2.022   3.676   0.412
 9468SOL     OW29302   6.421   1.395   0.433
 9468SOL    HW129303   6.446   1.442   0.517
 9468SOL    HW229304   6.355   1.451   0.382
 9469SOL     OW29305   0.756   6.656   1.438
 9469SOL    HW129306   0.790   6.562   1.438
 9469SOL    HW229307   0.658   6.655   1.418
 9470SOL     OW29308   3.467   3.578   0.864
 9470SOL    HW129309   3.396   3.641   0.832
 9470SOL    HW229310   3.551   3.629   0.883
 9471SOL     OW29311   6.429   3.148   4.979
 9471SOL    HW129312   6.373   3.074   4.940
 9471SOL    HW229313   6.524   3.133   4.953
 9472SOL     OW29314   1.444   2.935   6.426
 9472SOL    HW129315   1.366   2.916   6.485
 9472SOL    HW229316   1.419   2.918   6.331
 9473SOL     OW29317   2.688   4.139   0.871
 9473SOL    HW129318   2.764   4.103   0.818
 9473SOL    HW229319   2.709   4.233   0.900
 9474SOL     OW29320   5.530   2.885   0.489
 9474SOL    HW129321   5.557   2.967   0.440
 9474SOL    HW229322   5.595   2.867   0.563
 9475SOL     OW29323   5.045   4.006   6.347
 9475SOL    HW129324   4.994   4.030   6.429
 9475SOL    HW229325   5.026   3.911   6.322
 9476SOL     OW29326   4.086   4.047   6.880
 9476SOL    HW129327   4.082   4.092   6.969
 9476SOL    HW229328   4.137   4.105   6.816
 9477SOL     OW29329   1.718   4.355   0.417
 9477SOL    HW129330   1.751   4.448   0.435
 9477SOL    HW229331   1.760   4.319   0.334
 9478SOL     OW29332   5.306   3.242   6.879
 9478SOL    HW129333   5.401   3.218   6.897
 9478SOL    HW229334   5.256   3.251   6.965
 9479SOL     OW29335   4.307   0.634   2.428
 9479SOL    HW129336   4.399   0.661   2.400
 9479SOL    HW229337   4.241   0.661   2.358
 9480SOL     OW29338   6.517   0.973   0.909
 9480SOL    HW129339   6.597   1.002   0.857
 9480SOL    HW229340   6.514   1.021   0.997
 9481SOL     OW29341   4.201   7.008   3.968
 9481SOL    HW129342   4.232   6.934   3.909
 9481SOL    HW229343   4.220   0.072   3.925
 9482SOL     OW29344   6.689   6.223   6.906
 9482SOL    HW129345   6.785   6.235   6.930
 9482SOL    HW229346   6.636   6.202   6.988
 9483SOL     OW29347   6.460   6.783   0.195
 9483SOL    HW129348   6.440   6.774   0.098
 9483SOL    HW229349   6.471   6.880   0.218
 9484SOL     OW29350   4.068   5.653   4.646
 9484SOL    HW129351   3.995   5.650   4.577
 9484SOL    HW229352   4.090   5.748   4.667
 9485SOL     OW29353   0.438   1.056   0.309
 9485SOL    HW129354   0.432   1.123   0.235
 9485SOL    HW229355   0.522   1.072   0.362
 9486SOL     OW29356   5.425   5.704   0.283
 9486SOL    HW129357   5.372   5.733   0.204
 9486SOL    HW229358   5.389   5.747   0.365
 9487SOL     OW29359   3.470   2.905   3.280
 9487SOL    HW129360   3.379   2.940   3.261
 9487SOL    HW229361   3.519   2.891   3.193
 9488SOL     OW29362   1.678   0.646   0.780
 9488SOL    HW129363   1.747   0.686   0.841
 9488SOL    HW229364   1.603   0.710   0.767
 9489SOL     OW29365   5.565   3.142   6.977
 9489SOL    HW129366   5.525   3.051   6.968
 9489SOL    HW229367   5.663   3.134   6.995
 9490SOL     OW29368   5.486   3.627   4.599
 9490SOL    HW129369   5.524   3.639   4.507
 9490SOL    HW229370   5.416   3.556   4.597
 9491SOL     OW29371   5.472   6.036   2.719
 9491SOL    HW129372   5.443   6.119   2.765
 9491SOL    HW229373   5.437   6.036   2.625
 9492SOL     OW29374   4.883   3.208   3.881
 9492SOL    HW129375   4.845   3.235   3.970
 9492SOL    HW229376   4.883   3.286   3.819
 9493SOL     OW29377   4.201   6.273   1.758
 9493SOL    HW129378   4.182   6.177   1.775
 9493SOL    HW229379   4.255   6.283   1.674
 9494SOL     OW29380   5.706   1.990   2.040
 9494SOL    HW129381   5.802   2.017   2.044
 9494SOL    HW229382   5.653   2.060   1.993
 9495SOL     OW29383   0.034   2.067   1.772
 9495SOL    HW129384   0.051   2.109   1.862
 9495SOL    HW229385   0.117   2.022   1.739
 9496SOL     OW29386   5.499   2.168   2.399
 9496SOL    HW129387   5.505   2.087   2.459
 9496SOL    HW229388   5.406   2.174   2.362
 9497SOL     OW29389   4.818   4.632   4.933
 9497SOL    HW129390   4.826   4.727   4.903
 9497SOL    HW229391   4.723   4.601   4.920
 9498SOL     OW29392   0.917   5.367   3.644
 9498SOL    HW129393   0.836   5.416   3.612
 9498SOL    HW229394   0.982   5.432   3.682
 9499SOL     OW29395   6.564   5.860   5.030
 9499SOL    HW129396   6.496   5.925   5.062
 9499SOL    HW229397   6.619   5.902   4.957
 9500SOL     OW29398   4.093   2.132   0.648
 9500SOL    HW129399   4.031   2.078   0.705
 9500SOL    HW229400   4.047   2.218   0.623
 9501SOL     OW29401   2.267   3.511   5.214
 9501SOL    HW129402   2.241   3.475   5.124
 9501SOL    HW229403   2.260   3.610   5.214
 9502SOL     OW29404   4.986   4.478   4.786
 9502SOL    HW129405   5.055   4.532   4.738
 9502SOL    HW229406   4.974   4.515   4.878
 9503SOL     OW29407   6.754   1.946   0.075
 9503SOL    HW129408   6.774   1.887   0.153
 9503SOL    HW229409   6.829   2.011   0.062
 9504SOL     OW29410   5.850   5.203   1.991
 9504SOL    HW129411   5.759   5.243   1.979
 9504SOL    HW229412   5.883   5.168   1.904
 9505SOL     OW29413   3.850   5.595   5.551
 9505SOL    HW129414   3.877   5.536   5.628
 9505SOL    HW229415   3.758   5.631   5.567
 9506SOL     OW29416   3.059   0.961   1.067
 9506SOL    HW129417   3.010   1.033   1.116
 9506SOL    HW229418   3.068   0.880   1.126
 9507SOL     OW29419   5.235   0.004   2.043
 9507SOL    HW129420   5.264   0.086   2.094
 9507SOL    HW229421   5.144   7.001   2.073
 9508SOL     OW29422   4.999   1.453   2.879
 9508SOL    HW129423   5.084   1.473   2.928
 9508SOL    HW229424   4.922   1.465   2.942
 9509SOL     OW29425   5.503   0.332   3.286
 9509SOL    HW129426   5.428   0.365   3.344
 9509SOL    HW229427   5.470   0.256   3.230
 9510SOL     OW29428   1.136   2.926   3.965
 9510SOL    HW129429   1.037   2.910   3.969
 9510SOL    HW229430   1.180   2.852   3.915
 9511SOL     OW29431   0.915   1.519   0.677
 9511SOL    HW129432   0.861   1.443   0.639
 9511SOL    HW229433   0.972   1.558   0.605
 9512SOL     OW29434   6.339   2.068   1.177
 9512SOL    HW129435   6.270   1.996   1.169
 9512SOL    HW229436   6.364   2.080   1.273
 9513SOL     OW29437   4.073   4.851   5.619
 9513SOL    HW129438   4.149   4.834   5.682
 9513SOL    HW229439   4.062   4.772   5.558
 9514SOL     OW29440   3.751   3.090   6.838
 9514SOL    HW129441   3.766   3.184   6.809
 9514SOL    HW229442   3.671   3.053   6.792
 9515SOL     OW29443   0.744   5.644   2.782
 9515SOL    HW129444   0.707   5.555   2.806
 9515SOL    HW229445   0.675   5.697   2.733
 9516SOL     OW29446   0.089   4.232   7.016
 9516SOL    HW129447   7.014   4.241   0.004
 9516SOL    HW229448   0.109   4.203   6.922
 9517SOL     OW29449   0.751   5.204   0.796
 9517SOL    HW129450   0.746   5.145   0.876
 9517SOL    HW229451   0.761   5.147   0.714
 9518SOL     OW29452   1.103   1.350   0.326
 9518SOL    HW129453   1.048   1.429   0.301
 9518SOL    HW229454   1.086   1.276   0.261
 9519SOL     OW29455   1.085   3.334   5.133
 9519SOL    HW129456   1.108   3.358   5.039
 9519SOL    HW229457   1.168   3.332   5.189
 9520SOL     OW29458   3.938   0.008   1.665
 9520SOL    HW129459   3.868   0.065   1.621
 9520SOL    HW229460   3.952   0.040   1.758
 9521SOL     OW29461   5.498   5.095   3.999
 9521SOL    HW129462   5.508   5.014   3.940
 9521SOL    HW229463   5.573   5.159   3.980
 9522SOL     OW29464   3.353   5.718   0.930
 9522SOL    HW129465   3.411   5.793   0.898
 9522SOL    HW229466   3.317   5.669   0.851
 9523SOL     OW29467   3.458   5.955   5.148
 9523SOL    HW129468   3.504   5.868   5.132
 9523SOL    HW229469   3.363   5.949   5.116
 9524SOL     OW29470   4.379   2.597   1.059
 9524SOL    HW129471   4.332   2.565   1.141
 9524SOL    HW229472   4.384   2.697   1.061
 9525SOL     OW29473   3.218   0.682   5.836
 9525SOL    HW129474   3.188   0.691   5.930
 9525SOL    HW229475   3.260   0.591   5.823
 9526SOL     OW29476   5.534   5.493   2.255
 9526SOL    HW129477   5.500   5.448   2.337
 9526SOL    HW229478   5.488   5.581   2.242
 9527SOL     OW29479   6.169   2.151   1.870
 9527SOL    HW129480   6.160   2.219   1.796
 9527SOL    HW229481   6.224   2.074   1.838
 9528SOL     OW29482   6.607   0.669   2.147
 9528SOL    HW129483   6.548   0.727   2.091
 9528SOL    HW229484   6.645   0.723   2.223
 9529SOL     OW29485   0.996   3.629   4.934
 9529SOL    HW129486   0.930   3.557   4.953
 9529SOL    HW229487   0.971   3.712   4.984
 9530SOL     OW29488   1.732   2.425   4.530
 9530SOL    HW129489   1.818   2.470   4.556
 9530SOL    HW229490   1.708   2.356   4.598
 9531SOL     OW29491   2.869   5.969   3.447
 9531SOL    HW129492   2.791   5.918   3.412
 9531SOL    HW229493   2.909   6.024   3.373
 9532SOL     OW29494   2.425   1.141   1.491
 9532SOL    HW129495   2.402   1.048   1.519
 9532SOL    HW229496   2.459   1.193   1.569
 9533SOL     OW29497   1.871   0.204   5.395
 9533SOL    HW129498   1.804   0.132   5.415
 9533SOL    HW229499   1.823   0.287   5.368
 9534SOL     OW29500   4.781   1.699   4.888
 9534SOL    HW129501   4.708   1.736   4.947
 9534SOL    HW229502   4.858   1.763   4.888
 9535SOL     OW29503   2.139   2.237   5.478
 9535SOL    HW129504   2.234   2.207   5.472
 9535SOL    HW229505   2.130   2.327   5.434
 9536SOL     OW29506   3.072   6.979   6.551
 9536SOL    HW129507   3.160   6.941   6.581
 9536SOL    HW229508   3.035   6.922   6.478
 9537SOL     OW29509   2.944   6.765   1.007
 9537SOL    HW129510   2.873   6.836   1.011
 9537SOL    HW229511   2.961   6.729   1.099
 9538SOL     OW29512   5.861   3.245   3.881
 9538SOL    HW129513   5.870   3.330   3.933
 9538SOL    HW229514   5.800   3.260   3.803
 9539SOL     OW29515   0.404   5.166   0.945
 9539SOL    HW129516   0.449   5.222   0.875
 9539SOL    HW229517   0.388   5.074   0.909
 9540SOL     OW29518   5.018   3.710   5.248
 9540SOL    HW129519   4.996   3.632   5.188
 9540SOL    HW229520   5.092   3.684   5.310
 9541SOL     OW29521   1.019   2.144   3.501
 9541SOL    HW129522   0.975   2.126   3.413
 9541SOL    HW229523   0.993   2.235   3.533
 9542SOL     OW29524   4.956   3.817   4.798
 9542SOL    HW129525   4.965   3.719   4.817
 9542SOL    HW229526   4.957   3.832   4.699
 9543SOL     OW29527   5.243   1.819   2.022
 9543SOL    HW129528   5.337   1.839   2.049
 9543SOL    HW229529   5.181   1.883   2.068
 9544SOL     OW29530   3.187   1.712   2.195
 9544SOL    HW129531   3.222   1.780   2.260
 9544SOL    HW229532   3.159   1.630   2.244
 9545SOL     OW29533   0.245   0.120   4.422
 9545SOL    HW129534   0.252   0.100   4.324
 9545SOL    HW229535   0.319   0.181   4.449
 9546SOL     OW29536   2.553   4.339   1.452
 9546SOL    HW129537   2.486   4.413   1.453
 9546SOL    HW229538   2.632   4.365   1.507
 9547SOL     OW29539   6.684   5.899   2.802
 9547SOL    HW129540   6.760   5.919   2.864
 9547SOL    HW229541   6.716   5.839   2.729
 9548SOL     OW29542   4.866   6.368   2.592
 9548SOL    HW129543   4.958   6.347   2.624
 9548SOL    HW229544   4.839   6.303   2.521
 9549SOL     OW29545   2.900   5.403   0.526
 9549SOL    HW129546   2.926   5.315   0.486
 9549SOL    HW229547   2.815   5.436   0.484
 9550SOL     OW29548   1.182   1.925   0.308
 9550SOL    HW129549   1.224   1.835   0.315
 9550SOL    HW229550   1.103   1.930   0.370
 9551SOL     OW29551   2.074   5.985   5.397
 9551SOL    HW129552   2.107   6.079   5.408
 9551SOL    HW229553   2.077   5.960   5.300
 9552SOL     OW29554   1.230   5.270   3.604
 9552SOL    HW129555   1.170   5.192   3.620
 9552SOL    HW229556   1.194   5.325   3.528
 9553SOL     OW29557   5.239   4.811   5.607
 9553SOL    HW129558   5.225   4.713   5.619
 9553SOL    HW229559   5.156   4.852   5.568
 9554SOL     OW29560   2.296   0.952   2.182
 9554SOL    HW129561   2.316   0.871   2.126
 9554SOL    HW229562   2.346   1.030   2.146
 9555SOL     OW29563   6.428   2.274   6.655
 9555SOL    HW129564   6.429   2.175   6.667
 9555SOL    HW229565   6.398   2.318   6.740
 9556SOL     OW29566   6.898   1.950   1.089
 9556SOL    HW129567   6.985   1.904   1.102
 9556SOL    HW229568   6.908   2.048   1.107
 9557SOL     OW29569   5.577   2.581   1.796
 9557SOL    HW129570   5.529   2.494   1.782
 9557SOL    HW229571   5.608   2.587   1.890
 9558SOL     OW29572   6.333   4.450   1.969
 9558SOL    HW129573   6.372   4.539   1.947
 9558SOL    HW229574   6.252   4.434   1.913
 9559SOL     OW29575   6.660   3.004   2.247
 9559SOL    HW129576   6.604   2.950   2.183
 9559SOL    HW229577   6.607   3.082   2.280
 9560SOL     OW29578   3.081   1.708   4.327
 9560SOL    HW129579   3.063   1.751   4.239
 9560SOL    HW229580   3.036   1.760   4.399
 9561SOL     OW29581   4.033   0.007   0.906
 9561SOL    HW129582   3.981   0.090   0.885
 9561SOL    HW229583   3.972   6.962   0.944
 9562SOL     OW29584   5.868   5.484   3.269
 9562SOL    HW129585   5.841   5.416   3.338
 9562SOL    HW229586   5.788   5.507   3.213
 9563SOL     OW29587   0.283   5.613   0.096
 9563SOL    HW129588   0.288   5.707   0.064
 9563SOL    HW229589   0.372   5.585   0.134
 9564SOL     OW29590   2.580   0.077   6.815
 9564SOL    HW129591   2.605   0.079   6.912
 9564SOL    HW229592   2.582   0.170   6.778
 9565SOL     OW29593   4.204   6.082   4.162
 9565SOL    HW129594   4.284   6.078   4.103
 9565SOL    HW229595   4.166   6.174   4.161
 9566SOL     OW29596   3.270   4.874   5.227
 9566SOL    HW129597   3.216   4.795   5.254
 9566SOL    HW229598   3.250   4.896   5.131
 9567SOL     OW29599   6.105   5.849   5.729
 9567SOL    HW129600   6.079   5.917   5.661
 9567SOL    HW229601   6.041   5.772   5.726
 9568SOL     OW29602   5.349   3.511   6.292
 9568SOL    HW129603   5.276   3.480   6.232
 9568SOL    HW229604   5.327   3.602   6.328
 9569SOL     OW29605   5.747   0.105   1.649
 9569SOL    HW129606   5.670   0.042   1.660
 9569SOL    HW229607   5.720   0.181   1.590
 9570SOL     OW29608   0.878   0.248   6.918
 9570SOL    HW129609   0.931   0.210   6.842
 9570SOL    HW229610   0.792   0.285   6.883
 9571SOL     OW29611   2.220   3.049   6.830
 9571SOL    HW129612   2.179   2.991   6.760
 9571SOL    HW229613   2.224   2.999   6.917
 9572SOL     OW29614   0.721   4.235   0.888
 9572SOL    HW129615   0.716   4.189   0.977
 9572SOL    HW229616   0.637   4.217   0.837
 9573SOL     OW29617   6.374   1.976   1.826
 9573SOL    HW129618   6.463   2.001   1.788
 9573SOL    HW229619   6.340   1.895   1.779
 9574SOL     OW29620   2.404   2.050   4.624
 9574SOL    HW129621   2.306   2.034   4.628
 9574SOL    HW229622   2.427   2.098   4.540
 9575SOL     OW29623   4.832   0.792   2.423
 9575SOL    HW129624   4.827   0.709   2.368
 9575SOL    HW229625   4.850   0.767   2.519
 9576SOL     OW29626   3.789   1.483   4.809
 9576SOL    HW129627   3.889   1.486   4.806
 9576SOL    HW229628   3.759   1.452   4.900
 9577SOL     OW29629   0.628   6.246   3.093
 9577SOL    HW129630   0.658   6.182   3.021
 9577SOL    HW229631   0.550   6.207   3.141
 9578SOL     OW29632   6.198   3.925   2.392
 9578SOL    HW129633   6.252   3.915   2.308
 9578SOL    HW229634   6.100   3.925   2.369
 9579SOL     OW29635   1.218   6.477   2.978
 9579SOL    HW129636   1.218   6.510   2.884
 9579SOL    HW229637   1.307   6.438   3.000
 9580SOL     OW29638   4.347   3.572   6.407
 9580SOL    HW129639   4.273   3.507   6.389
 9580SOL    HW229640   4.427   3.549   6.352
 9581SOL     OW29641   1.579   5.387   6.013
 9581SOL    HW129642   1.582   5.483   6.040
 9581SOL    HW229643   1.672   5.355   5.992
 9582SOL     OW29644   4.792   4.717   4.429
 9582SOL    HW129645   4.812   4.635   4.481
 9582SOL    HW229646   4.811   4.701   4.332
 9583SOL     OW29647   2.494   4.539   1.781
 9583SOL    HW129648   2.479   4.440   1.782
 9583SOL    HW229649   2.458   4.579   1.865
 9584SOL     OW29650   5.515   5.563   7.008
 9584SOL    HW129651   5.427   5.595   0.019
 9584SOL    HW229652   5.556   5.501   0.051
 9585SOL     OW29653   0.390   6.848   3.370
 9585SOL    HW129654   0.380   6.753   3.339
 9585SOL    HW229655   0.394   6.850   3.470
 9586SOL     OW29656   5.402   3.109   2.521
 9586SOL    HW129657   5.419   3.071   2.430
 9586SOL    HW229658   5.331   3.056   2.567
 9587SOL     OW29659   4.783   6.631   2.676
 9587SOL    HW129660   4.824   6.710   2.630
 9587SOL    HW229661   4.824   6.547   2.642
 9588SOL     OW29662   6.978   0.302   3.039
 9588SOL    HW129663   0.019   0.349   2.979
 9588SOL    HW229664   7.012   0.304   3.133
 9589SOL     OW29665   2.545   1.657   5.669
 9589SOL    HW129666   2.454   1.622   5.686
 9589SOL    HW229667   2.611   1.608   5.726
 9590SOL     OW29668   0.173   4.536   4.719
 9590SOL    HW129669   0.208   4.514   4.811
 9590SOL    HW229670   0.207   4.468   4.654
 9591SOL     OW29671   1.514   4.506   2.535
 9591SOL    HW129672   1.487   4.475   2.626
 9591SOL    HW229673   1.458   4.584   2.508
 9592SOL     OW29674   4.937   5.526   2.092
 9592SOL    HW129675   5.030   5.545   2.060
 9592SOL    HW229676   4.922   5.569   2.180
 9593SOL     OW29677   1.828   3.232   4.388
 9593SOL    HW129678   1.754   3.167   4.406
 9593SOL    HW229679   1.834   3.248   4.289
 9594SOL     OW29680   6.135   6.669   1.945
 9594SOL    HW129681   6.234   6.676   1.936
 9594SOL    HW229682   6.104   6.579   1.913
 9595SOL     OW29683   1.080   4.372   4.374
 9595SOL    HW129684   1.006   4.411   4.320
 9595SOL    HW229685   1.148   4.443   4.393
 9596SOL     OW29686   4.883   5.369   2.505
 9596SOL    HW129687   4.865   5.330   2.414
 9596SOL    HW229688   4.798   5.372   2.557
 9597SOL     OW29689   1.551   4.141   0.928
 9597SOL    HW129690   1.627   4.096   0.975
 9597SOL    HW229691   1.583   4.225   0.885
 9598SOL     OW29692   1.088   5.727   5.685
 9598SOL    HW129693   1.167   5.673   5.655
 9598SOL    HW229694   1.094   5.819   5.646
 9599SOL     OW29695   4.815   1.455   4.118
 9599SOL    HW129696   4.731   1.402   4.128
 9599SOL    HW229697   4.838   1.463   4.021
 9600SOL     OW29698   1.665   6.091   7.010
 9600SOL    HW129699   1.596   6.096   6.937
 9600SOL    HW229700   1.753   6.121   6.975
 9601SOL     OW29701   0.754   6.148   6.051
 9601SOL    HW129702   0.779   6.078   5.984
 9601SOL    HW229703   0.671   6.195   6.021
 9602SOL     OW29704   1.112   6.152   0.319
 9602SOL    HW129705   1.100   6.055   0.298
 9602SOL    HW229706   1.201   6.183   0.284
 9603SOL     OW29707   1.057   4.899   3.376
 9603SOL    HW129708   1.143   4.847   3.377
 9603SOL    HW229709   1.057   4.966   3.449
 9604SOL     OW29710   6.445   0.210   0.374
 9604SOL    HW129711   6.402   0.130   0.416
 9604SOL    HW229712   6.540   0.216   0.405
 9605SOL     OW29713   2.338   5.943   6.852
 9605SOL    HW129714   2.422   5.908   6.812
 9605SOL    HW229715   2.311   5.885   6.929
 9606SOL     OW29716   6.177   0.316   5.399
 9606SOL    HW129717   6.231   0.248   5.448
 9606SOL    HW229718   6.185   0.405   5.445
 9607SOL     OW29719   0.577   2.852   2.579
 9607SOL    HW129720   0.677   2.842   2.574
 9607SOL    HW229721   0.549   2.847   2.675
 9608SOL     OW29722   6.609   0.461   3.160
 9608SOL    HW129723   6.601   0.363   3.139
 9608SOL    HW229724   6.519   0.497   3.183
 9609SOL     OW29725   1.557   2.290   3.086
 9609SOL    HW129726   1.502   2.365   3.047
 9609SOL    HW229727   1.642   2.328   3.125
 9610SOL     OW29728   3.156   2.108   6.213
 9610SOL    HW129729   3.242   2.139   6.254
 9610SOL    HW229730   3.167   2.099   6.115
 9611SOL     OW29731   6.240   5.999   1.022
 9611SOL    HW129732   6.297   5.966   1.097
 9611SOL    HW229733   6.255   5.941   0.942
 9612SOL     OW29734   4.880   3.560   3.032
 9612SOL    HW129735   4.823   3.498   2.979
 9612SOL    HW229736   4.874   3.536   3.129
 9613SOL     OW29737   5.849   6.656   5.199
 9613SOL    HW129738   5.933   6.666   5.253
 9613SOL    HW229739   5.801   6.744   5.196
 9614SOL     OW29740   3.490   2.952   1.989
 9614SOL    HW129741   3.474   3.049   1.971
 9614SOL    HW229742   3.430   2.921   2.063
 9615SOL     OW29743   0.433   6.423   3.713
 9615SOL    HW129744   0.514   6.437   3.770
 9615SOL    HW229745   0.397   6.331   3.727
 9616SOL     OW29746   2.120   3.132   1.319
 9616SOL    HW129747   2.072   3.085   1.392
 9616SOL    HW229748   2.175   3.207   1.357
 9617SOL     OW29749   0.780   3.502   2.583
 9617SOL    HW129750   0.853   3.467   2.641
 9617SOL    HW229751   0.808   3.590   2.543
 9618SOL     OW29752   3.650   4.887   0.459
 9618SOL    HW129753   3.654   4.819   0.533
 9618SOL    HW229754   3.741   4.898   0.420
 9619SOL     OW29755   1.790   6.733   1.035
 9619SOL    HW129756   1.788   6.633   1.031
 9619SOL    HW229757   1.774   6.764   1.129
 9620SOL     OW29758   3.931   1.893   6.940
 9620SOL    HW129759   3.893   1.973   6.985
 9620SOL    HW229760   3.915   1.812   6.997
 9621SOL     OW29761   0.614   2.067   2.505
 9621SOL    HW129762   0.521   2.096   2.529
 9621SOL    HW229763   0.625   2.072   2.405
 9622SOL     OW29764   0.122   6.207   5.838
 9622SOL    HW129765   0.046   6.214   5.774
 9622SOL    HW229766   0.102   6.262   5.920
 9623SOL     OW29767   4.498   6.943   6.180
 9623SOL    HW129768   4.584   6.894   6.171
 9623SOL    HW229769   4.422   6.885   6.151
 9624SOL     OW29770   4.880   5.208   4.990
 9624SOL    HW129771   4.781   5.193   4.982
 9624SOL    HW229772   4.901   5.242   5.082
 9625SOL     OW29773   4.848   4.016   5.832
 9625SOL    HW129774   4.913   4.080   5.874
 9625SOL    HW229775   4.846   3.931   5.886
 9626SOL     OW29776   2.392   2.219   6.870
 9626SOL    HW129777   2.341   2.141   6.833
 9626SOL    HW229778   2.469   2.185   6.924
 9627SOL     OW29779   0.228   5.213   0.369
 9627SOL    HW129780   0.266   5.254   0.452
 9627SOL    HW229781   0.249   5.271   0.290
 9628SOL     OW29782   6.151   0.986   6.481
 9628SOL    HW129783   6.082   1.053   6.507
 9628SOL    HW229784   6.216   1.028   6.417
 9629SOL     OW29785   0.416   5.726   3.899
 9629SOL    HW129786   0.318   5.742   3.883
 9629SOL    HW229787   0.433   5.721   3.997
 9630SOL     OW29788   5.915   0.506   5.370
 9630SOL    HW129789   5.873   0.572   5.431
 9630SOL    HW229790   5.976   0.553   5.306
 9631SOL     OW29791   3.556   6.548   0.638
 9631SOL    HW129792   3.606   6.505   0.713
 9631SOL    HW229793   3.601   6.527   0.551
 9632SOL     OW29794   3.394   5.372   2.731
 9632SOL    HW129795   3.433   5.436   2.799
 9632SOL    HW229796   3.376   5.284   2.775
 9633SOL     OW29797   3.626   3.467   3.045
 9633SOL    HW129798   3.718   3.435   3.025
 9633SOL    HW229799   3.565   3.388   3.055
 9634SOL     OW29800   5.769   5.124   3.103
 9634SOL    HW129801   5.799   5.135   3.197
 9634SOL    HW229802   5.669   5.125   3.098
 9635SOL     OW29803   1.125   5.543   3.720
 9635SOL    HW129804   1.184   5.471   3.685
 9635SOL    HW229805   1.182   5.620   3.749
 9636SOL     OW29806   5.095   3.494   3.974
 9636SOL    HW129807   5.166   3.540   4.026
 9636SOL    HW229808   5.034   3.562   3.933
 9637SOL     OW29809   1.628   3.093   0.149
 9637SOL    HW129810   1.678   3.178   0.137
 9637SOL    HW229811   1.633   3.064   0.245
 9638SOL     OW29812   5.317   5.910   5.942
 9638SOL    HW129813   5.338   5.900   5.845
 9638SOL    HW229814   5.397   5.886   5.997
 9639SOL     OW29815   4.540   1.707   1.504
 9639SOL    HW129816   4.609   1.731   1.436
 9639SOL    HW229817   4.566   1.743   1.593
 9640SOL     OW29818   4.304   0.455   3.104
 9640SOL    HW129819   4.252   0.460   3.189
 9640SOL    HW229820   4.358   0.538   3.093
 9641SOL     OW29821   6.633   3.735   3.573
 9641SOL    HW129822   6.539   3.769   3.579
 9641SOL    HW229823   6.632   3.642   3.536
 9642SOL     OW29824   0.752   0.186   4.529
 9642SOL    HW129825   0.733   0.123   4.604
 9642SOL    HW229826   0.668   0.205   4.479
 9643SOL     OW29827   4.884   5.276   4.141
 9643SOL    HW129828   4.855   5.181   4.145
 9643SOL    HW229829   4.857   5.323   4.225
 9644SOL     OW29830   1.374   5.520   4.123
 9644SOL    HW129831   1.346   5.529   4.028
 9644SOL    HW229832   1.314   5.454   4.169
 9645SOL     OW29833   0.786   4.811   6.327
 9645SOL    HW129834   0.709   4.856   6.283
 9645SOL    HW229835   0.755   4.727   6.371
 9646SOL     OW29836   4.457   5.284   6.255
 9646SOL    HW129837   4.439   5.371   6.209
 9646SOL    HW229838   4.400   5.278   6.338
 9647SOL     OW29839   6.346   6.527   3.496
 9647SOL    HW129840   6.256   6.536   3.540
 9647SOL    HW229841   6.417   6.524   3.566
 9648SOL     OW29842   4.356   2.100   0.746
 9648SOL    HW129843   4.267   2.123   0.707
 9648SOL    HW229844   4.400   2.184   0.778
 9649SOL     OW29845   0.995   5.579   0.120
 9649SOL    HW129846   0.951   5.489   0.118
 9649SOL    HW229847   1.023   5.605   0.028
 9650SOL     OW29848   0.159   4.640   4.358
 9650SOL    HW129849   0.078   4.699   4.357
 9650SOL    HW229850   0.169   4.595   4.269
 9651SOL     OW29851   4.303   1.684   0.343
 9651SOL    HW129852   4.271   1.687   0.437
 9651SOL    HW229853   4.225   1.695   0.281
 9652SOL     OW29854   0.493   4.183   0.743
 9652SOL    HW129855   0.469   4.145   0.653
 9652SOL    HW229856   0.456   4.275   0.751
 9653SOL     OW29857   4.754   4.169   6.106
 9653SOL    HW129858   4.677   4.209   6.056
 9653SOL    HW229859   4.840   4.193   6.060
 9654SOL     OW29860   3.471   3.666   2.957
 9654SOL    HW129861   3.490   3.731   3.030
 9654SOL    HW229862   3.521   3.581   2.974
 9655SOL     OW29863   4.397   1.213   1.040
 9655SOL    HW129864   4.304   1.246   1.057
 9655SOL    HW229865   4.425   1.239   0.948
 9656SOL     OW29866   5.833   3.784   6.745
 9656SOL    HW129867   5.792   3.873   6.726
 9656SOL    HW229868   5.817   3.760   6.841
 9657SOL     OW29869   5.256   3.686   4.087
 9657SOL    HW129870   5.252   3.745   4.167
 9657SOL    HW229871   5.290   3.738   4.009
 9658SOL     OW29872   4.918   1.809   2.285
 9658SOL    HW129873   4.872   1.856   2.360
 9658SOL    HW229874   4.931   1.713   2.309
 9659SOL     OW29875   2.761   3.105   6.688
 9659SOL    HW129876   2.783   3.008   6.685
 9659SOL    HW229877   2.663   3.118   6.676
 9660SOL     OW29878   1.670   6.282   2.016
 9660SOL    HW129879   1.674   6.375   1.979
 9660SOL    HW229880   1.657   6.218   1.940
 9661SOL     OW29881   4.457   4.079   0.929
 9661SOL    HW129882   4.554   4.057   0.919
 9661SOL    HW229883   4.440   4.112   1.022
 9662SOL     OW29884   5.549   5.874   6.096
 9662SOL    HW129885   5.536   5.854   6.193
 9662SOL    HW229886   5.646   5.872   6.074
 9663SOL     OW29887   0.826   5.219   2.398
 9663SOL    HW129888   0.867   5.188   2.484
 9663SOL    HW229889   0.731   5.188   2.394
 9664SOL     OW29890   4.803   4.728   2.308
 9664SOL    HW129891   4.898   4.725   2.276
 9664SOL    HW229892   4.741   4.723   2.230
 9665SOL     OW29893   6.812   5.764   6.312
 9665SOL    HW129894   6.756   5.745   6.393
 9665SOL    HW229895   6.815   5.862   6.296
 9666SOL     OW29896   5.666   4.062   6.665
 9666SOL    HW129897   5.599   4.079   6.593
 9666SOL    HW229898   5.758   4.078   6.629
 9667SOL     OW29899   5.817   6.206   6.300
 9667SOL    HW129900   5.768   6.253   6.227
 9667SOL    HW229901   5.757   6.139   6.343
 9668SOL     OW29902   0.975   0.770   5.861
 9668SOL    HW129903   0.949   0.855   5.906
 9668SOL    HW229904   1.040   0.720   5.918
 9669SOL     OW29905   3.233   0.300   0.323
 9669SOL    HW129906   3.184   0.385   0.302
 9669SOL    HW229907   3.255   0.298   0.421
 9670SOL     OW29908   0.050   0.002   0.066
 9670SOL    HW129909   7.016   7.013   0.147
 9670SOL    HW229910   7.022   0.052   7.020
 9671SOL     OW29911   1.298   5.379   6.238
 9671SOL    HW129912   1.327   5.436   6.315
 9671SOL    HW229913   1.260   5.293   6.272
 9672SOL     OW29914   1.000   3.518   3.943
 9672SOL    HW129915   1.003   3.424   3.975
 9672SOL    HW229916   1.069   3.572   3.991
 9673SOL     OW29917   2.368   3.006   0.344
 9673SOL    HW129918   2.414   3.093   0.326
 9673SOL    HW229919   2.278   3.023   0.384
 9674SOL     OW29920   2.396   6.258   4.029
 9674SOL    HW129921   2.450   6.202   3.967
 9674SOL    HW229922   2.433   6.250   4.122
 9675SOL     OW29923   6.266   3.222   6.276
 9675SOL    HW129924   6.290   3.276   6.357
 9675SOL    HW229925   6.179   3.255   6.238
 9676SOL     OW29926   1.022   2.475   6.987
 9676SOL    HW129927   1.066   2.517   0.042
 9676SOL    HW229928   1.050   2.523   6.904
 9677SOL     OW29929   6.951   5.468   1.615
 9677SOL    HW129930   0.006   5.442   1.560
 9677SOL    HW229931   6.920   5.390   1.669
 9678SOL     OW29932   3.456   3.461   5.427
 9678SOL    HW129933   3.437   3.556   5.453
 9678SOL    HW229934   3.371   3.417   5.397
 9679SOL     OW29935   1.868   1.514   4.210
 9679SOL    HW129936   1.956   1.474   4.183
 9679SOL    HW229937   1.881   1.569   4.293
 9680SOL     OW29938   4.852   6.604   2.051
 9680SOL    HW129939   4.935   6.548   2.054
 9680SOL    HW229940   4.779   6.552   2.007
 9681SOL     OW29941   1.224   1.983   2.001
 9681SOL    HW129942   1.218   1.898   1.950
 9681SOL    HW229943   1.159   1.981   2.077
 9682SOL     OW29944   5.017   6.116   5.643
 9682SOL    HW129945   5.030   6.071   5.731
 9682SOL    HW229946   5.059   6.207   5.646
 9683SOL     OW29947   3.175   5.958   2.899
 9683SOL    HW129948   3.143   5.885   2.839
 9683SOL    HW229949   3.158   5.933   2.994
 9684SOL     OW29950   6.906   3.360   5.688
 9684SOL    HW129951   6.980   3.409   5.642
 9684SOL    HW229952   6.939   3.269   5.715
 9685SOL     OW29953   3.847   4.226   1.062
 9685SOL    HW129954   3.849   4.308   1.005
 9685SOL    HW229955   3.752   4.198   1.076
 9686SOL     OW29956   6.116   1.417   5.254
 9686SOL    HW129957   6.116   1.511   5.287
 9686SOL    HW229958   6.124   1.417   5.154
 9687SOL     OW29959   5.663   1.215   3.121
 9687SOL    HW129960   5.697   1.134   3.073
 9687SOL    HW229961   5.732   1.288   3.117
 9688SOL     OW29962   1.147   5.043   1.194
 9688SOL    HW129963   1.164   4.974   1.264
 9688SOL    HW229964   1.141   5.133   1.237
 9689SOL     OW29965   2.400   6.071   1.086
 9689SOL    HW129966   2.405   6.170   1.074
 9689SOL    HW229967   2.430   6.046   1.178
 9690SOL     OW29968   6.712   4.808   4.892
 9690SOL    HW129969   6.668   4.719   4.893
 9690SOL    HW229970   6.767   4.819   4.975
 9691SOL     OW29971   2.770   3.682   1.759
 9691SOL    HW129972   2.852   3.728   1.726
 9691SOL    HW229973   2.795   3.607   1.820
 9692SOL     OW29974   5.010   4.431   0.811
 9692SOL    HW129975   5.076   4.445   0.884
 9692SOL    HW229976   5.057   4.399   0.729
 9693SOL     OW29977   4.976   2.974   5.358
 9693SOL    HW129978   4.961   2.975   5.259
 9693SOL    HW229979   4.921   3.045   5.401
 9694SOL     OW29980   2.455   0.139   1.818
 9694SOL    HW129981   2.508   0.182   1.744
 9694SOL    HW229982   2.389   0.205   1.853
 9695SOL     OW29983   1.139   2.498   3.041
 9695SOL    HW129984   1.111   2.515   3.135
 9695SOL    HW229985   1.086   2.558   2.980
 9696SOL     OW29986   4.995   3.046   3.681
 9696SOL    HW129987   4.946   3.092   3.755
 9696SOL    HW229988   5.093   3.054   3.696
 9697SOL     OW29989   0.348   6.773   0.884
 9697SOL    HW129990   0.342   6.744   0.788
 9697SOL    HW229991   0.431   6.735   0.925
 9698SOL     OW29992   6.240   3.471   1.581
 9698SOL    HW129993   6.193   3.527   1.513
 9698SOL    HW229994   6.256   3.380   1.544
 9699SOL     OW29995   1.547   6.296   0.779
 9699SOL    HW129996   1.494   6.309   0.862
 9699SOL    HW229997   1.498   6.235   0.717
 9700SOL     OW29998   5.545   0.369   5.610
 9700SOL    HW129999   5.527   0.400   5.516
 9700SOL    HW230000   5.636   0.400   5.638
 9701SOL     OW30001   4.501   3.996   6.949
 9701SOL    HW130002   4.533   3.938   6.874
 9701SOL    HW230003   4.536   4.089   6.937
 9702SOL     OW30004   3.758   3.510   2.017
 9702SOL    HW130005   3.784   3.417   1.988
 9702SOL    HW230006   3.676   3.538   1.968
 9703SOL     OW30007   6.312   4.541   4.694
 9703SOL    HW130008   6.276   4.479   4.765
 9703SOL    HW230009   6.345   4.625   4.737
 9704SOL     OW30010   1.524   4.160   2.789
 9704SOL    HW130011   1.490   4.111   2.709
 9704SOL    HW230012   1.501   4.110   2.872
 9705SOL     OW30013   6.536   3.233   5.468
 9705SOL    HW130014   6.488   3.241   5.380
 9705SOL    HW230015   6.474   3.194   5.536
 9706SOL     OW30016   0.704   1.342   2.528
 9706SOL    HW130017   0.771   1.268   2.531
 9706SOL    HW230018   0.745   1.422   2.484
 9707SOL     OW30019   1.459   4.939   2.314
 9707SOL    HW130020   1.404   5.016   2.281
 9707SOL    HW230021   1.427   4.912   2.405
 9708SOL     OW30022   2.612   0.729   1.786
 9708SOL    HW130023   2.598   0.711   1.689
 9708SOL    HW230024   2.576   0.653   1.839
 9709SOL     OW30025   5.621   2.207   1.665
 9709SOL    HW130026   5.564   2.272   1.715
 9709SOL    HW230027   5.582   2.190   1.575
 9710SOL     OW30028   6.908   5.505   4.189
 9710SOL    HW130029   6.841   5.572   4.158
 9710SOL    HW230030   6.988   5.508   4.129
 9711SOL     OW30031   3.156   0.815   0.838
 9711SOL    HW130032   3.151   0.889   0.905
 9711SOL    HW230033   3.204   0.737   0.878
 9712SOL     OW30034   5.287   1.618   6.905
 9712SOL    HW130035   5.289   1.715   6.929
 9712SOL    HW230036   5.239   1.567   6.975
 9713SOL     OW30037   0.969   6.547   3.089
 9713SOL    HW130038   1.017   6.594   3.163
 9713SOL    HW230039   1.033   6.491   3.038
 9714SOL     OW30040   2.327   4.325   4.365
 9714SOL    HW130041   2.269   4.328   4.283
 9714SOL    HW230042   2.288   4.259   4.430
 9715SOL     OW30043   6.834   3.590   6.982
 9715SOL    HW130044   6.854   3.494   6.960
 9715SOL    HW230045   6.881   3.615   0.042
 9716SOL     OW30046   2.380   5.315   0.189
 9716SOL    HW130047   2.296   5.264   0.207
 9716SOL    HW230048   2.358   5.402   0.145
 9717SOL     OW30049   3.979   2.286   5.373
 9717SOL    HW130050   3.943   2.199   5.407
 9717SOL    HW230051   3.902   2.346   5.350
 9718SOL     OW30052   4.107   2.649   6.402
 9718SOL    HW130053   4.049   2.721   6.365
 9718SOL    HW230054   4.123   2.665   6.500
 9719SOL     OW30055   4.835   0.162   5.883
 9719SOL    HW130056   4.747   0.125   5.854
 9719SOL    HW230057   4.850   0.142   5.979
 9720SOL     OW30058   2.174   3.249   3.145
 9720SOL    HW130059   2.267   3.216   3.133
 9720SOL    HW230060   2.160   3.273   3.241
 9721SOL     OW30061   0.878   1.025   0.227
 9721SOL    HW130062   0.878   1.102   0.164
 9721SOL    HW230063   0.973   1.004   0.253
 9722SOL     OW30064   3.904   2.671   5.341
 9722SOL    HW130065   3.982   2.644   5.284
 9722SOL    HW230066   3.936   2.732   5.413
 9723SOL     OW30067   6.432   0.057   4.904
 9723SOL    HW130068   6.446   0.057   4.805
 9723SOL    HW230069   6.464   0.144   4.942
 9724SOL     OW30070   1.642   5.521   6.998
 9724SOL    HW130071   1.556   5.554   6.959
 9724SOL    HW230072   1.716   5.582   6.971
 9725SOL     OW30073   4.069   5.161   4.515
 9725SOL    HW130074   4.084   5.156   4.416
 9725SOL    HW230075   4.033   5.252   4.538
 9726SOL     OW30076   7.016   1.231   3.417
 9726SOL    HW130077   6.922   1.213   3.445
 9726SOL    HW230078   0.035   1.145   3.389
 9727SOL     OW30079   0.413   1.393   1.118
 9727SOL    HW130080   0.389   1.373   1.023
 9727SOL    HW230081   0.330   1.411   1.171
 9728SOL     OW30082   4.588   1.815   4.571
 9728SOL    HW130083   4.588   1.880   4.495
 9728SOL    HW230084   4.653   1.845   4.640
 9729SOL     OW30085   0.340   5.113   2.991
 9729SOL    HW130086   0.331   5.107   3.090
 9729SOL    HW230087   0.255   5.149   2.952
 9730SOL     OW30088   1.156   4.248   3.128
 9730SOL    HW130089   1.208   4.333   3.138
 9730SOL    HW230090   1.058   4.270   3.125
 9731SOL     OW30091   5.363   3.526   1.967
 9731SOL    HW130092   5.301   3.573   2.030
 9731SOL    HW230093   5.457   3.540   1.996
 9732SOL     OW30094   1.746   3.631   2.925
 9732SOL    HW130095   1.827   3.676   2.887
 9732SOL    HW230096   1.751   3.633   3.025
 9733SOL     OW30097   5.755   4.716   2.254
 9733SOL    HW130098   5.691   4.784   2.289
 9733SOL    HW230099   5.829   4.763   2.205
 9734SOL     OW30100   5.076   5.561   6.458
 9734SOL    HW130101   5.023   5.618   6.396
 9734SOL    HW230102   5.151   5.615   6.497
 9735SOL     OW30103   0.365   2.386   1.004
 9735SOL    HW130104   0.441   2.430   1.052
 9735SOL    HW230105   0.392   2.295   0.975
 9736SOL     OW30106   4.844   1.307   4.813
 9736SOL    HW130107   4.903   1.341   4.887
 9736SOL    HW230108   4.752   1.344   4.824
 9737SOL     OW30109   5.911   3.286   2.811
 9737SOL    HW130110   5.955   3.373   2.790
 9737SOL    HW230111   5.863   3.252   2.730
 9738SOL     OW30112   2.580   6.681   2.000
 9738SOL    HW130113   2.511   6.610   2.011
 9738SOL    HW230114   2.535   6.768   1.980
 9739SOL     OW30115   5.762   6.898   0.097
 9739SOL    HW130116   5.772   6.981   0.153
 9739SOL    HW230117   5.842   6.888   0.038
 9740SOL     OW30118   5.936   0.814   3.348
 9740SOL    HW130119   5.982   0.732   3.380
 9740SOL    HW230120   5.839   0.795   3.336
 9741SOL     OW30121   2.399   1.790   4.407
 9741SOL    HW130122   2.407   1.693   4.429
 9741SOL    HW230123   2.428   1.845   4.486
 9742SOL     OW30124   3.848   2.132   6.224
 9742SOL    HW130125   3.812   2.072   6.153
 9742SOL    HW230126   3.792   2.215   6.229
 9743SOL     OW30127   5.258   3.490   4.613
 9743SOL    HW130128   5.279   3.404   4.660
 9743SOL    HW230129   5.174   3.529   4.653
 9744SOL     OW30130   1.918   1.561   3.370
 9744SOL    HW130131   1.918   1.463   3.351
 9744SOL    HW230132   1.970   1.609   3.299
 9745SOL     OW30133   6.854   0.393   6.185
 9745SOL    HW130134   6.943   0.369   6.225
 9745SOL    HW230135   6.781   0.363   6.245
 9746SOL     OW30136   4.273   5.029   6.229
 9746SOL    HW130137   4.198   5.084   6.194
 9746SOL    HW230138   4.351   5.037   6.168
 9747SOL     OW30139   2.449   1.449   2.980
 9747SOL    HW130140   2.373   1.466   2.917
 9747SOL    HW230141   2.511   1.382   2.940
 9748SOL     OW30142   1.074   0.937   3.462
 9748SOL    HW130143   1.111   0.854   3.502
 9748SOL    HW230144   1.140   1.012   3.473
 9749SOL     OW30145   0.142   0.826   2.142
 9749SOL    HW130146   0.102   0.864   2.226
 9749SOL    HW230147   0.241   0.818   2.153
 9750SOL     OW30148   6.079   3.241   4.137
 9750SOL    HW130149   6.115   3.327   4.173
 9750SOL    HW230150   6.115   3.226   4.044
 9751SOL     OW30151   3.695   0.111   1.632
 9751SOL    HW130152   3.655   0.024   1.601
 9751SOL    HW230153   3.667   0.129   1.726
 9752SOL     OW30154   3.162   3.495   6.828
 9752SOL    HW130155   3.145   3.454   6.738
 9752SOL    HW230156   3.117   3.585   6.833
 9753SOL     OW30157   6.768   6.161   5.032
 9753SOL    HW130158   6.820   6.123   4.956
 9753SOL    HW230159   6.782   6.260   5.036
 9754SOL     OW30160   3.108   0.662   1.510
 9754SOL    HW130161   3.137   0.566   1.518
 9754SOL    HW230162   3.097   0.701   1.602
 9755SOL     OW30163   2.830   4.293   0.506
 9755SOL    HW130164   2.824   4.324   0.411
 9755SOL    HW230165   2.739   4.292   0.546
 9756SOL     OW30166   5.624   0.243   5.844
 9756SOL    HW130167   5.720   0.235   5.816
 9756SOL    HW230168   5.569   0.270   5.765
 9757SOL     OW30169   5.375   4.426   4.212
 9757SOL    HW130170   5.293   4.419   4.156
 9757SOL    HW230171   5.407   4.335   4.237
 9758SOL     OW30172   1.982   0.456   1.855
 9758SOL    HW130173   2.039   0.374   1.854
 9758SOL    HW230174   2.018   0.522   1.921
 9759SOL     OW30175   6.873   0.990   1.572
 9759SOL    HW130176   6.892   1.069   1.514
 9759SOL    HW230177   6.778   0.994   1.604
 9760SOL     OW30178   5.005   1.369   6.913
 9760SOL    HW130179   4.986   1.366   6.815
 9760SOL    HW230180   4.926   1.334   6.963
 9761SOL     OW30181   1.570   2.041   0.821
 9761SOL    HW130182   1.488   2.095   0.841
 9761SOL    HW230183   1.597   1.991   0.904
 9762SOL     OW30184   2.573   1.943   5.702
 9762SOL    HW130185   2.533   1.855   5.677
 9762SOL    HW230186   2.510   2.017   5.677
 9763SOL     OW30187   6.409   1.296   1.100
 9763SOL    HW130188   6.374   1.299   1.194
 9763SOL    HW230189   6.351   1.237   1.044
 9764SOL     OW30190   0.083   2.386   2.650
 9764SOL    HW130191   0.009   2.412   2.712
 9764SOL    HW230192   0.125   2.468   2.611
 9765SOL     OW30193   7.002   0.277   2.161
 9765SOL    HW130194   0.000   0.366   2.121
 9765SOL    HW230195   0.041   0.258   2.236
 9766SOL     OW30196   1.913   1.926   4.286
 9766SOL    HW130197   1.992   1.867   4.307
 9766SOL    HW230198   1.860   1.885   4.212
 9767SOL     OW30199   2.404   2.195   5.676
 9767SOL    HW130200   2.391   2.280   5.728
 9767SOL    HW230201   2.435   2.217   5.584
 9768SOL     OW30202   5.451   3.072   0.747
 9768SOL    HW130203   5.466   2.977   0.773
 9768SOL    HW230204   5.408   3.121   0.823
 9769SOL     OW30205   3.782   1.730   5.280
 9769SOL    HW130206   3.859   1.785   5.313
 9769SOL    HW230207   3.701   1.789   5.268
 9770SOL     OW30208   2.637   2.710   6.396
 9770SOL    HW130209   2.644   2.715   6.296
 9770SOL    HW230210   2.604   2.619   6.422
 9771SOL     OW30211   2.626   0.119   2.126
 9771SOL    HW130212   2.566   0.039   2.118
 9771SOL    HW230213   2.715   0.098   2.086
 9772SOL     OW30214   1.419   0.283   1.220
 9772SOL    HW130215   1.424   0.356   1.151
 9772SOL    HW230216   1.385   0.199   1.178
 9773SOL     OW30217   5.369   4.840   1.928
 9773SOL    HW130218   5.401   4.889   2.009
 9773SOL    HW230219   5.374   4.900   1.848
 9774SOL     OW30220   1.047   4.721   5.034
 9774SOL    HW130221   1.037   4.784   5.111
 9774SOL    HW230222   1.057   4.628   5.067
 9775SOL     OW30223   2.623   1.290   3.668
 9775SOL    HW130224   2.709   1.309   3.621
 9775SOL    HW230225   2.553   1.267   3.600
 9776SOL     OW30226   2.278   5.535   0.467
 9776SOL    HW130227   2.354   5.505   0.409
 9776SOL    HW230228   2.298   5.626   0.502
 9777SOL     OW30229   4.450   1.114   5.928
 9777SOL    HW130230   4.494   1.165   5.855
 9777SOL    HW230231   4.354   1.100   5.906
 9778SOL     OW30232   6.992   4.013   4.094
 9778SOL    HW130233   6.986   4.101   4.047
 9778SOL    HW230234   6.979   3.939   4.028
 9779SOL     OW30235   2.229   0.895   3.726
 9779SOL    HW130236   2.302   0.838   3.688
 9779SOL    HW230237   2.213   0.973   3.665
 9780SOL     OW30238   1.027   2.782   1.973
 9780SOL    HW130239   1.001   2.716   2.044
 9780SOL    HW230240   0.962   2.858   1.973
 9781SOL     OW30241   2.235   2.375   3.088
 9781SOL    HW130242   2.280   2.364   3.000
 9781SOL    HW230243   2.163   2.306   3.098
 9782SOL     OW30244   6.871   2.535   0.730
 9782SOL    HW130245   6.835   2.617   0.775
 9782SOL    HW230246   6.911   2.475   0.799
 9783SOL     OW30247   3.664   0.895   3.090
 9783SOL    HW130248   3.745   0.909   3.033
 9783SOL    HW230249   3.582   0.898   3.034
 9784SOL     OW30250   1.151   1.183   6.322
 9784SOL    HW130251   1.135   1.257   6.388
 9784SOL    HW230252   1.081   1.113   6.334
 9785SOL     OW30253   6.886   3.579   4.804
 9785SOL    HW130254   6.848   3.610   4.891
 9785SOL    HW230255   6.814   3.576   4.735
 9786SOL     OW30256   2.241   3.978   0.344
 9786SOL    HW130257   2.175   3.910   0.378
 9786SOL    HW230258   2.302   4.004   0.419
 9787SOL     OW30259   3.111   3.769   3.399
 9787SOL    HW130260   3.184   3.751   3.464
 9787SOL    HW230261   3.145   3.756   3.305
 9788SOL     OW30262   4.418   0.392   2.246
 9788SOL    HW130263   4.485   0.404   2.318
 9788SOL    HW230264   4.368   0.306   2.260
 9789SOL     OW30265   3.893   1.478   6.824
 9789SOL    HW130266   3.802   1.439   6.810
 9789SOL    HW230267   3.959   1.404   6.837
 9790SOL     OW30268   0.099   5.082   3.764
 9790SOL    HW130269   0.108   5.010   3.833
 9790SOL    HW230270   0.188   5.097   3.721
 9791SOL     OW30271   0.943   6.545   1.101
 9791SOL    HW130272   1.024   6.529   1.044
 9791SOL    HW230273   0.932   6.643   1.116
 9792SOL     OW30274   4.106   6.195   0.727
 9792SOL    HW130275   4.012   6.203   0.761
 9792SOL    HW230276   4.141   6.103   0.746
 9793SOL     OW30277   5.751   0.426   3.462
 9793SOL    HW130278   5.693   0.448   3.540
 9793SOL    HW230279   5.709   0.462   3.379
 9794SOL     OW30280   4.534   4.569   4.658
 9794SOL    HW130281   4.628   4.537   4.659
 9794SOL    HW230282   4.492   4.550   4.569
 9795SOL     OW30283   2.075   3.492   3.256
 9795SOL    HW130284   2.082   3.584   3.218
 9795SOL    HW230285   2.100   3.425   3.185
 9796SOL     OW30286   4.052   3.786   3.640
 9796SOL    HW130287   4.052   3.707   3.579
 9796SOL    HW230288   4.146   3.803   3.671
 9797SOL     OW30289   2.743   5.359   7.010
 9797SOL    HW130290   2.748   5.415   0.069
 9797SOL    HW230291   2.813   5.287   7.014
 9798SOL     OW30292   0.493   3.911   0.183
 9798SOL    HW130293   0.396   3.890   0.195
 9798SOL    HW230294   0.547   3.856   0.247
 9799SOL     OW30295   2.727   0.320   6.507
 9799SOL    HW130296   2.759   0.408   6.473
 9799SOL    HW230297   2.697   0.330   6.602
 9800SOL     OW30298   6.646   4.004   5.151
 9800SOL    HW130299   6.662   3.932   5.219
 9800SOL    HW230300   6.589   3.967   5.077
 9801SOL     OW30301   6.346   6.246   6.771
 9801SOL    HW130302   6.288   6.188   6.714
 9801SOL    HW230303   6.372   6.328   6.720
 9802SOL     OW30304   3.609   4.794   0.076
 9802SOL    HW130305   3.667   4.755   0.148
 9802SOL    HW230306   3.623   4.743   7.015
 9803SOL     OW30307   1.206   3.753   6.535
 9803SOL    HW130308   1.128   3.806   6.501
 9803SOL    HW230309   1.286   3.771   6.479
 9804SOL     OW30310   6.962   6.048   2.606
 9804SOL    HW130311   6.919   6.099   2.680
 9804SOL    HW230312   0.028   6.088   2.585
 9805SOL     OW30313   0.643   6.070   3.837
 9805SOL    HW130314   0.631   5.982   3.791
 9805SOL    HW230315   0.665   6.141   3.769
 9806SOL     OW30316   3.866   1.616   0.065
 9806SOL    HW130317   3.808   1.553   0.116
 9806SOL    HW230318   3.895   1.574   7.003
 9807SOL     OW30319   3.303   3.468   2.069
 9807SOL    HW130320   3.310   3.563   2.039
 9807SOL    HW230321   3.207   3.439   2.068
 9808SOL     OW30322   4.277   6.107   2.554
 9808SOL    HW130323   4.194   6.054   2.570
 9808SOL    HW230324   4.253   6.198   2.521
 9809SOL     OW30325   0.288   3.197   1.175
 9809SOL    HW130326   0.307   3.234   1.266
 9809SOL    HW230327   0.293   3.097   1.178
 9810SOL     OW30328   2.376   2.254   0.256
 9810SOL    HW130329   2.473   2.273   0.269
 9810SOL    HW230330   2.364   2.158   0.229
 9811SOL     OW30331   5.908   3.594   4.275
 9811SOL    HW130332   5.844   3.670   4.289
 9811SOL    HW230333   5.908   3.536   4.356
 9812SOL     OW30334   3.526   6.514   5.834
 9812SOL    HW130335   3.612   6.494   5.788
 9812SOL    HW230336   3.523   6.468   5.922
 9813SOL     OW30337   5.318   1.190   1.940
 9813SOL    HW130338   5.343   1.230   1.852
 9813SOL    HW230339   5.398   1.146   1.980
 9814SOL     OW30340   5.581   1.401   0.490
 9814SOL    HW130341   5.553   1.454   0.410
 9814SOL    HW230342   5.618   1.313   0.461
 9815SOL     OW30343   4.383   2.329   4.983
 9815SOL    HW130344   4.368   2.231   4.966
 9815SOL    HW230345   4.303   2.367   5.029
 9816SOL     OW30346   1.892   0.170   6.931
 9816SOL    HW130347   1.801   0.138   6.905
 9816SOL    HW230348   1.888   0.268   6.949
 9817SOL     OW30349   6.510   0.015   3.279
 9817SOL    HW130350   6.419   0.006   3.319
 9817SOL    HW230351   6.524   6.965   3.212
 9818SOL     OW30352   6.276   3.092   4.272
 9818SOL    HW130353   6.217   3.159   4.227
 9818SOL    HW230354   6.263   3.002   4.229
 9819SOL     OW30355   4.026   0.708   3.102
 9819SOL    HW130356   4.116   0.750   3.094
 9819SOL    HW230357   3.957   0.771   3.067
 9820SOL     OW30358   4.556   3.551   6.016
 9820SOL    HW130359   4.466   3.511   6.033
 9820SOL    HW230360   4.555   3.602   5.930
 9821SOL     OW30361   6.324   5.350   0.133
 9821SOL    HW130362   6.291   5.272   0.185
 9821SOL    HW230363   6.248   5.410   0.111
 9822SOL     OW30364   0.571   6.963   2.619
 9822SOL    HW130365   0.540   6.978   2.713
 9822SOL    HW230366   0.537   6.875   2.587
 9823SOL     OW30367   3.575   1.144   1.752
 9823SOL    HW130368   3.564   1.200   1.834
 9823SOL    HW230369   3.546   1.197   1.672
 9824SOL     OW30370   1.522   4.177   5.907
 9824SOL    HW130371   1.610   4.172   5.861
 9824SOL    HW230372   1.450   4.146   5.845
 9825SOL     OW30373   4.116   5.111   5.218
 9825SOL    HW130374   4.057   5.113   5.137
 9825SOL    HW230375   4.083   5.177   5.286
 9826SOL     OW30376   4.037   0.525   5.866
 9826SOL    HW130377   4.070   0.605   5.917
 9826SOL    HW230378   4.113   0.463   5.849
 9827SOL     OW30379   0.835   3.886   4.585
 9827SOL    HW130380   0.839   3.787   4.593
 9827SOL    HW230381   0.810   3.911   4.492
 9828SOL     OW30382   3.758   2.711   6.621
 9828SOL    HW130383   3.829   2.782   6.623
 9828SOL    HW230384   3.725   2.694   6.714
 9829SOL     OW30385   2.462   5.307   0.620
 9829SOL    HW130386   2.378   5.252   0.621
 9829SOL    HW230387   2.470   5.353   0.531
 9830SOL     OW30388   6.061   1.390   1.547
 9830SOL    HW130389   5.973   1.393   1.594
 9830SOL    HW230390   6.087   1.481   1.517
 9831SOL     OW30391   6.131   6.626   1.600
 9831SOL    HW130392   6.058   6.650   1.537
 9831SOL    HW230393   6.214   6.678   1.577
 9832SOL     OW30394   4.499   5.187   1.623
 9832SOL    HW130395   4.409   5.228   1.629
 9832SOL    HW230396   4.499   5.116   1.552
 9833SOL     OW30397   3.596   3.674   5.219
 9833SOL    HW130398   3.610   3.699   5.315
 9833SOL    HW230399   3.525   3.605   5.213
 9834SOL     OW30400   0.805   3.615   4.677
 9834SOL    HW130401   0.893   3.577   4.705
 9834SOL    HW230402   0.753   3.640   4.759
 9835SOL     OW30403   4.730   1.684   4.248
 9835SOL    HW130404   4.746   1.597   4.202
 9835SOL    HW230405   4.799   1.750   4.218
 9836SOL     OW30406   4.921   4.632   3.408
 9836SOL    HW130407   4.922   4.533   3.420
 9836SOL    HW230408   5.008   4.670   3.439
 9837SOL     OW30409   2.714   6.352   4.433
 9837SOL    HW130410   2.694   6.442   4.472
 9837SOL    HW230411   2.813   6.344   4.418
 9838SOL     OW30412   0.803   5.988   5.842
 9838SOL    HW130413   0.798   6.063   5.775
 9838SOL    HW230414   0.899   5.969   5.863
 9839SOL     OW30415   0.302   1.579   1.467
 9839SOL    HW130416   0.393   1.557   1.433
 9839SOL    HW230417   0.269   1.503   1.523
 9840SOL     OW30418   6.666   0.521   1.073
 9840SOL    HW130419   6.711   0.486   0.990
 9840SOL    HW230420   6.601   0.592   1.048
 9841SOL     OW30421   1.788   3.735   4.601
 9841SOL    HW130422   1.768   3.648   4.556
 9841SOL    HW230423   1.884   3.759   4.586
 9842SOL     OW30424   2.968   3.317   2.604
 9842SOL    HW130425   2.882   3.349   2.565
 9842SOL    HW230426   2.951   3.278   2.695
 9843SOL     OW30427   6.598   2.666   1.788
 9843SOL    HW130428   6.584   2.713   1.875
 9843SOL    HW230429   6.651   2.583   1.803
 9844SOL     OW30430   5.645   0.184   2.378
 9844SOL    HW130431   5.549   0.164   2.358
 9844SOL    HW230432   5.666   0.277   2.348
 9845SOL     OW30433   1.642   2.099   3.461
 9845SOL    HW130434   1.623   2.196   3.476
 9845SOL    HW230435   1.556   2.048   3.457
 9846SOL     OW30436   3.015   3.822   2.953
 9846SOL    HW130437   3.115   3.812   2.959
 9846SOL    HW230438   2.990   3.917   2.971
 9847SOL     OW30439   1.750   3.912   5.843
 9847SOL    HW130440   1.669   3.872   5.884
 9847SOL    HW230441   1.808   3.839   5.806
 9848SOL     OW30442   4.665   3.048   0.153
 9848SOL    HW130443   4.751   3.097   0.142
 9848SOL    HW230444   4.630   3.023   0.063
 9849SOL     OW30445   6.787   0.018   6.090
 9849SOL    HW130446   6.742   0.047   6.174
 9849SOL    HW230447   6.757   6.949   6.066
 9850SOL     OW30448   3.754   6.506   2.020
 9850SOL    HW130449   3.718   6.592   1.985
 9850SOL    HW230450   3.839   6.522   2.069
 9851SOL     OW30451   5.308   1.459   5.308
 9851SOL    HW130452   5.208   1.460   5.310
 9851SOL    HW230453   5.340   1.533   5.249
 9852SOL     OW30454   4.830   1.721   3.564
 9852SOL    HW130455   4.758   1.787   3.586
 9852SOL    HW230456   4.800   1.629   3.590
 9853SOL     OW30457   5.867   3.728   2.681
 9853SOL    HW130458   5.875   3.827   2.669
 9853SOL    HW230459   5.814   3.708   2.764
 9854SOL     OW30460   5.969   5.194   4.594
 9854SOL    HW130461   6.040   5.245   4.643
 9854SOL    HW230462   5.990   5.096   4.596
 9855SOL     OW30463   1.474   3.850   1.682
 9855SOL    HW130464   1.546   3.824   1.746
 9855SOL    HW230465   1.390   3.802   1.704
 9856SOL     OW30466   3.339   3.325   0.462
 9856SOL    HW130467   3.288   3.297   0.381
 9856SOL    HW230468   3.361   3.244   0.517
 9857SOL     OW30469   5.785   3.338   3.057
 9857SOL    HW130470   5.825   3.429   3.068
 9857SOL    HW230471   5.793   3.310   2.961
 9858SOL     OW30472   5.665   0.753   1.892
 9858SOL    HW130473   5.664   0.704   1.805
 9858SOL    HW230474   5.760   0.775   1.917
 9859SOL     OW30475   6.464   0.846   2.322
 9859SOL    HW130476   6.491   0.793   2.402
 9859SOL    HW230477   6.537   0.909   2.297
 9860SOL     OW30478   0.792   0.863   2.499
 9860SOL    HW130479   0.710   0.885   2.446
 9860SOL    HW230480   0.765   0.835   2.592
 9861SOL     OW30481   4.446   5.803   4.346
 9861SOL    HW130482   4.541   5.819   4.318
 9861SOL    HW230483   4.442   5.798   4.446
 9862SOL     OW30484   1.799   2.385   0.665
 9862SOL    HW130485   1.891   2.398   0.702
 9862SOL    HW230486   1.732   2.393   0.740
 9863SOL     OW30487   3.388   0.201   2.940
 9863SOL    HW130488   3.296   0.205   2.979
 9863SOL    HW230489   3.449   0.152   3.003
 9864SOL     OW30490   4.966   5.848   2.711
 9864SOL    HW130491   4.983   5.896   2.797
 9864SOL    HW230492   5.035   5.875   2.644
 9865SOL     OW30493   0.675   0.354   3.704
 9865SOL    HW130494   0.614   0.398   3.770
 9865SOL    HW230495   0.654   0.257   3.699
 9866SOL     OW30496   4.838   3.811   4.432
 9866SOL    HW130497   4.891   3.880   4.480
 9866SOL    HW230498   4.852   3.722   4.476
 9867SOL     OW30499   4.961   1.510   0.606
 9867SOL    HW130500   5.018   1.437   0.644
 9867SOL    HW230501   4.886   1.529   0.669
 9868SOL     OW30502   6.771   4.574   6.842
 9868SOL    HW130503   6.756   4.537   6.933
 9868SOL    HW230504   6.808   4.502   6.783
 9869SOL     OW30505   1.951   4.147   3.062
 9869SOL    HW130506   1.894   4.068   3.042
 9869SOL    HW230507   1.959   4.204   2.980
 9870SOL     OW30508   4.577   4.349   2.564
 9870SOL    HW130509   4.609   4.292   2.488
 9870SOL    HW230510   4.501   4.406   2.534
 9871SOL     OW30511   2.197   0.565   5.761
 9871SOL    HW130512   2.177   0.662   5.754
 9871SOL    HW230513   2.126   0.512   5.716
 9872SOL     OW30514   2.893   4.814   3.251
 9872SOL    HW130515   2.843   4.819   3.165
 9872SOL    HW230516   2.859   4.738   3.306
 9873SOL     OW30517   1.630   2.762   0.418
 9873SOL    HW130518   1.633   2.772   0.319
 9873SOL    HW230519   1.679   2.679   0.445
 9874SOL     OW30520   0.524   2.936   3.530
 9874SOL    HW130521   0.521   3.036   3.538
 9874SOL    HW230522   0.618   2.906   3.517
 9875SOL     OW30523   0.446   0.742   2.462
 9875SOL    HW130524   0.487   0.754   2.552
 9875SOL    HW230525   0.497   0.796   2.395
 9876SOL     OW30526   6.429   6.956   2.823
 9876SOL    HW130527   6.524   6.932   2.842
 9876SOL    HW230528   6.370   6.877   2.840
 9877SOL     OW30529   3.493   6.828   2.772
 9877SOL    HW130530   3.400   6.859   2.789
 9877SOL    HW230531   3.558   6.899   2.800
 9878SOL     OW30532   1.559   5.847   5.694
 9878SOL    HW130533   1.538   5.856   5.597
 9878SOL    HW230534   1.631   5.778   5.706
 9879SOL     OW30535   4.102   5.308   4.852
 9879SOL    HW130536   4.008   5.328   4.881
 9879SOL    HW230537   4.133   5.222   4.893
 9880SOL     OW30538   1.197   2.222   5.920
 9880SOL    HW130539   1.245   2.309   5.922
 9880SOL    HW230540   1.196   2.187   5.826
 9881SOL     OW30541   0.728   2.045   5.874
 9881SOL    HW130542   0.817   2.064   5.916
 9881SOL    HW230543   0.659   2.035   5.945
 9882SOL     OW30544   1.258   2.239   4.048
 9882SOL    HW130545   1.208   2.318   4.012
 9882SOL    HW230546   1.303   2.191   3.973
 9883SOL     OW30547   1.491   0.756   1.732
 9883SOL    HW130548   1.525   0.700   1.808
 9883SOL    HW230549   1.391   0.759   1.736
 9884SOL     OW30550   4.055   0.478   3.794
 9884SOL    HW130551   3.989   0.442   3.860
 9884SOL    HW230552   4.125   0.530   3.842
 9885SOL     OW30553   5.989   4.407   4.742
 9885SOL    HW130554   5.901   4.375   4.709
 9885SOL    HW230555   6.027   4.474   4.678
 9886SOL     OW30556   1.371   4.925   2.632
 9886SOL    HW130557   1.442   4.873   2.585
 9886SOL    HW230558   1.371   4.902   2.729
 9887SOL     OW30559   3.523   1.560   7.017
 9887SOL    HW130560   3.586   1.534   0.066
 9887SOL    HW230561   3.541   1.654   6.990
 9888SOL     OW30562   6.958   3.785   0.370
 9888SOL    HW130563   6.881   3.751   0.423
 9888SOL    HW230564   0.012   3.723   0.380
 9889SOL     OW30565   6.208   4.923   0.556
 9889SOL    HW130566   6.133   4.908   0.491
 9889SOL    HW230567   6.294   4.930   0.506
 9890SOL     OW30568   1.454   2.646   1.022
 9890SOL    HW130569   1.425   2.740   1.006
 9890SOL    HW230570   1.513   2.642   1.103
 9891SOL     OW30571   5.907   2.612   0.515
 9891SOL    HW130572   5.917   2.577   0.608
 9891SOL    HW230573   5.839   2.557   0.467
 9892SOL     OW30574   6.415   4.760   0.039
 9892SOL    HW130575   6.477   4.831   0.071
 9892SOL    HW230576   6.327   4.768   0.086
 9893SOL     OW30577   2.337   0.829   1.109
 9893SOL    HW130578   2.242   0.844   1.080
 9893SOL    HW230579   2.384   0.775   1.039
 9894SOL     OW30580   1.080   1.626   0.478
 9894SOL    HW130581   1.174   1.612   0.445
 9894SOL    HW230582   1.064   1.724   0.493
 9895SOL     OW30583   5.444   3.342   4.951
 9895SOL    HW130584   5.511   3.349   4.878
 9895SOL    HW230585   5.488   3.355   5.040
 9896SOL     OW30586   6.497   0.309   0.128
 9896SOL    HW130587   6.413   0.281   0.081
 9896SOL    HW230588   6.499   0.267   0.219
 9897SOL     OW30589   5.835   5.270   3.441
 9897SOL    HW130590   5.897   5.208   3.393
 9897SOL    HW230591   5.759   5.218   3.480
 9898SOL     OW30592   3.240   6.390   5.534
 9898SOL    HW130593   3.180   6.410   5.457
 9898SOL    HW230594   3.293   6.472   5.557
 9899SOL     OW30595   0.602   5.242   0.226
 9899SOL    HW130596   0.580   5.336   0.202
 9899SOL    HW230597   0.574   5.181   0.152
 9900SOL     OW30598   1.425   4.229   3.457
 9900SOL    HW130599   1.466   4.150   3.412
 9900SOL    HW230600   1.326   4.218   3.461
 9901SOL     OW30601   2.583   2.453   5.699
 9901SOL    HW130602   2.643   2.404   5.763
 9901SOL    HW230603   2.493   2.466   5.741
 9902SOL     OW30604   2.538   4.790   6.579
 9902SOL    HW130605   2.450   4.744   6.591
 9902SOL    HW230606   2.527   4.866   6.515
 9903SOL     OW30607   5.113   1.831   3.247
 9903SOL    HW130608   5.134   1.736   3.269
 9903SOL    HW230609   5.159   1.891   3.311
 9904SOL     OW30610   0.065   3.370   6.346
 9904SOL    HW130611   0.045   3.462   6.381
 9904SOL    HW230612   0.073   3.306   6.422
 9905SOL     OW30613   4.249   1.334   0.576
 9905SOL    HW130614   4.294   1.327   0.487
 9905SOL    HW230615   4.151   1.350   0.563
 9906SOL     OW30616   3.794   2.935   2.749
 9906SOL    HW130617   3.859   2.963   2.679
 9906SOL    HW230618   3.708   2.908   2.705
 9907SOL     OW30619   0.376   0.638   2.202
 9907SOL    HW130620   0.414   0.602   2.287
 9907SOL    HW230621   0.422   0.723   2.178
 9908SOL     OW30622   4.959   2.620   3.000
 9908SOL    HW130623   4.906   2.662   2.926
 9908SOL    HW230624   4.952   2.520   2.993
 9909SOL     OW30625   3.064   6.486   3.946
 9909SOL    HW130626   3.044   6.524   4.036
 9909SOL    HW230627   2.985   6.434   3.913
 9910SOL     OW30628   1.028   4.606   2.507
 9910SOL    HW130629   0.996   4.608   2.412
 9910SOL    HW230630   0.982   4.532   2.555
 9911SOL     OW30631   4.038   6.905   2.068
 9911SOL    HW130632   4.050   6.992   2.020
 9911SOL    HW230633   4.057   6.917   2.165
 9912SOL     OW30634   4.865   1.883   0.707
 9912SOL    HW130635   4.790   1.922   0.760
 9912SOL    HW230636   4.830   1.811   0.648
 9913SOL     OW30637   5.900   3.067   6.754
 9913SOL    HW130638   5.885   3.073   6.853
 9913SOL    HW230639   5.814   3.083   6.707
 9914SOL     OW30640   0.727   2.644   4.667
 9914SOL    HW130641   0.811   2.594   4.646
 9914SOL    HW230642   0.655   2.616   4.604
 9915SOL     OW30643   4.621   0.807   3.413
 9915SOL    HW130644   4.657   0.859   3.491
 9915SOL    HW230645   4.620   0.710   3.435
 9916SOL     OW30646   2.273   2.592   2.133
 9916SOL    HW130647   2.216   2.510   2.123
 9916SOL    HW230648   2.303   2.601   2.227
 9917SOL     OW30649   6.511   4.285   6.422
 9917SOL    HW130650   6.602   4.250   6.441
 9917SOL    HW230651   6.472   4.324   6.505
 9918SOL     OW30652   3.994   1.587   2.984
 9918SOL    HW130653   3.905   1.564   3.022
 9918SOL    HW230654   4.021   1.679   3.014
 9919SOL     OW30655   6.400   6.747   1.589
 9919SOL    HW130656   6.354   6.794   1.514
 9919SOL    HW230657   6.391   6.800   1.672
 9920SOL     OW30658   4.886   1.233   2.746
 9920SOL    HW130659   4.924   1.314   2.790
 9920SOL    HW230660   4.790   1.221   2.773
 9921SOL     OW30661   4.479   5.466   5.711
 9921SOL    HW130662   4.475   5.502   5.618
 9921SOL    HW230663   4.400   5.497   5.763
 9922SOL     OW30664   1.046   5.684   6.923
 9922SOL    HW130665   1.048   5.625   6.842
 9922SOL    HW230666   1.046   5.780   6.894
 9923SOL     OW30667   4.518   5.147   6.841
 9923SOL    HW130668   4.551   5.062   6.800
 9923SOL    HW230669   4.476   5.126   6.930
 9924SOL     OW30670   0.079   3.168   5.222
 9924SOL    HW130671   0.168   3.156   5.178
 9924SOL    HW230672   0.092   3.203   5.315
 9925SOL     OW30673   5.893   2.532   4.213
 9925SOL    HW130674   5.913   2.574   4.301
 9925SOL    HW230675   5.812   2.574   4.173
 9926SOL     OW30676   2.529   4.180   0.064
 9926SOL    HW130677   2.463   4.175   0.139
 9926SOL    HW230678   2.557   4.275   0.051
 9927SOL     OW30679   6.314   0.121   2.995
 9927SOL    HW130680   6.374   0.188   3.040
 9927SOL    HW230681   6.365   0.073   2.923
 9928SOL     OW30682   5.232   4.759   1.158
 9928SOL    HW130683   5.195   4.833   1.102
 9928SOL    HW230684   5.186   4.757   1.246
 9929SOL     OW30685   2.043   5.563   5.014
 9929SOL    HW130686   2.103   5.486   5.034
 9929SOL    HW230687   1.978   5.537   4.942
 9930SOL     OW30688   6.852   0.034   4.547
 9930SOL    HW130689   6.802   7.021   4.625
 9930SOL    HW230690   6.842   6.997   4.469
 9931SOL     OW30691   1.069   4.482   5.119
 9931SOL    HW130692   1.036   4.486   5.213
 9931SOL    HW230693   1.044   4.393   5.079
 9932SOL     OW30694   1.124   6.594   6.278
 9932SOL    HW130695   1.084   6.660   6.341
 9932SOL    HW230696   1.220   6.619   6.261
 9933SOL     OW30697   1.707   5.442   2.960
 9933SOL    HW130698   1.804   5.446   2.940
 9933SOL    HW230699   1.690   5.481   3.051
 9934SOL     OW30700   5.775   2.129   5.499
 9934SOL    HW130701   5.791   2.160   5.405
 9934SOL    HW230702   5.715   2.194   5.545
 9935SOL     OW30703   2.173   1.002   0.167
 9935SOL    HW130704   2.125   0.924   0.129
 9935SOL    HW230705   2.267   0.977   0.188
 9936SOL     OW30706   0.480   4.660   5.049
 9936SOL    HW130707   0.461   4.747   5.003
 9936SOL    HW230708   0.511   4.678   5.143
 9937SOL     OW30709   6.155   1.911   5.872
 9937SOL    HW130710   6.105   1.971   5.811
 9937SOL    HW230711   6.231   1.868   5.823
 9938SOL     OW30712   0.230   6.112   3.179
 9938SOL    HW130713   0.208   6.032   3.234
 9938SOL    HW230714   0.222   6.090   3.082
 9939SOL     OW30715   3.288   2.643   1.149
 9939SOL    HW130716   3.279   2.687   1.060
 9939SOL    HW230717   3.200   2.607   1.178
 9940SOL     OW30718   7.023   0.419   1.141
 9940SOL    HW130719   6.937   0.426   1.192
 9940SOL    HW230720   0.073   0.460   1.196
 9941SOL     OW30721   2.801   4.118   5.246
 9941SOL    HW130722   2.897   4.130   5.271
 9941SOL    HW230723   2.751   4.202   5.264
 9942SOL     OW30724   1.960   5.580   2.548
 9942SOL    HW130725   1.977   5.544   2.456
 9942SOL    HW230726   2.029   5.649   2.570
 9943SOL     OW30727   0.494   5.864   6.210
 9943SOL    HW130728   0.420   5.820   6.261
 9943SOL    HW230729   0.541   5.930   6.270
 9944SOL     OW30730   1.620   4.476   6.544
 9944SOL    HW130731   1.609   4.379   6.522
 9944SOL    HW230732   1.622   4.489   6.643
 9945SOL     OW30733   6.891   5.495   0.249
 9945SOL    HW130734   6.793   5.495   0.228
 9945SOL    HW230735   6.923   5.589   0.260
 9946SOL     OW30736   4.924   1.006   4.740
 9946SOL    HW130737   4.827   1.011   4.766
 9946SOL    HW230738   4.951   0.911   4.728
 9947SOL     OW30739   6.426   4.589   5.773
 9947SOL    HW130740   6.383   4.500   5.790
 9947SOL    HW230741   6.363   4.662   5.801
 9948SOL     OW30742   4.760   4.247   5.039
 9948SOL    HW130743   4.713   4.332   5.015
 9948SOL    HW230744   4.772   4.191   4.956
 9949SOL     OW30745   5.794   4.538   3.767
 9949SOL    HW130746   5.739   4.499   3.693
 9949SOL    HW230747   5.747   4.524   3.854
 9950SOL     OW30748   5.098   6.070   5.210
 9950SOL    HW130749   5.151   5.986   5.196
 9950SOL    HW230750   5.061   6.101   5.122
 9951SOL     OW30751   5.705   2.231   3.411
 9951SOL    HW130752   5.762   2.208   3.332
 9951SOL    HW230753   5.665   2.147   3.448
 9952SOL     OW30754   6.660   4.309   0.589
 9952SOL    HW130755   6.597   4.241   0.549
 9952SOL    HW230756   6.611   4.393   0.607
 9953SOL     OW30757   6.572   2.049   3.684
 9953SOL    HW130758   6.669   2.071   3.689
 9953SOL    HW230759   6.558   1.953   3.710
 9954SOL     OW30760   6.109   0.136   5.190
 9954SOL    HW130761   6.142   0.212   5.247
 9954SOL    HW230762   6.010   0.131   5.196
 9955SOL     OW30763   6.682   4.710   4.326
 9955SOL    HW130764   6.730   4.623   4.312
 9955SOL    HW230765   6.587   4.699   4.296
 9956SOL     OW30766   1.763   6.921   2.608
 9956SOL    HW130767   1.846   6.875   2.640
 9956SOL    HW230768   1.685   6.860   2.617
 9957SOL     OW30769   6.314   5.351   3.522
 9957SOL    HW130770   6.249   5.427   3.517
 9957SOL    HW230771   6.332   5.317   3.429
 9958SOL     OW30772   2.988   4.239   0.998
 9958SOL    HW130773   2.967   4.320   0.943
 9958SOL    HW230774   3.055   4.183   0.950
 9959SOL     OW30775   3.940   3.590   6.301
 9959SOL    HW130776   3.990   3.645   6.233
 9959SOL    HW230777   3.969   3.616   6.393
 9960SOL     OW30778   0.064   1.268   2.771
 9960SOL    HW130779   0.101   1.182   2.807
 9960SOL    HW230780   0.128   1.342   2.791
 9961SOL     OW30781   2.090   5.469   4.367
 9961SOL    HW130782   2.104   5.566   4.390
 9961SOL    HW230783   2.069   5.418   4.450
 9962SOL     OW30784   5.370   6.280   4.940
 9962SOL    HW130785   5.302   6.354   4.940
 9962SOL    HW230786   5.409   6.272   5.032
 9963SOL     OW30787   3.629   1.662   1.053
 9963SOL    HW130788   3.592   1.669   0.961
 9963SOL    HW230789   3.654   1.566   1.072
 9964SOL     OW30790   4.471   5.708   4.624
 9964SOL    HW130791   4.439   5.778   4.688
 9964SOL    HW230792   4.419   5.623   4.639
 9965SOL     OW30793   3.837   0.265   6.989
 9965SOL    HW130794   3.870   0.277   6.896
 9965SOL    HW230795   3.810   0.353   0.003
 9966SOL     OW30796   0.961   5.308   2.183
 9966SOL    HW130797   0.939   5.404   2.197
 9966SOL    HW230798   0.917   5.253   2.254
 9967SOL     OW30799   1.542   5.664   1.620
 9967SOL    HW130800   1.492   5.731   1.674
 9967SOL    HW230801   1.541   5.576   1.667
 9968SOL     OW30802   4.135   3.686   1.844
 9968SOL    HW130803   4.057   3.710   1.786
 9968SOL    HW230804   4.212   3.658   1.787
 9969SOL     OW30805   1.310   3.677   2.229
 9969SOL    HW130806   1.334   3.641   2.319
 9969SOL    HW230807   1.212   3.697   2.226
 9970SOL     OW30808   5.933   4.684   2.039
 9970SOL    HW130809   5.997   4.711   1.967
 9970SOL    HW230810   5.905   4.589   2.024
 9971SOL     OW30811   2.076   4.147   0.671
 9971SOL    HW130812   2.085   4.048   0.683
 9971SOL    HW230813   2.165   4.184   0.644
 9972SOL     OW30814   6.548   4.870   2.956
 9972SOL    HW130815   6.646   4.855   2.941
 9972SOL    HW230816   6.533   4.964   2.988
 9973SOL     OW30817   6.049   1.324   4.358
 9973SOL    HW130818   5.955   1.305   4.330
 9973SOL    HW230819   6.048   1.379   4.442
 9974SOL     OW30820   1.475   0.715   3.717
 9974SOL    HW130821   1.521   0.679   3.635
 9974SOL    HW230822   1.378   0.694   3.712
 9975SOL     OW30823   6.869   2.904   0.270
 9975SOL    HW130824   6.916   2.882   0.185
 9975SOL    HW230825   6.908   2.851   0.345
 9976SOL     OW30826   1.340   7.017   5.399
 9976SOL    HW130827   1.331   0.000   5.498
 9976SOL    HW230828   1.339   0.085   5.358
 9977SOL     OW30829   6.202   4.340   4.887
 9977SOL    HW130830   6.225   4.250   4.849
 9977SOL    HW230831   6.117   4.373   4.846
 9978SOL     OW30832   0.418   2.576   4.131
 9978SOL    HW130833   0.506   2.584   4.179
 9978SOL    HW230834   0.390   2.480   4.129
 9979SOL     OW30835   6.042   3.559   4.751
 9979SOL    HW130836   6.111   3.542   4.821
 9979SOL    HW230837   6.084   3.553   4.660
 9980SOL     OW30838   3.444   0.625   6.561
 9980SOL    HW130839   3.477   0.595   6.650
 9980SOL    HW230840   3.375   0.560   6.528
 9981SOL     OW30841   2.793   1.972   4.019
 9981SOL    HW130842   2.883   2.015   4.022
 9981SOL    HW230843   2.749   1.993   3.932
 9982SOL     OW30844   0.146   6.169   4.106
 9982SOL    HW130845   0.069   6.159   4.042
 9982SOL    HW230846   0.231   6.147   4.059
 9983SOL     OW30847   0.094   1.446   2.240
 9983SOL    HW130848   0.142   1.499   2.170
 9983SOL    HW230849   7.024   1.430   2.211
 9984SOL     OW30850   2.908   1.671   6.435
 9984SOL    HW130851   2.929   1.733   6.511
 9984SOL    HW230852   2.821   1.699   6.393
 9985SOL     OW30853   1.400   0.976   1.929
 9985SOL    HW130854   1.430   0.881   1.932
 9985SOL    HW230855   1.366   0.997   1.837
 9986SOL     OW30856   5.325   3.669   5.027
 9986SOL    HW130857   5.264   3.606   4.980
 9986SOL    HW230858   5.362   3.735   4.961
 9987SOL     OW30859   6.474   3.783   6.217
 9987SOL    HW130860   6.473   3.847   6.140
 9987SOL    HW230861   6.552   3.722   6.208
 9988SOL     OW30862   6.624   6.752   5.423
 9988SOL    HW130863   6.628   6.794   5.513
 9988SOL    HW230864   6.705   6.779   5.370
 9989SOL     OW30865   0.326   3.392   5.208
 9989SOL    HW130866   0.355   3.362   5.117
 9989SOL    HW230867   0.368   3.333   5.277
 9990SOL     OW30868   0.966   4.566   2.980
 9990SOL    HW130869   0.952   4.474   2.944
 9990SOL    HW230870   0.933   4.570   3.074
 9991SOL     OW30871   3.315   2.122   4.120
 9991SOL    HW130872   3.262   2.039   4.102
 9991SOL    HW230873   3.284   2.163   4.206
 9992SOL     OW30874   6.282   5.786   6.321
 9992SOL    HW130875   6.310   5.882   6.318
 9992SOL    HW230876   6.187   5.780   6.353
 9993SOL     OW30877   1.269   1.723   1.897
 9993SOL    HW130878   1.310   1.785   1.830
 9993SOL    HW230879   1.315   1.634   1.892
 9994SOL     OW30880   6.046   4.641   3.681
 9994SOL    HW130881   5.949   4.617   3.669
 9994SOL    HW230882   6.055   4.699   3.762
 9995SOL     OW30883   5.769   0.926   4.660
 9995SOL    HW130884   5.838   0.866   4.618
 9995SOL    HW230885   5.788   0.934   4.758
 9996SOL     OW30886   3.391   4.880   6.867
 9996SOL    HW130887   3.472   4.918   6.822
 9996SOL    HW230888   3.411   4.861   6.963
 9997SOL     OW30889   2.363   0.166   5.371
 9997SOL    HW130890   2.311   0.121   5.444
 9997SOL    HW230891   2.454   0.188   5.405
 9998SOL     OW30892   5.721   5.730   5.851
 9998SOL    HW130893   5.745   5.797   5.921
 9998SOL    HW230894   5.666   5.657   5.891
 9999SOL     OW30895   6.411   2.501   5.424
 9999SOL    HW130896   6.433   2.577   5.484
 9999SOL    HW230897   6.340   2.528   5.359
10000SOL     OW30898   6.932   2.498   6.619
10000SOL    HW130899   6.881   2.427   6.570
10000SOL    HW230900   7.024   2.507   6.580
10001SOL     OW30901   4.683   0.290   2.636
10001SOL    HW130902   4.776   0.253   2.631
10001SOL    HW230903   4.669   0.333   2.725
10002SOL     OW30904   1.291   0.419   1.906
10002SOL    HW130905   1.313   0.430   1.809
10002SOL    HW230906   1.193   0.430   1.920
10003SOL     OW30907   3.938   1.780   3.439
10003SOL    HW130908   3.858   1.723   3.455
10003SOL    HW230909   3.924   1.869   3.482
10004SOL     OW30910   6.890   2.464   2.852
10004SOL    HW130911   6.873   2.552   2.897
10004SOL    HW230912   6.917   2.396   2.920
10005SOL     OW30913   4.581   6.369   3.858
10005SOL    HW130914   4.594   6.421   3.942
10005SOL    HW230915   4.484   6.350   3.845
10006SOL     OW30916   3.628   6.773   4.524
10006SOL    HW130917   3.643   6.733   4.615
10006SOL    HW230918   3.531   6.765   4.500
10007SOL     OW30919   0.230   3.729   4.395
10007SOL    HW130920   0.162   3.702   4.462
10007SOL    HW230921   0.321   3.723   4.436
10008SOL     OW30922   2.667   0.404   3.991
10008SOL    HW130923   2.657   0.396   3.891
10008SOL    HW230924   2.702   0.494   4.014
10009SOL     OW30925   1.220   4.378   1.668
10009SOL    HW130926   1.306   4.379   1.617
10009SOL    HW230927   1.209   4.465   1.716
10010SOL     OW30928   0.647   1.717   6.006
10010SOL    HW130929   0.695   1.788   6.059
10010SOL    HW230930   0.702   1.693   5.927
10011SOL     OW30931   6.912   6.814   5.711
10011SOL    HW130932   6.966   6.758   5.648
10011SOL    HW230933   6.814   6.803   5.691
10012SOL     OW30934   5.992   1.227   3.831
10012SOL    HW130935   5.924   1.282   3.782
10012SOL    HW230936   5.950   1.143   3.864
10013SOL     OW30937   0.517   0.808   2.722
10013SOL    HW130938   0.611   0.841   2.730
10013SOL    HW230939   0.458   0.861   2.783
10014SOL     OW30940   0.474   4.691   6.191
10014SOL    HW130941   0.461   4.606   6.241
10014SOL    HW230942   0.506   4.762   6.254
10015SOL     OW30943   1.941   4.091   0.427
10015SOL    HW130944   1.856   4.057   0.467
10015SOL    HW230945   1.999   4.129   0.499
10016SOL     OW30946   2.420   0.934   5.599
10016SOL    HW130947   2.499   0.900   5.548
10016SOL    HW230948   2.452   0.995   5.672
10017SOL     OW30949   1.599   2.372   4.280
10017SOL    HW130950   1.557   2.461   4.267
10017SOL    HW230951   1.629   2.363   4.376
10018SOL     OW30952   4.787   7.010   5.633
10018SOL    HW130953   4.844   0.044   5.692
10018SOL    HW230954   4.724   6.957   5.690
10019SOL     OW30955   1.031   0.954   3.199
10019SOL    HW130956   1.050   0.935   3.295
10019SOL    HW230957   1.092   1.027   3.166
10020SOL     OW30958   0.419   2.878   0.851
10020SOL    HW130959   0.413   2.782   0.821
10020SOL    HW230960   0.486   2.926   0.793
10021SOL     OW30961   0.322   3.716   0.855
10021SOL    HW130962   0.358   3.809   0.860
10021SOL    HW230963   0.365   3.667   0.779
10022SOL     OW30964   1.490   2.269   6.118
10022SOL    HW130965   1.516   2.365   6.110
10022SOL    HW230966   1.542   2.214   6.053
10023SOL     OW30967   0.054   3.624   0.894
10023SOL    HW130968   0.148   3.657   0.890
10023SOL    HW230969   0.048   3.548   0.958
10024SOL     OW30970   1.781   4.761   3.732
10024SOL    HW130971   1.816   4.795   3.645
10024SOL    HW230972   1.758   4.838   3.791
10025SOL     OW30973   1.443   0.856   0.722
10025SOL    HW130974   1.381   0.934   0.717
10025SOL    HW230975   1.530   0.880   0.679
10026SOL     OW30976   6.944   0.570   3.415
10026SOL    HW130977   6.848   0.593   3.400
10026SOL    HW230978   6.997   0.592   3.333
10027SOL     OW30979   4.602   2.910   5.227
10027SOL    HW130980   4.639   2.848   5.296
10027SOL    HW230981   4.553   2.985   5.272
10028SOL     OW30982   2.020   0.801   0.082
10028SOL    HW130983   1.968   0.775   0.001
10028SOL    HW230984   2.071   0.722   0.116
10029SOL     OW30985   5.863   1.676   3.706
10029SOL    HW130986   5.827   1.727   3.784
10029SOL    HW230987   5.901   1.739   3.639
10030SOL     OW30988   2.077   0.303   3.317
10030SOL    HW130989   1.981   0.291   3.293
10030SOL    HW230990   2.107   0.227   3.375
10031SOL     OW30991   6.154   4.667   4.033
10031SOL    HW130992   6.082   4.601   4.057
10031SOL    HW230993   6.238   4.618   4.012
10032SOL     OW30994   2.735   1.667   4.528
10032SOL    HW130995   2.653   1.612   4.510
10032SOL    HW230996   2.777   1.637   4.614
10033SOL     OW30997   5.696   2.891   4.867
10033SOL    HW130998   5.619   2.834   4.896
10033SOL    HW230999   5.698   2.974   4.922
10034SOL     OW31000   5.216   0.628   5.405
10034SOL    HW131001   5.270   0.695   5.456
10034SOL    HW231002   5.121   0.633   5.435
10035SOL     OW31003   0.543   5.820   1.963
10035SOL    HW131004   0.509   5.786   1.876
10035SOL    HW231005   0.466   5.851   2.019
10036SOL     OW31006   6.738   0.901   0.533
10036SOL    HW131007   6.663   0.939   0.479
10036SOL    HW231008   6.822   0.904   0.480
10037SOL     OW31009   0.941   6.858   0.186
10037SOL    HW131010   0.925   6.768   0.225
10037SOL    HW231011   0.937   6.853   0.087
10038SOL     OW31012   6.501   0.148   1.298
10038SOL    HW131013   6.503   0.225   1.235
10038SOL    HW231014   6.586   0.095   1.288
10039SOL     OW31015   3.475   0.583   3.538
10039SOL    HW131016   3.485   0.509   3.472
10039SOL    HW231017   3.548   0.650   3.525
10040SOL     OW31018   0.710   3.131   1.076
10040SOL    HW131019   0.773   3.191   1.126
10040SOL    HW231020   0.625   3.180   1.058
10041SOL     OW31021   2.119   5.909   0.180
10041SOL    HW131022   2.047   5.855   0.225
10041SOL    HW231023   2.119   5.888   0.082
10042SOL     OW31024   6.032   2.959   2.680
10042SOL    HW131025   5.940   2.966   2.718
10042SOL    HW231026   6.031   2.985   2.583
10043SOL     OW31027   0.306   1.815   4.883
10043SOL    HW131028   0.223   1.780   4.841
10043SOL    HW231029   0.380   1.817   4.814
10044SOL     OW31030   2.839   2.076   6.090
10044SOL    HW131031   2.841   1.976   6.077
10044SOL    HW231032   2.811   2.096   6.183
10045SOL     OW31033   3.339   1.175   0.716
10045SOL    HW131034   3.248   1.142   0.688
10045SOL    HW231035   3.341   1.275   0.710
10046SOL     OW31036   1.638   5.688   0.693
10046SOL    HW131037   1.594   5.615   0.746
10046SOL    HW231038   1.627   5.670   0.596
10047SOL     OW31039   0.645   3.552   1.047
10047SOL    HW131040   0.744   3.564   1.046
10047SOL    HW231041   0.623   3.458   1.022
10048SOL     OW31042   6.103   5.638   3.247
10048SOL    HW131043   6.017   5.587   3.254
10048SOL    HW231044   6.178   5.578   3.274
10049SOL     OW31045   6.884   0.667   5.684
10049SOL    HW131046   6.978   0.689   5.707
10049SOL    HW231047   6.880   0.580   5.636
10050SOL     OW31048   6.848   3.185   0.208
10050SOL    HW131049   6.930   3.233   0.238
10050SOL    HW231050   6.845   3.093   0.248
10051SOL     OW31051   2.174   2.990   3.784
10051SOL    HW131052   2.169   3.037   3.696
10051SOL    HW231053   2.240   2.915   3.778
10052SOL     OW31054   1.349   6.677   3.555
10052SOL    HW131055   1.277   6.652   3.620
10052SOL    HW231056   1.314   6.672   3.462
10053SOL     OW31057   5.827   5.306   4.982
10053SOL    HW131058   5.920   5.289   5.016
10053SOL    HW231059   5.830   5.380   4.915
10054SOL     OW31060   6.483   4.089   5.398
10054SOL    HW131061   6.513   4.097   5.303
10054SOL    HW231062   6.553   4.128   5.458
10055SOL     OW31063   0.875   1.504   0.295
10055SOL    HW131064   0.894   1.593   0.338
10055SOL    HW231065   0.780   1.478   0.311
10056SOL     OW31066   5.918   1.879   3.491
10056SOL    HW131067   5.974   1.961   3.500
10056SOL    HW231068   5.844   1.896   3.425
10057SOL     OW31069   6.031   5.224   5.200
10057SOL    HW131070   6.123   5.188   5.185
10057SOL    HW231071   5.981   5.162   5.260
10058SOL     OW31072   0.232   3.742   5.484
10058SOL    HW131073   0.291   3.724   5.563
10058SOL    HW231074   0.249   3.835   5.451
10059SOL     OW31075   6.017   0.779   0.069
10059SOL    HW131076   5.961   0.738   0.141
10059SOL    HW231077   6.079   0.846   0.110
10060SOL     OW31078   2.383   1.939   1.389
10060SOL    HW131079   2.342   2.002   1.323
10060SOL    HW231080   2.382   1.980   1.480
10061SOL     OW31081   4.040   6.969   3.148
10061SOL    HW131082   4.099   0.017   3.113
10061SOL    HW231083   3.995   7.000   3.232
10062SOL     OW31084   6.801   0.192   4.912
10062SOL    HW131085   6.805   0.237   4.822
10062SOL    HW231086   6.876   0.127   4.919
10063SOL     OW31087   2.278   2.311   5.147
10063SOL    HW131088   2.333   2.386   5.183
10063SOL    HW231089   2.305   2.292   5.053
10064SOL     OW31090   2.832   0.018   0.205
10064SOL    HW131091   2.814   6.946   0.226
10064SOL    HW231092   2.842   0.069   0.290
10065SOL     OW31093   0.508   1.828   1.781
10065SOL    HW131094   0.578   1.759   1.800
10065SOL    HW231095   0.546   1.919   1.793
10066SOL     OW31096   6.218   3.862   3.922
10066SOL    HW131097   6.292   3.800   3.896
10066SOL    HW231098   6.143   3.855   3.856
10067SOL     OW31099   6.627   3.483   5.582
10067SOL    HW131100   6.600   3.415   5.515
10067SOL    HW231101   6.720   3.465   5.613
10068SOL     OW31102   2.139   3.467   2.923
10068SOL    HW131103   2.087   3.451   2.839
10068SOL    HW231104   2.139   3.564   2.943
10069SOL     OW31105   2.870   5.182   0.795
10069SOL    HW131106   2.821   5.189   0.708
10069SOL    HW231107   2.808   5.149   0.866
10070SOL     OW31108   4.338   6.379   6.415
10070SOL    HW131109   4.302   6.460   6.368
10070SOL    HW231110   4.436   6.390   6.429
10071SOL     OW31111   5.673   0.023   4.366
10071SOL    HW131112   5.745   0.018   4.296
10071SOL    HW231113   5.685   6.972   4.431
10072SOL     OW31114   6.524   3.461   1.629
10072SOL    HW131115   6.425   3.469   1.618
10072SOL    HW231116   6.549   3.365   1.638
10073SOL     OW31117   5.763   4.511   5.088
10073SOL    HW131118   5.672   4.490   5.053
10073SOL    HW231119   5.770   4.609   5.106
10074SOL     OW31120   1.100   5.097   0.571
10074SOL    HW131121   1.125   5.018   0.627
10074SOL    HW231122   1.137   5.085   0.479
10075SOL     OW31123   1.491   3.136   2.163
10075SOL    HW131124   1.409   3.157   2.111
10075SOL    HW231125   1.512   3.213   2.224
10076SOL     OW31126   5.251   5.126   4.552
10076SOL    HW131127   5.245   5.128   4.651
10076SOL    HW231128   5.159   5.134   4.513
10077SOL     OW31129   5.266   3.773   6.366
10077SOL    HW131130   5.292   3.799   6.459
10077SOL    HW231131   5.269   3.853   6.307
10078SOL     OW31132   6.691   5.424   5.115
10078SOL    HW131133   6.646   5.412   5.204
10078SOL    HW231134   6.645   5.495   5.063
10079SOL     OW31135   5.358   3.139   3.936
10079SOL    HW131136   5.343   3.232   3.902
10079SOL    HW231137   5.282   3.080   3.906
10080SOL     OW31138   5.233   1.634   5.836
10080SOL    HW131139   5.291   1.598   5.763
10080SOL    HW231140   5.233   1.571   5.913
10081SOL     OW31141   1.431   4.397   0.694
10081SOL    HW131142   1.528   4.376   0.696
10081SOL    HW231143   1.418   4.492   0.664
10082SOL     OW31144   0.800   4.646   1.251
10082SOL    HW131145   0.778   4.735   1.212
10082SOL    HW231146   0.784   4.574   1.183
10083SOL     OW31147   3.475   5.517   2.940
10083SOL    HW131148   3.444   5.590   2.879
10083SOL    HW231149   3.424   5.520   3.025
10084SOL     OW31150   0.980   1.119   4.767
10084SOL    HW131151   1.055   1.184   4.776
10084SOL    HW231152   1.017   1.026   4.770
10085SOL     OW31153   5.150   0.127   0.509
10085SOL    HW131154   5.166   0.209   0.454
10085SOL    HW231155   5.055   0.099   0.502
10086SOL     OW31156   5.040   6.681   3.648
10086SOL    HW131157   5.085   6.592   3.645
10086SOL    HW231158   4.942   6.670   3.630
10087SOL     OW31159   1.205   5.908   5.327
10087SOL    HW131160   1.200   6.001   5.293
10087SOL    HW231161   1.285   5.863   5.287
10088SOL     OW31162   6.608   3.198   1.576
10088SOL    HW131163   6.598   3.120   1.515
10088SOL    HW231164   6.605   3.167   1.671
10089SOL     OW31165   3.529   0.793   1.200
10089SOL    HW131166   3.543   0.812   1.297
10089SOL    HW231167   3.608   0.742   1.165
10090SOL     OW31168   2.576   6.486   2.829
10090SOL    HW131169   2.504   6.486   2.759
10090SOL    HW231170   2.623   6.398   2.829
10091SOL     OW31171   6.294   4.900   5.591
10091SOL    HW131172   6.340   4.816   5.619
10091SOL    HW231173   6.349   4.979   5.619
10092SOL     OW31174   1.134   2.625   4.351
10092SOL    HW131175   1.191   2.701   4.317
10092SOL    HW231176   1.190   2.567   4.411
10093SOL     OW31177   4.859   4.676   5.962
10093SOL    HW131178   4.952   4.704   5.985
10093SOL    HW231179   4.853   4.576   5.966
10094SOL     OW31180   3.930   1.837   1.276
10094SOL    HW131181   3.996   1.776   1.233
10094SOL    HW231182   3.974   1.885   1.352
10095SOL     OW31183   4.294   3.210   5.656
10095SOL    HW131184   4.290   3.122   5.704
10095SOL    HW231185   4.245   3.202   5.569
10096SOL     OW31186   6.669   3.458   1.850
10096SOL    HW131187   6.611   3.393   1.899
10096SOL    HW231188   6.623   3.485   1.765
10097SOL     OW31189   0.299   1.296   0.515
10097SOL    HW131190   0.223   1.233   0.527
10097SOL    HW231191   0.384   1.251   0.544
10098SOL     OW31192   2.551   5.466   4.009
10098SOL    HW131193   2.614   5.543   4.000
10098SOL    HW231194   2.457   5.498   3.995
10099SOL     OW31195   0.387   5.135   1.812
10099SOL    HW131196   0.473   5.089   1.788
10099SOL    HW231197   0.395   5.233   1.791
10100SOL     OW31198   5.349   4.915   4.197
10100SOL    HW131199   5.292   4.985   4.240
10100SOL    HW231200   5.433   4.957   4.163
10101SOL     OW31201   7.011   3.221   0.867
10101SOL    HW131202   6.927   3.167   0.856
10101SOL    HW231203   7.002   3.306   0.815
10102SOL     OW31204   0.210   5.372   3.366
10102SOL    HW131205   0.151   5.357   3.287
10102SOL    HW231206   0.171   5.444   3.424
10103SOL     OW31207   0.219   5.733   6.679
10103SOL    HW131208   0.300   5.717   6.736
10103SOL    HW231209   0.181   5.645   6.650
10104SOL     OW31210   2.430   0.626   4.691
10104SOL    HW131211   2.517   0.594   4.653
10104SOL    HW231212   2.449   0.690   4.766
10105SOL     OW31213   3.077   1.495   5.065
10105SOL    HW131214   3.104   1.449   5.150
10105SOL    HW231215   3.111   1.589   5.065
10106SOL     OW31216   5.398   4.411   1.285
10106SOL    HW131217   5.455   4.492   1.297
10106SOL    HW231218   5.317   4.419   1.343
10107SOL     OW31219   5.555   4.999   0.302
10107SOL    HW131220   5.563   5.040   0.211
10107SOL    HW231221   5.564   5.070   0.371
10108SOL     OW31222   1.953   2.416   5.954
10108SOL    HW131223   1.965   2.409   5.855
10108SOL    HW231224   2.041   2.406   6.000
10109SOL     OW31225   1.053   2.429   1.451
10109SOL    HW131226   0.992   2.508   1.450
10109SOL    HW231227   0.999   2.345   1.447
10110SOL     OW31228   6.000   5.574   2.641
10110SOL    HW131229   5.945   5.593   2.560
10110SOL    HW231230   5.940   5.547   2.716
10111SOL     OW31231   0.270   2.582   1.905
10111SOL    HW131232   0.244   2.506   1.846
10111SOL    HW231233   0.355   2.559   1.954
10112SOL     OW31234   0.363   2.548   2.870
10112SOL    HW131235   0.434   2.482   2.896
10112SOL    HW231236   0.394   2.641   2.893
10113SOL     OW31237   6.027   0.105   6.342
10113SOL    HW131238   5.991   0.077   6.431
10113SOL    HW231239   5.955   0.152   6.290
10114SOL     OW31240   5.994   3.012   1.706
10114SOL    HW131241   6.089   2.982   1.714
10114SOL    HW231242   5.934   2.945   1.749
10115SOL     OW31243   3.412   2.574   5.760
10115SOL    HW131244   3.400   2.476   5.744
10115SOL    HW231245   3.432   2.619   5.673
10116SOL     OW31246   6.825   0.366   5.637
10116SOL    HW131247   6.923   0.378   5.619
10116SOL    HW231248   6.812   0.336   5.731
10117SOL     OW31249   6.322   4.573   3.307
10117SOL    HW131250   6.279   4.520   3.380
10117SOL    HW231251   6.250   4.620   3.254
10118SOL     OW31252   4.109   5.204   3.904
10118SOL    HW131253   4.049   5.151   3.963
10118SOL    HW231254   4.109   5.299   3.932
10119SOL     OW31255   6.539   6.029   6.448
10119SOL    HW131256   6.442   6.047   6.431
10119SOL    HW231257   6.550   5.934   6.477
10120SOL     OW31258   2.510   2.510   3.604
10120SOL    HW131259   2.422   2.492   3.559
10120SOL    HW231260   2.494   2.536   3.699
10121SOL     OW31261   0.350   4.918   0.810
10121SOL    HW131262   0.349   4.820   0.825
10121SOL    HW231263   0.411   4.940   0.734
10122SOL     OW31264   1.807   0.302   3.295
10122SOL    HW131265   1.780   0.223   3.350
10122SOL    HW231266   1.728   0.363   3.283
10123SOL     OW31267   6.864   5.080   6.614
10123SOL    HW131268   6.903   4.988   6.606
10123SOL    HW231269   6.837   5.113   6.524
10124SOL     OW31270   2.265   5.068   2.756
10124SOL    HW131271   2.249   5.167   2.753
10124SOL    HW231272   2.359   5.049   2.728
10125SOL     OW31273   1.025   0.490   5.028
10125SOL    HW131274   1.063   0.545   5.102
10125SOL    HW231275   0.927   0.504   5.021
10126SOL     OW31276   6.556   6.527   5.779
10126SOL    HW131277   6.550   6.441   5.830
10126SOL    HW231278   6.465   6.569   5.776
10127SOL     OW31279   2.961   6.887   5.904
10127SOL    HW131280   2.925   6.958   5.965
10127SOL    HW231281   3.039   6.923   5.854
10128SOL     OW31282   2.120   2.686   0.481
10128SOL    HW131283   2.195   2.648   0.536
10128SOL    HW231284   2.060   2.612   0.451
10129SOL     OW31285   6.242   1.770   4.597
10129SOL    HW131286   6.229   1.853   4.651
10129SOL    HW231287   6.275   1.794   4.506
10130SOL     OW31288   0.658   1.516   4.460
10130SOL    HW131289   0.600   1.546   4.384
10130SOL    HW231290   0.731   1.582   4.474
10131SOL     OW31291   2.580   6.587   4.557
10131SOL    HW131292   2.492   6.635   4.565
10131SOL    HW231293   2.643   6.644   4.505
10132SOL     OW31294   5.554   6.936   1.900
10132SOL    HW131295   5.520   7.016   1.949
10132SOL    HW231296   5.543   6.950   1.802
10133SOL     OW31297   5.515   6.850   0.977
10133SOL    HW131298   5.524   6.886   0.884
10133SOL    HW231299   5.465   6.763   0.974
10134SOL     OW31300   6.631   0.521   3.435
10134SOL    HW131301   6.627   0.478   3.345
10134SOL    HW231302   6.615   0.453   3.506
10135SOL     OW31303   5.725   0.099   3.320
10135SOL    HW131304   5.644   0.041   3.307
10135SOL    HW231305   5.698   0.195   3.308
10136SOL     OW31306   4.512   1.693   2.904
10136SOL    HW131307   4.588   1.646   2.859
10136SOL    HW231308   4.433   1.632   2.908
10137SOL     OW31309   6.659   5.040   5.101
10137SOL    HW131310   6.637   4.943   5.088
10137SOL    HW231311   6.574   5.092   5.108
10138SOL     OW31312   6.854   2.952   1.666
10138SOL    HW131313   6.918   3.010   1.615
10138SOL    HW231314   6.902   2.909   1.742
10139SOL     OW31315   3.509   3.007   6.731
10139SOL    HW131316   3.504   2.995   6.631
10139SOL    HW231317   3.467   2.928   6.776
10140SOL     OW31318   1.024   5.986   5.538
10140SOL    HW131319   0.937   5.984   5.488
10140SOL    HW231320   1.098   5.958   5.477
10141SOL     OW31321   1.564   2.936   4.352
10141SOL    HW131322   1.601   2.954   4.261
10141SOL    HW231323   1.636   2.901   4.411
10142SOL     OW31324   4.744   6.282   2.828
10142SOL    HW131325   4.758   6.362   2.886
10142SOL    HW231326   4.750   6.308   2.731
10143SOL     OW31327   5.781   2.489   6.392
10143SOL    HW131328   5.704   2.441   6.349
10143SOL    HW231329   5.861   2.431   6.392
10144SOL     OW31330   3.302   6.619   0.773
10144SOL    HW131331   3.252   6.703   0.752
10144SOL    HW231332   3.389   6.619   0.722
10145SOL     OW31333   6.013   0.023   6.021
10145SOL    HW131334   6.109   0.051   6.021
10145SOL    HW231335   6.005   6.952   6.051
10146SOL     OW31336   1.014   2.689   5.093
10146SOL    HW131337   0.945   2.703   5.022
10146SOL    HW231338   0.979   2.721   5.181
10147SOL     OW31339   3.971   5.849   5.500
10147SOL    HW131340   3.933   5.760   5.527
10147SOL    HW231341   4.037   5.836   5.426
10148SOL     OW31342   0.822   4.204   0.215
10148SOL    HW131343   0.744   4.267   0.222
10148SOL    HW231344   0.806   4.140   0.139
10149SOL     OW31345   4.172   3.455   1.165
10149SOL    HW131346   4.168   3.550   1.195
10149SOL    HW231347   4.183   3.394   1.244
10150SOL     OW31348   4.643   4.405   1.092
10150SOL    HW131349   4.589   4.471   1.041
10150SOL    HW231350   4.735   4.399   1.053
10151SOL     OW31351   6.567   0.909   6.237
10151SOL    HW131352   6.647   0.901   6.177
10151SOL    HW231353   6.528   0.818   6.251
10152SOL     OW31354   3.832   6.808   2.250
10152SOL    HW131355   3.921   6.834   2.212
10152SOL    HW231356   3.842   6.790   2.348
10153SOL     OW31357   4.892   4.491   2.077
10153SOL    HW131358   4.813   4.462   2.132
10153SOL    HW231359   4.876   4.466   1.981
10154SOL     OW31360   4.252   5.212   5.540
10154SOL    HW131361   4.166   5.161   5.529
10154SOL    HW231362   4.329   5.151   5.522
10155SOL     OW31363   4.502   1.826   4.180
10155SOL    HW131364   4.583   1.776   4.211
10155SOL    HW231365   4.506   1.837   4.080
10156SOL     OW31366   4.233   1.642   6.879
10156SOL    HW131367   4.193   1.556   6.910
10156SOL    HW231368   4.207   1.659   6.784
10157SOL     OW31369   0.292   4.465   1.568
10157SOL    HW131370   0.276   4.535   1.638
10157SOL    HW231371   0.363   4.497   1.506
10158SOL     OW31372   5.907   5.418   6.798
10158SOL    HW131373   6.000   5.398   6.768
10158SOL    HW231374   5.902   5.411   6.897
10159SOL     OW31375   3.197   2.848   1.963
10159SOL    HW131376   3.282   2.810   1.927
10159SOL    HW231377   3.213   2.884   2.055
10160SOL     OW31378   0.259   4.440   2.874
10160SOL    HW131379   0.276   4.448   2.972
10160SOL    HW231380   0.221   4.350   2.854
10161SOL     OW31381   5.763   3.207   5.375
10161SOL    HW131382   5.739   3.244   5.464
10161SOL    HW231383   5.755   3.107   5.377
10162SOL     OW31384   1.413   2.569   1.814
10162SOL    HW131385   1.409   2.497   1.745
10162SOL    HW231386   1.382   2.533   1.902
10163SOL     OW31387   2.639   5.316   5.018
10163SOL    HW131388   2.732   5.318   5.055
10163SOL    HW231389   2.634   5.250   4.944
10164SOL     OW31390   0.422   1.607   3.892
10164SOL    HW131391   0.479   1.622   3.811
10164SOL    HW231392   0.471   1.548   3.956
10165SOL     OW31393   0.511   3.705   4.525
10165SOL    HW131394   0.602   3.682   4.559
10165SOL    HW231395   0.518   3.738   4.431
10166SOL     OW31396   2.074   6.195   2.819
10166SOL    HW131397   2.117   6.138   2.750
10166SOL    HW231398   1.996   6.147   2.859
10167SOL     OW31399   2.161   1.824   7.018
10167SOL    HW131400   2.107   1.742   0.010
10167SOL    HW231401   2.174   1.836   6.919
10168SOL     OW31402   6.608   0.072   6.722
10168SOL    HW131403   6.690   0.071   6.665
10168SOL    HW231404   6.605   0.158   6.773
10169SOL     OW31405   5.048   4.295   3.712
10169SOL    HW131406   5.098   4.375   3.680
10169SOL    HW231407   5.111   4.230   3.754
10170SOL     OW31408   5.314   5.746   0.026
10170SOL    HW131409   5.218   5.774   0.015
10170SOL    HW231410   5.374   5.814   7.008
10171SOL     OW31411   2.012   4.859   4.903
10171SOL    HW131412   2.023   4.814   4.992
10171SOL    HW231413   2.068   4.941   4.900
10172SOL     OW31414   6.704   0.985   3.257
10172SOL    HW131415   6.720   1.056   3.326
10172SOL    HW231416   6.633   0.923   3.288
10173SOL     OW31417   3.675   3.435   4.982
10173SOL    HW131418   3.704   3.432   4.886
10173SOL    HW231419   3.609   3.362   4.999
10174SOL     OW31420   3.931   5.454   1.316
10174SOL    HW131421   4.015   5.405   1.293
10174SOL    HW231422   3.894   5.419   1.402
10175SOL     OW31423   0.118   0.012   4.624
10175SOL    HW131424   0.021   7.017   4.610
10175SOL    HW231425   0.157   0.052   4.541
10176SOL     OW31426   6.680   0.752   4.490
10176SOL    HW131427   6.748   0.820   4.461
10176SOL    HW231428   6.644   0.777   4.580
10177SOL     OW31429   2.476   0.647   4.153
10177SOL    HW131430   2.575   0.643   4.141
10177SOL    HW231431   2.441   0.733   4.115
10178SOL     OW31432   0.790   1.760   1.082
10178SOL    HW131433   0.745   1.833   1.134
10178SOL    HW231434   0.828   1.693   1.145
10179SOL     OW31435   0.851   4.492   6.981
10179SOL    HW131436   0.810   4.401   6.968
10179SOL    HW231437   0.780   4.562   6.971
10180SOL     OW31438   3.686   0.108   6.096
10180SOL    HW131439   3.694   0.008   6.099
10180SOL    HW231440   3.744   0.143   6.022
10181SOL     OW31441   6.391   3.467   3.057
10181SOL    HW131442   6.364   3.399   2.989
10181SOL    HW231443   6.480   3.443   3.095
10182SOL     OW31444   4.493   0.955   1.053
10182SOL    HW131445   4.413   0.899   1.077
10182SOL    HW231446   4.474   1.051   1.075
10183SOL     OW31447   4.963   0.764   5.572
10183SOL    HW131448   5.001   0.856   5.562
10183SOL    HW231449   4.951   0.744   5.669
10184SOL     OW31450   5.392   1.878   5.874
10184SOL    HW131451   5.327   1.802   5.866
10184SOL    HW231452   5.345   1.957   5.914
10185SOL     OW31453   3.558   5.097   1.031
10185SOL    HW131454   3.625   5.065   0.964
10185SOL    HW231455   3.545   5.196   1.020
10186SOL     OW31456   3.554   3.518   6.456
10186SOL    HW131457   3.556   3.454   6.532
10186SOL    HW231458   3.507   3.477   6.378
10187SOL     OW31459   2.003   4.601   5.441
10187SOL    HW131460   2.016   4.539   5.363
10187SOL    HW231461   1.964   4.550   5.517
10188SOL     OW31462   2.871   0.090   6.019
10188SOL    HW131463   2.775   0.064   6.015
10188SOL    HW231464   2.889   0.165   5.956
10189SOL     OW31465   1.877   1.582   4.755
10189SOL    HW131466   1.791   1.569   4.805
10189SOL    HW231467   1.954   1.560   4.815
10190SOL     OW31468   4.530   4.580   0.927
10190SOL    HW131469   4.618   4.596   0.882
10190SOL    HW231470   4.460   4.636   0.883
10191SOL     OW31471   5.125   0.297   0.091
10191SOL    HW131472   5.086   0.353   0.018
10191SOL    HW231473   5.156   0.356   0.165
10192SOL     OW31474   1.751   1.320   4.422
10192SOL    HW131475   1.801   1.305   4.507
10192SOL    HW231476   1.796   1.393   4.370
10193SOL     OW31477   3.440   3.528   3.729
10193SOL    HW131478   3.498   3.608   3.743
10193SOL    HW231479   3.426   3.482   3.817
10194SOL     OW31480   2.878   0.112   2.607
10194SOL    HW131481   2.807   0.181   2.625
10194SOL    HW231482   2.871   0.081   2.512
10195SOL     OW31483   5.194   6.937   2.385
10195SOL    HW131484   5.108   6.947   2.435
10195SOL    HW231485   5.218   6.840   2.378
10196SOL     OW31486   5.331   3.247   4.707
10196SOL    HW131487   5.352   3.159   4.665
10196SOL    HW231488   5.377   3.253   4.796
10197SOL     OW31489   5.487   1.518   2.516
10197SOL    HW131490   5.525   1.426   2.527
10197SOL    HW231491   5.536   1.582   2.575
10198SOL     OW31492   2.402   0.127   1.433
10198SOL    HW131493   2.404   0.105   1.335
10198SOL    HW231494   2.355   0.214   1.446
10199SOL     OW31495   0.757   1.733   0.428
10199SOL    HW131496   0.785   1.829   0.421
10199SOL    HW231497   0.657   1.727   0.429
10200SOL     OW31498   5.793   5.437   5.385
10200SOL    HW131499   5.768   5.360   5.326
10200SOL    HW231500   5.750   5.425   5.474
10201SOL     OW31501   1.862   4.601   2.713
10201SOL    HW131502   1.814   4.517   2.686
10201SOL    HW231503   1.957   4.579   2.735
10202SOL     OW31504   0.545   2.783   2.847
10202SOL    HW131505   0.627   2.768   2.904
10202SOL    HW231506   0.498   2.865   2.879
10203SOL     OW31507   1.250   3.467   1.990
10203SOL    HW131508   1.285   3.514   2.071
10203SOL    HW231509   1.278   3.371   1.992
10204SOL     OW31510   2.859   5.012   4.143
10204SOL    HW131511   2.951   4.984   4.115
10204SOL    HW231512   2.829   4.955   4.219
10205SOL     OW31513   4.305   0.958   2.304
10205SOL    HW131514   4.373   0.904   2.353
10205SOL    HW231515   4.350   1.014   2.235
10206SOL     OW31516   4.271   0.485   6.294
10206SOL    HW131517   4.251   0.388   6.280
10206SOL    HW231518   4.365   0.495   6.327
10207SOL     OW31519   4.232   0.906   3.075
10207SOL    HW131520   4.287   0.910   3.158
10207SOL    HW231521   4.289   0.878   2.998
10208SOL     OW31522   5.839   3.899   4.876
10208SOL    HW131523   5.815   3.821   4.818
10208SOL    HW231524   5.852   3.980   4.818
10209SOL     OW31525   5.336   6.834   6.527
10209SOL    HW131526   5.332   6.789   6.437
10209SOL    HW231527   5.358   6.765   6.597
10210SOL     OW31528   5.087   5.618   1.805
10210SOL    HW131529   5.172   5.577   1.773
10210SOL    HW231530   5.010   5.572   1.762
10211SOL     OW31531   3.867   5.572   4.848
10211SOL    HW131532   3.940   5.589   4.781
10211SOL    HW231533   3.778   5.581   4.804
10212SOL     OW31534   6.276   6.784   5.143
10212SOL    HW131535   6.239   6.860   5.088
10212SOL    HW231536   6.331   6.725   5.084
10213SOL     OW31537   4.902   0.355   3.908
10213SOL    HW131538   4.909   0.287   3.980
10213SOL    HW231539   4.988   0.404   3.900
10214SOL     OW31540   7.007   0.507   1.847
10214SOL    HW131541   0.037   0.515   1.932
10214SOL    HW231542   6.916   0.546   1.862
10215SOL     OW31543   3.736   2.923   0.025
10215SOL    HW131544   3.807   2.853   0.020
10215SOL    HW231545   3.745   2.985   6.970
10216SOL     OW31546   4.905   0.138   2.563
10216SOL    HW131547   4.975   0.179   2.505
10216SOL    HW231548   4.848   0.076   2.508
10217SOL     OW31549   2.980   2.088   5.496
10217SOL    HW131550   2.950   2.038   5.577
10217SOL    HW231551   2.953   2.037   5.414
10218SOL     OW31552   2.352   2.331   1.044
10218SOL    HW131553   2.334   2.426   1.071
10218SOL    HW231554   2.431   2.296   1.095
10219SOL     OW31555   0.985   4.197   0.782
10219SOL    HW131556   1.040   4.118   0.809
10219SOL    HW231557   0.915   4.214   0.851
10220SOL     OW31558   3.907   2.724   0.744
10220SOL    HW131559   3.965   2.714   0.825
10220SOL    HW231560   3.911   2.639   0.690
10221SOL     OW31561   2.970   0.978   5.106
10221SOL    HW131562   3.046   1.016   5.053
10221SOL    HW231563   2.889   0.974   5.048
10222SOL     OW31564   2.061   4.829   5.945
10222SOL    HW131565   2.080   4.731   5.938
10222SOL    HW231566   1.962   4.845   5.936
10223SOL     OW31567   6.469   4.609   0.440
10223SOL    HW131568   6.536   4.677   0.469
10223SOL    HW231569   6.446   4.549   0.517
10224SOL     OW31570   2.145   0.027   4.950
10224SOL    HW131571   2.232   0.076   4.951
10224SOL    HW231572   2.143   6.989   4.871
10225SOL     OW31573   5.559   5.814   4.514
10225SOL    HW131574   5.633   5.806   4.581
10225SOL    HW231575   5.558   5.907   4.477
10226SOL     OW31576   6.624   2.819   0.148
10226SOL    HW131577   6.688   2.882   0.192
10226SOL    HW231578   6.580   2.762   0.218
10227SOL     OW31579   5.349   6.135   6.234
10227SOL    HW131580   5.359   6.041   6.268
10227SOL    HW231581   5.257   6.149   6.199
10228SOL     OW31582   0.878   3.667   3.286
10228SOL    HW131583   0.894   3.738   3.217
10228SOL    HW231584   0.896   3.704   3.377
10229SOL     OW31585   2.132   1.167   1.941
10229SOL    HW131586   2.122   1.237   1.871
10229SOL    HW231587   2.229   1.142   1.949
10230SOL     OW31588   6.383   6.735   4.697
10230SOL    HW131589   6.299   6.690   4.729
10230SOL    HW231590   6.442   6.754   4.775
10231SOL     OW31591   4.391   6.685   4.222
10231SOL    HW131592   4.302   6.710   4.261
10231SOL    HW231593   4.441   6.768   4.198
10232SOL     OW31594   3.722   2.120   4.385
10232SOL    HW131595   3.752   2.025   4.378
10232SOL    HW231596   3.799   2.181   4.365
10233SOL     OW31597   4.671   0.908   5.705
10233SOL    HW131598   4.708   0.918   5.797
10233SOL    HW231599   4.622   0.991   5.679
10234SOL     OW31600   5.612   6.195   1.507
10234SOL    HW131601   5.572   6.112   1.470
10234SOL    HW231602   5.688   6.172   1.568
10235SOL     OW31603   4.966   1.598   5.928
10235SOL    HW131604   4.944   1.666   5.998
10235SOL    HW231605   5.055   1.618   5.889
10236SOL     OW31606   2.145   5.765   2.634
10236SOL    HW131607   2.215   5.723   2.692
10236SOL    HW231608   2.172   5.859   2.612
10237SOL     OW31609   6.336   2.323   3.111
10237SOL    HW131610   6.287   2.409   3.129
10237SOL    HW231611   6.434   2.342   3.106
10238SOL     OW31612   4.636   5.460   4.420
10238SOL    HW131613   4.587   5.474   4.334
10238SOL    HW231614   4.654   5.548   4.464
10239SOL     OW31615   6.936   4.098   4.357
10239SOL    HW131616   6.984   4.095   4.270
10239SOL    HW231617   6.960   4.183   4.405
10240SOL     OW31618   6.473   3.748   3.880
10240SOL    HW131619   6.480   3.823   3.814
10240SOL    HW231620   6.528   3.768   3.961
10241SOL     OW31621   2.033   1.322   3.541
10241SOL    HW131622   1.935   1.304   3.540
10241SOL    HW231623   2.050   1.411   3.584
10242SOL     OW31624   0.921   6.414   5.857
10242SOL    HW131625   0.895   6.462   5.941
10242SOL    HW231626   0.844   6.357   5.827
10243SOL     OW31627   0.928   5.961   2.647
10243SOL    HW131628   0.849   5.940   2.589
10243SOL    HW231629   0.999   6.005   2.591
10244SOL     OW31630   1.925   6.205   6.970
10244SOL    HW131631   1.944   6.298   6.938
10244SOL    HW231632   1.973   6.189   0.032
10245SOL     OW31633   2.113   2.145   0.352
10245SOL    HW131634   2.181   2.110   0.288
10245SOL    HW231635   2.156   2.213   0.412
10246SOL     OW31636   3.796   3.911   4.264
10246SOL    HW131637   3.755   3.821   4.276
10246SOL    HW231638   3.724   3.980   4.257
10247SOL     OW31639   1.313   6.239   5.788
10247SOL    HW131640   1.303   6.152   5.836
10247SOL    HW231641   1.408   6.252   5.761
10248SOL     OW31642   4.818   0.546   2.261
10248SOL    HW131643   4.901   0.535   2.206
10248SOL    HW231644   4.741   0.569   2.201
10249SOL     OW31645   4.360   1.410   0.312
10249SOL    HW131646   4.307   1.346   0.256
10249SOL    HW231647   4.333   1.503   0.290
10250SOL     OW31648   5.741   0.307   0.128
10250SOL    HW131649   5.702   0.386   0.174
10250SOL    HW231650   5.832   0.330   0.093
10251SOL     OW31651   3.878   4.385   6.622
10251SOL    HW131652   3.943   4.366   6.549
10251SOL    HW231653   3.805   4.444   6.588
10252SOL     OW31654   6.467   5.242   2.466
10252SOL    HW131655   6.368   5.251   2.476
10252SOL    HW231656   6.491   5.242   2.368
10253SOL     OW31657   3.763   5.418   6.353
10253SOL    HW131658   3.706   5.368   6.288
10253SOL    HW231659   3.707   5.485   6.401
10254SOL     OW31660   2.535   1.511   4.270
10254SOL    HW131661   2.454   1.503   4.211
10254SOL    HW231662   2.513   1.476   4.360
10255SOL     OW31663   3.296   5.471   3.137
10255SOL    HW131664   3.349   5.526   3.201
10255SOL    HW231665   3.299   5.375   3.166
10256SOL     OW31666   5.785   6.472   6.997
10256SOL    HW131667   5.792   6.373   6.984
10256SOL    HW231668   5.690   6.498   7.012
10257SOL     OW31669   1.543   6.387   6.426
10257SOL    HW131670   1.473   6.425   6.366
10257SOL    HW231671   1.533   6.287   6.430
10258SOL     OW31672   4.184   0.412   3.333
10258SOL    HW131673   4.117   0.374   3.396
10258SOL    HW231674   4.199   0.508   3.354
10259SOL     OW31675   0.988   3.553   3.663
10259SOL    HW131676   0.994   3.515   3.755
10259SOL    HW231677   1.049   3.501   3.602
10260SOL     OW31678   6.983   6.669   1.178
10260SOL    HW131679   6.982   6.730   1.257
10260SOL    HW231680   6.977   6.574   1.209
10261SOL     OW31681   2.205   6.693   1.816
10261SOL    HW131682   2.153   6.638   1.750
10261SOL    HW231683   2.184   6.790   1.802
10262SOL     OW31684   1.640   5.255   5.158
10262SOL    HW131685   1.605   5.208   5.239
10262SOL    HW231686   1.563   5.287   5.103
10263SOL     OW31687   6.592   1.983   5.788
10263SOL    HW131688   6.573   1.999   5.691
10263SOL    HW231689   6.595   2.071   5.836
10264SOL     OW31690   0.189   6.500   6.544
10264SOL    HW131691   0.102   6.501   6.593
10264SOL    HW231692   0.191   6.422   6.482
10265SOL     OW31693   4.524   1.955   2.337
10265SOL    HW131694   4.540   1.865   2.295
10265SOL    HW231695   4.448   1.948   2.402
10266SOL     OW31696   4.144   4.026   6.150
10266SOL    HW131697   4.058   4.077   6.155
10266SOL    HW231698   4.220   4.089   6.166
10267SOL     OW31699   6.501   1.907   6.089
10267SOL    HW131700   6.462   1.816   6.077
10267SOL    HW231701   6.486   1.961   6.006
10268SOL     OW31702   6.096   4.447   1.835
10268SOL    HW131703   6.097   4.546   1.849
10268SOL    HW231704   6.015   4.408   1.880
10269SOL     OW31705   3.133   2.978   6.174
10269SOL    HW131706   3.169   3.042   6.107
10269SOL    HW231707   3.100   2.895   6.127
10270SOL     OW31708   2.898   6.272   0.877
10270SOL    HW131709   2.977   6.253   0.934
10270SOL    HW231710   2.869   6.367   0.890
10271SOL     OW31711   3.666   4.889   0.837
10271SOL    HW131712   3.662   4.972   0.782
10271SOL    HW231713   3.574   4.868   0.872
10272SOL     OW31714   0.663   0.807   5.943
10272SOL    HW131715   0.721   0.876   5.900
10272SOL    HW231716   0.575   0.848   5.966
10273SOL     OW31717   4.451   6.209   4.082
10273SOL    HW131718   4.541   6.239   4.110
10273SOL    HW231719   4.385   6.283   4.095
10274SOL     OW31720   2.223   6.046   6.098
10274SOL    HW131721   2.192   5.953   6.120
10274SOL    HW231722   2.152   6.093   6.044
10275SOL     OW31723   1.152   6.527   2.131
10275SOL    HW131724   1.109   6.549   2.218
10275SOL    HW231725   1.250   6.516   2.143
10276SOL     OW31726   6.942   6.150   6.460
10276SOL    HW131727   6.909   6.144   6.555
10276SOL    HW231728   6.864   6.141   6.398
10277SOL     OW31729   1.965   5.497   3.074
10277SOL    HW131730   2.003   5.586   3.052
10277SOL    HW231731   1.987   5.432   3.001
10278SOL     OW31732   6.188   0.387   6.242
10278SOL    HW131733   6.261   0.431   6.190
10278SOL    HW231734   6.191   0.288   6.226
10279SOL     OW31735   3.434   6.552   3.768
10279SOL    HW131736   3.429   6.640   3.721
10279SOL    HW231737   3.485   6.487   3.712
10280SOL     OW31738   3.202   2.606   6.780
10280SOL    HW131739   3.124   2.553   6.813
10280SOL    HW231740   3.222   2.580   6.685
10281SOL     OW31741   3.877   6.874   4.462
10281SOL    HW131742   3.787   6.837   4.483
10281SOL    HW231743   3.870   6.934   4.382
10282SOL     OW31744   1.220   2.415   4.797
10282SOL    HW131745   1.256   2.450   4.883
10282SOL    HW231746   1.269   2.331   4.773
10283SOL     OW31747   1.250   3.085   5.893
10283SOL    HW131748   1.248   3.016   5.821
10283SOL    HW231749   1.274   3.174   5.854
10284SOL     OW31750   5.609   3.651   6.203
10284SOL    HW131751   5.516   3.623   6.230
10284SOL    HW231752   5.657   3.574   6.162
10285SOL     OW31753   5.721   0.432   0.536
10285SOL    HW131754   5.641   0.438   0.596
10285SOL    HW231755   5.804   0.434   0.591
10286SOL     OW31756   4.392   0.301   3.560
10286SOL    HW131757   4.324   0.300   3.487
10286SOL    HW231758   4.415   0.395   3.583
10287SOL     OW31759   2.043   5.681   1.479
10287SOL    HW131760   2.100   5.732   1.544
10287SOL    HW231761   2.023   5.739   1.400
10288SOL     OW31762   5.258   6.188   3.762
10288SOL    HW131763   5.269   6.208   3.859
10288SOL    HW231764   5.186   6.246   3.724
10289SOL     OW31765   3.243   1.107   1.781
10289SOL    HW131766   3.170   1.167   1.748
10289SOL    HW231767   3.332   1.149   1.762
10290SOL     OW31768   3.004   3.655   2.474
10290SOL    HW131769   3.012   3.567   2.427
10290SOL    HW231770   2.978   3.640   2.569
10291SOL     OW31771   3.776   0.454   5.835
10291SOL    HW131772   3.866   0.497   5.843
10291SOL    HW231773   3.708   0.512   5.880
10292SOL     OW31774   6.488   0.676   4.781
10292SOL    HW131775   6.494   0.705   4.877
10292SOL    HW231776   6.489   0.576   4.776
10293SOL     OW31777   2.792   5.683   2.754
10293SOL    HW131778   2.750   5.592   2.751
10293SOL    HW231779   2.747   5.742   2.687
10294SOL     OW31780   5.872   1.366   3.028
10294SOL    HW131781   5.890   1.321   2.941
10294SOL    HW231782   5.958   1.381   3.076
10295SOL     OW31783   1.180   4.830   5.579
10295SOL    HW131784   1.228   4.914   5.608
10295SOL    HW231785   1.242   4.774   5.525
10296SOL     OW31786   6.318   2.545   1.144
10296SOL    HW131787   6.287   2.456   1.177
10296SOL    HW231788   6.241   2.609   1.141
10297SOL     OW31789   2.256   5.315   4.606
10297SOL    HW131790   2.198   5.234   4.597
10297SOL    HW231791   2.342   5.301   4.558
10298SOL     OW31792   5.410   3.625   3.376
10298SOL    HW131793   5.428   3.542   3.322
10298SOL    HW231794   5.495   3.658   3.415
10299SOL     OW31795   5.041   4.670   2.179
10299SOL    HW131796   4.988   4.592   2.146
10299SOL    HW231797   5.134   4.664   2.144
10300SOL     OW31798   1.990   5.083   2.701
10300SOL    HW131799   1.938   4.998   2.697
10300SOL    HW231800   2.088   5.063   2.713
10301SOL     OW31801   5.635   1.759   1.649
10301SOL    HW131802   5.699   1.823   1.690
10301SOL    HW231803   5.642   1.764   1.549
10302SOL     OW31804   1.468   4.986   3.228
10302SOL    HW131805   1.495   5.033   3.312
10302SOL    HW231806   1.457   5.052   3.154
10303SOL     OW31807   3.915   2.999   1.042
10303SOL    HW131808   3.842   3.051   1.087
10303SOL    HW231809   3.978   3.063   0.997
10304SOL     OW31810   5.829   6.449   3.654
10304SOL    HW131811   5.854   6.522   3.590
10304SOL    HW231812   5.865   6.362   3.620
10305SOL     OW31813   1.880   5.823   1.287
10305SOL    HW131814   1.829   5.868   1.214
10305SOL    HW231815   1.884   5.883   1.367
10306SOL     OW31816   4.336   4.853   0.360
10306SOL    HW131817   4.294   4.783   0.419
10306SOL    HW231818   4.273   4.930   0.351
10307SOL     OW31819   3.034   1.189   5.351
10307SOL    HW131820   3.119   1.240   5.362
10307SOL    HW231821   3.054   1.095   5.324
10308SOL     OW31822   3.312   5.466   3.739
10308SOL    HW131823   3.385   5.401   3.716
10308SOL    HW231824   3.351   5.542   3.791
10309SOL     OW31825   0.767   6.520   3.565
10309SOL    HW131826   0.730   6.532   3.473
10309SOL    HW231827   0.735   6.594   3.624
10310SOL     OW31828   3.692   3.369   4.476
10310SOL    HW131829   3.638   3.294   4.438
10310SOL    HW231830   3.757   3.401   4.407
10311SOL     OW31831   0.148   6.330   0.829
10311SOL    HW131832   0.200   6.255   0.869
10311SOL    HW231833   0.064   6.345   0.882
10312SOL     OW31834   1.837   5.109   0.838
10312SOL    HW131835   1.772   5.125   0.763
10312SOL    HW231836   1.801   5.040   0.900
10313SOL     OW31837   6.036   5.943   3.668
10313SOL    HW131838   6.037   5.892   3.581
10313SOL    HW231839   6.121   5.993   3.678
10314SOL     OW31840   6.491   5.270   6.000
10314SOL    HW131841   6.431   5.267   6.080
10314SOL    HW231842   6.508   5.365   5.975
10315SOL     OW31843   5.903   6.204   4.940
10315SOL    HW131844   5.848   6.212   5.023
10315SOL    HW231845   5.854   6.246   4.864
10316SOL     OW31846   0.088   3.867   3.099
10316SOL    HW131847   7.020   3.905   3.110
10316SOL    HW231848   0.150   3.911   3.164
10317SOL     OW31849   3.656   4.583   0.861
10317SOL    HW131850   3.681   4.664   0.809
10317SOL    HW231851   3.594   4.608   0.936
10318SOL     OW31852   6.707   5.704   2.604
10318SOL    HW131853   6.719   5.753   2.517
10318SOL    HW231854   6.626   5.646   2.599
10319SOL     OW31855   4.995   5.641   4.737
10319SOL    HW131856   4.992   5.581   4.818
10319SOL    HW231857   4.910   5.632   4.686
10320SOL     OW31858   4.372   6.400   1.278
10320SOL    HW131859   4.387   6.387   1.180
10320SOL    HW231860   4.327   6.488   1.293
10321SOL     OW31861   4.182   0.255   4.439
10321SOL    HW131862   4.235   0.206   4.509
10321SOL    HW231863   4.092   0.277   4.475
10322SOL     OW31864   6.588   2.472   0.074
10322SOL    HW131865   6.549   2.465   0.166
10322SOL    HW231866   6.674   2.523   0.079
10323SOL     OW31867   5.771   2.329   5.314
10323SOL    HW131868   5.792   2.419   5.352
10323SOL    HW231869   5.812   2.322   5.223
10324SOL     OW31870   2.906   3.764   3.772
10324SOL    HW131871   2.930   3.702   3.848
10324SOL    HW231872   2.808   3.757   3.753
10325SOL     OW31873   0.797   3.733   3.897
10325SOL    HW131874   0.874   3.669   3.899
10325SOL    HW231875   0.711   3.682   3.895
10326SOL     OW31876   4.888   1.496   1.372
10326SOL    HW131877   4.909   1.401   1.396
10326SOL    HW231878   4.873   1.549   1.456
10327SOL     OW31879   7.000   0.814   3.644
10327SOL    HW131880   0.009   0.898   3.685
10327SOL    HW231881   0.034   0.789   3.566
10328SOL     OW31882   6.101   3.460   2.453
10328SOL    HW131883   6.069   3.417   2.369
10328SOL    HW231884   6.145   3.390   2.511
10329SOL     OW31885   4.133   6.334   2.481
10329SOL    HW131886   4.185   6.376   2.555
10329SOL    HW231887   4.042   6.376   2.475
10330SOL     OW31888   3.505   4.199   0.870
10330SOL    HW131889   3.516   4.189   0.969
10330SOL    HW231890   3.596   4.201   0.827
10331SOL     OW31891   5.508   0.685   4.296
10331SOL    HW131892   5.409   0.695   4.306
10331SOL    HW231893   5.553   0.706   4.383
10332SOL     OW31894   0.127   1.775   0.139
10332SOL    HW131895   0.173   1.835   0.074
10332SOL    HW231896   0.098   1.827   0.219
10333SOL     OW31897   4.811   4.068   4.837
10333SOL    HW131898   4.777   4.098   4.748
10333SOL    HW231899   4.874   3.991   4.824
10334SOL     OW31900   1.170   4.792   4.789
10334SOL    HW131901   1.167   4.765   4.885
10334SOL    HW231902   1.109   4.734   4.736
10335SOL     OW31903   2.382   5.375   1.925
10335SOL    HW131904   2.369   5.276   1.926
10335SOL    HW231905   2.355   5.411   1.836
10336SOL     OW31906   4.326   6.069   2.839
10336SOL    HW131907   4.314   6.063   2.740
10336SOL    HW231908   4.424   6.066   2.861
10337SOL     OW31909   0.806   4.841   5.412
10337SOL    HW131910   0.787   4.932   5.448
10337SOL    HW231911   0.837   4.782   5.487
10338SOL     OW31912   3.797   4.986   3.516
10338SOL    HW131913   3.837   5.075   3.490
10338SOL    HW231914   3.814   4.969   3.613
10339SOL     OW31915   3.008   5.378   0.236
10339SOL    HW131916   3.009   5.290   0.283
10339SOL    HW231917   3.098   5.397   0.198
10340SOL     OW31918   1.955   6.939   6.995
10340SOL    HW131919   1.988   0.005   6.970
10340SOL    HW231920   1.985   6.872   6.926
10341SOL     OW31921   1.339   2.309   2.553
10341SOL    HW131922   1.334   2.358   2.640
10341SOL    HW231923   1.305   2.216   2.565
10342SOL     OW31924   2.915   6.790   3.854
10342SOL    HW131925   2.927   6.886   3.878
10342SOL    HW231926   2.826   6.758   3.888
10343SOL     OW31927   2.094   3.077   4.039
10343SOL    HW131928   2.165   3.035   4.095
10343SOL    HW231929   2.116   3.064   3.942
10344SOL     OW31930   4.152   3.968   0.325
10344SOL    HW131931   4.247   3.998   0.339
10344SOL    HW231932   4.152   3.871   0.302
10345SOL     OW31933   1.508   1.748   5.810
10345SOL    HW131934   1.495   1.763   5.908
10345SOL    HW231935   1.600   1.775   5.784
10346SOL     OW31936   5.712   5.446   0.363
10346SOL    HW131937   5.706   5.538   0.323
10346SOL    HW231938   5.661   5.382   0.306
10347SOL     OW31939   4.736   1.408   2.101
10347SOL    HW131940   4.717   1.441   2.009
10347SOL    HW231941   4.731   1.484   2.166
10348SOL     OW31942   6.587   4.902   5.951
10348SOL    HW131943   6.562   4.952   5.868
10348SOL    HW231944   6.642   4.822   5.927
10349SOL     OW31945   0.598   1.832   1.363
10349SOL    HW131946   0.695   1.831   1.391
10349SOL    HW231947   0.570   1.739   1.341
10350SOL     OW31948   2.194   4.355   4.729
10350SOL    HW131949   2.287   4.379   4.757
10350SOL    HW231950   2.152   4.434   4.684
10351SOL     OW31951   4.593   4.437   4.961
10351SOL    HW131952   4.514   4.450   5.020
10351SOL    HW231953   4.564   4.445   4.865
10352SOL     OW31954   5.735   1.030   6.771
10352SOL    HW131955   5.677   1.094   6.720
10352SOL    HW231956   5.768   0.959   6.710
10353SOL     OW31957   6.470   2.648   3.817
10353SOL    HW131958   6.522   2.583   3.761
10353SOL    HW231959   6.372   2.633   3.801
10354SOL     OW31960   5.989   3.254   1.102
10354SOL    HW131961   5.967   3.167   1.147
10354SOL    HW231962   5.979   3.243   1.003
10355SOL     OW31963   0.653   1.898   0.682
10355SOL    HW131964   0.610   1.897   0.592
10355SOL    HW231965   0.653   1.805   0.720
10356SOL     OW31966   6.209   3.471   5.560
10356SOL    HW131967   6.170   3.381   5.580
10356SOL    HW231968   6.145   3.542   5.590
10357SOL     OW31969   0.803   1.036   5.853
10357SOL    HW131970   0.875   1.044   5.921
10357SOL    HW231971   0.836   1.073   5.766
10358SOL     OW31972   1.141   2.837   3.201
10358SOL    HW131973   1.232   2.838   3.243
10358SOL    HW231974   1.151   2.829   3.101
10359SOL     OW31975   6.350   2.416   2.261
10359SOL    HW131976   6.378   2.364   2.341
10359SOL    HW231977   6.255   2.445   2.272
10360SOL     OW31978   5.785   4.225   1.567
10360SOL    HW131979   5.715   4.154   1.557
10360SOL    HW231980   5.757   4.289   1.638
10361SOL     OW31981   6.486   2.134   2.742
10361SOL    HW131982   6.408   2.184   2.779
10361SOL    HW231983   6.568   2.190   2.747
10362SOL     OW31984   1.363   6.100   1.882
10362SOL    HW131985   1.401   6.098   1.975
10362SOL    HW231986   1.269   6.132   1.885
10363SOL     OW31987   5.500   4.301   6.198
10363SOL    HW131988   5.463   4.236   6.132
10363SOL    HW231989   5.502   4.392   6.157
10364SOL     OW31990   5.943   4.884   2.403
10364SOL    HW131991   6.014   4.938   2.357
10364SOL    HW231992   5.856   4.933   2.397
10365SOL     OW31993   5.732   5.219   0.767
10365SOL    HW131994   5.792   5.288   0.728
10365SOL    HW231995   5.719   5.145   0.701
10366SOL     OW31996   2.777   5.946   3.091
10366SOL    HW131997   2.741   5.858   3.124
10366SOL    HW231998   2.780   5.945   2.991
10367SOL     OW31999   6.012   6.240   1.507
10367SOL    HW132000   5.972   6.149   1.501
10367SOL    HW232001   6.054   6.253   1.597
10368SOL     OW32002   2.078   6.585   1.380
10368SOL    HW132003   2.129   6.660   1.338
10368SOL    HW232004   2.062   6.513   1.312
10369SOL     OW32005   2.485   0.275   5.906
10369SOL    HW132006   2.474   0.289   6.004
10369SOL    HW232007   2.496   0.364   5.860
10370SOL     OW32008   1.112   1.201   5.246
10370SOL    HW132009   1.167   1.265   5.298
10370SOL    HW232010   1.118   1.222   5.149
10371SOL     OW32011   4.664   5.356   2.694
10371SOL    HW132012   4.646   5.268   2.649
10371SOL    HW232013   4.602   5.367   2.771
10372SOL     OW32014   2.944   6.362   1.774
10372SOL    HW132015   2.870   6.419   1.809
10372SOL    HW232016   2.929   6.267   1.803
10373SOL     OW32017   6.593   1.274   5.971
10373SOL    HW132018   6.655   1.212   5.923
10373SOL    HW232019   6.520   1.222   6.015
10374SOL     OW32020   3.567   5.600   3.405
10374SOL    HW132021   3.602   5.674   3.462
10374SOL    HW232022   3.470   5.613   3.388
10375SOL     OW32023   2.552   5.145   0.049
10375SOL    HW132024   2.613   5.223   0.034
10375SOL    HW232025   2.460   5.178   0.072
10376SOL     OW32026   2.181   5.336   3.894
10376SOL    HW132027   2.122   5.397   3.841
10376SOL    HW232028   2.183   5.366   3.990
10377SOL     OW32029   1.659   0.902   2.177
10377SOL    HW132030   1.618   0.831   2.120
10377SOL    HW232031   1.737   0.943   2.130
10378SOL     OW32032   0.103   5.764   4.254
10378SOL    HW132033   0.043   5.839   4.223
10378SOL    HW232034   0.061   5.719   4.333
10379SOL     OW32035   1.915   0.063   4.322
10379SOL    HW132036   1.947   0.089   4.414
10379SOL    HW232037   1.972   0.109   4.254
10380SOL     OW32038   2.889   2.224   4.473
10380SOL    HW132039   2.865   2.141   4.422
10380SOL    HW232040   2.854   2.217   4.566
10381SOL     OW32041   4.602   6.447   1.727
10381SOL    HW132042   4.622   6.450   1.825
10381SOL    HW232043   4.507   6.419   1.713
10382SOL     OW32044   4.202   5.896   1.497
10382SOL    HW132045   4.185   5.938   1.408
10382SOL    HW232046   4.215   5.966   1.566
10383SOL     OW32047   1.519   5.129   6.896
10383SOL    HW132048   1.542   5.184   6.816
10383SOL    HW232049   1.573   5.160   6.975
10384SOL     OW32050   5.735   6.024   1.773
10384SOL    HW132051   5.670   6.098   1.792
10384SOL    HW232052   5.689   5.936   1.785
10385SOL     OW32053   4.323   4.747   6.990
10385SOL    HW132054   4.398   4.792   0.013
10385SOL    HW232055   4.289   4.671   0.022
10386SOL     OW32056   0.108   1.007   0.696
10386SOL    HW132057   0.204   1.016   0.668
10386SOL    HW232058   0.100   0.933   0.762
10387SOL     OW32059   5.418   3.172   2.240
10387SOL    HW132060   5.324   3.188   2.210
10387SOL    HW232061   5.462   3.259   2.259
10388SOL     OW32062   2.802   6.972   4.815
10388SOL    HW132063   2.770   0.025   4.759
10388SOL    HW232064   2.725   6.912   4.836
10389SOL     OW32065   0.422   3.625   0.608
10389SOL    HW132066   0.430   3.527   0.590
10389SOL    HW232067   0.499   3.674   0.567
10390SOL     OW32068   2.282   2.318   1.385
10390SOL    HW132069   2.256   2.350   1.294
10390SOL    HW232070   2.372   2.276   1.381
10391SOL     OW32071   5.263   0.004   4.402
10391SOL    HW132072   5.279   0.092   4.446
10391SOL    HW232073   5.166   7.004   4.413
10392SOL     OW32074   6.503   3.976   4.517
10392SOL    HW132075   6.552   3.893   4.542
10392SOL    HW232076   6.555   4.026   4.447
10393SOL     OW32077   1.189   3.663   4.033
10393SOL    HW132078   1.262   3.597   4.018
10393SOL    HW232079   1.228   3.751   4.063
10394SOL     OW32080   3.173   0.251   4.119
10394SOL    HW132081   3.244   0.203   4.069
10394SOL    HW232082   3.126   0.188   4.180
10395SOL     OW32083   1.494   0.481   1.052
10395SOL    HW132084   1.448   0.529   0.977
10395SOL    HW232085   1.574   0.533   1.081
10396SOL     OW32086   2.825   2.279   4.723
10396SOL    HW132087   2.919   2.251   4.744
10396SOL    HW232088   2.763   2.204   4.747
10397SOL     OW32089   3.299   1.972   3.090
10397SOL    HW132090   3.396   1.951   3.100
10397SOL    HW232091   3.269   2.031   3.166
10398SOL     OW32092   6.396   2.678   1.572
10398SOL    HW132093   6.438   2.732   1.500
10398SOL    HW232094   6.467   2.633   1.626
10399SOL     OW32095   0.406   3.931   1.858
10399SOL    HW132096   0.418   3.850   1.917
10399SOL    HW232097   0.435   4.013   1.908
10400SOL     OW32098   4.027   6.338   0.208
10400SOL    HW132099   4.005   6.404   0.280
10400SOL    HW232100   4.126   6.337   0.193
10401SOL     OW32101   0.142   1.326   5.659
10401SOL    HW132102   0.078   1.330   5.583
10401SOL    HW232103   0.211   1.398   5.650
10402SOL     OW32104   6.907   3.043   4.668
10402SOL    HW132105   6.927   3.140   4.685
10402SOL    HW232106   6.977   2.986   4.712
10403SOL     OW32107   2.695   0.386   2.106
10403SOL    HW132108   2.763   0.382   2.179
10403SOL    HW232109   2.640   0.303   2.107
10404SOL     OW32110   0.034   6.736   6.438
10404SOL    HW132111   0.079   6.647   6.439
10404SOL    HW232112   0.006   6.759   6.344
10405SOL     OW32113   0.086   1.952   6.442
10405SOL    HW132114   0.156   1.985   6.505
10405SOL    HW232115   0.067   1.856   6.461
10406SOL     OW32116   2.792   4.687   1.558
10406SOL    HW132117   2.797   4.744   1.640
10406SOL    HW232118   2.761   4.595   1.583
10407SOL     OW32119   3.075   6.841   0.075
10407SOL    HW132120   3.142   6.809   0.142
10407SOL    HW232121   3.104   6.931   0.041
10408SOL     OW32122   3.645   0.908   0.418
10408SOL    HW132123   3.561   0.901   0.365
10408SOL    HW232124   3.677   0.817   0.444
10409SOL     OW32125   5.829   4.699   1.419
10409SOL    HW132126   5.915   4.648   1.414
10409SOL    HW232127   5.793   4.712   1.327
10410SOL     OW32128   5.923   0.619   1.000
10410SOL    HW132129   5.840   0.644   0.951
10410SOL    HW232130   5.940   0.521   0.989
10411SOL     OW32131   2.922   5.388   3.326
10411SOL    HW132132   3.006   5.336   3.347
10411SOL    HW232133   2.936   5.440   3.242
10412SOL     OW32134   6.439   0.532   0.745
10412SOL    HW132135   6.471   0.438   0.754
10412SOL    HW232136   6.513   0.589   0.709
10413SOL     OW32137   6.171   2.776   1.691
10413SOL    HW132138   6.245   2.739   1.635
10413SOL    HW232139   6.121   2.701   1.734
10414SOL     OW32140   4.705   2.716   4.156
10414SOL    HW132141   4.725   2.812   4.178
10414SOL    HW232142   4.691   2.707   4.058
10415SOL     OW32143   0.780   6.444   6.405
10415SOL    HW132144   0.877   6.427   6.421
10415SOL    HW232145   0.726   6.369   6.442
10416SOL     OW32146   5.917   2.625   4.468
10416SOL    HW132147   5.898   2.532   4.497
10416SOL    HW232148   5.920   2.685   4.548
10417SOL     OW32149   2.658   4.711   4.083
10417SOL    HW132150   2.615   4.622   4.098
10417SOL    HW232151   2.681   4.753   4.171
10418SOL     OW32152   0.999   4.643   6.263
10418SOL    HW132153   1.053   4.724   6.241
10418SOL    HW232154   0.912   4.671   6.304
10419SOL     OW32155   1.249   1.154   0.695
10419SOL    HW132156   1.172   1.157   0.630
10419SOL    HW232157   1.225   1.096   0.772
10420SOL     OW32158   0.286   3.367   3.401
10420SOL    HW132159   0.214   3.390   3.336
10420SOL    HW232160   0.364   3.327   3.353
10421SOL     OW32161   0.439   0.528   3.056
10421SOL    HW132162   0.394   0.444   3.025
10421SOL    HW232163   0.387   0.607   3.025
10422SOL     OW32164   6.180   2.859   6.350
10422SOL    HW132165   6.219   2.769   6.370
10422SOL    HW232166   6.173   2.912   6.435
10423SOL     OW32167   4.886   4.374   3.488
10423SOL    HW132168   4.941   4.334   3.561
10423SOL    HW232169   4.833   4.302   3.443
10424SOL     OW32170   5.402   1.626   6.649
10424SOL    HW132171   5.373   1.622   6.745
10424SOL    HW232172   5.344   1.690   6.599
10425SOL     OW32173   1.713   6.001   2.465
10425SOL    HW132174   1.756   5.912   2.482
10425SOL    HW232175   1.703   6.050   2.552
10426SOL     OW32176   6.484   4.498   0.181
10426SOL    HW132177   6.417   4.558   0.138
10426SOL    HW232178   6.497   4.526   0.277
10427SOL     OW32179   5.339   2.193   0.020
10427SOL    HW132180   5.341   2.274   0.078
10427SOL    HW232181   5.395   2.121   0.061
10428SOL     OW32182   4.991   0.320   4.585
10428SOL    HW132183   4.949   0.299   4.673
10428SOL    HW232184   5.045   0.404   4.594
10429SOL     OW32185   6.829   6.165   1.779
10429SOL    HW132186   6.814   6.264   1.770
10429SOL    HW232187   6.820   6.139   1.875
10430SOL     OW32188   4.033   6.534   2.154
10430SOL    HW132189   4.099   6.460   2.146
10430SOL    HW232190   4.082   6.622   2.156
10431SOL     OW32191   3.195   0.506   4.203
10431SOL    HW132192   3.223   0.513   4.298
10431SOL    HW232193   3.181   0.411   4.178
10432SOL     OW32194   5.611   0.910   5.345
10432SOL    HW132195   5.686   0.976   5.355
10432SOL    HW232196   5.629   0.852   5.265
10433SOL     OW32197   2.174   6.661   0.645
10433SOL    HW132198   2.077   6.683   0.653
10433SOL    HW232199   2.229   6.734   0.685
10434SOL     OW32200   2.236   0.301   3.956
10434SOL    HW132201   2.318   0.295   4.012
10434SOL    HW232202   2.202   0.395   3.955
10435SOL     OW32203   5.227   6.413   6.279
10435SOL    HW132204   5.316   6.401   6.323
10435SOL    HW232205   5.211   6.338   6.215
10436SOL     OW32206   1.569   5.054   3.730
10436SOL    HW132207   1.626   5.044   3.811
10436SOL    HW232208   1.473   5.062   3.757
10437SOL     OW32209   6.958   5.054   5.877
10437SOL    HW132210   7.001   5.066   5.966
10437SOL    HW232211   6.860   5.070   5.884
10438SOL     OW32212   3.968   6.538   0.386
10438SOL    HW132213   3.981   6.596   0.306
10438SOL    HW232214   4.017   6.577   0.464
10439SOL     OW32215   3.659   6.857   6.127
10439SOL    HW132216   3.660   6.835   6.225
10439SOL    HW232217   3.748   6.838   6.088
10440SOL     OW32218   1.822   6.317   0.601
10440SOL    HW132219   1.730   6.281   0.619
10440SOL    HW232220   1.833   6.404   0.649
10441SOL     OW32221   5.268   1.713   6.235
10441SOL    HW132222   5.309   1.803   6.253
10441SOL    HW232223   5.225   1.679   6.318
10442SOL     OW32224   3.837   4.966   5.914
10442SOL    HW132225   3.927   4.954   5.956
10442SOL    HW232226   3.770   4.993   5.983
10443SOL     OW32227   5.831   3.331   4.958
10443SOL    HW132228   5.772   3.377   4.892
10443SOL    HW232229   5.899   3.396   4.993
10444SOL     OW32230   3.871   5.365   4.534
10444SOL    HW132231   3.905   5.453   4.503
10444SOL    HW232232   3.780   5.348   4.495
10445SOL     OW32233   6.992   5.923   5.259
10445SOL    HW132234   6.948   5.865   5.191
10445SOL    HW232235   0.067   5.921   5.246
10446SOL     OW32236   0.957   5.263   5.999
10446SOL    HW132237   0.860   5.284   6.002
10446SOL    HW232238   1.010   5.348   6.006
10447SOL     OW32239   5.873   2.727   1.514
10447SOL    HW132240   5.798   2.788   1.488
10447SOL    HW232241   5.955   2.781   1.533
10448SOL     OW32242   3.907   3.944   2.383
10448SOL    HW132243   3.980   4.013   2.387
10448SOL    HW232244   3.824   3.986   2.346
10449SOL     OW32245   2.619   5.543   4.378
10449SOL    HW132246   2.529   5.506   4.355
10449SOL    HW232247   2.663   5.485   4.446
10450SOL     OW32248   6.850   1.960   0.646
10450SOL    HW132249   6.756   1.989   0.665
10450SOL    HW232250   6.882   1.899   0.719
10451SOL     OW32251   2.472   4.514   2.913
10451SOL    HW132252   2.566   4.546   2.925
10451SOL    HW232253   2.463   4.472   2.823
10452SOL     OW32254   0.977   3.238   4.008
10452SOL    HW132255   1.057   3.203   3.960
10452SOL    HW232256   0.974   3.198   4.100
10453SOL     OW32257   4.783   6.582   1.604
10453SOL    HW132258   4.707   6.539   1.653
10453SOL    HW232259   4.754   6.672   1.570
10454SOL     OW32260   5.104   3.113   2.278
10454SOL    HW132261   5.032   3.122   2.346
10454SOL    HW232262   5.064   3.085   2.190
10455SOL     OW32263   6.923   5.121   3.582
10455SOL    HW132264   6.860   5.046   3.559
10455SOL    HW232265   7.002   5.084   3.630
10456SOL     OW32266   4.454   5.904   1.296
10456SOL    HW132267   4.512   5.974   1.337
10456SOL    HW232268   4.394   5.946   1.227
10457SOL     OW32269   4.106   3.433   3.229
10457SOL    HW132270   4.074   3.351   3.275
10457SOL    HW232271   4.060   3.442   3.140
10458SOL     OW32272   1.198   6.597   0.928
10458SOL    HW132273   1.161   6.672   0.874
10458SOL    HW232274   1.214   6.518   0.869
10459SOL     OW32275   6.378   5.279   2.867
10459SOL    HW132276   6.422   5.305   2.782
10459SOL    HW232277   6.440   5.222   2.921
10460SOL     OW32278   2.096   5.144   2.379
10460SOL    HW132279   2.025   5.084   2.342
10460SOL    HW232280   2.088   5.235   2.339
10461SOL     OW32281   2.775   1.517   6.739
10461SOL    HW132282   2.863   1.482   6.770
10461SOL    HW232283   2.722   1.442   6.698
10462SOL     OW32284   6.997   0.118   0.760
10462SOL    HW132285   6.933   0.043   0.777
10462SOL    HW232286   0.050   0.111   0.823
10463SOL     OW32287   3.216   4.520   0.617
10463SOL    HW132288   3.227   4.592   0.549
10463SOL    HW232289   3.247   4.433   0.579
10464SOL     OW32290   5.063   0.751   1.326
10464SOL    HW132291   5.121   0.725   1.250
10464SOL    HW232292   4.973   0.779   1.292
10465SOL     OW32293   6.253   4.918   6.112
10465SOL    HW132294   6.239   4.819   6.116
10465SOL    HW232295   6.294   4.949   6.198
10466SOL     OW32296   4.934   5.790   5.710
10466SOL    HW132297   4.910   5.872   5.763
10466SOL    HW232298   4.855   5.728   5.708
10467SOL     OW32299   3.031   0.697   5.058
10467SOL    HW132300   3.019   0.785   5.103
10467SOL    HW232301   3.077   0.633   5.121
10468SOL     OW32302   3.637   6.442   3.225
10468SOL    HW132303   3.539   6.438   3.247
10468SOL    HW232304   3.659   6.372   3.158
10469SOL     OW32305   1.488   4.650   0.597
10469SOL    HW132306   1.477   4.737   0.645
10469SOL    HW232307   1.581   4.644   0.561
10470SOL     OW32308   2.278   1.569   4.095
10470SOL    HW132309   2.224   1.484   4.097
10470SOL    HW232310   2.310   1.586   4.001
10471SOL     OW32311   3.451   3.657   0.068
10471SOL    HW132312   3.526   3.717   0.040
10471SOL    HW232313   3.364   3.704   0.057
10472SOL     OW32314   4.426   1.159   2.495
10472SOL    HW132315   4.394   1.075   2.538
10472SOL    HW232316   4.523   1.149   2.471
10473SOL     OW32317   4.795   6.364   0.913
10473SOL    HW132318   4.726   6.305   0.955
10473SOL    HW232319   4.751   6.431   0.854
10474SOL     OW32320   3.764   0.677   5.123
10474SOL    HW132321   3.742   0.581   5.104
10474SOL    HW232322   3.809   0.685   5.212
10475SOL     OW32323   3.902   6.624   1.664
10475SOL    HW132324   3.905   6.530   1.697
10475SOL    HW232325   3.807   6.648   1.641
10476SOL     OW32326   7.020   5.097   0.315
10476SOL    HW132327   0.012   5.023   0.250
10476SOL    HW232328   0.081   5.147   0.331
10477SOL     OW32329   5.701   3.790   5.291
10477SOL    HW132330   5.721   3.706   5.240
10477SOL    HW232331   5.764   3.798   5.368
10478SOL     OW32332   0.294   6.679   1.195
10478SOL    HW132333   0.294   6.678   1.295
10478SOL    HW232334   0.237   6.604   1.162
10479SOL     OW32335   1.185   4.214   3.580
10479SOL    HW132336   1.145   4.124   3.561
10479SOL    HW232337   1.249   4.207   3.656
10480SOL     OW32338   5.963   0.095   1.981
10480SOL    HW132339   5.871   0.089   2.021
10480SOL    HW232340   5.977   0.187   1.945
10481SOL     OW32341   1.845   0.551   5.035
10481SOL    HW132342   1.853   0.650   5.039
10481SOL    HW232343   1.894   0.517   4.954
10482SOL     OW32344   1.447   5.527   5.825
10482SOL    HW132345   1.449   5.461   5.901
10482SOL    HW232346   1.540   5.553   5.801
10483SOL     OW32347   0.025   5.245   0.674
10483SOL    HW132348   0.039   5.146   0.678
10483SOL    HW232349   7.005   5.269   0.587
10484SOL     OW32350   6.346   1.259   1.491
10484SOL    HW132351   6.271   1.314   1.455
10484SOL    HW232352   6.357   1.276   1.588
10485SOL     OW32353   3.465   3.927   3.479
10485SOL    HW132354   3.401   3.981   3.533
10485SOL    HW232355   3.559   3.955   3.500
10486SOL     OW32356   6.086   6.746   5.296
10486SOL    HW132357   6.134   6.733   5.383
10486SOL    HW232358   6.152   6.772   5.226
10487SOL     OW32359   4.895   2.737   1.884
10487SOL    HW132360   4.949   2.800   1.939
10487SOL    HW232361   4.861   2.662   1.941
10488SOL     OW32362   6.143   2.587   5.797
10488SOL    HW132363   6.139   2.515   5.868
10488SOL    HW232364   6.068   2.573   5.732
10489SOL     OW32365   6.155   4.196   5.143
10489SOL    HW132366   6.072   4.246   5.168
10489SOL    HW232367   6.232   4.231   5.197
10490SOL     OW32368   5.590   6.405   6.649
10490SOL    HW132369   5.594   6.414   6.549
10490SOL    HW232370   5.680   6.380   6.684
10491SOL     OW32371   1.929   2.918   6.027
10491SOL    HW132372   1.991   2.990   6.057
10491SOL    HW232373   1.878   2.950   5.947
10492SOL     OW32374   3.397   0.367   0.098
10492SOL    HW132375   3.383   0.461   0.068
10492SOL    HW232376   3.324   0.340   0.160
10493SOL     OW32377   4.162   5.761   1.107
10493SOL    HW132378   4.251   5.757   1.154
10493SOL    HW232379   4.091   5.728   1.169
10494SOL     OW32380   0.994   4.469   5.407
10494SOL    HW132381   1.035   4.419   5.484
10494SOL    HW232382   0.918   4.525   5.440
10495SOL     OW32383   0.082   6.611   0.664
10495SOL    HW132384   0.073   6.643   0.758
10495SOL    HW232385   0.115   6.517   0.663
10496SOL     OW32386   0.182   3.610   5.226
10496SOL    HW132387   0.232   3.524   5.229
10496SOL    HW232388   0.234   3.681   5.276
10497SOL     OW32389   2.381   0.052   1.168
10497SOL    HW132390   2.372   0.092   1.076
10497SOL    HW232391   2.294   0.061   1.216
10498SOL     OW32392   4.257   4.347   0.344
10498SOL    HW132393   4.274   4.403   0.263
10498SOL    HW232394   4.167   4.303   0.336
10499SOL     OW32395   5.982   4.718   2.659
10499SOL    HW132396   5.995   4.814   2.631
10499SOL    HW232397   6.045   4.697   2.733
10500SOL     OW32398   0.429   3.226   5.393
10500SOL    HW132399   0.472   3.141   5.361
10500SOL    HW232400   0.484   3.264   5.468
10501SOL     OW32401   3.679   4.917   2.682
10501SOL    HW132402   3.717   4.885   2.595
10501SOL    HW232403   3.752   4.925   2.750
10502SOL     OW32404   3.425   3.793   2.145
10502SOL    HW132405   3.397   3.874   2.197
10502SOL    HW232406   3.524   3.779   2.156
10503SOL     OW32407   6.349   2.159   6.397
10503SOL    HW132408   6.391   2.198   6.479
10503SOL    HW232409   6.260   2.201   6.381
10504SOL     OW32410   1.379   2.770   6.060
10504SOL    HW132411   1.344   2.677   6.052
10504SOL    HW232412   1.479   2.767   6.068
10505SOL     OW32413   5.992   6.498   0.684
10505SOL    HW132414   6.072   6.553   0.708
10505SOL    HW232415   6.013   6.401   0.697
10506SOL     OW32416   1.193   2.266   6.932
10506SOL    HW132417   1.117   2.329   6.914
10506SOL    HW232418   1.163   2.172   6.912
10507SOL     OW32419   0.716   5.387   5.975
10507SOL    HW132420   0.628   5.424   6.006
10507SOL    HW232421   0.735   5.420   5.882
10508SOL     OW32422   1.668   4.735   4.769
10508SOL    HW132423   1.674   4.646   4.814
10508SOL    HW232424   1.577   4.774   4.785
10509SOL     OW32425   4.640   2.656   2.855
10509SOL    HW132426   4.649   2.593   2.932
10509SOL    HW232427   4.680   2.744   2.879
10510SOL     OW32428   5.799   5.804   3.759
10510SOL    HW132429   5.880   5.846   3.719
10510SOL    HW232430   5.732   5.875   3.782
10511SOL     OW32431   5.054   1.926   1.734
10511SOL    HW132432   5.118   1.943   1.660
10511SOL    HW232433   5.083   1.976   1.816
10512SOL     OW32434   4.771   0.977   5.068
10512SOL    HW132435   4.713   0.896   5.060
10512SOL    HW232436   4.762   1.033   4.986
10513SOL     OW32437   4.388   3.157   0.931
10513SOL    HW132438   4.477   3.202   0.938
10513SOL    HW232439   4.336   3.172   1.016
10514SOL     OW32440   1.458   3.351   1.613
10514SOL    HW132441   1.459   3.441   1.568
10514SOL    HW232442   1.417   3.284   1.551
10515SOL     OW32443   2.340   2.724   5.042
10515SOL    HW132444   2.247   2.717   5.078
10515SOL    HW232445   2.376   2.816   5.059
10516SOL     OW32446   3.927   1.934   1.592
10516SOL    HW132447   3.923   1.973   1.684
10516SOL    HW232448   4.021   1.903   1.573
10517SOL     OW32449   1.666   2.119   2.561
10517SOL    HW132450   1.586   2.102   2.504
10517SOL    HW232451   1.636   2.147   2.652
10518SOL     OW32452   0.522   4.915   2.916
10518SOL    HW132453   0.449   4.982   2.914
10518SOL    HW232454   0.592   4.939   2.848
10519SOL     OW32455   3.900   6.996   1.252
10519SOL    HW132456   3.933   0.056   1.294
10519SOL    HW232457   3.903   6.921   1.318
10520SOL     OW32458   0.123   2.494   5.494
10520SOL    HW132459   0.097   2.570   5.554
10520SOL    HW232460   0.188   2.435   5.540
10521SOL     OW32461   0.041   2.889   2.171
10521SOL    HW132462   7.011   2.893   2.086
10521SOL    HW232463   7.004   2.867   2.248
10522SOL     OW32464   5.106   2.490   3.659
10522SOL    HW132465   5.136   2.504   3.754
10522SOL    HW232466   5.186   2.483   3.600
10523SOL     OW32467   0.447   4.246   3.425
10523SOL    HW132468   0.473   4.229   3.520
10523SOL    HW232469   0.490   4.330   3.393
10524SOL     OW32470   0.234   5.992   5.155
10524SOL    HW132471   0.234   5.987   5.055
10524SOL    HW232472   0.204   6.083   5.183
10525SOL     OW32473   5.084   1.598   3.646
10525SOL    HW132474   5.015   1.639   3.586
10525SOL    HW232475   5.098   1.502   3.620
10526SOL     OW32476   1.073   4.706   0.361
10526SOL    HW132477   1.037   4.641   0.293
10526SOL    HW232478   1.001   4.730   0.426
10527SOL     OW32479   0.317   0.391   5.001
10527SOL    HW132480   0.239   0.390   4.938
10527SOL    HW232481   0.291   0.350   5.088
10528SOL     OW32482   1.590   3.398   5.299
10528SOL    HW132483   1.673   3.412   5.352
10528SOL    HW232484   1.536   3.482   5.299
10529SOL     OW32485   0.599   6.265   1.175
10529SOL    HW132486   0.695   6.254   1.153
10529SOL    HW232487   0.574   6.362   1.166
10530SOL     OW32488   0.501   5.426   0.792
10530SOL    HW132489   0.599   5.424   0.815
10530SOL    HW232490   0.467   5.520   0.803
10531SOL     OW32491   3.011   3.389   5.346
10531SOL    HW132492   2.947   3.313   5.340
10531SOL    HW232493   3.057   3.401   5.257
10532SOL     OW32494   5.330   6.368   6.727
10532SOL    HW132495   5.427   6.392   6.720
10532SOL    HW232496   5.303   6.311   6.649
10533SOL     OW32497   4.226   6.697   3.069
10533SOL    HW132498   4.313   6.736   3.100
10533SOL    HW232499   4.151   6.760   3.092
10534SOL     OW32500   1.403   6.211   4.260
10534SOL    HW132501   1.413   6.132   4.320
10534SOL    HW232502   1.351   6.184   4.178
10535SOL     OW32503   4.005   2.003   2.370
10535SOL    HW132504   3.980   2.062   2.293
10535SOL    HW232505   4.085   2.041   2.416
10536SOL     OW32506   5.116   2.889   4.667
10536SOL    HW132507   5.059   2.968   4.692
10536SOL    HW232508   5.081   2.807   4.712
10537SOL     OW32509   3.834   0.070   4.295
10537SOL    HW132510   3.916   0.085   4.239
10537SOL    HW232511   3.754   0.102   4.244
10538SOL     OW32512   0.356   3.680   2.786
10538SOL    HW132513   0.374   3.747   2.858
10538SOL    HW232514   0.294   3.610   2.820
10539SOL     OW32515   6.210   0.188   3.567
10539SOL    HW132516   6.136   0.248   3.537
10539SOL    HW232517   6.175   0.122   3.633
10540SOL     OW32518   1.822   3.653   6.003
10540SOL    HW132519   1.808   3.610   6.092
10540SOL    HW232520   1.808   3.585   5.931
10541SOL     OW32521   3.336   3.341   5.009
10541SOL    HW132522   3.312   3.438   5.016
10541SOL    HW232523   3.376   3.322   4.920
10542SOL     OW32524   4.798   7.018   4.382
10542SOL    HW132525   4.779   6.951   4.311
10542SOL    HW232526   4.731   0.067   4.378
10543SOL     OW32527   1.258   3.600   4.806
10543SOL    HW132528   1.212   3.577   4.720
10543SOL    HW232529   1.198   3.576   4.882
10544SOL     OW32530   2.200   1.960   3.082
10544SOL    HW132531   2.248   1.950   3.169
10544SOL    HW232532   2.253   1.915   3.010
10545SOL     OW32533   2.158   2.829   2.447
10545SOL    HW132534   2.170   2.918   2.404
10545SOL    HW232535   2.239   2.772   2.429
10546SOL     OW32536   3.165   6.649   6.774
10546SOL    HW132537   3.078   6.686   6.742
10546SOL    HW232538   3.206   6.711   6.841
10547SOL     OW32539   4.370   6.884   4.999
10547SOL    HW132540   4.448   6.877   5.061
10547SOL    HW232541   4.386   6.826   4.919
10548SOL     OW32542   0.180   5.869   3.258
10548SOL    HW132543   0.235   5.848   3.339
10548SOL    HW232544   0.083   5.867   3.282
10549SOL     OW32545   0.077   0.513   1.611
10549SOL    HW132546   0.039   0.517   1.704
10549SOL    HW232547   0.031   0.580   1.553
10550SOL     OW32548   4.646   5.405   3.489
10550SOL    HW132549   4.635   5.401   3.588
10550SOL    HW232550   4.670   5.314   3.455
10551SOL     OW32551   2.692   1.432   5.810
10551SOL    HW132552   2.778   1.398   5.772
10551SOL    HW232553   2.655   1.365   5.874
10552SOL     OW32554   3.017   0.730   4.249
10552SOL    HW132555   3.073   0.811   4.234
10552SOL    HW232556   3.065   0.649   4.213
10553SOL     OW32557   6.868   5.663   1.096
10553SOL    HW132558   6.886   5.647   0.999
10553SOL    HW232559   6.907   5.750   1.124
10554SOL     OW32560   6.164   6.252   2.511
10554SOL    HW132561   6.121   6.245   2.421
10554SOL    HW232562   6.253   6.296   2.502
10555SOL     OW32563   3.982   3.243   0.953
10555SOL    HW132564   3.985   3.342   0.940
10555SOL    HW232565   4.075   3.206   0.949
10556SOL     OW32566   2.424   1.264   2.636
10556SOL    HW132567   2.436   1.360   2.661
10556SOL    HW232568   2.422   1.256   2.537
10557SOL     OW32569   2.694   4.703   3.411
10557SOL    HW132570   2.763   4.714   3.481
10557SOL    HW232571   2.632   4.628   3.436
10558SOL     OW32572   3.466   5.490   5.371
10558SOL    HW132573   3.535   5.422   5.349
10558SOL    HW232574   3.507   5.561   5.428
10559SOL     OW32575   4.041   6.689   0.882
10559SOL    HW132576   4.047   6.603   0.933
10559SOL    HW232577   3.983   6.753   0.932
10560SOL     OW32578   5.714   0.055   2.123
10560SOL    HW132579   5.638   0.109   2.088
10560SOL    HW232580   5.727   0.076   2.220
10561SOL     OW32581   6.167   4.779   0.184
10561SOL    HW132582   6.127   4.792   0.274
10561SOL    HW232583   6.149   4.686   0.152
10562SOL     OW32584   4.370   5.820   2.420
10562SOL    HW132585   4.461   5.827   2.460
10562SOL    HW232586   4.314   5.897   2.449
10563SOL     OW32587   0.099   6.864   2.044
10563SOL    HW132588   0.125   6.957   2.019
10563SOL    HW232589   0.179   6.804   2.035
10564SOL     OW32590   5.359   4.595   3.796
10564SOL    HW132591   5.271   4.635   3.821
10564SOL    HW232592   5.368   4.593   3.697
10565SOL     OW32593   0.465   0.353   5.994
10565SOL    HW132594   0.415   0.319   5.915
10565SOL    HW232595   0.542   0.409   5.963
10566SOL     OW32596   3.256   2.958   0.421
10566SOL    HW132597   3.286   2.973   0.327
10566SOL    HW232598   3.205   2.872   0.427
10567SOL     OW32599   1.506   2.180   6.369
10567SOL    HW132600   1.493   2.247   6.441
10567SOL    HW232601   1.486   2.221   6.280
10568SOL     OW32602   4.770   2.503   6.104
10568SOL    HW132603   4.707   2.512   6.026
10568SOL    HW232604   4.772   2.588   6.156
10569SOL     OW32605   5.655   6.450   0.309
10569SOL    HW132606   5.632   6.464   0.406
10569SOL    HW232607   5.752   6.427   0.301
10570SOL     OW32608   1.203   4.472   3.444
10570SOL    HW132609   1.252   4.476   3.357
10570SOL    HW232610   1.199   4.378   3.476
10571SOL     OW32611   6.359   4.583   6.518
10571SOL    HW132612   6.379   4.576   6.420
10571SOL    HW232613   6.260   4.579   6.532
10572SOL     OW32614   5.938   4.032   0.597
10572SOL    HW132615   6.032   4.047   0.565
10572SOL    HW232616   5.876   4.095   0.550
10573SOL     OW32617   5.745   1.521   3.245
10573SOL    HW132618   5.819   1.575   3.286
10573SOL    HW232619   5.779   1.476   3.162
10574SOL     OW32620   6.477   2.681   3.407
10574SOL    HW132621   6.429   2.594   3.415
10574SOL    HW232622   6.564   2.676   3.456
10575SOL     OW32623   6.400   6.992   1.781
10575SOL    HW132624   6.339   0.041   1.753
10575SOL    HW232625   6.420   7.000   1.878
10576SOL     OW32626   1.343   4.317   4.546
10576SOL    HW132627   1.339   4.404   4.595
10576SOL    HW232628   1.420   4.318   4.482
10577SOL     OW32629   3.535   4.349   0.349
10577SOL    HW132630   3.528   4.374   0.253
10577SOL    HW232631   3.517   4.429   0.406
10578SOL     OW32632   0.259   3.458   4.855
10578SOL    HW132633   0.321   3.536   4.867
10578SOL    HW232634   0.310   3.373   4.869
10579SOL     OW32635   1.123   3.699   6.806
10579SOL    HW132636   1.200   3.721   6.746
10579SOL    HW232637   1.126   3.602   6.828
10580SOL     OW32638   6.147   6.837   0.237
10580SOL    HW132639   6.093   6.800   0.313
10580SOL    HW232640   6.244   6.834   0.260
10581SOL     OW32641   4.906   6.796   3.293
10581SOL    HW132642   4.876   6.851   3.372
10581SOL    HW232643   4.977   6.846   3.244
10582SOL     OW32644   5.472   4.124   6.442
10582SOL    HW132645   5.535   4.160   6.373
10582SOL    HW232646   5.386   4.097   6.399
10583SOL     OW32647   2.964   1.873   5.043
10583SOL    HW132648   2.930   1.889   4.951
10583SOL    HW232649   3.057   1.911   5.051
10584SOL     OW32650   0.929   6.943   4.469
10584SOL    HW132651   0.852   6.906   4.417
10584SOL    HW232652   0.895   7.007   4.538
10585SOL     OW32653   1.029   0.055   5.192
10585SOL    HW132654   1.018   6.983   5.215
10585SOL    HW232655   0.940   0.100   5.190
10586SOL     OW32656   4.023   4.310   5.281
10586SOL    HW132657   4.042   4.211   5.283
10586SOL    HW232658   4.099   4.357   5.237
10587SOL     OW32659   2.579   4.897   5.494
10587SOL    HW132660   2.481   4.891   5.478
10587SOL    HW232661   2.596   4.910   5.592
10588SOL     OW32662   1.190   4.152   4.286
10588SOL    HW132663   1.119   4.207   4.331
10588SOL    HW232664   1.148   4.072   4.243
10589SOL     OW32665   5.471   5.902   4.083
10589SOL    HW132666   5.549   5.964   4.070
10589SOL    HW232667   5.412   5.905   4.002
10590SOL     OW32668   0.903   5.059   2.616
10590SOL    HW132669   0.961   4.992   2.570
10590SOL    HW232670   0.816   5.017   2.642
10591SOL     OW32671   6.700   2.736   1.545
10591SOL    HW132672   6.777   2.797   1.564
10591SOL    HW232673   6.646   2.724   1.628
10592SOL     OW32674   6.380   2.171   5.262
10592SOL    HW132675   6.461   2.220   5.293
10592SOL    HW232676   6.405   2.077   5.237
10593SOL     OW32677   3.116   5.241   3.472
10593SOL    HW132678   3.109   5.164   3.409
10593SOL    HW232679   3.175   5.216   3.549
10594SOL     OW32680   2.712   6.177   3.563
10594SOL    HW132681   2.750   6.198   3.653
10594SOL    HW232682   2.775   6.118   3.513
10595SOL     OW32683   5.050   6.579   0.200
10595SOL    HW132684   4.963   6.595   0.153
10595SOL    HW232685   5.040   6.598   0.297
10596SOL     OW32686   4.840   3.256   0.207
10596SOL    HW132687   4.746   3.266   0.239
10596SOL    HW232688   4.903   3.282   0.279
10597SOL     OW32689   2.317   0.249   5.096
10597SOL    HW132690   2.245   0.314   5.071
10597SOL    HW232691   2.309   0.227   5.194
10598SOL     OW32692   2.884   1.161   6.142
10598SOL    HW132693   2.922   1.225   6.076
10598SOL    HW232694   2.859   1.210   6.225
10599SOL     OW32695   7.012   2.087   6.838
10599SOL    HW132696   6.927   2.084   6.785
10599SOL    HW232697   0.054   2.023   6.799
10600SOL     OW32698   2.681   2.589   1.325
10600SOL    HW132699   2.775   2.621   1.335
10600SOL    HW232700   2.681   2.489   1.318
10601SOL     OW32701   1.296   0.892   5.648
10601SOL    HW132702   1.199   0.915   5.649
10601SOL    HW232703   1.340   0.929   5.730
10602SOL     OW32704   6.973   6.910   1.396
10602SOL    HW132705   6.947   6.902   1.492
10602SOL    HW232706   0.045   6.938   1.390
10603SOL     OW32707   5.151   0.543   2.748
10603SOL    HW132708   5.194   0.502   2.828
10603SOL    HW232709   5.209   0.531   2.668
10604SOL     OW32710   5.059   0.061   4.984
10604SOL    HW132711   5.020   6.999   4.950
10604SOL    HW232712   5.159   0.054   4.985
10605SOL     OW32713   2.080   1.692   1.385
10605SOL    HW132714   2.061   1.773   1.441
10605SOL    HW232715   2.159   1.643   1.422
10606SOL     OW32716   6.015   0.396   0.272
10606SOL    HW132717   5.925   0.438   0.281
10606SOL    HW232718   6.076   0.433   0.343
10607SOL     OW32719   3.116   5.187   6.560
10607SOL    HW132720   3.086   5.143   6.476
10607SOL    HW232721   3.135   5.118   6.630
10608SOL     OW32722   6.011   3.867   3.730
10608SOL    HW132723   5.983   3.782   3.685
10608SOL    HW232724   6.016   3.940   3.662
10609SOL     OW32725   4.842   1.571   6.746
10609SOL    HW132726   4.755   1.524   6.736
10609SOL    HW232727   4.843   1.624   6.830
10610SOL     OW32728   0.515   1.568   3.434
10610SOL    HW132729   0.582   1.575   3.508
10610SOL    HW232730   0.539   1.492   3.374
10611SOL     OW32731   3.906   5.629   4.428
10611SOL    HW132732   3.812   5.644   4.400
10611SOL    HW232733   3.968   5.656   4.355
10612SOL     OW32734   5.957   1.668   3.331
10612SOL    HW132735   6.056   1.666   3.324
10612SOL    HW232736   5.929   1.734   3.400
10613SOL     OW32737   4.390   6.158   4.406
10613SOL    HW132738   4.449   6.226   4.361
10613SOL    HW232739   4.343   6.103   4.337
10614SOL     OW32740   3.754   1.454   6.071
10614SOL    HW132741   3.839   1.403   6.058
10614SOL    HW232742   3.775   1.547   6.102
10615SOL     OW32743   1.612   1.798   5.365
10615SOL    HW132744   1.665   1.873   5.404
10615SOL    HW232745   1.672   1.741   5.308
10616SOL     OW32746   2.488   6.405   0.113
10616SOL    HW132747   2.506   6.458   0.196
10616SOL    HW232748   2.575   6.374   0.073
10617SOL     OW32749   2.300   3.341   1.456
10617SOL    HW132750   2.284   3.437   1.435
10617SOL    HW232751   2.299   3.327   1.555
10618SOL     OW32752   1.693   5.502   3.567
10618SOL    HW132753   1.742   5.416   3.553
10618SOL    HW232754   1.614   5.506   3.505
10619SOL     OW32755   2.173   2.370   2.307
10619SOL    HW132756   2.263   2.373   2.351
10619SOL    HW232757   2.111   2.434   2.353
10620SOL     OW32758   3.198   1.415   6.125
10620SOL    HW132759   3.111   1.385   6.086
10620SOL    HW232760   3.198   1.515   6.133
10621SOL     OW32761   0.327   3.925   3.269
10621SOL    HW132762   0.287   3.970   3.349
10621SOL    HW232763   0.392   3.855   3.299
10622SOL     OW32764   4.666   1.995   0.389
10622SOL    HW132765   4.663   2.054   0.309
10622SOL    HW232766   4.648   1.901   0.362
10623SOL     OW32767   4.899   6.897   6.111
10623SOL    HW132768   4.956   6.830   6.065
10623SOL    HW232769   4.812   6.855   6.137
10624SOL     OW32770   0.327   1.903   7.006
10624SOL    HW132771   0.280   1.961   6.940
10624SOL    HW232772   0.426   1.909   6.993
10625SOL     OW32773   5.329   4.472   7.011
10625SOL    HW132774   5.244   4.475   6.958
10625SOL    HW232775   5.396   4.534   6.970
10626SOL     OW32776   5.149   3.149   1.210
10626SOL    HW132777   5.092   3.149   1.291
10626SOL    HW232778   5.148   3.058   1.168
10627SOL     OW32779   5.682   5.392   5.649
10627SOL    HW132780   5.632   5.311   5.679
10627SOL    HW232781   5.627   5.473   5.668
10628SOL     OW32782   3.884   6.847   1.022
10628SOL    HW132783   3.902   6.893   1.109
10628SOL    HW232784   3.813   6.778   1.034
10629SOL     OW32785   3.279   5.602   4.771
10629SOL    HW132786   3.333   5.683   4.794
10629SOL    HW232787   3.245   5.560   4.854
10630SOL     OW32788   4.014   0.789   2.310
10630SOL    HW132789   3.924   0.831   2.322
10630SOL    HW232790   4.068   0.844   2.246
10631SOL     OW32791   3.781   6.004   0.530
10631SOL    HW132792   3.825   6.055   0.456
10631SOL    HW232793   3.848   5.943   0.573
10632SOL     OW32794   5.190   5.969   3.328
10632SOL    HW132795   5.213   5.876   3.355
10632SOL    HW232796   5.196   5.978   3.229
10633SOL     OW32797   1.373   3.193   1.401
10633SOL    HW132798   1.369   3.095   1.382
10633SOL    HW232799   1.301   3.240   1.349
10634SOL     OW32800   0.710   3.562   6.960
10634SOL    HW132801   0.652   3.524   6.888
10634SOL    HW232802   0.688   3.658   6.974
10635SOL     OW32803   2.457   4.765   5.964
10635SOL    HW132804   2.439   4.854   6.007
10635SOL    HW232805   2.532   4.719   6.012
10636SOL     OW32806   6.811   2.044   6.678
10636SOL    HW132807   6.756   2.115   6.633
10636SOL    HW232808   6.827   1.969   6.613
10637SOL     OW32809   2.990   0.922   6.989
10637SOL    HW132810   2.969   0.871   6.905
10637SOL    HW232811   2.996   1.019   6.968
10638SOL     OW32812   6.437   5.816   1.603
10638SOL    HW132813   6.370   5.768   1.660
10638SOL    HW232814   6.517   5.839   1.659
10639SOL     OW32815   1.485   4.897   1.942
10639SOL    HW132816   1.446   4.968   2.000
10639SOL    HW232817   1.584   4.907   1.939
10640SOL     OW32818   4.257   6.566   3.383
10640SOL    HW132819   4.179   6.519   3.424
10640SOL    HW232820   4.293   6.512   3.308
10641SOL     OW32821   1.445   0.896   3.419
10641SOL    HW132822   1.492   0.827   3.474
10641SOL    HW232823   1.436   0.980   3.472
10642SOL     OW32824   6.057   2.220   6.351
10642SOL    HW132825   6.048   2.292   6.281
10642SOL    HW232826   6.024   2.133   6.313
10643SOL     OW32827   2.612   4.893   5.776
10643SOL    HW132828   2.680   4.947   5.824
10643SOL    HW232829   2.592   4.809   5.828
10644SOL     OW32830   6.384   3.287   2.803
10644SOL    HW132831   6.398   3.372   2.752
10644SOL    HW232832   6.293   3.250   2.783
10645SOL     OW32833   2.771   2.399   3.753
10645SOL    HW132834   2.836   2.346   3.698
10645SOL    HW232835   2.723   2.464   3.695
10646SOL     OW32836   5.448   0.467   3.636
10646SOL    HW132837   5.530   0.476   3.693
10646SOL    HW232838   5.398   0.385   3.662
10647SOL     OW32839   3.392   5.408   4.552
10647SOL    HW132840   3.318   5.340   4.551
10647SOL    HW232841   3.354   5.498   4.572
10648SOL     OW32842   4.881   4.980   6.062
10648SOL    HW132843   4.973   5.015   6.082
10648SOL    HW232844   4.873   4.887   6.099
10649SOL     OW32845   6.520   3.756   2.832
10649SOL    HW132846   6.506   3.771   2.929
10649SOL    HW232847   6.605   3.799   2.803
10650SOL     OW32848   0.349   0.380   3.660
10650SOL    HW132849   0.262   0.408   3.619
10650SOL    HW232850   0.333   0.303   3.722
10651SOL     OW32851   4.112   5.898   5.988
10651SOL    HW132852   4.093   5.988   5.947
10651SOL    HW232853   4.044   5.832   5.956
10652SOL     OW32854   1.731   0.399   6.694
10652SOL    HW132855   1.674   0.393   6.776
10652SOL    HW232856   1.674   0.415   6.614
10653SOL     OW32857   4.195   5.559   3.910
10653SOL    HW132858   4.237   5.627   3.970
10653SOL    HW232859   4.251   5.548   3.828
10654SOL     OW32860   6.051   1.660   4.233
10654SOL    HW132861   5.993   1.625   4.307
10654SOL    HW232862   6.045   1.760   4.232
10655SOL     OW32863   0.307   4.825   1.098
10655SOL    HW132864   0.249   4.905   1.080
10655SOL    HW232865   0.250   4.745   1.116
10656SOL     OW32866   5.974   2.610   3.354
10656SOL    HW132867   5.950   2.653   3.441
10656SOL    HW232868   5.891   2.599   3.298
10657SOL     OW32869   5.104   6.660   4.460
10657SOL    HW132870   5.005   6.654   4.444
10657SOL    HW232871   5.143   6.568   4.461
10658SOL     OW32872   0.604   3.028   5.327
10658SOL    HW132873   0.650   2.964   5.265
10658SOL    HW232874   0.664   3.107   5.344
10659SOL     OW32875   1.266   5.539   0.763
10659SOL    HW132876   1.198   5.608   0.787
10659SOL    HW232877   1.229   5.481   0.689
10660SOL     OW32878   5.785   2.936   5.323
10660SOL    HW132879   5.860   2.940   5.388
10660SOL    HW232880   5.813   2.885   5.242
10661SOL     OW32881   2.362   5.092   5.775
10661SOL    HW132882   2.413   5.006   5.775
10661SOL    HW232883   2.284   5.084   5.838
10662SOL     OW32884   2.706   1.194   2.407
10662SOL    HW132885   2.771   1.198   2.331
10662SOL    HW232886   2.623   1.245   2.384
10663SOL     OW32887   1.334   1.723   3.956
10663SOL    HW132888   1.367   1.818   3.957
10663SOL    HW232889   1.284   1.706   3.872
10664SOL     OW32890   1.090   5.124   4.760
10664SOL    HW132891   1.040   5.129   4.673
10664SOL    HW232892   1.027   5.094   4.832
10665SOL     OW32893   2.423   2.915   6.406
10665SOL    HW132894   2.399   2.961   6.321
10665SOL    HW232895   2.468   2.828   6.386
10666SOL     OW32896   3.318   3.719   1.876
10666SOL    HW132897   3.372   3.639   1.849
10666SOL    HW232898   3.346   3.749   1.967
10667SOL     OW32899   5.428   2.230   3.713
10667SOL    HW132900   5.442   2.141   3.757
10667SOL    HW232901   5.515   2.279   3.708
10668SOL     OW32902   3.025   2.459   5.291
10668SOL    HW132903   3.031   2.559   5.298
10668SOL    HW232904   3.097   2.426   5.229
10669SOL     OW32905   6.546   1.502   1.192
10669SOL    HW132906   6.638   1.461   1.190
10669SOL    HW232907   6.478   1.432   1.169
10670SOL     OW32908   4.869   3.641   4.175
10670SOL    HW132909   4.801   3.715   4.169
10670SOL    HW232910   4.952   3.675   4.219
10671SOL     OW32911   1.490   3.207   4.365
10671SOL    HW132912   1.517   3.253   4.280
10671SOL    HW232913   1.493   3.108   4.351
10672SOL     OW32914   6.054   3.397   1.310
10672SOL    HW132915   6.102   3.482   1.290
10672SOL    HW232916   6.028   3.352   1.224
10673SOL     OW32917   2.089   1.130   0.979
10673SOL    HW132918   2.080   1.032   0.992
10673SOL    HW232919   2.113   1.150   0.884
10674SOL     OW32920   3.429   3.812   3.966
10674SOL    HW132921   3.348   3.843   3.916
10674SOL    HW232922   3.416   3.717   3.993
10675SOL     OW32923   3.698   6.956   5.713
10675SOL    HW132924   3.785   6.914   5.739
10675SOL    HW232925   3.623   6.907   5.757
10676SOL     OW32926   1.811   6.452   5.682
10676SOL    HW132927   1.848   6.524   5.624
10676SOL    HW232928   1.878   6.378   5.692
10677SOL     OW32929   0.378   1.564   0.543
10677SOL    HW132930   0.322   1.482   0.536
10677SOL    HW232931   0.386   1.592   0.639
10678SOL     OW32932   4.218   5.417   3.518
10678SOL    HW132933   4.126   5.454   3.506
10678SOL    HW232934   4.273   5.481   3.571
10679SOL     OW32935   3.831   3.366   6.842
10679SOL    HW132936   3.887   3.403   6.768
10679SOL    HW232937   3.890   3.315   6.906
10680SOL     OW32938   4.279   0.766   3.728
10680SOL    HW132939   4.239   0.810   3.648
10680SOL    HW232940   4.208   0.748   3.796
10681SOL     OW32941   1.061   2.710   5.856
10681SOL    HW132942   0.968   2.712   5.820
10681SOL    HW232943   1.057   2.711   5.956
10682SOL     OW32944   5.072   3.049   6.400
10682SOL    HW132945   5.131   3.126   6.425
10682SOL    HW232946   5.051   3.054   6.302
10683SOL     OW32947   3.256   0.778   3.592
10683SOL    HW132948   3.315   0.699   3.574
10683SOL    HW232949   3.179   0.777   3.528
10684SOL     OW32950   4.289   4.813   1.775
10684SOL    HW132951   4.307   4.733   1.832
10684SOL    HW232952   4.365   4.877   1.783
10685SOL     OW32953   0.842   5.939   1.535
10685SOL    HW132954   0.926   5.991   1.548
10685SOL    HW232955   0.798   5.969   1.450
10686SOL     OW32956   2.375   2.688   6.797
10686SOL    HW132957   2.435   2.717   6.723
10686SOL    HW232958   2.280   2.704   6.771
10687SOL     OW32959   0.884   4.171   3.629
10687SOL    HW132960   0.786   4.187   3.620
10687SOL    HW232961   0.929   4.255   3.660
10688SOL     OW32962   5.543   1.688   2.720
10688SOL    HW132963   5.445   1.706   2.731
10688SOL    HW232964   5.578   1.642   2.801
10689SOL     OW32965   6.642   6.934   2.502
10689SOL    HW132966   6.697   6.881   2.568
10689SOL    HW232967   6.562   6.971   2.548
10690SOL     OW32968   0.153   6.986   3.939
10690SOL    HW132969   0.065   7.019   3.905
10690SOL    HW232970   0.144   6.891   3.967
10691SOL     OW32971   3.288   1.183   2.973
10691SOL    HW132972   3.196   1.208   2.942
10691SOL    HW232973   3.356   1.216   2.908
10692SOL     OW32974   2.751   0.654   4.087
10692SOL    HW132975   2.792   0.721   4.025
10692SOL    HW232976   2.814   0.635   4.162
10693SOL     OW32977   1.263   5.814   0.437
10693SOL    HW132978   1.240   5.869   0.357
10693SOL    HW232979   1.268   5.873   0.517
10694SOL     OW32980   4.725   6.406   5.504
10694SOL    HW132981   4.789   6.349   5.452
10694SOL    HW232982   4.736   6.502   5.477
10695SOL     OW32983   0.178   4.036   1.750
10695SOL    HW132984   0.230   4.121   1.762
10695SOL    HW232985   0.222   3.964   1.803
10696SOL     OW32986   0.352   4.722   4.628
10696SOL    HW132987   0.308   4.646   4.675
10696SOL    HW232988   0.319   4.726   4.534
10697SOL     OW32989   1.664   5.005   5.825
10697SOL    HW132990   1.671   4.993   5.726
10697SOL    HW232991   1.587   5.066   5.845
10698SOL     OW32992   4.313   3.410   0.146
10698SOL    HW132993   4.367   3.428   0.064
10698SOL    HW232994   4.322   3.487   0.209
10699SOL     OW32995   3.391   3.981   0.313
10699SOL    HW132996   3.299   4.017   0.331
10699SOL    HW232997   3.398   3.958   0.215
10700SOL     OW32998   4.891   0.103   0.492
10700SOL    HW132999   4.894   0.202   0.476
10700SOL    HW233000   4.797   0.070   0.481
10701SOL     OW33001   2.802   0.557   6.408
10701SOL    HW133002   2.808   0.646   6.454
10701SOL    HW233003   2.725   0.558   6.343
10702SOL     OW33004   5.001   2.589   2.355
10702SOL    HW133005   5.086   2.636   2.376
10702SOL    HW233006   4.945   2.582   2.437
10703SOL     OW33007   1.491   2.623   6.401
10703SOL    HW133008   1.443   2.686   6.462
10703SOL    HW233009   1.588   2.619   6.427
10704SOL     OW33010   6.890   6.663   2.116
10704SOL    HW133011   6.973   6.662   2.171
10704SOL    HW233012   6.860   6.758   2.101
10705SOL     OW33013   5.854   4.667   0.955
10705SOL    HW133014   5.844   4.701   0.861
10705SOL    HW233015   5.876   4.743   1.016
10706SOL     OW33016   5.240   0.317   2.087
10706SOL    HW133017   5.305   0.364   2.148
10706SOL    HW233018   5.205   0.382   2.019
10707SOL     OW33019   5.651   6.837   4.097
10707SOL    HW133020   5.692   6.927   4.106
10707SOL    HW233021   5.720   6.772   4.064
10708SOL     OW33022   4.374   2.328   2.363
10708SOL    HW133023   4.394   2.319   2.266
10708SOL    HW233024   4.430   2.401   2.403
10709SOL     OW33025   6.103   5.225   4.010
10709SOL    HW133026   6.118   5.137   3.966
10709SOL    HW233027   6.026   5.272   3.966
10710SOL     OW33028   5.274   1.041   3.149
10710SOL    HW133029   5.289   1.080   3.058
10710SOL    HW233030   5.330   0.958   3.159
10711SOL     OW33031   3.664   6.678   1.577
10711SOL    HW133032   3.633   6.773   1.570
10711SOL    HW233033   3.617   6.632   1.652
10712SOL     OW33034   4.191   0.195   3.055
10712SOL    HW133035   4.152   0.225   2.967
10712SOL    HW233036   4.259   0.262   3.085
10713SOL     OW33037   1.517   3.498   0.542
10713SOL    HW133038   1.615   3.487   0.559
10713SOL    HW233039   1.483   3.418   0.493
10714SOL     OW33040   3.921   2.992   3.965
10714SOL    HW133041   3.930   2.893   3.964
10714SOL    HW233042   3.928   3.026   4.059
10715SOL     OW33043   5.982   0.518   1.665
10715SOL    HW133044   5.951   0.430   1.702
10715SOL    HW233045   5.910   0.586   1.674
10716SOL     OW33046   6.639   2.554   2.495
10716SOL    HW133047   6.719   2.613   2.502
10716SOL    HW233048   6.556   2.607   2.514
10717SOL     OW33049   1.146   2.802   0.446
10717SOL    HW133050   1.137   2.706   0.470
10717SOL    HW233051   1.242   2.829   0.452
10718SOL     OW33052   1.184   4.782   6.122
10718SOL    HW133053   1.156   4.820   6.034
10718SOL    HW233054   1.255   4.839   6.162
10719SOL     OW33055   6.616   5.850   3.974
10719SOL    HW133056   6.523   5.869   3.944
10719SOL    HW233057   6.666   5.804   3.901
10720SOL     OW33058   5.771   5.542   4.348
10720SOL    HW133059   5.781   5.451   4.387
10720SOL    HW233060   5.833   5.605   4.395
10721SOL     OW33061   4.991   3.965   5.400
10721SOL    HW133062   5.014   4.056   5.365
10721SOL    HW233063   5.074   3.909   5.404
10722SOL     OW33064   6.701   3.623   6.165
10722SOL    HW133065   6.719   3.578   6.078
10722SOL    HW233066   6.788   3.649   6.208
10723SOL     OW33067   0.106   0.517   0.083
10723SOL    HW133068   0.062   0.593   0.131
10723SOL    HW233069   0.184   0.551   0.031
10724SOL     OW33070   0.111   6.831   0.486
10724SOL    HW133071   0.017   6.858   0.507
10724SOL    HW233072   0.126   6.738   0.519
10725SOL     OW33073   2.885   5.401   5.318
10725SOL    HW133074   2.893   5.393   5.219
10725SOL    HW233075   2.920   5.318   5.361
10726SOL     OW33076   5.188   1.213   3.794
10726SOL    HW133077   5.230   1.128   3.761
10726SOL    HW233078   5.164   1.204   3.890
10727SOL     OW33079   0.913   5.713   6.102
10727SOL    HW133080   0.821   5.703   6.065
10727SOL    HW233081   0.973   5.643   6.062
10728SOL     OW33082   6.483   5.273   0.534
10728SOL    HW133083   6.449   5.199   0.592
10728SOL    HW233084   6.550   5.237   0.469
10729SOL     OW33085   6.650   2.269   1.471
10729SOL    HW133086   6.654   2.348   1.410
10729SOL    HW233087   6.564   2.220   1.456
10730SOL     OW33088   3.911   0.396   1.533
10730SOL    HW133089   3.883   0.405   1.628
10730SOL    HW233090   4.010   0.405   1.527
10731SOL     OW33091   4.000   1.130   0.895
10731SOL    HW133092   4.055   1.188   0.954
10731SOL    HW233093   4.057   1.095   0.820
10732SOL     OW33094   0.384   5.210   5.121
10732SOL    HW133095   0.343   5.179   5.035
10732SOL    HW233096   0.322   5.190   5.197
10733SOL     OW33097   5.672   1.597   0.013
10733SOL    HW133098   5.709   1.527   6.976
10733SOL    HW233099   5.640   1.675   6.983
10734SOL     OW33100   0.801   1.241   0.975
10734SOL    HW133101   0.724   1.184   1.003
10734SOL    HW233102   0.876   1.230   1.040
10735SOL     OW33103   6.844   3.357   2.138
10735SOL    HW133104   6.848   3.269   2.088
10735SOL    HW233105   6.756   3.365   2.184
10736SOL     OW33106   2.278   0.115   3.758
10736SOL    HW133107   2.259   0.192   3.819
10736SOL    HW233108   2.338   0.144   3.684
10737SOL     OW33109   6.997   2.320   1.686
10737SOL    HW133110   6.982   2.221   1.688
10737SOL    HW233111   0.068   2.340   1.709
10738SOL     OW33112   4.147   6.455   2.897
10738SOL    HW133113   4.151   6.358   2.921
10738SOL    HW233114   4.194   6.509   2.968
10739SOL     OW33115   1.424   2.817   1.725
10739SOL    HW133116   1.410   2.727   1.765
10739SOL    HW233117   1.390   2.818   1.631
10740SOL     OW33118   5.653   4.740   4.894
10740SOL    HW133119   5.585   4.693   4.951
10740SOL    HW233120   5.616   4.753   4.802
10741SOL     OW33121   3.725   0.494   2.408
10741SOL    HW133122   3.791   0.565   2.431
10741SOL    HW233123   3.727   0.478   2.309
10742SOL     OW33124   5.886   5.414   1.155
10742SOL    HW133125   5.924   5.401   1.247
10742SOL    HW233126   5.928   5.495   1.113
10743SOL     OW33127   1.906   2.364   4.088
10743SOL    HW133128   1.882   2.446   4.141
10743SOL    HW233129   1.928   2.290   4.151
10744SOL     OW33130   3.079   1.665   1.278
10744SOL    HW133131   3.154   1.605   1.305
10744SOL    HW233132   3.106   1.719   1.199
10745SOL     OW33133   6.827   5.837   5.783
10745SOL    HW133134   6.802   5.863   5.689
10745SOL    HW233135   6.927   5.833   5.790
10746SOL     OW33136   1.207   3.781   5.467
10746SOL    HW133137   1.225   3.700   5.412
10746SOL    HW233138   1.162   3.754   5.552
10747SOL     OW33139   2.800   1.150   4.441
10747SOL    HW133140   2.748   1.149   4.356
10747SOL    HW233141   2.777   1.069   4.495
10748SOL     OW33142   6.267   1.014   2.213
10748SOL    HW133143   6.271   1.107   2.249
10748SOL    HW233144   6.316   0.952   2.274
10749SOL     OW33145   0.980   6.536   5.054
10749SOL    HW133146   1.064   6.590   5.054
10749SOL    HW233147   0.902   6.597   5.042
10750SOL     OW33148   3.510   0.701   5.236
10750SOL    HW133149   3.597   0.691   5.187
10750SOL    HW233150   3.469   0.789   5.214
10751SOL     OW33151   2.288   4.830   3.609
10751SOL    HW133152   2.363   4.798   3.667
10751SOL    HW233153   2.301   4.796   3.516
10752SOL     OW33154   5.292   5.097   5.102
10752SOL    HW133155   5.216   5.144   5.148
10752SOL    HW233156   5.336   5.160   5.038
10753SOL     OW33157   0.214   3.716   3.955
10753SOL    HW133158   0.222   3.811   3.923
10753SOL    HW233159   0.260   3.707   4.043
10754SOL     OW33160   0.796   0.173   3.039
10754SOL    HW133161   0.855   0.224   2.977
10754SOL    HW233162   0.851   0.133   3.112
10755SOL     OW33163   6.690   6.959   2.235
10755SOL    HW133164   6.661   6.961   2.330
10755SOL    HW233165   6.788   6.943   2.230
10756SOL     OW33166   6.897   5.661   5.479
10756SOL    HW133167   6.919   5.565   5.462
10756SOL    HW233168   6.980   5.716   5.468
10757SOL     OW33169   2.070   2.655   0.019
10757SOL    HW133170   2.091   2.596   0.097
10757SOL    HW233171   2.152   2.707   7.018
10758SOL     OW33172   0.384   6.523   3.478
10758SOL    HW133173   0.469   6.528   3.426
10758SOL    HW233174   0.399   6.466   3.559
10759SOL     OW33175   0.563   2.998   0.658
10759SOL    HW133176   0.648   2.951   0.683
10759SOL    HW233177   0.575   3.046   0.571
10760SOL     OW33178   5.682   0.996   3.765
10760SOL    HW133179   5.630   1.080   3.780
10760SOL    HW233180   5.674   0.968   3.669
10761SOL     OW33181   1.783   5.211   6.325
10761SOL    HW133182   1.684   5.213   6.311
10761SOL    HW233183   1.813   5.116   6.330
10762SOL     OW33184   2.825   0.132   5.296
10762SOL    HW133185   2.813   0.149   5.198
10762SOL    HW233186   2.900   0.189   5.330
10763SOL     OW33187   3.687   0.765   3.461
10763SOL    HW133188   3.682   0.846   3.403
10763SOL    HW233189   3.768   0.712   3.439
10764SOL     OW33190   4.543   1.318   4.383
10764SOL    HW133191   4.610   1.252   4.417
10764SOL    HW233192   4.541   1.397   4.444
10765SOL     OW33193   5.068   2.979   0.950
10765SOL    HW133194   5.064   2.907   1.019
10765SOL    HW233195   4.982   2.980   0.898
10766SOL     OW33196   3.735   4.192   0.721
10766SOL    HW133197   3.786   4.278   0.718
10766SOL    HW233198   3.705   4.167   0.629
10767SOL     OW33199   2.626   6.886   1.241
10767SOL    HW133200   2.715   6.931   1.231
10767SOL    HW233201   2.558   6.935   1.186
10768SOL     OW33202   6.600   4.891   1.107
10768SOL    HW133203   6.575   4.891   1.010
10768SOL    HW233204   6.648   4.976   1.129
10769SOL     OW33205   2.285   3.313   6.084
10769SOL    HW133206   2.245   3.394   6.126
10769SOL    HW233207   2.355   3.340   6.018
10770SOL     OW33208   4.883   5.314   2.870
10770SOL    HW133209   4.835   5.344   2.787
10770SOL    HW233210   4.833   5.347   2.951
10771SOL     OW33211   3.377   0.075   4.008
10771SOL    HW133212   3.397   7.003   4.026
10771SOL    HW233213   3.430   0.106   3.929
10772SOL     OW33214   6.699   5.702   4.189
10772SOL    HW133215   6.631   5.676   4.258
10772SOL    HW233216   6.652   5.729   4.105
10773SOL     OW33217   5.747   4.177   4.904
10773SOL    HW133218   5.839   4.210   4.885
10773SOL    HW233219   5.749   4.122   4.988
10774SOL     OW33220   1.498   1.449   4.027
10774SOL    HW133221   1.509   1.518   3.955
10774SOL    HW233222   1.587   1.415   4.055
10775SOL     OW33223   1.020   4.215   1.774
10775SOL    HW133224   0.938   4.239   1.722
10775SOL    HW233225   1.099   4.262   1.736
10776SOL     OW33226   1.931   1.130   6.032
10776SOL    HW133227   1.899   1.039   6.006
10776SOL    HW233228   1.920   1.192   5.954
10777SOL     OW33229   3.720   5.104   1.543
10777SOL    HW133230   3.780   5.060   1.476
10777SOL    HW233231   3.681   5.188   1.504
10778SOL     OW33232   5.544   6.298   4.009
10778SOL    HW133233   5.612   6.229   3.985
10778SOL    HW233234   5.458   6.254   4.033
10779SOL     OW33235   6.252   3.045   3.337
10779SOL    HW133236   6.238   2.964   3.280
10779SOL    HW233237   6.293   3.017   3.424
10780SOL     OW33238   1.266   1.107   3.532
10780SOL    HW133239   1.293   1.199   3.561
10780SOL    HW233240   1.242   1.052   3.612
10781SOL     OW33241   3.936   0.323   4.515
10781SOL    HW133242   3.883   0.254   4.465
10781SOL    HW233243   3.905   0.414   4.489
10782SOL     OW33244   6.083   6.729   3.906
10782SOL    HW133245   6.022   6.713   3.984
10782SOL    HW233246   6.036   6.784   3.837
10783SOL     OW33247   6.749   2.646   3.025
10783SOL    HW133248   6.747   2.590   3.108
10783SOL    HW233249   6.665   2.630   2.973
10784SOL     OW33250   2.926   1.023   4.149
10784SOL    HW133251   2.882   1.102   4.191
10784SOL    HW233252   3.017   1.011   4.188
10785SOL     OW33253   0.793   4.001   0.007
10785SOL    HW133254   0.864   3.970   6.968
10785SOL    HW233255   0.721   3.932   0.013
10786SOL     OW33256   6.457   5.926   2.954
10786SOL    HW133257   6.527   5.870   2.908
10786SOL    HW233258   6.454   5.902   3.051
10787SOL     OW33259   0.368   1.068   5.506
10787SOL    HW133260   0.422   1.037   5.584
10787SOL    HW233261   0.365   1.168   5.505
10788SOL     OW33262   0.597   3.807   6.973
10788SOL    HW133263   0.555   3.835   6.886
10788SOL    HW233264   0.546   3.849   0.024
10789SOL     OW33265   6.840   2.594   0.057
10789SOL    HW133266   6.813   2.687   0.032
10789SOL    HW233267   6.912   2.562   7.020
10790SOL     OW33268   0.401   6.886   1.825
10790SOL    HW133269   0.351   6.801   1.842
10790SOL    HW233270   0.338   6.963   1.829
10791SOL     OW33271   6.404   6.367   2.523
10791SOL    HW133272   6.433   6.343   2.615
10791SOL    HW233273   6.380   6.464   2.520
10792SOL     OW33274   3.811   3.603   5.379
10792SOL    HW133275   3.751   3.668   5.426
10792SOL    HW233276   3.893   3.588   5.434
10793SOL     OW33277   5.712   3.312   5.599
10793SOL    HW133278   5.658   3.395   5.612
10793SOL    HW233279   5.715   3.260   5.684
10794SOL     OW33280   3.327   3.561   3.986
10794SOL    HW133281   3.238   3.586   3.948
10794SOL    HW233282   3.315   3.514   4.073
10795SOL     OW33283   0.836   4.326   2.917
10795SOL    HW133284   0.760   4.365   2.971
10795SOL    HW233285   0.823   4.228   2.909
10796SOL     OW33286   0.796   6.305   5.285
10796SOL    HW133287   0.787   6.300   5.185
10796SOL    HW233288   0.811   6.400   5.312
10797SOL     OW33289   4.096   2.792   0.426
10797SOL    HW133290   4.186   2.796   0.383
10797SOL    HW233291   4.056   2.884   0.429
10798SOL     OW33292   1.768   1.119   1.160
10798SOL    HW133293   1.676   1.093   1.189
10798SOL    HW233294   1.777   1.106   1.061
10799SOL     OW33295   4.045   0.426   2.629
10799SOL    HW133296   4.132   0.424   2.580
10799SOL    HW233297   3.992   0.507   2.601
10800SOL     OW33298   1.071   6.424   0.334
10800SOL    HW133299   1.165   6.431   0.303
10800SOL    HW233300   1.058   6.338   0.384
10801SOL     OW33301   1.462   0.423   0.268
10801SOL    HW133302   1.385   0.466   0.220
10801SOL    HW233303   1.522   0.380   0.202
10802SOL     OW33304   6.115   6.599   3.647
10802SOL    HW133305   6.085   6.505   3.664
10802SOL    HW233306   6.094   6.655   3.727
10803SOL     OW33307   1.360   5.480   6.519
10803SOL    HW133308   1.402   5.451   6.605
10803SOL    HW233309   1.363   5.580   6.512
10804SOL     OW33310   0.513   3.199   3.514
10804SOL    HW133311   0.455   3.232   3.588
10804SOL    HW233312   0.590   3.262   3.501
10805SOL     OW33313   6.071   0.672   4.771
10805SOL    HW133314   5.977   0.659   4.802
10805SOL    HW233315   6.128   0.702   4.848
10806SOL     OW33316   2.825   4.913   6.837
10806SOL    HW133317   2.907   4.885   6.887
10806SOL    HW233318   2.744   4.891   6.891
10807SOL     OW33319   2.610   5.878   3.758
10807SOL    HW133320   2.664   5.922   3.687
10807SOL    HW233321   2.590   5.784   3.731
10808SOL     OW33322   6.672   2.182   6.023
10808SOL    HW133323   6.722   2.240   6.087
10808SOL    HW233324   6.574   2.186   6.044
10809SOL     OW33325   2.571   5.164   4.300
10809SOL    HW133326   2.527   5.242   4.256
10809SOL    HW233327   2.541   5.080   4.256
10810SOL     OW33328   0.660   0.345   4.188
10810SOL    HW133329   0.720   0.269   4.211
10810SOL    HW233330   0.697   0.430   4.224
10811SOL     OW33331   5.117   5.784   5.103
10811SOL    HW133332   5.053   5.708   5.099
10811SOL    HW233333   5.140   5.813   5.010
10812SOL     OW33334   0.421   3.274   6.745
10812SOL    HW133335   0.344   3.255   6.807
10812SOL    HW233336   0.407   3.224   6.659
10813SOL     OW33337   0.568   3.641   6.084
10813SOL    HW133338   0.599   3.557   6.041
10813SOL    HW233339   0.539   3.623   6.178
10814SOL     OW33340   2.306   0.339   6.994
10814SOL    HW133341   2.265   0.306   0.055
10814SOL    HW233342   2.402   0.361   7.009
10815SOL     OW33343   5.432   1.148   3.998
10815SOL    HW133344   5.513   1.175   3.947
10815SOL    HW233345   5.359   1.215   3.983
10816SOL     OW33346   3.380   2.925   3.578
10816SOL    HW133347   3.311   2.995   3.592
10816SOL    HW233348   3.378   2.896   3.482
10817SOL     OW33349   2.520   0.183   3.056
10817SOL    HW133350   2.568   0.212   2.973
10817SOL    HW233351   2.548   0.090   3.079
10818SOL     OW33352   4.708   5.136   5.906
10818SOL    HW133353   4.777   5.073   5.943
10818SOL    HW233354   4.753   5.219   5.874
10819SOL     OW33355   7.021   5.334   6.698
10819SOL    HW133356   0.075   5.329   6.761
10819SOL    HW233357   7.001   5.243   6.663
10820SOL     OW33358   1.474   4.848   5.490
10820SOL    HW133359   1.415   4.822   5.414
10820SOL    HW233360   1.530   4.770   5.518
10821SOL     OW33361   4.604   4.988   2.774
10821SOL    HW133362   4.543   5.033   2.839
10821SOL    HW233363   4.628   5.052   2.701
10822SOL     OW33364   5.827   2.601   0.859
10822SOL    HW133365   5.861   2.507   0.849
10822SOL    HW233366   5.817   2.622   0.957
10823SOL     OW33367   6.872   6.791   3.509
10823SOL    HW133368   6.883   6.789   3.608
10823SOL    HW233369   6.912   6.708   3.469
10824SOL     OW33370   1.350   1.170   4.492
10824SOL    HW133371   1.259   1.181   4.533
10824SOL    HW233372   1.392   1.260   4.479
10825SOL     OW33373   1.569   1.833   0.636
10825SOL    HW133374   1.577   1.868   0.543
10825SOL    HW233375   1.573   1.908   0.701
10826SOL     OW33376   1.779   1.951   2.376
10826SOL    HW133377   1.686   1.917   2.360
10826SOL    HW233378   1.778   2.010   2.457
10827SOL     OW33379   6.796   3.208   5.470
10827SOL    HW133380   6.696   3.211   5.470
10827SOL    HW233381   6.831   3.247   5.555
10828SOL     OW33382   6.585   3.821   6.587
10828SOL    HW133383   6.504   3.777   6.627
10828SOL    HW233384   6.556   3.892   6.524
10829SOL     OW33385   4.554   3.299   6.352
10829SOL    HW133386   4.506   3.247   6.282
10829SOL    HW233387   4.509   3.285   6.441
10830SOL     OW33388   5.087   1.345   3.572
10830SOL    HW133389   5.038   1.293   3.502
10830SOL    HW233390   5.113   1.283   3.647
10831SOL     OW33391   3.761   0.865   2.629
10831SOL    HW133392   3.678   0.810   2.622
10831SOL    HW233393   3.793   0.864   2.724
10832SOL     OW33394   6.596   3.408   0.720
10832SOL    HW133395   6.613   3.361   0.633
10832SOL    HW233396   6.592   3.507   0.704
10833SOL     OW33397   0.578   0.941   0.798
10833SOL    HW133398   0.595   0.932   0.896
10833SOL    HW233399   0.664   0.955   0.750
10834SOL     OW33400   6.576   6.909   0.551
10834SOL    HW133401   6.608   6.891   0.644
10834SOL    HW233402   6.491   6.962   0.555
10835SOL     OW33403   6.463   2.985   5.805
10835SOL    HW133404   6.457   3.023   5.898
10835SOL    HW233405   6.558   2.987   5.775
10836SOL     OW33406   0.213   1.944   3.299
10836SOL    HW133407   0.305   1.906   3.301
10836SOL    HW233408   0.165   1.921   3.383
10837SOL     OW33409   6.850   4.141   2.530
10837SOL    HW133410   6.839   4.201   2.452
10837SOL    HW233411   6.869   4.048   2.499
10838SOL     OW33412   5.963   5.477   3.587
10838SOL    HW133413   5.901   5.415   3.539
10838SOL    HW233414   5.982   5.556   3.529
10839SOL     OW33415   4.788   3.982   0.294
10839SOL    HW133416   4.785   3.968   0.393
10839SOL    HW233417   4.738   3.909   0.248
10840SOL     OW33418   3.163   0.305   0.936
10840SOL    HW133419   3.245   0.325   0.990
10840SOL    HW233420   3.097   0.380   0.947
10841SOL     OW33421   0.963   4.680   4.643
10841SOL    HW133422   0.916   4.709   4.726
10841SOL    HW233423   0.900   4.686   4.565
10842SOL     OW33424   4.869   4.224   0.954
10842SOL    HW133425   4.912   4.291   0.893
10842SOL    HW233426   4.895   4.245   1.049
10843SOL     OW33427   1.695   1.862   0.983
10843SOL    HW133428   1.702   1.790   0.914
10843SOL    HW233429   1.722   1.826   1.072
10844SOL     OW33430   0.892   5.508   4.802
10844SOL    HW133431   0.987   5.497   4.773
10844SOL    HW233432   0.864   5.603   4.789
10845SOL     OW33433   4.439   6.459   4.949
10845SOL    HW133434   4.359   6.476   5.006
10845SOL    HW233435   4.514   6.518   4.980
10846SOL     OW33436   5.378   6.718   0.445
10846SOL    HW133437   5.477   6.732   0.442
10846SOL    HW233438   5.347   6.677   0.360
10847SOL     OW33439   1.720   1.710   0.230
10847SOL    HW133440   1.721   1.751   0.138
10847SOL    HW233441   1.775   1.626   0.229
10848SOL     OW33442   1.736   4.388   0.899
10848SOL    HW133443   1.736   4.487   0.884
10848SOL    HW233444   1.778   4.343   0.821
10849SOL     OW33445   2.659   5.810   4.436
10849SOL    HW133446   2.735   5.843   4.492
10849SOL    HW233447   2.653   5.710   4.443
10850SOL     OW33448   3.699   6.456   0.422
10850SOL    HW133449   3.797   6.468   0.405
10850SOL    HW233450   3.682   6.362   0.452
10851SOL     OW33451   2.504   4.780   1.932
10851SOL    HW133452   2.534   4.819   2.020
10851SOL    HW233453   2.406   4.797   1.921
10852SOL     OW33454   2.203   1.631   1.099
10852SOL    HW133455   2.180   1.534   1.101
10852SOL    HW233456   2.179   1.673   1.186
10853SOL     OW33457   2.041   2.167   6.385
10853SOL    HW133458   1.964   2.231   6.373
10853SOL    HW233459   2.033   2.121   6.473
10854SOL     OW33460   4.165   6.244   5.265
10854SOL    HW133461   4.206   6.215   5.179
10854SOL    HW233462   4.226   6.222   5.341
10855SOL     OW33463   3.213   1.326   1.090
10855SOL    HW133464   3.176   1.315   1.182
10855SOL    HW233465   3.143   1.303   1.023
10856SOL     OW33466   6.911   0.510   6.866
10856SOL    HW133467   6.841   0.556   6.921
10856SOL    HW233468   6.883   0.416   6.850
10857SOL     OW33469   6.654   1.240   2.513
10857SOL    HW133470   6.613   1.328   2.539
10857SOL    HW233471   6.750   1.239   2.538
10858SOL     OW33472   2.320   5.485   1.586
10858SOL    HW133473   2.241   5.451   1.637
10858SOL    HW233474   2.303   5.474   1.488
10859SOL     OW33475   1.049   5.565   4.121
10859SOL    HW133476   1.117   5.609   4.179
10859SOL    HW233477   0.960   5.608   4.135
10860SOL     OW33478   6.857   2.678   2.593
10860SOL    HW133479   6.786   2.747   2.609
10860SOL    HW233480   6.913   2.667   2.675
10861SOL     OW33481   3.470   2.911   4.437
10861SOL    HW133482   3.567   2.896   4.458
10861SOL    HW233483   3.456   2.907   4.338
10862SOL     OW33484   1.537   0.134   5.196
10862SOL    HW133485   1.591   0.077   5.135
10862SOL    HW233486   1.555   0.230   5.177
10863SOL     OW33487   3.296   5.947   4.713
10863SOL    HW133488   3.373   5.895   4.750
10863SOL    HW233489   3.278   5.917   4.619
10864SOL     OW33490   3.613   6.124   2.464
10864SOL    HW133491   3.581   6.201   2.521
10864SOL    HW233492   3.626   6.155   2.370
10865SOL     OW33493   6.294   1.862   6.452
10865SOL    HW133494   6.288   1.953   6.412
10865SOL    HW233495   6.336   1.799   6.387
10866SOL     OW33496   5.570   4.743   0.195
10866SOL    HW133497   5.524   4.750   0.106
10866SOL    HW233498   5.551   4.826   0.248
10867SOL     OW33499   3.156   3.519   0.532
10867SOL    HW133500   3.137   3.492   0.626
10867SOL    HW233501   3.224   3.458   0.493
10868SOL     OW33502   3.168   1.707   3.218
10868SOL    HW133503   3.224   1.750   3.289
10868SOL    HW233504   3.225   1.687   3.139
10869NA      NA33505   6.031   2.035   5.512
10870NA      NA33506   4.294   4.663   5.231
10871NA      NA33507   2.107   3.764   1.312
10872NA      NA33508   4.824   3.856   5.224
10873NA      NA33509   4.200   2.418   5.327
10874NA      NA33510   3.923   4.528   1.633
10875NA      NA33511   6.646   5.694   5.486
10876NA      NA33512   3.800   3.506   5.167
10877NA      NA33513   4.901   6.662   6.724
10878NA      NA33514   3.553   0.079   5.598
10879NA      NA33515   6.477   4.721   2.218
10880NA      NA33516   2.191   0.507   3.337
10881NA      NA33517   3.144   4.830   1.120
10882NA      NA33518   3.460   3.647   2.725
   7.02399   7.02399   7.02399
